<event>
 7    1  0.3189267E-013  0.7246159E+02  0.7816164E-02  0.1226708E+00
        -11   -1    0    0    0    0  0.00000000000E+00  0.00000000000E+00  0.45593999997E+02  0.45594000000E+02  0.51100000000E-03 0. -1.
         11   -1    0    0    0    0 -0.00000000000E+00 -0.00000000000E+00 -0.45593999997E+02  0.45594000000E+02  0.51100000000E-03 0.  1.
    9900012    2    1    2    0    0 -0.17033199087E+02 -0.77637708933E+01  0.52211937454E+00  0.72461585013E+02  0.70000019174E+02 0.  0.
         12    1    1    2    0    0  0.17033199087E+02  0.77637708933E+01 -0.52211937454E+00  0.18726414987E+02  0.00000000000E+00 0. -1.
         11    1    3    3    0    0 -0.10230989418E+01 -0.14770194978E+02 -0.97815520704E+01  0.17744975410E+02  0.51100000000E-03 0. -1.
        -11    1    3    3    0    0 -0.49994822623E+01 -0.10014069538E+01 -0.20454254823E+02  0.21080184520E+02  0.51100000000E-03 0.  1.
         12    1    3    3    0    0 -0.11010617883E+02  0.80078310387E+01  0.30757926267E+02  0.33636425083E+02  0.00000000000E+00 0. -1.
</event>
<event>
 7    1  0.3189267E-013  0.7246154E+02  0.7816164E-02  0.1226708E+00
        -11   -1    0    0    0    0  0.00000000000E+00  0.00000000000E+00  0.45593999997E+02  0.45594000000E+02  0.51100000000E-03 0.  1.
         11   -1    0    0    0    0 -0.00000000000E+00 -0.00000000000E+00 -0.45593999997E+02  0.45594000000E+02  0.51100000000E-03 0. -1.
    9900012    2    1    2    0    0 -0.14825795885E+02  0.27379775090E+01  0.11107628821E+02  0.72461543782E+02  0.69999965463E+02 0.  0.
         12    1    1    2    0    0  0.14825795885E+02 -0.27379775090E+01 -0.11107628821E+02  0.18726456218E+02  0.00000000000E+00 0. -1.
         11    1    3    3    0    0  0.47906497515E+01 -0.14238884455E+02  0.31821524140E+02  0.35189565988E+02  0.51100000000E-03 0. -1.
        -11    1    3    3    0    0  0.15308260971E+01 -0.20322370072E+01 -0.14922437988E+01  0.29496114336E+01  0.51100000000E-03 0.  1.
        -12    1    3    3    0    0 -0.21147271733E+02  0.19009098971E+02 -0.19221651520E+02  0.34322366361E+02  0.00000000000E+00 0.  1.
</event>
<event>
 7    1  0.3189267E-013  0.7246182E+02  0.7816164E-02  0.1226707E+00
        -11   -1    0    0    0    0  0.00000000000E+00  0.00000000000E+00  0.45593999997E+02  0.45594000000E+02  0.51100000000E-03 0. -1.
         11   -1    0    0    0    0 -0.00000000000E+00 -0.00000000000E+00 -0.45593999997E+02  0.45594000000E+02  0.51100000000E-03 0.  1.
    9900012    2    1    2    0    0 -0.28922384627E+01  0.18470775137E+02  0.10654104926E+01  0.72461823748E+02  0.70000330170E+02 0.  0.
         12    1    1    2    0    0  0.28922384627E+01 -0.18470775137E+02 -0.10654104926E+01  0.18726176252E+02  0.00000000000E+00 0. -1.
         11    1    3    3    0    0 -0.23676281196E+02  0.31003928186E+02  0.16779130994E+02  0.42465857950E+02  0.51100000000E-03 0. -1.
        -11    1    3    3    0    0  0.10274936585E+02 -0.17907526695E+01 -0.77047530368E+01  0.12967048106E+02  0.51100000000E-03 0.  1.
        -12    1    3    3    0    0  0.10509106148E+02 -0.10742400379E+02 -0.80089674645E+01  0.17028917693E+02  0.00000000000E+00 0.  1.
</event>
<event>
 7    1  0.3189267E-013  0.7246157E+02  0.7816164E-02  0.1226708E+00
        -11   -1    0    0    0    0  0.00000000000E+00  0.00000000000E+00  0.45593999997E+02  0.45594000000E+02  0.51100000000E-03 0.  1.
         11   -1    0    0    0    0 -0.00000000000E+00 -0.00000000000E+00 -0.45593999997E+02  0.45594000000E+02  0.51100000000E-03 0. -1.
    9900012    2    1    2    0    0 -0.17723024159E+02 -0.59034991471E+01  0.13123554809E+01  0.72461570430E+02  0.70000000177E+02 0.  0.
         12    1    1    2    0    0  0.17723024159E+02  0.59034991471E+01 -0.13123554809E+01  0.18726429570E+02  0.00000000000E+00 0. -1.
         11    1    3    3    0    0 -0.26885246673E+01 -0.29120545093E+02 -0.98897015107E+01  0.30871354160E+02  0.51100000000E-03 0. -1.
        -11    1    3    3    0    0 -0.66444207821E+01 -0.33863441724E+01  0.11484888686E+02  0.13693732974E+02  0.51100000000E-03 0.  1.
         12    1    3    3    0    0 -0.83900787098E+01  0.26603390118E+02 -0.28283169394E+00  0.27896483297E+02  0.00000000000E+00 0. -1.
</event>
<event>
 7    1  0.3189267E-013  0.7246156E+02  0.7816164E-02  0.1226708E+00
        -11   -1    0    0    0    0  0.00000000000E+00  0.00000000000E+00  0.45593999997E+02  0.45594000000E+02  0.51100000000E-03 0.  1.
         11   -1    0    0    0    0 -0.00000000000E+00 -0.00000000000E+00 -0.45593999997E+02  0.45594000000E+02  0.51100000000E-03 0. -1.
    9900012    2    1    2    0    0 -0.18592019761E+02  0.20221907522E+01  0.96281476183E+00  0.72461562365E+02  0.69999989671E+02 0.  0.
         12    1    1    2    0    0  0.18592019761E+02 -0.20221907522E+01 -0.96281476183E+00  0.18726437635E+02  0.00000000000E+00 0. -1.
         11    1    3    3    0    0 -0.18450331341E+02 -0.33460427853E+01  0.10028796190E+02  0.21264700379E+02  0.51100000000E-03 0. -1.
        -11    1    3    3    0    0  0.11702116062E+02  0.17299525308E+02  0.12122650939E+02  0.24148949506E+02  0.51100000000E-03 0.  1.
         12    1    3    3    0    0 -0.11843804482E+02 -0.11931291770E+02 -0.21188632367E+02  0.27047912480E+02  0.00000000000E+00 0. -1.
</event>
<event>
 7    1  0.3189267E-013  0.7246161E+02  0.7816164E-02  0.1226708E+00
        -11   -1    0    0    0    0  0.00000000000E+00  0.00000000000E+00  0.45593999997E+02  0.45594000000E+02  0.51100000000E-03 0.  1.
         11   -1    0    0    0    0 -0.00000000000E+00 -0.00000000000E+00 -0.45593999997E+02  0.45594000000E+02  0.51100000000E-03 0. -1.
    9900012    2    1    2    0    0  0.67645319999E+00 -0.57885893522E+01  0.17796408427E+02  0.72461614643E+02  0.70000057773E+02 0.  0.
         12    1    1    2    0    0 -0.67645319999E+00  0.57885893522E+01 -0.17796408427E+02  0.18726385357E+02  0.00000000000E+00 0. -1.
         11    1    3    3    0    0  0.99187508573E+00 -0.76259565777E+01 -0.51520379516E+01  0.92564855765E+01  0.51100000000E-03 0. -1.
        -11    1    3    3    0    0 -0.24751840512E+01 -0.28379214031E+02  0.13063904156E+02  0.31339622160E+02  0.51100000000E-03 0.  1.
         12    1    3    3    0    0  0.21597621655E+01  0.30216581257E+02  0.98845422231E+01  0.31865506907E+02  0.00000000000E+00 0. -1.
</event>
<event>
 7    1  0.3189267E-013  0.7246156E+02  0.7816164E-02  0.1226708E+00
        -11   -1    0    0    0    0  0.00000000000E+00  0.00000000000E+00  0.45593999997E+02  0.45594000000E+02  0.51100000000E-03 0.  1.
         11   -1    0    0    0    0 -0.00000000000E+00 -0.00000000000E+00 -0.45593999997E+02  0.45594000000E+02  0.51100000000E-03 0. -1.
    9900012    2    1    2    0    0 -0.32463275895E+01  0.13964101402E+01  0.18389965718E+02  0.72461562987E+02  0.69999990480E+02 0.  0.
         12    1    1    2    0    0  0.32463275895E+01 -0.13964101402E+01 -0.18389965718E+02  0.18726437013E+02  0.00000000000E+00 0. -1.
         11    1    3    3    0    0 -0.61968658642E+01 -0.10620462560E+02  0.11790941199E+02  0.17035893465E+02  0.51100000000E-03 0. -1.
        -11    1    3    3    0    0  0.28281553351E+02  0.79078514193E+01  0.32332857707E+01  0.29543772798E+02  0.51100000000E-03 0.  1.
         12    1    3    3    0    0 -0.25331015076E+02  0.41090212808E+01  0.33657387486E+01  0.25881896724E+02  0.00000000000E+00 0. -1.
</event>
<event>
 7    1  0.3189267E-013  0.7246161E+02  0.7816164E-02  0.1226708E+00
        -11   -1    0    0    0    0  0.00000000000E+00  0.00000000000E+00  0.45593999997E+02  0.45594000000E+02  0.51100000000E-03 0. -1.
         11   -1    0    0    0    0 -0.00000000000E+00 -0.00000000000E+00 -0.45593999997E+02  0.45594000000E+02  0.51100000000E-03 0.  1.
    9900012    2    1    2    0    0  0.15070429374E+02 -0.74004791334E+00 -0.11091079705E+02  0.72461613230E+02  0.70000055932E+02 0.  0.
         12    1    1    2    0    0 -0.15070429374E+02  0.74004791334E+00  0.11091079705E+02  0.18726386770E+02  0.00000000000E+00 0. -1.
         11    1    3    3    0    0  0.15476415080E+02  0.20139683626E+02 -0.23367731527E+02  0.34513434447E+02  0.51100000000E-03 0. -1.
        -11    1    3    3    0    0  0.64475473488E+01  0.55888233316E+01  0.36229802241E+01  0.92699406153E+01  0.51100000000E-03 0.  1.
         12    1    3    3    0    0 -0.68535330554E+01 -0.26468554871E+02  0.86536715982E+01  0.28678238168E+02  0.00000000000E+00 0. -1.
</event>
<event>
 7    1  0.3189267E-013  0.7246155E+02  0.7816164E-02  0.1226708E+00
        -11   -1    0    0    0    0  0.00000000000E+00  0.00000000000E+00  0.45593999997E+02  0.45594000000E+02  0.51100000000E-03 0.  1.
         11   -1    0    0    0    0 -0.00000000000E+00 -0.00000000000E+00 -0.45593999997E+02  0.45594000000E+02  0.51100000000E-03 0. -1.
    9900012    2    1    2    0    0  0.29357576726E+00 -0.14996159033E+02  0.11212005319E+02  0.72461547166E+02  0.69999969871E+02 0.  0.
         12    1    1    2    0    0 -0.29357576726E+00  0.14996159033E+02 -0.11212005319E+02  0.18726452834E+02  0.00000000000E+00 0. -1.
         11    1    3    3    0    0  0.11790677159E+02  0.40847715951E+01 -0.52131910892E+01  0.13523416301E+02  0.51100000000E-03 0. -1.
        -11    1    3    3    0    0  0.12419717161E+02 -0.27809403633E+02  0.43704962390E+01  0.30768710444E+02  0.51100000000E-03 0.  1.
         12    1    3    3    0    0 -0.23916818552E+02  0.87284730053E+01  0.12054700170E+02  0.28169420421E+02  0.00000000000E+00 0. -1.
</event>
<event>
 7    1  0.3189267E-013  0.7246158E+02  0.7816164E-02  0.1226708E+00
        -11   -1    0    0    0    0  0.00000000000E+00  0.00000000000E+00  0.45593999997E+02  0.45594000000E+02  0.51100000000E-03 0.  1.
         11   -1    0    0    0    0 -0.00000000000E+00 -0.00000000000E+00 -0.45593999997E+02  0.45594000000E+02  0.51100000000E-03 0. -1.
    9900012    2    1    2    0    0  0.11466005067E+02 -0.14121055810E+02  0.44503374323E+01  0.72461575017E+02  0.70000006152E+02 0.  0.
         12    1    1    2    0    0 -0.11466005067E+02  0.14121055810E+02 -0.44503374323E+01  0.18726424983E+02  0.00000000000E+00 0. -1.
         11    1    3    3    0    0  0.23569304789E+00  0.60592291998E+01  0.14309242412E+02  0.15541049783E+02  0.51100000000E-03 0. -1.
        -11    1    3    3    0    0 -0.56747017100E+01 -0.10488092457E+02  0.18800788409E+02  0.22263691696E+02  0.51100000000E-03 0.  1.
         12    1    3    3    0    0  0.16905013729E+02 -0.96921925524E+01 -0.28659693389E+02  0.34656833537E+02  0.00000000000E+00 0. -1.
</event>
<event>
 7    1  0.3189267E-013  0.7246160E+02  0.7816164E-02  0.1226708E+00
        -11   -1    0    0    0    0  0.00000000000E+00  0.00000000000E+00  0.45593999997E+02  0.45594000000E+02  0.51100000000E-03 0.  1.
         11   -1    0    0    0    0 -0.00000000000E+00 -0.00000000000E+00 -0.45593999997E+02  0.45594000000E+02  0.51100000000E-03 0. -1.
    9900012    2    1    2    0    0 -0.95449070792E+01 -0.16076802040E+02  0.10532250652E+01  0.72461598904E+02  0.70000037269E+02 0.  0.
         12    1    1    2    0    0  0.95449070792E+01  0.16076802040E+02 -0.10532250652E+01  0.18726401096E+02  0.00000000000E+00 0. -1.
         11    1    3    3    0    0 -0.20775947954E+02  0.20148545575E+01  0.73237906913E+01  0.22120975625E+02  0.51100000000E-03 0. -1.
        -11    1    3    3    0    0  0.33528224966E+01  0.89201629747E+01  0.13086153954E+02  0.16188210270E+02  0.51100000000E-03 0.  1.
         12    1    3    3    0    0  0.78782183779E+01 -0.27011819572E+02 -0.19356719580E+02  0.34152413008E+02  0.00000000000E+00 0. -1.
</event>
<event>
 7    1  0.3189267E-013  0.7246157E+02  0.7816164E-02  0.1226708E+00
        -11   -1    0    0    0    0  0.00000000000E+00  0.00000000000E+00  0.45593999997E+02  0.45594000000E+02  0.51100000000E-03 0.  1.
         11   -1    0    0    0    0 -0.00000000000E+00 -0.00000000000E+00 -0.45593999997E+02  0.45594000000E+02  0.51100000000E-03 0. -1.
    9900012    2    1    2    0    0 -0.95364955127E+01 -0.15022881017E+02  0.58350169505E+01  0.72461571522E+02  0.70000001600E+02 0.  0.
         12    1    1    2    0    0  0.95364955127E+01  0.15022881017E+02 -0.58350169505E+01  0.18726428478E+02  0.00000000000E+00 0. -1.
         11    1    3    3    0    0 -0.26063158972E+02 -0.23727435151E+00 -0.55792971624E+01  0.26654701495E+02  0.51100000000E-03 0. -1.
        -11    1    3    3    0    0 -0.38837048059E+01 -0.22065418283E+02  0.84044335660E+01  0.23929069160E+02  0.51100000000E-03 0.  1.
        -12    1    3    3    0    0  0.20410368265E+02  0.72798116176E+01  0.30098805470E+01  0.21877800868E+02  0.00000000000E+00 0.  1.
</event>
<event>
 7    1  0.3189267E-013  0.7246149E+02  0.7816164E-02  0.1226708E+00
        -11   -1    0    0    0    0  0.00000000000E+00  0.00000000000E+00  0.45593999997E+02  0.45594000000E+02  0.51100000000E-03 0.  1.
         11   -1    0    0    0    0 -0.00000000000E+00 -0.00000000000E+00 -0.45593999997E+02  0.45594000000E+02  0.51100000000E-03 0. -1.
    9900012    2    1    2    0    0  0.16107325693E+01 -0.10106961284E+02  0.15682377456E+02  0.72461492358E+02  0.69999898473E+02 0.  0.
         12    1    1    2    0    0 -0.16107325693E+01  0.10106961284E+02 -0.15682377456E+02  0.18726507642E+02  0.00000000000E+00 0. -1.
         11    1    3    3    0    0 -0.35597403090E+01 -0.10544186601E+00  0.13882917081E+02  0.14332419754E+02  0.51100000000E-03 0. -1.
        -11    1    3    3    0    0 -0.25385383797E+02 -0.10030234540E+02 -0.18408475743E+01  0.27357120380E+02  0.51100000000E-03 0.  1.
         12    1    3    3    0    0  0.30555856675E+02  0.28715122429E-01  0.36403079492E+01  0.30771952224E+02  0.00000000000E+00 0. -1.
</event>
<event>
 7    1  0.3189267E-013  0.7246146E+02  0.7816164E-02  0.1226708E+00
        -11   -1    0    0    0    0  0.00000000000E+00  0.00000000000E+00  0.45593999997E+02  0.45594000000E+02  0.51100000000E-03 0. -1.
         11   -1    0    0    0    0 -0.00000000000E+00 -0.00000000000E+00 -0.45593999997E+02  0.45594000000E+02  0.51100000000E-03 0.  1.
    9900012    2    1    2    0    0 -0.18356364146E+02  0.34489326658E+01  0.13535017097E+01  0.72461462464E+02  0.69999859531E+02 0.  0.
         12    1    1    2    0    0  0.18356364146E+02 -0.34489326658E+01 -0.13535017097E+01  0.18726537536E+02  0.00000000000E+00 0. -1.
         11    1    3    3    0    0 -0.41919751629E+02  0.15095709081E+00  0.45452783511E+01  0.42165719728E+02  0.51100000000E-03 0. -1.
        -11    1    3    3    0    0  0.43736284519E-01  0.35762208086E+01  0.43160188741E+01  0.56052910109E+01  0.51100000000E-03 0.  1.
        -12    1    3    3    0    0  0.23519651198E+02 -0.27824523361E+00 -0.75077955155E+01  0.24690451725E+02  0.00000000000E+00 0.  1.
</event>
<event>
 7    1  0.3189267E-013  0.7246155E+02  0.7816164E-02  0.1226708E+00
        -11   -1    0    0    0    0  0.00000000000E+00  0.00000000000E+00  0.45593999997E+02  0.45594000000E+02  0.51100000000E-03 0.  1.
         11   -1    0    0    0    0 -0.00000000000E+00 -0.00000000000E+00 -0.45593999997E+02  0.45594000000E+02  0.51100000000E-03 0. -1.
    9900012    2    1    2    0    0  0.14970795584E+02 -0.64939811633E+01  0.91860454587E+01  0.72461549644E+02  0.69999973099E+02 0.  0.
         12    1    1    2    0    0 -0.14970795584E+02  0.64939811633E+01 -0.91860454587E+01  0.18726450356E+02  0.00000000000E+00 0. -1.
         11    1    3    3    0    0 -0.12987745143E+01  0.35244481603E+01 -0.21186505464E+02  0.21516890206E+02  0.51100000000E-03 0. -1.
        -11    1    3    3    0    0 -0.21421550115E+01  0.10675372850E+02  0.15981939453E+01  0.11004846102E+02  0.51100000000E-03 0.  1.
        -12    1    3    3    0    0  0.18411725110E+02 -0.20693802173E+02  0.28774356978E+02  0.39939813337E+02  0.00000000000E+00 0.  1.
</event>
<event>
 7    1  0.3189267E-013  0.7246162E+02  0.7816164E-02  0.1226708E+00
        -11   -1    0    0    0    0  0.00000000000E+00  0.00000000000E+00  0.45593999997E+02  0.45594000000E+02  0.51100000000E-03 0. -1.
         11   -1    0    0    0    0 -0.00000000000E+00 -0.00000000000E+00 -0.45593999997E+02  0.45594000000E+02  0.51100000000E-03 0.  1.
    9900012    2    1    2    0    0  0.46336778793E+01 -0.78195540827E+01 -0.16372565733E+02  0.72461620067E+02  0.70000064837E+02 0.  0.
         12    1    1    2    0    0 -0.46336778793E+01  0.78195540827E+01  0.16372565733E+02  0.18726379933E+02  0.00000000000E+00 0. -1.
         11    1    3    3    0    0  0.58444237081E+01  0.12115909002E+02  0.94751341952E+00  0.13485188963E+02  0.51100000000E-03 0. -1.
        -11    1    3    3    0    0 -0.10130194316E+01  0.17829419482E+02 -0.11509769794E+01  0.17895227176E+02  0.51100000000E-03 0.  1.
        -12    1    3    3    0    0 -0.19772639719E+00 -0.37764882567E+02 -0.16169102173E+02  0.41081203927E+02  0.00000000000E+00 0.  1.
</event>
<event>
 7    1  0.3189267E-013  0.7246162E+02  0.7816164E-02  0.1226708E+00
        -11   -1    0    0    0    0  0.00000000000E+00  0.00000000000E+00  0.45593999997E+02  0.45594000000E+02  0.51100000000E-03 0.  1.
         11   -1    0    0    0    0 -0.00000000000E+00 -0.00000000000E+00 -0.45593999997E+02  0.45594000000E+02  0.51100000000E-03 0. -1.
    9900012    2    1    2    0    0 -0.12508561312E+02  0.13887974727E+02 -0.11564317405E+01  0.72461620679E+02  0.70000065635E+02 0.  0.
         12    1    1    2    0    0  0.12508561312E+02 -0.13887974727E+02  0.11564317405E+01  0.18726379321E+02  0.00000000000E+00 0. -1.
         11    1    3    3    0    0 -0.11589192283E+01  0.44273100740E+01 -0.21708822135E+02  0.22185966894E+02  0.51100000000E-03 0. -1.
        -11    1    3    3    0    0  0.29366648881E+01  0.20904065687E+02 -0.20297774875E+01  0.21206696108E+02  0.51100000000E-03 0.  1.
        -12    1    3    3    0    0 -0.14286306972E+02 -0.11443401034E+02  0.22582167882E+02  0.29068957676E+02  0.00000000000E+00 0.  1.
</event>
<event>
 7    1  0.3189267E-013  0.7246155E+02  0.7816164E-02  0.1226708E+00
        -11   -1    0    0    0    0  0.00000000000E+00  0.00000000000E+00  0.45593999997E+02  0.45594000000E+02  0.51100000000E-03 0. -1.
         11   -1    0    0    0    0 -0.00000000000E+00 -0.00000000000E+00 -0.45593999997E+02  0.45594000000E+02  0.51100000000E-03 0.  1.
    9900012    2    1    2    0    0 -0.77629610026E+01 -0.57268557720E+01 -0.16050523649E+02  0.72461554796E+02  0.69999979811E+02 0.  0.
         12    1    1    2    0    0  0.77629610026E+01  0.57268557720E+01  0.16050523649E+02  0.18726445204E+02  0.00000000000E+00 0. -1.
         11    1    3    3    0    0  0.75860552918E+01  0.13794291217E+01  0.10395298440E+02  0.12942692514E+02  0.51100000000E-03 0. -1.
        -11    1    3    3    0    0  0.94633927694E+01 -0.16863821514E+02  0.32514115287E+01  0.19609078407E+02  0.51100000000E-03 0.  1.
        -12    1    3    3    0    0 -0.24812409064E+02  0.97575366205E+01 -0.29697233618E+02  0.39909783876E+02  0.00000000000E+00 0.  1.
</event>
<event>
 7    1  0.3189267E-013  0.7246155E+02  0.7816164E-02  0.1226708E+00
        -11   -1    0    0    0    0  0.00000000000E+00  0.00000000000E+00  0.45593999997E+02  0.45594000000E+02  0.51100000000E-03 0. -1.
         11   -1    0    0    0    0 -0.00000000000E+00 -0.00000000000E+00 -0.45593999997E+02  0.45594000000E+02  0.51100000000E-03 0.  1.
    9900012    2    1    2    0    0 -0.15409605399E+02 -0.88246220634E+01  0.59456026905E+01  0.72461545865E+02  0.69999968176E+02 0.  0.
         12    1    1    2    0    0  0.15409605399E+02  0.88246220634E+01 -0.59456026905E+01  0.18726454135E+02  0.00000000000E+00 0. -1.
         11    1    3    3    0    0 -0.14884988585E+02  0.19218177586E+02  0.18591842478E+02  0.30603232540E+02  0.51100000000E-03 0. -1.
        -11    1    3    3    0    0  0.12990969117E+02 -0.70052555947E+01 -0.30248455711E+01  0.15066140035E+02  0.51100000000E-03 0.  1.
        -12    1    3    3    0    0 -0.13515585932E+02 -0.21037544055E+02 -0.96213942168E+01  0.26792173290E+02  0.00000000000E+00 0.  1.
</event>
<event>
 7    1  0.3189267E-013  0.7246159E+02  0.7816164E-02  0.1226708E+00
        -11   -1    0    0    0    0  0.00000000000E+00  0.00000000000E+00  0.45593999997E+02  0.45594000000E+02  0.51100000000E-03 0.  1.
         11   -1    0    0    0    0 -0.00000000000E+00 -0.00000000000E+00 -0.45593999997E+02  0.45594000000E+02  0.51100000000E-03 0. -1.
    9900012    2    1    2    0    0 -0.15514751681E+02  0.59235282858E+00 -0.10469961109E+02  0.72461588512E+02  0.70000023732E+02 0.  0.
         12    1    1    2    0    0  0.15514751681E+02 -0.59235282858E+00  0.10469961109E+02  0.18726411488E+02  0.00000000000E+00 0. -1.
         11    1    3    3    0    0  0.55917784469E+01  0.25143813692E+00 -0.35344070645E+01  0.66199124537E+01  0.51100000000E-03 0. -1.
        -11    1    3    3    0    0  0.99718089541E+01  0.37842826375E+01  0.21229753915E+02  0.23758371586E+02  0.51100000000E-03 0.  1.
        -12    1    3    3    0    0 -0.31078339082E+02 -0.34433679458E+01 -0.28165307959E+02  0.42083304472E+02  0.00000000000E+00 0.  1.
</event>
<event>
 7    1  0.3189267E-013  0.7246163E+02  0.7816164E-02  0.1226708E+00
        -11   -1    0    0    0    0  0.00000000000E+00  0.00000000000E+00  0.45593999997E+02  0.45594000000E+02  0.51100000000E-03 0.  1.
         11   -1    0    0    0    0 -0.00000000000E+00 -0.00000000000E+00 -0.45593999997E+02  0.45594000000E+02  0.51100000000E-03 0. -1.
    9900012    2    1    2    0    0 -0.93291466506E+01 -0.12142688345E+02  0.10779571603E+02  0.72461627649E+02  0.70000074715E+02 0.  0.
         12    1    1    2    0    0  0.93291466506E+01  0.12142688345E+02 -0.10779571603E+02  0.18726372351E+02  0.00000000000E+00 0. -1.
         11    1    3    3    0    0  0.87690765020E+00 -0.10677176762E+02  0.52379800461E+01  0.11925078862E+02  0.51100000000E-03 0. -1.
        -11    1    3    3    0    0 -0.24612741898E+01 -0.30304540628E+02  0.20731600700E+01  0.30474924876E+02  0.51100000000E-03 0.  1.
        -12    1    3    3    0    0 -0.77447801110E+01  0.28839029044E+02  0.34684314873E+01  0.30061623911E+02  0.00000000000E+00 0.  1.
</event>
<event>
 7    1  0.3189267E-013  0.7246159E+02  0.7816164E-02  0.1226708E+00
        -11   -1    0    0    0    0  0.00000000000E+00  0.00000000000E+00  0.45593999997E+02  0.45594000000E+02  0.51100000000E-03 0.  1.
         11   -1    0    0    0    0 -0.00000000000E+00 -0.00000000000E+00 -0.45593999997E+02  0.45594000000E+02  0.51100000000E-03 0. -1.
    9900012    2    1    2    0    0 -0.60582994182E-01 -0.99338611896E+01  0.15874297263E+02  0.72461585980E+02  0.70000020434E+02 0.  0.
         12    1    1    2    0    0  0.60582994182E-01  0.99338611896E+01 -0.15874297263E+02  0.18726414020E+02  0.00000000000E+00 0. -1.
         11    1    3    3    0    0 -0.19773592276E+02 -0.26855916721E+01 -0.78517904490E+00  0.19970574867E+02  0.51100000000E-03 0. -1.
        -11    1    3    3    0    0 -0.11214032701E+02  0.94177678687E+01  0.50793551117E+01  0.15499959021E+02  0.51100000000E-03 0.  1.
         12    1    3    3    0    0  0.30927041983E+02 -0.16666037386E+02  0.11580121196E+02  0.36991052092E+02  0.00000000000E+00 0. -1.
</event>
<event>
 7    1  0.3189267E-013  0.7246155E+02  0.7816164E-02  0.1226708E+00
        -11   -1    0    0    0    0  0.00000000000E+00  0.00000000000E+00  0.45593999997E+02  0.45594000000E+02  0.51100000000E-03 0. -1.
         11   -1    0    0    0    0 -0.00000000000E+00 -0.00000000000E+00 -0.45593999997E+02  0.45594000000E+02  0.51100000000E-03 0.  1.
    9900012    2    1    2    0    0 -0.37253648596E+01  0.91131550156E+00 -0.18329509681E+02  0.72461554410E+02  0.69999979307E+02 0.  0.
         12    1    1    2    0    0  0.37253648596E+01 -0.91131550156E+00  0.18329509681E+02  0.18726445590E+02  0.00000000000E+00 0. -1.
         11    1    3    3    0    0  0.78582896273E+01  0.10862636137E+02 -0.24899313936E+01  0.13636324223E+02  0.51100000000E-03 0. -1.
        -11    1    3    3    0    0 -0.16774616668E+02  0.15332978971E+01 -0.33284373395E+02  0.37303998169E+02  0.51100000000E-03 0.  1.
        -12    1    3    3    0    0  0.51909621814E+01 -0.11484618533E+02  0.17444795108E+02  0.21521232018E+02  0.00000000000E+00 0.  1.
</event>
<event>
 7    1  0.3189267E-013  0.7246157E+02  0.7816164E-02  0.1226708E+00
        -11   -1    0    0    0    0  0.00000000000E+00  0.00000000000E+00  0.45593999997E+02  0.45594000000E+02  0.51100000000E-03 0. -1.
         11   -1    0    0    0    0 -0.00000000000E+00 -0.00000000000E+00 -0.45593999997E+02  0.45594000000E+02  0.51100000000E-03 0.  1.
    9900012    2    1    2    0    0  0.43212509321E+01 -0.65128318637E+01 -0.17017310225E+02  0.72461573864E+02  0.70000004651E+02 0.  0.
         12    1    1    2    0    0 -0.43212509321E+01  0.65128318637E+01  0.17017310225E+02  0.18726426136E+02  0.00000000000E+00 0. -1.
         11    1    3    3    0    0 -0.47405868137E+01  0.40844332852E-01 -0.93276968811E+01  0.10463305451E+02  0.51100000000E-03 0. -1.
        -11    1    3    3    0    0  0.10704361111E+02 -0.32565322357E+02  0.16312257191E+01  0.34318281784E+02  0.51100000000E-03 0.  1.
         12    1    3    3    0    0 -0.16425233651E+01  0.26011646160E+02 -0.93208390633E+01  0.27679986629E+02  0.00000000000E+00 0. -1.
</event>
<event>
 7    1  0.3189267E-013  0.7246168E+02  0.7816164E-02  0.1226708E+00
        -11   -1    0    0    0    0  0.00000000000E+00  0.00000000000E+00  0.45593999997E+02  0.45594000000E+02  0.51100000000E-03 0. -1.
         11   -1    0    0    0    0 -0.00000000000E+00 -0.00000000000E+00 -0.45593999997E+02  0.45594000000E+02  0.51100000000E-03 0.  1.
    9900012    2    1    2    0    0  0.69201287389E+01  0.17334932585E+02 -0.15123266179E+01  0.72461676248E+02  0.70000138024E+02 0.  0.
         12    1    1    2    0    0 -0.69201287389E+01 -0.17334932585E+02  0.15123266179E+01  0.18726323752E+02  0.00000000000E+00 0. -1.
         11    1    3    3    0    0 -0.44929540796E+00  0.10643446605E+02 -0.17552376730E+02  0.20532188172E+02  0.51100000000E-03 0. -1.
        -11    1    3    3    0    0  0.16321489643E+02  0.10474400256E+02 -0.11622486712E+02  0.22609429062E+02  0.51100000000E-03 0.  1.
         12    1    3    3    0    0 -0.89520654964E+01 -0.37829142758E+01  0.27662536824E+02  0.29320059014E+02  0.00000000000E+00 0. -1.
</event>
<event>
 7    1  0.3189267E-013  0.7246100E+02  0.7816164E-02  0.1226710E+00
        -11   -1    0    0    0    0  0.00000000000E+00  0.00000000000E+00  0.45593999997E+02  0.45594000000E+02  0.51100000000E-03 0. -1.
         11   -1    0    0    0    0 -0.00000000000E+00 -0.00000000000E+00 -0.45593999997E+02  0.45594000000E+02  0.51100000000E-03 0.  1.
    9900012    2    1    2    0    0  0.16803467552E+02 -0.58697238914E+01 -0.58215271040E+01  0.72461004562E+02  0.69999263024E+02 0.  0.
         12    1    1    2    0    0 -0.16803467552E+02  0.58697238914E+01  0.58215271040E+01  0.18726995438E+02  0.00000000000E+00 0. -1.
         11    1    3    3    0    0  0.80400879929E+01 -0.18481532568E+02  0.12787288440E+02  0.23868908792E+02  0.51100000000E-03 0. -1.
        -11    1    3    3    0    0  0.94991412540E+01  0.13869882832E+02  0.10254718397E+02  0.19691789761E+02  0.51100000000E-03 0.  1.
        -12    1    3    3    0    0 -0.73576169506E+00 -0.12580741551E+01 -0.28863533941E+02  0.28900306009E+02  0.00000000000E+00 0.  1.
</event>
<event>
 7    1  0.3189267E-013  0.7246160E+02  0.7816164E-02  0.1226708E+00
        -11   -1    0    0    0    0  0.00000000000E+00  0.00000000000E+00  0.45593999997E+02  0.45594000000E+02  0.51100000000E-03 0.  1.
         11   -1    0    0    0    0 -0.00000000000E+00 -0.00000000000E+00 -0.45593999997E+02  0.45594000000E+02  0.51100000000E-03 0. -1.
    9900012    2    1    2    0    0 -0.12845198692E+02 -0.90448591797E+01  0.10191632744E+02  0.72461601921E+02  0.70000041200E+02 0.  0.
         12    1    1    2    0    0  0.12845198692E+02  0.90448591797E+01 -0.10191632744E+02  0.18726398079E+02  0.00000000000E+00 0. -1.
         11    1    3    3    0    0  0.41931656410E+01 -0.70369794284E+01  0.65943577556E+01  0.10516048309E+02  0.51100000000E-03 0. -1.
        -11    1    3    3    0    0 -0.31900795371E+02 -0.77535657352E+01  0.20509336338E+02  0.38709319346E+02  0.51100000000E-03 0.  1.
         12    1    3    3    0    0  0.14862431037E+02  0.57456859838E+01 -0.16912061351E+02  0.23236234267E+02  0.00000000000E+00 0. -1.
</event>
<event>
 7    1  0.3189267E-013  0.7246162E+02  0.7816164E-02  0.1226708E+00
        -11   -1    0    0    0    0  0.00000000000E+00  0.00000000000E+00  0.45593999997E+02  0.45594000000E+02  0.51100000000E-03 0. -1.
         11   -1    0    0    0    0 -0.00000000000E+00 -0.00000000000E+00 -0.45593999997E+02  0.45594000000E+02  0.51100000000E-03 0.  1.
    9900012    2    1    2    0    0  0.10435115408E+01  0.17572924353E+02  0.63859749700E+01  0.72461621200E+02  0.70000066314E+02 0.  0.
         12    1    1    2    0    0 -0.10435115408E+01 -0.17572924353E+02 -0.63859749700E+01  0.18726378800E+02  0.00000000000E+00 0. -1.
         11    1    3    3    0    0 -0.97074093637E+01 -0.16701239174E+02  0.10411135728E+02  0.21944405527E+02  0.51100000000E-03 0. -1.
        -11    1    3    3    0    0 -0.12174928966E+02  0.49847492228E+01 -0.71536639233E+00  0.13175293905E+02  0.51100000000E-03 0.  1.
        -12    1    3    3    0    0  0.22925849871E+02  0.29289414304E+02 -0.33097943656E+01  0.37341921768E+02  0.00000000000E+00 0.  1.
</event>
<event>
 7    1  0.3189267E-013  0.7246157E+02  0.7816164E-02  0.1226708E+00
        -11   -1    0    0    0    0  0.00000000000E+00  0.00000000000E+00  0.45593999997E+02  0.45594000000E+02  0.51100000000E-03 0.  1.
         11   -1    0    0    0    0 -0.00000000000E+00 -0.00000000000E+00 -0.45593999997E+02  0.45594000000E+02  0.51100000000E-03 0. -1.
    9900012    2    1    2    0    0 -0.40825529661E+01  0.90640530947E+01  0.15869941136E+02  0.72461566039E+02  0.69999994457E+02 0.  0.
         12    1    1    2    0    0  0.40825529661E+01 -0.90640530947E+01 -0.15869941136E+02  0.18726433961E+02  0.00000000000E+00 0. -1.
         11    1    3    3    0    0  0.18160384921E+01  0.13975554998E+02  0.23666636478E+02  0.27544941746E+02  0.51100000000E-03 0.  1.
        -11    1    3    3    0    0 -0.16104700075E+02 -0.53432954926E+01  0.13245649596E+02  0.21525784648E+02  0.51100000000E-03 0. -1.
        -12    1    3    3    0    0  0.10206108617E+02  0.43179358892E+00 -0.21042344939E+02  0.23390839646E+02  0.00000000000E+00 0.  1.
</event>
<event>
 7    1  0.3189267E-013  0.7246154E+02  0.7816164E-02  0.1226708E+00
        -11   -1    0    0    0    0  0.00000000000E+00  0.00000000000E+00  0.45593999997E+02  0.45594000000E+02  0.51100000000E-03 0. -1.
         11   -1    0    0    0    0 -0.00000000000E+00 -0.00000000000E+00 -0.45593999997E+02  0.45594000000E+02  0.51100000000E-03 0.  1.
    9900012    2    1    2    0    0 -0.48105021599E+01  0.12119323508E+02 -0.13441027153E+02  0.72461544269E+02  0.69999966097E+02 0.  0.
         12    1    1    2    0    0  0.48105021599E+01 -0.12119323508E+02  0.13441027153E+02  0.18726455731E+02  0.00000000000E+00 0. -1.
         11    1    3    3    0    0  0.15548533025E+02 -0.83560353673E+01 -0.10771461596E+02  0.20678602261E+02  0.51100000000E-03 0. -1.
        -11    1    3    3    0    0  0.10070692771E+02 -0.15741581228E+01 -0.90929002430E+01  0.13659343388E+02  0.51100000000E-03 0.  1.
        -12    1    3    3    0    0 -0.30429727956E+02  0.22049516998E+02  0.64233346861E+01  0.38123598621E+02  0.00000000000E+00 0.  1.
</event>
<event>
 7    1  0.3189267E-013  0.7246146E+02  0.7816164E-02  0.1226708E+00
        -11   -1    0    0    0    0  0.00000000000E+00  0.00000000000E+00  0.45593999997E+02  0.45594000000E+02  0.51100000000E-03 0. -1.
         11   -1    0    0    0    0 -0.00000000000E+00 -0.00000000000E+00 -0.45593999997E+02  0.45594000000E+02  0.51100000000E-03 0.  1.
    9900012    2    1    2    0    0  0.16394019959E+02  0.64498656309E+01 -0.63496967907E+01  0.72461459839E+02  0.69999856111E+02 0.  0.
         12    1    1    2    0    0 -0.16394019959E+02 -0.64498656309E+01  0.63496967907E+01  0.18726540161E+02  0.00000000000E+00 0. -1.
         11    1    3    3    0    0 -0.19258453573E+02 -0.26749880873E+01 -0.66061874054E+01  0.20534977663E+02  0.51100000000E-03 0. -1.
        -11    1    3    3    0    0  0.77503647562E+01 -0.62500746402E+01 -0.13872923981E+02  0.17075995049E+02  0.51100000000E-03 0.  1.
        -12    1    3    3    0    0  0.27902108776E+02  0.15374928359E+02  0.14129414596E+02  0.34850487127E+02  0.00000000000E+00 0.  1.
</event>
<event>
 7    1  0.3189267E-013  0.7246153E+02  0.7816164E-02  0.1226708E+00
        -11   -1    0    0    0    0  0.00000000000E+00  0.00000000000E+00  0.45593999997E+02  0.45594000000E+02  0.51100000000E-03 0.  1.
         11   -1    0    0    0    0 -0.00000000000E+00 -0.00000000000E+00 -0.45593999997E+02  0.45594000000E+02  0.51100000000E-03 0. -1.
    9900012    2    1    2    0    0 -0.93672824977E+01  0.61987596369E+01  0.14983663448E+02  0.72461527488E+02  0.69999944237E+02 0.  0.
         12    1    1    2    0    0  0.93672824977E+01 -0.61987596369E+01 -0.14983663448E+02  0.18726472512E+02  0.00000000000E+00 0. -1.
         11    1    3    3    0    0 -0.19502517171E+02  0.12297828455E+02 -0.53638265997E+01  0.23671827069E+02  0.51100000000E-03 0. -1.
        -11    1    3    3    0    0 -0.13993342729E+02  0.99261759730E+00 -0.31430037241E+01  0.14376279181E+02  0.51100000000E-03 0.  1.
        -12    1    3    3    0    0  0.24128577402E+02 -0.70916864158E+01  0.23490493771E+02  0.34413421238E+02  0.00000000000E+00 0.  1.
</event>
<event>
 7    1  0.3189267E-013  0.7246157E+02  0.7816164E-02  0.1226708E+00
        -11   -1    0    0    0    0  0.00000000000E+00  0.00000000000E+00  0.45593999997E+02  0.45594000000E+02  0.51100000000E-03 0. -1.
         11   -1    0    0    0    0 -0.00000000000E+00 -0.00000000000E+00 -0.45593999997E+02  0.45594000000E+02  0.51100000000E-03 0.  1.
    9900012    2    1    2    0    0 -0.92360010437E+01 -0.92439509838E+01 -0.13413607000E+02  0.72461569539E+02  0.69999999015E+02 0.  0.
         12    1    1    2    0    0  0.92360010437E+01  0.92439509838E+01  0.13413607000E+02  0.18726430461E+02  0.00000000000E+00 0. -1.
         11    1    3    3    0    0 -0.11071535458E+01  0.79621500792E+00 -0.95971368040E+01  0.96935433361E+01  0.51100000000E-03 0. -1.
        -11    1    3    3    0    0  0.84468832930E+00  0.11709508880E+02 -0.27182062001E+02  0.29608961338E+02  0.51100000000E-03 0.  1.
         12    1    3    3    0    0 -0.89735358273E+01 -0.21749674872E+02  0.23365591805E+02  0.33159064865E+02  0.00000000000E+00 0. -1.
</event>
<event>
 7    1  0.3189267E-013  0.7246157E+02  0.7816164E-02  0.1226708E+00
        -11   -1    0    0    0    0  0.00000000000E+00  0.00000000000E+00  0.45593999997E+02  0.45594000000E+02  0.51100000000E-03 0. -1.
         11   -1    0    0    0    0 -0.00000000000E+00 -0.00000000000E+00 -0.45593999997E+02  0.45594000000E+02  0.51100000000E-03 0.  1.
    9900012    2    1    2    0    0  0.14064721705E+02 -0.76670136424E+01 -0.96994672068E+01  0.72461570577E+02  0.70000000368E+02 0.  0.
         12    1    1    2    0    0 -0.14064721705E+02  0.76670136424E+01  0.96994672068E+01  0.18726429423E+02  0.00000000000E+00 0. -1.
         11    1    3    3    0    0  0.11812727721E+02  0.11866327078E+01  0.14651797378E+02  0.18857990351E+02  0.51100000000E-03 0. -1.
        -11    1    3    3    0    0  0.15227594994E+02  0.14058087107E+02 -0.62340331346E+01  0.21641918395E+02  0.51100000000E-03 0.  1.
        -12    1    3    3    0    0 -0.12975601010E+02 -0.22911733458E+02 -0.18117231450E+02  0.31961661831E+02  0.00000000000E+00 0.  1.
</event>
<event>
 7    1  0.3189267E-013  0.7246158E+02  0.7816164E-02  0.1226708E+00
        -11   -1    0    0    0    0  0.00000000000E+00  0.00000000000E+00  0.45593999997E+02  0.45594000000E+02  0.51100000000E-03 0.  1.
         11   -1    0    0    0    0 -0.00000000000E+00 -0.00000000000E+00 -0.45593999997E+02  0.45594000000E+02  0.51100000000E-03 0. -1.
    9900012    2    1    2    0    0  0.69228328962E+01 -0.15524738929E+02 -0.78572035040E+01  0.72461580667E+02  0.70000013512E+02 0.  0.
         12    1    1    2    0    0 -0.69228328962E+01  0.15524738929E+02  0.78572035040E+01  0.18726419333E+02  0.00000000000E+00 0. -1.
         11    1    3    3    0    0 -0.15145687344E+02  0.14275547301E+02  0.32658231112E+01  0.21067716932E+02  0.51100000000E-03 0. -1.
        -11    1    3    3    0    0 -0.55283084481E+01 -0.28853652812E+01  0.65002407414E+01  0.90078108917E+01  0.51100000000E-03 0.  1.
         12    1    3    3    0    0  0.27596828688E+02 -0.26914920949E+02 -0.17623267357E+02  0.42386052844E+02  0.00000000000E+00 0. -1.
</event>
<event>
 7    1  0.3189267E-013  0.7246158E+02  0.7816164E-02  0.1226708E+00
        -11   -1    0    0    0    0  0.00000000000E+00  0.00000000000E+00  0.45593999997E+02  0.45594000000E+02  0.51100000000E-03 0. -1.
         11   -1    0    0    0    0 -0.00000000000E+00 -0.00000000000E+00 -0.45593999997E+02  0.45594000000E+02  0.51100000000E-03 0.  1.
    9900012    2    1    2    0    0 -0.16229833297E+02 -0.90661187242E+01  0.22531724322E+01  0.72461580599E+02  0.70000013424E+02 0.  0.
         12    1    1    2    0    0  0.16229833297E+02  0.90661187242E+01 -0.22531724322E+01  0.18726419401E+02  0.00000000000E+00 0. -1.
         11    1    3    3    0    0 -0.30361112332E+02 -0.69564697473E+01 -0.18023692464E+02  0.35986707319E+02  0.51100000000E-03 0. -1.
        -11    1    3    3    0    0  0.21846253449E+01 -0.12380392995E+02  0.26769117531E+01  0.12853504402E+02  0.51100000000E-03 0.  1.
         12    1    3    3    0    0  0.11946653689E+02  0.10270744018E+02  0.17599953143E+02  0.23621368878E+02  0.00000000000E+00 0. -1.
</event>
<event>
 7    1  0.3189267E-013  0.7246158E+02  0.7816164E-02  0.1226708E+00
        -11   -1    0    0    0    0  0.00000000000E+00  0.00000000000E+00  0.45593999997E+02  0.45594000000E+02  0.51100000000E-03 0.  1.
         11   -1    0    0    0    0 -0.00000000000E+00 -0.00000000000E+00 -0.45593999997E+02  0.45594000000E+02  0.51100000000E-03 0. -1.
    9900012    2    1    2    0    0 -0.47724311962E+01  0.13152435463E+02  0.12446537398E+02  0.72461576120E+02  0.70000007590E+02 0.  0.
         12    1    1    2    0    0  0.47724311962E+01 -0.13152435463E+02 -0.12446537398E+02  0.18726423880E+02  0.00000000000E+00 0. -1.
         11    1    3    3    0    0 -0.76245629823E+01 -0.93303810645E+01  0.45582022757E+01  0.12882824990E+02  0.51100000000E-03 0. -1.
        -11    1    3    3    0    0 -0.12876156150E+02  0.44854895469E+01  0.26155370753E+02  0.29496074877E+02  0.51100000000E-03 0.  1.
         12    1    3    3    0    0  0.15728287936E+02  0.17997326980E+02 -0.18267035630E+02  0.30082676253E+02  0.00000000000E+00 0. -1.
</event>
<event>
 7    1  0.3189267E-013  0.7246145E+02  0.7816164E-02  0.1226708E+00
        -11   -1    0    0    0    0  0.00000000000E+00  0.00000000000E+00  0.45593999997E+02  0.45594000000E+02  0.51100000000E-03 0.  1.
         11   -1    0    0    0    0 -0.00000000000E+00 -0.00000000000E+00 -0.45593999997E+02  0.45594000000E+02  0.51100000000E-03 0. -1.
    9900012    2    1    2    0    0 -0.55192303984E+00  0.80021910141E+01  0.16921696440E+02  0.72461454924E+02  0.69999849709E+02 0.  0.
         12    1    1    2    0    0  0.55192303984E+00 -0.80021910141E+01 -0.16921696440E+02  0.18726545076E+02  0.00000000000E+00 0. -1.
         11    1    3    3    0    0  0.71437725234E+01  0.20317750827E+02  0.42649664584E+01  0.21955282364E+02  0.51100000000E-03 0. -1.
        -11    1    3    3    0    0  0.10853263318E+02 -0.14346322914E+02  0.22977940671E+02  0.29182118901E+02  0.51100000000E-03 0.  1.
         12    1    3    3    0    0 -0.18548958881E+02  0.20307631015E+01 -0.10321210690E+02  0.21324053659E+02  0.00000000000E+00 0. -1.
</event>
<event>
 7    1  0.3189267E-013  0.7246157E+02  0.7816164E-02  0.1226708E+00
        -11   -1    0    0    0    0  0.00000000000E+00  0.00000000000E+00  0.45593999997E+02  0.45594000000E+02  0.51100000000E-03 0.  1.
         11   -1    0    0    0    0 -0.00000000000E+00 -0.00000000000E+00 -0.45593999997E+02  0.45594000000E+02  0.51100000000E-03 0. -1.
    9900012    2    1    2    0    0  0.43092604357E+01  0.16184772666E+02 -0.83763051053E+01  0.72461572712E+02  0.70000003150E+02 0.  0.
         12    1    1    2    0    0 -0.43092604357E+01 -0.16184772666E+02  0.83763051053E+01  0.18726427288E+02  0.00000000000E+00 0. -1.
         11    1    3    3    0    0  0.12482163549E+02  0.14302869130E+02 -0.95839391245E+01  0.21265661560E+02  0.51100000000E-03 0. -1.
        -11    1    3    3    0    0  0.16907738797E+02  0.12988618743E+02  0.82748212546E+01  0.22870253936E+02  0.51100000000E-03 0.  1.
         12    1    3    3    0    0 -0.25080641909E+02 -0.11106715206E+02 -0.70671872354E+01  0.28325657215E+02  0.00000000000E+00 0. -1.
</event>
<event>
 7    1  0.3189267E-013  0.7246160E+02  0.7816164E-02  0.1226708E+00
        -11   -1    0    0    0    0  0.00000000000E+00  0.00000000000E+00  0.45593999997E+02  0.45594000000E+02  0.51100000000E-03 0.  1.
         11   -1    0    0    0    0 -0.00000000000E+00 -0.00000000000E+00 -0.45593999997E+02  0.45594000000E+02  0.51100000000E-03 0. -1.
    9900012    2    1    2    0    0  0.35031424168E+01  0.88452684899E+00  0.18374539721E+02  0.72461598730E+02  0.70000037043E+02 0.  0.
         12    1    1    2    0    0 -0.35031424168E+01 -0.88452684899E+00 -0.18374539721E+02  0.18726401270E+02  0.00000000000E+00 0. -1.
         11    1    3    3    0    0 -0.49702098146E+01 -0.26323646819E+02  0.23462779750E+02  0.35610944965E+02  0.51100000000E-03 0. -1.
        -11    1    3    3    0    0  0.28053859856E+01 -0.26055580293E+01  0.36294666008E+01  0.52756185647E+01  0.51100000000E-03 0.  1.
        -12    1    3    3    0    0  0.56679662457E+01  0.29813731697E+02 -0.87177066297E+01  0.31575035201E+02  0.00000000000E+00 0.  1.
</event>
<event>
 7    1  0.3189267E-013  0.7246158E+02  0.7816164E-02  0.1226708E+00
        -11   -1    0    0    0    0  0.00000000000E+00  0.00000000000E+00  0.45593999997E+02  0.45594000000E+02  0.51100000000E-03 0.  1.
         11   -1    0    0    0    0 -0.00000000000E+00 -0.00000000000E+00 -0.45593999997E+02  0.45594000000E+02  0.51100000000E-03 0. -1.
    9900012    2    1    2    0    0  0.94063714100E+01  0.30067478101E+01  0.15910948914E+02  0.72461584143E+02  0.70000018041E+02 0.  0.
         12    1    1    2    0    0 -0.94063714100E+01 -0.30067478101E+01 -0.15910948914E+02  0.18726415857E+02  0.00000000000E+00 0. -1.
         11    1    3    3    0    0 -0.22120730999E+02 -0.61221516157E+01 -0.33650054142E+01  0.23197645183E+02  0.51100000000E-03 0. -1.
        -11    1    3    3    0    0  0.19422703521E+01 -0.10298506843E+01 -0.76693423006E+01  0.79782089555E+01  0.51100000000E-03 0.  1.
        -12    1    3    3    0    0  0.29584832057E+02  0.10158750110E+02  0.26945296629E+02  0.41285730005E+02  0.00000000000E+00 0.  1.
</event>
<event>
 7    1  0.3189267E-013  0.7246154E+02  0.7816164E-02  0.1226708E+00
        -11   -1    0    0    0    0  0.00000000000E+00  0.00000000000E+00  0.45593999997E+02  0.45594000000E+02  0.51100000000E-03 0.  1.
         11   -1    0    0    0    0 -0.00000000000E+00 -0.00000000000E+00 -0.45593999997E+02  0.45594000000E+02  0.51100000000E-03 0. -1.
    9900012    2    1    2    0    0 -0.72520612659E+00 -0.17833642237E+02 -0.56670658981E+01  0.72461538635E+02  0.69999958758E+02 0.  0.
         12    1    1    2    0    0  0.72520612659E+00  0.17833642237E+02  0.56670658981E+01  0.18726461365E+02  0.00000000000E+00 0. -1.
         11    1    3    3    0    0 -0.10284046485E+01 -0.75139651009E+01  0.27530901451E+02  0.28556397228E+02  0.51100000000E-03 0. -1.
        -11    1    3    3    0    0 -0.10351970292E+02 -0.12500108928E+02 -0.12363459096E+02  0.20402723672E+02  0.51100000000E-03 0.  1.
         12    1    3    3    0    0  0.10655168814E+02  0.21804317922E+01 -0.20834508253E+02  0.23502417735E+02  0.00000000000E+00 0. -1.
</event>
<event>
 7    1  0.3189267E-013  0.7246160E+02  0.7816164E-02  0.1226708E+00
        -11   -1    0    0    0    0  0.00000000000E+00  0.00000000000E+00  0.45593999997E+02  0.45594000000E+02  0.51100000000E-03 0.  1.
         11   -1    0    0    0    0 -0.00000000000E+00 -0.00000000000E+00 -0.45593999997E+02  0.45594000000E+02  0.51100000000E-03 0. -1.
    9900012    2    1    2    0    0  0.16626630943E+02  0.17822325324E+01 -0.84295167835E+01  0.72461602522E+02  0.70000041982E+02 0.  0.
         12    1    1    2    0    0 -0.16626630943E+02 -0.17822325324E+01  0.84295167835E+01  0.18726397478E+02  0.00000000000E+00 0. -1.
         11    1    3    3    0    0 -0.92776804067E+01 -0.18630356036E+02 -0.24758427540E+02  0.32344168783E+02  0.51100000000E-03 0. -1.
        -11    1    3    3    0    0  0.12131685759E+02  0.64597463667E+01 -0.12291196797E+01  0.13799161494E+02  0.51100000000E-03 0.  1.
        -12    1    3    3    0    0  0.13772625590E+02  0.13952842201E+02  0.17558030436E+02  0.26318272245E+02  0.00000000000E+00 0.  1.
</event>
<event>
 7    1  0.3189267E-013  0.7246154E+02  0.7816164E-02  0.1226708E+00
        -11   -1    0    0    0    0  0.00000000000E+00  0.00000000000E+00  0.45593999997E+02  0.45594000000E+02  0.51100000000E-03 0. -1.
         11   -1    0    0    0    0 -0.00000000000E+00 -0.00000000000E+00 -0.45593999997E+02  0.45594000000E+02  0.51100000000E-03 0.  1.
    9900012    2    1    2    0    0  0.11887047048E+01  0.16516759180E+02  0.87443762397E+01  0.72461535612E+02  0.69999954819E+02 0.  0.
         12    1    1    2    0    0 -0.11887047048E+01 -0.16516759180E+02 -0.87443762397E+01  0.18726464388E+02  0.00000000000E+00 0. -1.
         11    1    3    3    0    0 -0.27480537603E+01 -0.38392428319E+01 -0.26492345240E+01  0.54138737348E+01  0.51100000000E-03 0. -1.
        -11    1    3    3    0    0 -0.14364857111E+02 -0.18002517119E+02  0.81204598351E+01  0.24420925671E+02  0.51100000000E-03 0.  1.
         12    1    3    3    0    0  0.18301615576E+02  0.38358519130E+02  0.32731509286E+01  0.42626736206E+02  0.00000000000E+00 0. -1.
</event>
<event>
 7    1  0.3189267E-013  0.7246157E+02  0.7816164E-02  0.1226708E+00
        -11   -1    0    0    0    0  0.00000000000E+00  0.00000000000E+00  0.45593999997E+02  0.45594000000E+02  0.51100000000E-03 0. -1.
         11   -1    0    0    0    0 -0.00000000000E+00 -0.00000000000E+00 -0.45593999997E+02  0.45594000000E+02  0.51100000000E-03 0.  1.
    9900012    2    1    2    0    0  0.17211695451E+02  0.50501063122E+01 -0.53789637005E+01  0.72461567223E+02  0.69999995999E+02 0.  0.
         12    1    1    2    0    0 -0.17211695451E+02 -0.50501063122E+01  0.53789637005E+01  0.18726432777E+02  0.00000000000E+00 0. -1.
         11    1    3    3    0    0  0.18761650894E+02 -0.12067328109E+02 -0.18913422053E+02  0.29246153354E+02  0.51100000000E-03 0. -1.
        -11    1    3    3    0    0  0.11930859380E+02  0.71748172366E+01 -0.79036979636E+01  0.16009117705E+02  0.51100000000E-03 0.  1.
         12    1    3    3    0    0 -0.13480814824E+02  0.99426171841E+01  0.21438156316E+02  0.27206296165E+02  0.00000000000E+00 0. -1.
</event>
<event>
 7    1  0.3189267E-013  0.7246159E+02  0.7816164E-02  0.1226708E+00
        -11   -1    0    0    0    0  0.00000000000E+00  0.00000000000E+00  0.45593999997E+02  0.45594000000E+02  0.51100000000E-03 0.  1.
         11   -1    0    0    0    0 -0.00000000000E+00 -0.00000000000E+00 -0.45593999997E+02  0.45594000000E+02  0.51100000000E-03 0. -1.
    9900012    2    1    2    0    0  0.13654521179E+01 -0.11900106971E+02  0.14394498276E+02  0.72461585874E+02  0.70000020295E+02 0.  0.
         12    1    1    2    0    0 -0.13654521179E+01  0.11900106971E+02 -0.14394498276E+02  0.18726414126E+02  0.00000000000E+00 0. -1.
         11    1    3    3    0    0  0.48782354018E+01 -0.17940634527E+01  0.21914830083E+02  0.22522780071E+02  0.51100000000E-03 0. -1.
        -11    1    3    3    0    0  0.21836696183E+02 -0.99032786754E+01 -0.26311322846E+01  0.24121340885E+02  0.51100000000E-03 0.  1.
         12    1    3    3    0    0 -0.25349479467E+02 -0.20276484319E+00 -0.48891995223E+01  0.25817464918E+02  0.00000000000E+00 0. -1.
</event>
<event>
 7    1  0.3189267E-013  0.7246184E+02  0.7816164E-02  0.1226707E+00
        -11   -1    0    0    0    0  0.00000000000E+00  0.00000000000E+00  0.45593999997E+02  0.45594000000E+02  0.51100000000E-03 0. -1.
         11   -1    0    0    0    0 -0.00000000000E+00 -0.00000000000E+00 -0.45593999997E+02  0.45594000000E+02  0.51100000000E-03 0.  1.
    9900012    2    1    2    0    0 -0.49741817040E+01 -0.17668696675E+02 -0.37072803202E+01  0.72461835064E+02  0.70000344911E+02 0.  0.
         12    1    1    2    0    0  0.49741817040E+01  0.17668696675E+02  0.37072803202E+01  0.18726164936E+02  0.00000000000E+00 0. -1.
         11    1    3    3    0    0 -0.76020478366E+01  0.15751926898E+01  0.13313733677E+02  0.15411939138E+02  0.51100000000E-03 0. -1.
        -11    1    3    3    0    0 -0.13539364428E+02 -0.23755091106E+01 -0.28031543491E+02  0.31220583970E+02  0.51100000000E-03 0.  1.
         12    1    3    3    0    0  0.16167230560E+02 -0.16868380255E+02  0.11010529494E+02  0.25829311957E+02  0.00000000000E+00 0. -1.
</event>
<event>
 7    1  0.3189267E-013  0.7246158E+02  0.7816164E-02  0.1226708E+00
        -11   -1    0    0    0    0  0.00000000000E+00  0.00000000000E+00  0.45593999997E+02  0.45594000000E+02  0.51100000000E-03 0. -1.
         11   -1    0    0    0    0 -0.00000000000E+00 -0.00000000000E+00 -0.45593999997E+02  0.45594000000E+02  0.51100000000E-03 0.  1.
    9900012    2    1    2    0    0 -0.18120985091E+02 -0.31718941714E+01  0.34996802724E+01  0.72461580819E+02  0.70000013711E+02 0.  0.
         12    1    1    2    0    0  0.18120985091E+02  0.31718941714E+01 -0.34996802724E+01  0.18726419181E+02  0.00000000000E+00 0. -1.
         11    1    3    3    0    0  0.18520899405E+01 -0.94557197088E+01 -0.36799909919E+01  0.10314223496E+02  0.51100000000E-03 0. -1.
        -11    1    3    3    0    0 -0.20756772535E+02  0.11197844778E+02  0.30356957712E+02  0.38441907023E+02  0.51100000000E-03 0.  1.
         12    1    3    3    0    0  0.78369750311E+00 -0.49140192404E+01 -0.23177286448E+02  0.23705450301E+02  0.00000000000E+00 0. -1.
</event>
<event>
 7    1  0.3189267E-013  0.7246125E+02  0.7816164E-02  0.1226709E+00
        -11   -1    0    0    0    0  0.00000000000E+00  0.00000000000E+00  0.45593999997E+02  0.45594000000E+02  0.51100000000E-03 0. -1.
         11   -1    0    0    0    0 -0.00000000000E+00 -0.00000000000E+00 -0.45593999997E+02  0.45594000000E+02  0.51100000000E-03 0.  1.
    9900012    2    1    2    0    0 -0.17966104829E+02 -0.45049241102E+01 -0.27596664902E+01  0.72461253804E+02  0.69999587711E+02 0.  0.
         12    1    1    2    0    0  0.17966104829E+02  0.45049241102E+01  0.27596664902E+01  0.18726746196E+02  0.00000000000E+00 0. -1.
         11    1    3    3    0    0  0.94526432633E+01  0.11449117643E+02 -0.20026130309E+01  0.14981495876E+02  0.51100000000E-03 0. -1.
        -11    1    3    3    0    0  0.70610706937E+01 -0.40792400602E+01 -0.15997353662E+02  0.17955897172E+02  0.51100000000E-03 0.  1.
         12    1    3    3    0    0 -0.34479818786E+02 -0.11874801693E+02  0.15240300203E+02  0.39523860756E+02  0.00000000000E+00 0. -1.
</event>
<event>
 7    1  0.3189267E-013  0.7246156E+02  0.7816164E-02  0.1226708E+00
        -11   -1    0    0    0    0  0.00000000000E+00  0.00000000000E+00  0.45593999997E+02  0.45594000000E+02  0.51100000000E-03 0.  1.
         11   -1    0    0    0    0 -0.00000000000E+00 -0.00000000000E+00 -0.45593999997E+02  0.45594000000E+02  0.51100000000E-03 0. -1.
    9900012    2    1    2    0    0 -0.13719454035E+02  0.15146585791E+01  0.12655508892E+02  0.72461561072E+02  0.69999987986E+02 0.  0.
         12    1    1    2    0    0  0.13719454035E+02 -0.15146585791E+01 -0.12655508892E+02  0.18726438928E+02  0.00000000000E+00 0. -1.
         11    1    3    3    0    0 -0.26615945480E+02  0.78466481803E+00 -0.16920570625E+02  0.31548850426E+02  0.51100000000E-03 0. -1.
        -11    1    3    3    0    0 -0.55355732264E+01  0.67150758685E+01  0.70676397134E+01  0.11210992206E+02  0.51100000000E-03 0.  1.
        -12    1    3    3    0    0  0.18432064671E+02 -0.59850821075E+01  0.22508439803E+02  0.29701718439E+02  0.00000000000E+00 0.  1.
</event>
<event>
 7    1  0.3189267E-013  0.7246157E+02  0.7816164E-02  0.1226708E+00
        -11   -1    0    0    0    0  0.00000000000E+00  0.00000000000E+00  0.45593999997E+02  0.45594000000E+02  0.51100000000E-03 0.  1.
         11   -1    0    0    0    0 -0.00000000000E+00 -0.00000000000E+00 -0.45593999997E+02  0.45594000000E+02  0.51100000000E-03 0. -1.
    9900012    2    1    2    0    0  0.12862575236E+02  0.11907378511E+02  0.65914763078E+01  0.72461573095E+02  0.70000003649E+02 0.  0.
         12    1    1    2    0    0 -0.12862575236E+02 -0.11907378511E+02 -0.65914763078E+01  0.18726426905E+02  0.00000000000E+00 0. -1.
         11    1    3    3    0    0 -0.17840743217E+01  0.10741777533E+02 -0.43994547722E+01  0.11744101000E+02  0.51100000000E-03 0. -1.
        -11    1    3    3    0    0 -0.17548270479E+02  0.76813537547E+01 -0.10126089785E+02  0.21667549167E+02  0.51100000000E-03 0.  1.
         12    1    3    3    0    0  0.32194920037E+02 -0.65157527769E+01  0.21117020865E+02  0.39049922928E+02  0.00000000000E+00 0. -1.
</event>
<event>
 7    1  0.3189267E-013  0.7246159E+02  0.7816164E-02  0.1226708E+00
        -11   -1    0    0    0    0  0.00000000000E+00  0.00000000000E+00  0.45593999997E+02  0.45594000000E+02  0.51100000000E-03 0.  1.
         11   -1    0    0    0    0 -0.00000000000E+00 -0.00000000000E+00 -0.45593999997E+02  0.45594000000E+02  0.51100000000E-03 0. -1.
    9900012    2    1    2    0    0 -0.17754931193E+02 -0.41602503444E+01  0.42582897167E+01  0.72461593620E+02  0.70000030386E+02 0.  0.
         12    1    1    2    0    0  0.17754931193E+02  0.41602503444E+01 -0.42582897167E+01  0.18726406380E+02  0.00000000000E+00 0. -1.
         11    1    3    3    0    0 -0.23091518749E+02 -0.99502767631E+01  0.88833757625E+01  0.26667219784E+02  0.51100000000E-03 0. -1.
        -11    1    3    3    0    0 -0.17550129011E+02  0.10674648658E+02  0.38607081945E+01  0.20901201408E+02  0.51100000000E-03 0.  1.
         12    1    3    3    0    0  0.22886716567E+02 -0.48846222397E+01 -0.84857942403E+01  0.24893172428E+02  0.00000000000E+00 0. -1.
</event>
<event>
 7    1  0.3189267E-013  0.7246156E+02  0.7816164E-02  0.1226708E+00
        -11   -1    0    0    0    0  0.00000000000E+00  0.00000000000E+00  0.45593999997E+02  0.45594000000E+02  0.51100000000E-03 0.  1.
         11   -1    0    0    0    0 -0.00000000000E+00 -0.00000000000E+00 -0.45593999997E+02  0.45594000000E+02  0.51100000000E-03 0. -1.
    9900012    2    1    2    0    0 -0.15526933523E+02  0.28595992210E+01 -0.10070581274E+02  0.72461559347E+02  0.69999985740E+02 0.  0.
         12    1    1    2    0    0  0.15526933523E+02 -0.28595992210E+01  0.10070581274E+02  0.18726440653E+02  0.00000000000E+00 0. -1.
         11    1    3    3    0    0  0.16632039945E+02 -0.65879502790E+01 -0.82909432484E+00  0.17908468367E+02  0.51100000000E-03 0. -1.
        -11    1    3    3    0    0  0.50057524788E+00 -0.13610647173E+02 -0.42273182079E+01  0.14260803327E+02  0.51100000000E-03 0.  1.
        -12    1    3    3    0    0 -0.32659548715E+02  0.23058196673E+02 -0.50141687413E+01  0.40292287653E+02  0.00000000000E+00 0.  1.
</event>
<event>
 7    1  0.3189267E-013  0.7246162E+02  0.7816164E-02  0.1226708E+00
        -11   -1    0    0    0    0  0.00000000000E+00  0.00000000000E+00  0.45593999997E+02  0.45594000000E+02  0.51100000000E-03 0.  1.
         11   -1    0    0    0    0 -0.00000000000E+00 -0.00000000000E+00 -0.45593999997E+02  0.45594000000E+02  0.51100000000E-03 0. -1.
    9900012    2    1    2    0    0 -0.20146916532E+01  0.18284345615E+02  0.35072817464E+01  0.72461620151E+02  0.70000064947E+02 0.  0.
         12    1    1    2    0    0  0.20146916532E+01 -0.18284345615E+02 -0.35072817464E+01  0.18726379849E+02  0.00000000000E+00 0. -1.
         11    1    3    3    0    0  0.14787273557E+02 -0.37705177508E+01 -0.13264924531E+02  0.20219754856E+02  0.51100000000E-03 0. -1.
        -11    1    3    3    0    0 -0.91168356109E+01  0.21733590729E+02 -0.90896481402E+01  0.25260391151E+02  0.51100000000E-03 0.  1.
        -12    1    3    3    0    0 -0.76851295988E+01  0.32127263642E+00  0.25861854418E+02  0.26981474144E+02  0.00000000000E+00 0.  1.
</event>
<event>
 7    1  0.3189267E-013  0.7246159E+02  0.7816164E-02  0.1226708E+00
        -11   -1    0    0    0    0  0.00000000000E+00  0.00000000000E+00  0.45593999997E+02  0.45594000000E+02  0.51100000000E-03 0.  1.
         11   -1    0    0    0    0 -0.00000000000E+00 -0.00000000000E+00 -0.45593999997E+02  0.45594000000E+02  0.51100000000E-03 0. -1.
    9900012    2    1    2    0    0  0.12484175943E+01 -0.18547094362E+02 -0.22638465814E+01  0.72461594656E+02  0.70000031736E+02 0.  0.
         12    1    1    2    0    0 -0.12484175943E+01  0.18547094362E+02  0.22638465814E+01  0.18726405344E+02  0.00000000000E+00 0. -1.
         11    1    3    3    0    0 -0.39080308794E-01 -0.37524831959E+01  0.58386000785E+01  0.69405985725E+01  0.51100000000E-03 0. -1.
        -11    1    3    3    0    0  0.73833763666E+01  0.17007255598E+02  0.16527160511E+02  0.24837633228E+02  0.51100000000E-03 0.  1.
         12    1    3    3    0    0 -0.60958784635E+01 -0.31801866764E+02 -0.24629607171E+02  0.40683362856E+02  0.00000000000E+00 0. -1.
</event>
<event>
 7    1  0.3189267E-013  0.7246184E+02  0.7816164E-02  0.1226707E+00
        -11   -1    0    0    0    0  0.00000000000E+00  0.00000000000E+00  0.45593999997E+02  0.45594000000E+02  0.51100000000E-03 0. -1.
         11   -1    0    0    0    0 -0.00000000000E+00 -0.00000000000E+00 -0.45593999997E+02  0.45594000000E+02  0.51100000000E-03 0.  1.
    9900012    2    1    2    0    0  0.13257971777E+02 -0.62758617802E+01 -0.11640823284E+02  0.72461841199E+02  0.70000352903E+02 0.  0.
         12    1    1    2    0    0 -0.13257971777E+02  0.62758617802E+01  0.11640823284E+02  0.18726158801E+02  0.00000000000E+00 0. -1.
         11    1    3    3    0    0  0.10288772881E+02  0.40097158759E+01 -0.38875684565E+00  0.11049334865E+02  0.51100000000E-03 0. -1.
        -11    1    3    3    0    0  0.77383310698E+01 -0.87786513968E+01 -0.35124035350E+02  0.37022214245E+02  0.51100000000E-03 0.  1.
        -12    1    3    3    0    0 -0.47691321740E+01 -0.15069262592E+01  0.23871968912E+02  0.24390292089E+02  0.00000000000E+00 0.  1.
</event>
<event>
 7    1  0.3189267E-013  0.7246154E+02  0.7816164E-02  0.1226708E+00
        -11   -1    0    0    0    0  0.00000000000E+00  0.00000000000E+00  0.45593999997E+02  0.45594000000E+02  0.51100000000E-03 0. -1.
         11   -1    0    0    0    0 -0.00000000000E+00 -0.00000000000E+00 -0.45593999997E+02  0.45594000000E+02  0.51100000000E-03 0.  1.
    9900012    2    1    2    0    0  0.97841108925E+01  0.13199231732E+01 -0.15912553206E+02  0.72461538170E+02  0.69999958152E+02 0.  0.
         12    1    1    2    0    0 -0.97841108925E+01 -0.13199231732E+01  0.15912553206E+02  0.18726461830E+02  0.00000000000E+00 0. -1.
         11    1    3    3    0    0  0.14508466259E+01 -0.11128010672E+02 -0.53690558432E+00  0.11235027606E+02  0.51100000000E-03 0.  1.
        -11    1    3    3    0    0  0.20146814116E+02  0.31141550492E+02 -0.82900266322E+01  0.38005457870E+02  0.51100000000E-03 0. -1.
         12    1    3    3    0    0 -0.11813549849E+02 -0.18693616647E+02 -0.70856209898E+01  0.23221052693E+02  0.00000000000E+00 0. -1.
</event>
<event>
 7    1  0.3189267E-013  0.7246150E+02  0.7816164E-02  0.1226708E+00
        -11   -1    0    0    0    0  0.00000000000E+00  0.00000000000E+00  0.45593999997E+02  0.45594000000E+02  0.51100000000E-03 0.  1.
         11   -1    0    0    0    0 -0.00000000000E+00 -0.00000000000E+00 -0.45593999997E+02  0.45594000000E+02  0.51100000000E-03 0. -1.
    9900012    2    1    2    0    0  0.17566252074E+01  0.18484916353E+02 -0.24298269323E+01  0.72461496760E+02  0.69999904208E+02 0.  0.
         12    1    1    2    0    0 -0.17566252074E+01 -0.18484916353E+02  0.24298269323E+01  0.18726503240E+02  0.00000000000E+00 0. -1.
         11    1    3    3    0    0 -0.16742305719E+02  0.10913902455E+02 -0.15212998957E+02  0.25116795279E+02  0.51100000000E-03 0. -1.
        -11    1    3    3    0    0 -0.11338438167E+02 -0.25867480573E+01  0.10623932931E+02  0.15751806143E+02  0.51100000000E-03 0.  1.
        -12    1    3    3    0    0  0.29837369093E+02  0.10157761955E+02  0.21592390936E+01  0.31592895338E+02  0.00000000000E+00 0.  1.
</event>
<event>
 7    1  0.3189267E-013  0.7246153E+02  0.7816164E-02  0.1226708E+00
        -11   -1    0    0    0    0  0.00000000000E+00  0.00000000000E+00  0.45593999997E+02  0.45594000000E+02  0.51100000000E-03 0. -1.
         11   -1    0    0    0    0 -0.00000000000E+00 -0.00000000000E+00 -0.45593999997E+02  0.45594000000E+02  0.51100000000E-03 0.  1.
    9900012    2    1    2    0    0  0.18360055997E+02  0.14094395260E+01 -0.34062273382E+01  0.72461533151E+02  0.69999951613E+02 0.  0.
         12    1    1    2    0    0 -0.18360055997E+02 -0.14094395260E+01  0.34062273382E+01  0.18726466849E+02  0.00000000000E+00 0. -1.
         11    1    3    3    0    0 -0.15108838442E+01  0.21656583475E+01  0.13248724477E+00  0.26439363078E+01  0.51100000000E-03 0. -1.
        -11    1    3    3    0    0 -0.86459069264E+01  0.27779809658E+02 -0.46306005996E+01  0.29460346118E+02  0.51100000000E-03 0.  1.
         12    1    3    3    0    0  0.28516846767E+02 -0.28536028480E+02  0.10918860166E+01  0.40357250724E+02  0.00000000000E+00 0. -1.
</event>
<event>
 7    1  0.3189267E-013  0.7246157E+02  0.7816164E-02  0.1226708E+00
        -11   -1    0    0    0    0  0.00000000000E+00  0.00000000000E+00  0.45593999997E+02  0.45594000000E+02  0.51100000000E-03 0.  1.
         11   -1    0    0    0    0 -0.00000000000E+00 -0.00000000000E+00 -0.45593999997E+02  0.45594000000E+02  0.51100000000E-03 0. -1.
    9900012    2    1    2    0    0  0.94099586460E+01 -0.59327145471E+01  0.15064353305E+02  0.72461570439E+02  0.70000000188E+02 0.  0.
         12    1    1    2    0    0 -0.94099586460E+01  0.59327145471E+01 -0.15064353305E+02  0.18726429561E+02  0.00000000000E+00 0. -1.
         11    1    3    3    0    0 -0.10961050921E+02 -0.21809507808E+02  0.44986723186E+01  0.24820099134E+02  0.51100000000E-03 0. -1.
        -11    1    3    3    0    0  0.28392595822E+02  0.23602695436E+01  0.13701797674E+02  0.31614073284E+02  0.51100000000E-03 0.  1.
         12    1    3    3    0    0 -0.80215862546E+01  0.13516523717E+02 -0.31361166876E+01  0.16027398021E+02  0.00000000000E+00 0. -1.
</event>
<event>
 7    1  0.3189267E-013  0.7246157E+02  0.7816164E-02  0.1226708E+00
        -11   -1    0    0    0    0  0.00000000000E+00  0.00000000000E+00  0.45593999997E+02  0.45594000000E+02  0.51100000000E-03 0.  1.
         11   -1    0    0    0    0 -0.00000000000E+00 -0.00000000000E+00 -0.45593999997E+02  0.45594000000E+02  0.51100000000E-03 0. -1.
    9900012    2    1    2    0    0  0.12852708035E+02  0.12455183014E+01  0.13562298561E+02  0.72461565157E+02  0.69999993308E+02 0.  0.
         12    1    1    2    0    0 -0.12852708035E+02 -0.12455183014E+01 -0.13562298561E+02  0.18726434843E+02  0.00000000000E+00 0. -1.
         11    1    3    3    0    0 -0.12666283960E+02 -0.18457101503E+02 -0.15057576582E-01  0.22385253455E+02  0.51100000000E-03 0. -1.
        -11    1    3    3    0    0  0.11105046634E+02 -0.74788474094E+01  0.13911619599E+02  0.19307728490E+02  0.51100000000E-03 0.  1.
        -12    1    3    3    0    0  0.14413945361E+02  0.27181467214E+02 -0.33426346162E+00  0.30768583212E+02  0.00000000000E+00 0.  1.
</event>
<event>
 7    1  0.3189267E-013  0.7246152E+02  0.7816164E-02  0.1226708E+00
        -11   -1    0    0    0    0  0.00000000000E+00  0.00000000000E+00  0.45593999997E+02  0.45594000000E+02  0.51100000000E-03 0. -1.
         11   -1    0    0    0    0 -0.00000000000E+00 -0.00000000000E+00 -0.45593999997E+02  0.45594000000E+02  0.51100000000E-03 0.  1.
    9900012    2    1    2    0    0  0.33974958576E+01  0.89816497029E+00 -0.18393782495E+02  0.72461523746E+02  0.69999939362E+02 0.  0.
         12    1    1    2    0    0 -0.33974958576E+01 -0.89816497029E+00  0.18393782495E+02  0.18726476254E+02  0.00000000000E+00 0. -1.
         11    1    3    3    0    0  0.99011212761E+01  0.25015708495E+00 -0.73943546356E+01  0.12360067226E+02  0.51100000000E-03 0. -1.
        -11    1    3    3    0    0 -0.11310798022E+02 -0.27906193587E+02 -0.63699592521E+01  0.30777689542E+02  0.51100000000E-03 0.  1.
         12    1    3    3    0    0  0.48071726035E+01  0.28554201473E+02 -0.46294686076E+01  0.29323766978E+02  0.00000000000E+00 0. -1.
</event>
<event>
 7    1  0.3189267E-013  0.7246159E+02  0.7816164E-02  0.1226708E+00
        -11   -1    0    0    0    0  0.00000000000E+00  0.00000000000E+00  0.45593999997E+02  0.45594000000E+02  0.51100000000E-03 0. -1.
         11   -1    0    0    0    0 -0.00000000000E+00 -0.00000000000E+00 -0.45593999997E+02  0.45594000000E+02  0.51100000000E-03 0.  1.
    9900012    2    1    2    0    0 -0.17330984762E+02  0.33234419934E+01 -0.62665888449E+01  0.72461589899E+02  0.70000025539E+02 0.  0.
         12    1    1    2    0    0  0.17330984762E+02 -0.33234419934E+01  0.62665888449E+01  0.18726410101E+02  0.00000000000E+00 0. -1.
         11    1    3    3    0    0  0.17990928446E+02 -0.13331006361E+01 -0.20316639232E+02  0.27170139742E+02  0.51100000000E-03 0. -1.
        -11    1    3    3    0    0 -0.25619389136E+01  0.69469202245E+01 -0.33497527278E+01  0.81267505930E+01  0.51100000000E-03 0.  1.
         12    1    3    3    0    0 -0.32759974294E+02 -0.22903775950E+01  0.17399803115E+02  0.37164699565E+02  0.00000000000E+00 0. -1.
</event>
<event>
 7    1  0.3189267E-013  0.7246155E+02  0.7816164E-02  0.1226708E+00
        -11   -1    0    0    0    0  0.00000000000E+00  0.00000000000E+00  0.45593999997E+02  0.45594000000E+02  0.51100000000E-03 0. -1.
         11   -1    0    0    0    0 -0.00000000000E+00 -0.00000000000E+00 -0.45593999997E+02  0.45594000000E+02  0.51100000000E-03 0.  1.
    9900012    2    1    2    0    0  0.16664527533E+02  0.20402518684E+01 -0.82952344851E+01  0.72461547567E+02  0.69999970393E+02 0.  0.
         12    1    1    2    0    0 -0.16664527533E+02 -0.20402518684E+01  0.82952344851E+01  0.18726452433E+02  0.00000000000E+00 0. -1.
         11    1    3    3    0    0  0.53682295056E+01  0.12716792823E+02 -0.27772129564E+02  0.31013317922E+02  0.51100000000E-03 0. -1.
        -11    1    3    3    0    0  0.16777417427E+01 -0.18981358725E+01 -0.94189275137E+01  0.97536625385E+01  0.51100000000E-03 0.  1.
         12    1    3    3    0    0  0.96185562843E+01 -0.87784050816E+01  0.28895822593E+02  0.31694567107E+02  0.00000000000E+00 0. -1.
</event>
<event>
 7    1  0.3189267E-013  0.7246148E+02  0.7816164E-02  0.1226708E+00
        -11   -1    0    0    0    0  0.00000000000E+00  0.00000000000E+00  0.45593999997E+02  0.45594000000E+02  0.51100000000E-03 0. -1.
         11   -1    0    0    0    0 -0.00000000000E+00 -0.00000000000E+00 -0.45593999997E+02  0.45594000000E+02  0.51100000000E-03 0.  1.
    9900012    2    1    2    0    0 -0.80380415100E+01 -0.16695911002E+02  0.27053981673E+01  0.72461475102E+02  0.69999875995E+02 0.  0.
         12    1    1    2    0    0  0.80380415100E+01  0.16695911002E+02 -0.27053981673E+01  0.18726524898E+02  0.00000000000E+00 0. -1.
         11    1    3    3    0    0 -0.26156771159E+02  0.11745051342E+02  0.42802476981E+01  0.28990402362E+02  0.51100000000E-03 0. -1.
        -11    1    3    3    0    0  0.12555331554E+01 -0.21078967171E+01 -0.10635696109E+02  0.10915018280E+02  0.51100000000E-03 0.  1.
        -12    1    3    3    0    0  0.16863196494E+02 -0.26333065626E+02  0.90608465782E+01  0.32556054460E+02  0.00000000000E+00 0.  1.
</event>
<event>
 7    1  0.3189267E-013  0.7246227E+02  0.7816164E-02  0.1226706E+00
        -11   -1    0    0    0    0  0.00000000000E+00  0.00000000000E+00  0.45593999997E+02  0.45594000000E+02  0.51100000000E-03 0. -1.
         11   -1    0    0    0    0 -0.00000000000E+00 -0.00000000000E+00 -0.45593999997E+02  0.45594000000E+02  0.51100000000E-03 0.  1.
    9900012    2    1    2    0    0 -0.11331285801E+02 -0.11186690384E+02 -0.98545892084E+01  0.72462268823E+02  0.70000909957E+02 0.  0.
         12    1    1    2    0    0  0.11331285801E+02  0.11186690384E+02  0.98545892084E+01  0.18725731177E+02  0.00000000000E+00 0. -1.
         11    1    3    3    0    0 -0.10871768323E+02 -0.96239951871E+01  0.20528084304E+01  0.14663923504E+02  0.51100000000E-03 0. -1.
        -11    1    3    3    0    0 -0.10058515831E+02 -0.22912450478E+02  0.88201140919E+01  0.26532028579E+02  0.51100000000E-03 0.  1.
         12    1    3    3    0    0  0.95989983525E+01  0.21349755281E+02 -0.20727511731E+02  0.31266316740E+02  0.00000000000E+00 0. -1.
</event>
<event>
 7    1  0.3189267E-013  0.7246158E+02  0.7816164E-02  0.1226708E+00
        -11   -1    0    0    0    0  0.00000000000E+00  0.00000000000E+00  0.45593999997E+02  0.45594000000E+02  0.51100000000E-03 0. -1.
         11   -1    0    0    0    0 -0.00000000000E+00 -0.00000000000E+00 -0.45593999997E+02  0.45594000000E+02  0.51100000000E-03 0.  1.
    9900012    2    1    2    0    0  0.13850767916E+02  0.22393867991E+01 -0.12402433106E+02  0.72461575567E+02  0.70000006869E+02 0.  0.
         12    1    1    2    0    0 -0.13850767916E+02 -0.22393867991E+01  0.12402433106E+02  0.18726424433E+02  0.00000000000E+00 0. -1.
         11    1    3    3    0    0 -0.18709774641E+02  0.42226155288E+01 -0.19345739596E+02  0.27242316160E+02  0.51100000000E-03 0. -1.
        -11    1    3    3    0    0  0.21086348070E+02  0.13542632210E+02  0.65802299823E+01  0.25910159957E+02  0.51100000000E-03 0.  1.
         12    1    3    3    0    0  0.11474194486E+02 -0.15525860940E+02  0.36307650776E+00  0.19309099451E+02  0.00000000000E+00 0. -1.
</event>
<event>
 7    1  0.3189267E-013  0.7246154E+02  0.7816164E-02  0.1226708E+00
        -11   -1    0    0    0    0  0.00000000000E+00  0.00000000000E+00  0.45593999997E+02  0.45594000000E+02  0.51100000000E-03 0.  1.
         11   -1    0    0    0    0 -0.00000000000E+00 -0.00000000000E+00 -0.45593999997E+02  0.45594000000E+02  0.51100000000E-03 0. -1.
    9900012    2    1    2    0    0 -0.10604451031E+02  0.43021679064E+01  0.14822862890E+02  0.72461540254E+02  0.69999960867E+02 0.  0.
         12    1    1    2    0    0  0.10604451031E+02 -0.43021679064E+01 -0.14822862890E+02  0.18726459746E+02  0.00000000000E+00 0. -1.
         11    1    3    3    0    0 -0.96948774920E+01  0.45404387910E+01 -0.36912457262E+01  0.11323936121E+02  0.51100000000E-03 0. -1.
        -11    1    3    3    0    0 -0.16968866957E+02  0.21627833060E+02  0.19955509748E+02  0.33969515426E+02  0.51100000000E-03 0.  1.
         12    1    3    3    0    0  0.16059293418E+02 -0.21866103945E+02 -0.14414011326E+01  0.27168088708E+02  0.00000000000E+00 0. -1.
</event>
<event>
 7    1  0.3189267E-013  0.7246158E+02  0.7816164E-02  0.1226708E+00
        -11   -1    0    0    0    0  0.00000000000E+00  0.00000000000E+00  0.45593999997E+02  0.45594000000E+02  0.51100000000E-03 0. -1.
         11   -1    0    0    0    0 -0.00000000000E+00 -0.00000000000E+00 -0.45593999997E+02  0.45594000000E+02  0.51100000000E-03 0.  1.
    9900012    2    1    2    0    0  0.14435863004E+01 -0.86147314797E+01 -0.16564452438E+02  0.72461584848E+02  0.70000018959E+02 0.  0.
         12    1    1    2    0    0 -0.14435863004E+01  0.86147314797E+01  0.16564452438E+02  0.18726415152E+02  0.00000000000E+00 0. -1.
         11    1    3    3    0    0 -0.16981481400E+02  0.48425656760E+01 -0.63888672181E+01  0.18778678800E+02  0.51100000000E-03 0. -1.
        -11    1    3    3    0    0 -0.48427073036E+01  0.28229695636E+01  0.14824279482E+02  0.15848666619E+02  0.51100000000E-03 0.  1.
        -12    1    3    3    0    0  0.23267775004E+02 -0.16280266719E+02 -0.24999864702E+02  0.37834239429E+02  0.00000000000E+00 0.  1.
</event>
<event>
 7    1  0.3189267E-013  0.7246229E+02  0.7816164E-02  0.1226706E+00
        -11   -1    0    0    0    0  0.00000000000E+00  0.00000000000E+00  0.45593999997E+02  0.45594000000E+02  0.51100000000E-03 0. -1.
         11   -1    0    0    0    0 -0.00000000000E+00 -0.00000000000E+00 -0.45593999997E+02  0.45594000000E+02  0.51100000000E-03 0.  1.
    9900012    2    1    2    0    0  0.80632100126E+01  0.14335871205E+02 -0.89509486406E+01  0.72462294660E+02  0.70000943614E+02 0.  0.
         12    1    1    2    0    0 -0.80632100126E+01 -0.14335871205E+02  0.89509486406E+01  0.18725705340E+02  0.00000000000E+00 0. -1.
         11    1    3    3    0    0 -0.54414556172E+01 -0.83173962028E+01  0.21053245759E+02  0.23281487841E+02  0.51100000000E-03 0. -1.
        -11    1    3    3    0    0  0.58922984202E+01  0.39280691657E+01  0.50627817663E+01  0.87052092174E+01  0.51100000000E-03 0.  1.
        -12    1    3    3    0    0  0.76123672096E+01  0.18725198242E+02 -0.35066976166E+02  0.40475597601E+02  0.00000000000E+00 0.  1.
</event>
<event>
 7    1  0.3189267E-013  0.7246154E+02  0.7816164E-02  0.1226708E+00
        -11   -1    0    0    0    0  0.00000000000E+00  0.00000000000E+00  0.45593999997E+02  0.45594000000E+02  0.51100000000E-03 0.  1.
         11   -1    0    0    0    0 -0.00000000000E+00 -0.00000000000E+00 -0.45593999997E+02  0.45594000000E+02  0.51100000000E-03 0. -1.
    9900012    2    1    2    0    0  0.18531989842E+02  0.26385581992E+01  0.53267647076E+00  0.72461537945E+02  0.69999957859E+02 0.  0.
         12    1    1    2    0    0 -0.18531989842E+02 -0.26385581992E+01 -0.53267647076E+00  0.18726462055E+02  0.00000000000E+00 0. -1.
         11    1    3    3    0    0  0.58711355430E+01  0.71398531709E+01 -0.21310957251E+01  0.94862692939E+01  0.51100000000E-03 0. -1.
        -11    1    3    3    0    0  0.16757987551E+02 -0.12337615863E+02  0.28715872983E+02  0.35463337031E+02  0.51100000000E-03 0.  1.
         12    1    3    3    0    0 -0.40971332524E+01  0.78363208913E+01 -0.26052100787E+02  0.27511931620E+02  0.00000000000E+00 0. -1.
</event>
<event>
 7    1  0.3189267E-013  0.7246154E+02  0.7816164E-02  0.1226708E+00
        -11   -1    0    0    0    0  0.00000000000E+00  0.00000000000E+00  0.45593999997E+02  0.45594000000E+02  0.51100000000E-03 0. -1.
         11   -1    0    0    0    0 -0.00000000000E+00 -0.00000000000E+00 -0.45593999997E+02  0.45594000000E+02  0.51100000000E-03 0.  1.
    9900012    2    1    2    0    0  0.41282292793E+01 -0.54918407441E+01 -0.17420615671E+02  0.72461536316E+02  0.69999955737E+02 0.  0.
         12    1    1    2    0    0 -0.41282292793E+01  0.54918407441E+01  0.17420615671E+02  0.18726463684E+02  0.00000000000E+00 0. -1.
         11    1    3    3    0    0 -0.52622328978E+01 -0.69677961972E+01  0.12704265235E+02  0.15415564678E+02  0.51100000000E-03 0. -1.
        -11    1    3    3    0    0 -0.14645865208E+02 -0.12992212320E+02 -0.73560080478E+01  0.20914344439E+02  0.51100000000E-03 0.  1.
        -12    1    3    3    0    0  0.24036327385E+02  0.14468167773E+02 -0.22768872858E+02  0.36131627200E+02  0.00000000000E+00 0.  1.
</event>
<event>
 7    1  0.3189267E-013  0.7246162E+02  0.7816164E-02  0.1226708E+00
        -11   -1    0    0    0    0  0.00000000000E+00  0.00000000000E+00  0.45593999997E+02  0.45594000000E+02  0.51100000000E-03 0.  1.
         11   -1    0    0    0    0 -0.00000000000E+00 -0.00000000000E+00 -0.45593999997E+02  0.45594000000E+02  0.51100000000E-03 0. -1.
    9900012    2    1    2    0    0  0.12755448054E+02 -0.37959941939E+01  0.13174459732E+02  0.72461617108E+02  0.70000060983E+02 0.  0.
         12    1    1    2    0    0 -0.12755448054E+02  0.37959941939E+01 -0.13174459732E+02  0.18726382892E+02  0.00000000000E+00 0. -1.
         11    1    3    3    0    0  0.94014933406E+01  0.18935157595E+02 -0.82339002883E+01  0.22687560124E+02  0.51100000000E-03 0. -1.
        -11    1    3    3    0    0 -0.12843559624E+02  0.39765719217E+01  0.40629225353E+01  0.14045550465E+02  0.51100000000E-03 0.  1.
         12    1    3    3    0    0  0.16197514338E+02 -0.26707723710E+02  0.17345437485E+02  0.35728506519E+02  0.00000000000E+00 0. -1.
</event>
<event>
 7    1  0.3189267E-013  0.7246155E+02  0.7816164E-02  0.1226708E+00
        -11   -1    0    0    0    0  0.00000000000E+00  0.00000000000E+00  0.45593999997E+02  0.45594000000E+02  0.51100000000E-03 0. -1.
         11   -1    0    0    0    0 -0.00000000000E+00 -0.00000000000E+00 -0.45593999997E+02  0.45594000000E+02  0.51100000000E-03 0.  1.
    9900012    2    1    2    0    0 -0.11375595630E+02  0.14546202865E+02  0.31118569980E+01  0.72461552187E+02  0.69999976412E+02 0.  0.
         12    1    1    2    0    0  0.11375595630E+02 -0.14546202865E+02 -0.31118569980E+01  0.18726447813E+02  0.00000000000E+00 0. -1.
         11    1    3    3    0    0 -0.36931452418E+01 -0.34504942443E+01  0.17277082871E+02  0.18001189547E+02  0.51100000000E-03 0. -1.
        -11    1    3    3    0    0  0.20314521076E+02  0.91824574000E+01 -0.10676361178E+01  0.22318986034E+02  0.51100000000E-03 0.  1.
        -12    1    3    3    0    0 -0.27996971463E+02  0.88142397094E+01 -0.13097589755E+02  0.32141376607E+02  0.00000000000E+00 0.  1.
</event>
<event>
 7    1  0.3189267E-013  0.7246154E+02  0.7816164E-02  0.1226708E+00
        -11   -1    0    0    0    0  0.00000000000E+00  0.00000000000E+00  0.45593999997E+02  0.45594000000E+02  0.51100000000E-03 0.  1.
         11   -1    0    0    0    0 -0.00000000000E+00 -0.00000000000E+00 -0.45593999997E+02  0.45594000000E+02  0.51100000000E-03 0. -1.
    9900012    2    1    2    0    0 -0.74154962569E+01  0.10637347807E+02  0.13510644169E+02  0.72461541206E+02  0.69999962107E+02 0.  0.
         12    1    1    2    0    0  0.74154962569E+01 -0.10637347807E+02 -0.13510644169E+02  0.18726458794E+02  0.00000000000E+00 0. -1.
         11    1    3    3    0    0  0.15773707175E+02 -0.15730768249E+02  0.10754336085E+02  0.24737070413E+02  0.51100000000E-03 0. -1.
        -11    1    3    3    0    0  0.76949215123E+00  0.93802861086E+01  0.13494836352E+02  0.16452735155E+02  0.51100000000E-03 0.  1.
         12    1    3    3    0    0 -0.23958695583E+02  0.16987829948E+02 -0.10738528268E+02  0.31271735637E+02  0.00000000000E+00 0. -1.
</event>
<event>
 7    1  0.3189267E-013  0.7246151E+02  0.7816164E-02  0.1226708E+00
        -11   -1    0    0    0    0  0.00000000000E+00  0.00000000000E+00  0.45593999997E+02  0.45594000000E+02  0.51100000000E-03 0. -1.
         11   -1    0    0    0    0 -0.00000000000E+00 -0.00000000000E+00 -0.45593999997E+02  0.45594000000E+02  0.51100000000E-03 0.  1.
    9900012    2    1    2    0    0  0.54366117322E+01 -0.11142053158E+02 -0.14034931441E+02  0.72461510840E+02  0.69999922550E+02 0.  0.
         12    1    1    2    0    0 -0.54366117322E+01  0.11142053158E+02  0.14034931441E+02  0.18726489160E+02  0.00000000000E+00 0. -1.
         11    1    3    3    0    0  0.14811499473E+01  0.26875666110E+01  0.32340527712E+01  0.44582414743E+01  0.51100000000E-03 0. -1.
        -11    1    3    3    0    0 -0.15286586744E+02  0.17943723759E+02 -0.19781385670E+02  0.30772718045E+02  0.51100000000E-03 0.  1.
         12    1    3    3    0    0  0.19242048529E+02 -0.31773343528E+02  0.25124014576E+01  0.37230551320E+02  0.00000000000E+00 0. -1.
</event>
<event>
 7    1  0.3189267E-013  0.7246156E+02  0.7816164E-02  0.1226708E+00
        -11   -1    0    0    0    0  0.00000000000E+00  0.00000000000E+00  0.45593999997E+02  0.45594000000E+02  0.51100000000E-03 0.  1.
         11   -1    0    0    0    0 -0.00000000000E+00 -0.00000000000E+00 -0.45593999997E+02  0.45594000000E+02  0.51100000000E-03 0. -1.
    9900012    2    1    2    0    0  0.14186216756E+02  0.73241124953E+01  0.97871419587E+01  0.72461561006E+02  0.69999987900E+02 0.  0.
         12    1    1    2    0    0 -0.14186216756E+02 -0.73241124953E+01 -0.97871419587E+01  0.18726438994E+02  0.00000000000E+00 0. -1.
         11    1    3    3    0    0 -0.35535084966E+01 -0.92036510081E+01  0.17407219705E+02  0.20008645947E+02  0.51100000000E-03 0. -1.
        -11    1    3    3    0    0  0.14187693616E+02  0.26755850928E+01  0.18022469485E+02  0.23092397284E+02  0.51100000000E-03 0.  1.
         12    1    3    3    0    0  0.35520316361E+01  0.13852178410E+02 -0.25642547232E+02  0.29360517774E+02  0.00000000000E+00 0. -1.
</event>
<event>
 7    1  0.4154034E-013  0.7246161E+02  0.7816164E-02  0.1226708E+00
        -11   -1    0    0    0    0  0.00000000000E+00  0.00000000000E+00  0.45593999997E+02  0.45594000000E+02  0.51100000000E-03 0. -1.
         11   -1    0    0    0    0 -0.00000000000E+00 -0.00000000000E+00 -0.45593999997E+02  0.45594000000E+02  0.51100000000E-03 0.  1.
    9900012    2    1    2    0    0  0.35618503204E+01  0.12381873436E+02 -0.13589706643E+02  0.72461609687E+02  0.70000051317E+02 0.  0.
         12    1    1    2    0    0 -0.35618503204E+01 -0.12381873436E+02  0.13589706643E+02  0.18726390313E+02  0.00000000000E+00 0. -1.
         11    1    3    3    0    0 -0.92445781187E+01 -0.21468610679E+01  0.52817242600E+01  0.10861300496E+02  0.51100000000E-03 0. -1.
        -11    1    3    3    0    0  0.31684351550E+01  0.80805646939E+01 -0.38138001003E+02  0.39113189948E+02  0.51100000000E-03 0.  1.
         12    1    3    3    0    0  0.96379932840E+01  0.64481698103E+01  0.19266570101E+02  0.22487119244E+02  0.00000000000E+00 0. -1.
</event>
<event>
 7    1  0.3189267E-013  0.7246155E+02  0.7816164E-02  0.1226708E+00
        -11   -1    0    0    0    0  0.00000000000E+00  0.00000000000E+00  0.45593999997E+02  0.45594000000E+02  0.51100000000E-03 0.  1.
         11   -1    0    0    0    0 -0.00000000000E+00 -0.00000000000E+00 -0.45593999997E+02  0.45594000000E+02  0.51100000000E-03 0. -1.
    9900012    2    1    2    0    0 -0.10154944849E+02  0.70957177715E+00  0.15717932269E+02  0.72461553679E+02  0.69999978356E+02 0.  0.
         12    1    1    2    0    0  0.10154944849E+02 -0.70957177715E+00 -0.15717932269E+02  0.18726446321E+02  0.00000000000E+00 0. -1.
         11    1    3    3    0    0 -0.25670255179E+02  0.29135043651E+01 -0.72642693261E+01  0.26836917069E+02  0.51100000000E-03 0. -1.
        -11    1    3    3    0    0 -0.16385033223E+01  0.12806257411E+02 -0.47163239892E+00  0.12919263113E+02  0.51100000000E-03 0.  1.
        -12    1    3    3    0    0  0.17153813652E+02 -0.15010189999E+02  0.23453833994E+02  0.32705373497E+02  0.00000000000E+00 0.  1.
</event>
<event>
 7    1  0.3189267E-013  0.7246085E+02  0.7816164E-02  0.1226710E+00
        -11   -1    0    0    0    0  0.00000000000E+00  0.00000000000E+00  0.45593999997E+02  0.45594000000E+02  0.51100000000E-03 0. -1.
         11   -1    0    0    0    0 -0.00000000000E+00 -0.00000000000E+00 -0.45593999997E+02  0.45594000000E+02  0.51100000000E-03 0.  1.
    9900012    2    1    2    0    0  0.32795922773E+01 -0.16368936312E+02  0.84857764006E+01  0.72460848518E+02  0.69999059746E+02 0.  0.
         12    1    1    2    0    0 -0.32795922773E+01  0.16368936312E+02 -0.84857764006E+01  0.18727151482E+02  0.00000000000E+00 0. -1.
         11    1    3    3    0    0  0.18202673603E+01 -0.29432940150E+02  0.32013265949E+02  0.43525401045E+02  0.51100000000E-03 0. -1.
        -11    1    3    3    0    0 -0.25929435413E+01 -0.53900756145E+00 -0.38543986259E+01  0.46765665171E+01  0.51100000000E-03 0.  1.
        -12    1    3    3    0    0  0.40522684584E+01  0.13603011399E+02 -0.19673090923E+02  0.24258880956E+02  0.00000000000E+00 0.  1.
</event>
<event>
 7    1  0.3189267E-013  0.7246155E+02  0.7816164E-02  0.1226708E+00
        -11   -1    0    0    0    0  0.00000000000E+00  0.00000000000E+00  0.45593999997E+02  0.45594000000E+02  0.51100000000E-03 0. -1.
         11   -1    0    0    0    0 -0.00000000000E+00 -0.00000000000E+00 -0.45593999997E+02  0.45594000000E+02  0.51100000000E-03 0.  1.
    9900012    2    1    2    0    0  0.99654330000E+01  0.85540652765E+01 -0.13349087703E+02  0.72461547316E+02  0.69999970066E+02 0.  0.
         12    1    1    2    0    0 -0.99654330000E+01 -0.85540652765E+01  0.13349087703E+02  0.18726452684E+02  0.00000000000E+00 0. -1.
         11    1    3    3    0    0 -0.81189874756E+00  0.92238682157E+01  0.41830151863E+01  0.10160538408E+02  0.51100000000E-03 0. -1.
        -11    1    3    3    0    0 -0.24108341485E+02  0.32484810628E+01 -0.38746202230E+01  0.24632852870E+02  0.51100000000E-03 0.  1.
         12    1    3    3    0    0  0.34885673233E+02 -0.39182840020E+01 -0.13657482667E+02  0.37668156037E+02  0.00000000000E+00 0. -1.
</event>
<event>
 7    1  0.3189267E-013  0.7246158E+02  0.7816164E-02  0.1226708E+00
        -11   -1    0    0    0    0  0.00000000000E+00  0.00000000000E+00  0.45593999997E+02  0.45594000000E+02  0.51100000000E-03 0. -1.
         11   -1    0    0    0    0 -0.00000000000E+00 -0.00000000000E+00 -0.45593999997E+02  0.45594000000E+02  0.51100000000E-03 0.  1.
    9900012    2    1    2    0    0 -0.16129079084E+01 -0.14342754361E+02 -0.11931589634E+02  0.72461577336E+02  0.70000009173E+02 0.  0.
         12    1    1    2    0    0  0.16129079084E+01  0.14342754361E+02  0.11931589634E+02  0.18726422664E+02  0.00000000000E+00 0. -1.
         11    1    3    3    0    0  0.21853182346E+02 -0.79768134586E+01 -0.13633793868E+02  0.26964262777E+02  0.51100000000E-03 0. -1.
        -11    1    3    3    0    0 -0.11328026025E+02 -0.20817007528E+02 -0.70049416136E+01  0.24713178333E+02  0.51100000000E-03 0.  1.
        -12    1    3    3    0    0 -0.12138064230E+02  0.14451066625E+02  0.87071458477E+01  0.20784136226E+02  0.00000000000E+00 0.  1.
</event>
<event>
 7    1  0.3189267E-013  0.7246164E+02  0.7816164E-02  0.1226708E+00
        -11   -1    0    0    0    0  0.00000000000E+00  0.00000000000E+00  0.45593999997E+02  0.45594000000E+02  0.51100000000E-03 0.  1.
         11   -1    0    0    0    0 -0.00000000000E+00 -0.00000000000E+00 -0.45593999997E+02  0.45594000000E+02  0.51100000000E-03 0. -1.
    9900012    2    1    2    0    0 -0.82001278898E-01  0.18681742515E+02 -0.12893536902E+01  0.72461637285E+02  0.70000087267E+02 0.  0.
         12    1    1    2    0    0  0.82001278898E-01 -0.18681742515E+02  0.12893536902E+01  0.18726362715E+02  0.00000000000E+00 0. -1.
         11    1    3    3    0    0  0.28085035183E+02  0.98293751364E+01  0.14790375892E+01  0.29792169596E+02  0.51100000000E-03 0. -1.
        -11    1    3    3    0    0  0.64585791023E+01 -0.84836713751E+00  0.66082845047E+00  0.65474930564E+01  0.51100000000E-03 0.  1.
         12    1    3    3    0    0 -0.34625615564E+02  0.97007345160E+01 -0.34292197299E+01  0.36121974632E+02  0.00000000000E+00 0. -1.
</event>
<event>
 7    1  0.3189267E-013  0.7246156E+02  0.7816164E-02  0.1226708E+00
        -11   -1    0    0    0    0  0.00000000000E+00  0.00000000000E+00  0.45593999997E+02  0.45594000000E+02  0.51100000000E-03 0.  1.
         11   -1    0    0    0    0 -0.00000000000E+00 -0.00000000000E+00 -0.45593999997E+02  0.45594000000E+02  0.51100000000E-03 0. -1.
    9900012    2    1    2    0    0 -0.10076367084E+02  0.41599513219E+01  0.15226326578E+02  0.72461564416E+02  0.69999992343E+02 0.  0.
         12    1    1    2    0    0  0.10076367084E+02 -0.41599513219E+01 -0.15226326578E+02  0.18726435584E+02  0.00000000000E+00 0. -1.
         11    1    3    3    0    0  0.75751903055E+01 -0.36218141741E+01  0.79647698281E+01  0.11573184728E+02  0.51100000000E-03 0. -1.
        -11    1    3    3    0    0 -0.50260790512E+01 -0.23509015094E+02  0.11908298867E+02  0.26828023473E+02  0.51100000000E-03 0.  1.
         12    1    3    3    0    0 -0.12625478338E+02  0.31290780590E+02 -0.46467421170E+01  0.34060356215E+02  0.00000000000E+00 0. -1.
</event>
<event>
 7    1  0.3189267E-013  0.7246158E+02  0.7816164E-02  0.1226708E+00
        -11   -1    0    0    0    0  0.00000000000E+00  0.00000000000E+00  0.45593999997E+02  0.45594000000E+02  0.51100000000E-03 0.  1.
         11   -1    0    0    0    0 -0.00000000000E+00 -0.00000000000E+00 -0.45593999997E+02  0.45594000000E+02  0.51100000000E-03 0. -1.
    9900012    2    1    2    0    0 -0.56501632738E+01  0.16492933464E+02 -0.68364929044E+01  0.72461579240E+02  0.70000011653E+02 0.  0.
         12    1    1    2    0    0  0.56501632738E+01 -0.16492933464E+02  0.68364929044E+01  0.18726420760E+02  0.00000000000E+00 0. -1.
         11    1    3    3    0    0 -0.13965809888E+02 -0.81336232728E+01 -0.21065482984E+02  0.26550974501E+02  0.51100000000E-03 0. -1.
        -11    1    3    3    0    0 -0.75364304533E+01  0.18553561305E+02 -0.46121461400E+01  0.20550044120E+02  0.51100000000E-03 0.  1.
         12    1    3    3    0    0  0.15852077067E+02  0.60729954318E+01  0.18841136219E+02  0.25360560619E+02  0.00000000000E+00 0. -1.
</event>
<event>
 7    1  0.3189267E-013  0.7246154E+02  0.7816164E-02  0.1226708E+00
        -11   -1    0    0    0    0  0.00000000000E+00  0.00000000000E+00  0.45593999997E+02  0.45594000000E+02  0.51100000000E-03 0.  1.
         11   -1    0    0    0    0 -0.00000000000E+00 -0.00000000000E+00 -0.45593999997E+02  0.45594000000E+02  0.51100000000E-03 0. -1.
    9900012    2    1    2    0    0 -0.34430361576E+01 -0.40269352020E+01  0.17961338579E+02  0.72461537743E+02  0.69999957596E+02 0.  0.
         12    1    1    2    0    0  0.34430361576E+01  0.40269352020E+01 -0.17961338579E+02  0.18726462257E+02  0.00000000000E+00 0. -1.
         11    1    3    3    0    0  0.77288697937E+01  0.12303688327E+01  0.14701059654E+02  0.16654440578E+02  0.51100000000E-03 0. -1.
        -11    1    3    3    0    0 -0.11622521018E+02  0.57509202150E+01  0.26824507391E+02  0.29794467190E+02  0.51100000000E-03 0.  1.
         12    1    3    3    0    0  0.45061506660E+00 -0.11008224250E+02 -0.23564228465E+02  0.26012629975E+02  0.00000000000E+00 0. -1.
</event>
<event>
 7    1  0.3189267E-013  0.7246171E+02  0.7816164E-02  0.1226708E+00
        -11   -1    0    0    0    0  0.00000000000E+00  0.00000000000E+00  0.45593999997E+02  0.45594000000E+02  0.51100000000E-03 0.  1.
         11   -1    0    0    0    0 -0.00000000000E+00 -0.00000000000E+00 -0.45593999997E+02  0.45594000000E+02  0.51100000000E-03 0. -1.
    9900012    2    1    2    0    0 -0.46221038108E+01  0.15383193607E+02  0.96264000102E+01  0.72461706551E+02  0.70000177500E+02 0.  0.
         12    1    1    2    0    0  0.46221038108E+01 -0.15383193607E+02 -0.96264000102E+01  0.18726293449E+02  0.00000000000E+00 0. -1.
         11    1    3    3    0    0 -0.13614809280E+01  0.43703573026E+01 -0.49910574551E+01  0.67723192520E+01  0.51100000000E-03 0. -1.
        -11    1    3    3    0    0 -0.51934737014E+01 -0.22164648948E+02 -0.94579648084E+01  0.24651509703E+02  0.51100000000E-03 0.  1.
         12    1    3    3    0    0  0.19328508186E+01  0.33177485252E+02  0.24075422274E+02  0.41037877596E+02  0.00000000000E+00 0. -1.
</event>
<event>
 7    1  0.3189267E-013  0.7246154E+02  0.7816164E-02  0.1226708E+00
        -11   -1    0    0    0    0  0.00000000000E+00  0.00000000000E+00  0.45593999997E+02  0.45594000000E+02  0.51100000000E-03 0. -1.
         11   -1    0    0    0    0 -0.00000000000E+00 -0.00000000000E+00 -0.45593999997E+02  0.45594000000E+02  0.51100000000E-03 0.  1.
    9900012    2    1    2    0    0  0.14255562717E+02  0.11897590142E+02  0.24303185033E+01  0.72461543645E+02  0.69999965284E+02 0.  0.
         12    1    1    2    0    0 -0.14255562717E+02 -0.11897590142E+02 -0.24303185033E+01  0.18726456355E+02  0.00000000000E+00 0. -1.
         11    1    3    3    0    0 -0.14809386202E+02  0.59339694296E+01  0.10129297909E+02  0.18897951986E+02  0.51100000000E-03 0. -1.
        -11    1    3    3    0    0  0.86802501476E+01  0.16568179553E+02  0.12885972798E+02  0.22713423598E+02  0.51100000000E-03 0.  1.
        -12    1    3    3    0    0  0.20384698772E+02 -0.10604558840E+02 -0.20584952204E+02  0.30850168062E+02  0.00000000000E+00 0.  1.
</event>
<event>
 7    1  0.3189267E-013  0.7246163E+02  0.7816164E-02  0.1226708E+00
        -11   -1    0    0    0    0  0.00000000000E+00  0.00000000000E+00  0.45593999997E+02  0.45594000000E+02  0.51100000000E-03 0.  1.
         11   -1    0    0    0    0 -0.00000000000E+00 -0.00000000000E+00 -0.45593999997E+02  0.45594000000E+02  0.51100000000E-03 0. -1.
    9900012    2    1    2    0    0 -0.96088360311E+01  0.74744188859E+01  0.14229550806E+02  0.72461633997E+02  0.70000082984E+02 0.  0.
         12    1    1    2    0    0  0.96088360311E+01 -0.74744188859E+01 -0.14229550806E+02  0.18726366003E+02  0.00000000000E+00 0. -1.
         11    1    3    3    0    0  0.10914124888E+02 -0.89467453319E+01 -0.17952476692E+02  0.22835362790E+02  0.51100000000E-03 0. -1.
        -11    1    3    3    0    0  0.55528923109E+01  0.17544361604E+01  0.12570055146E+02  0.13853481363E+02  0.51100000000E-03 0.  1.
         12    1    3    3    0    0 -0.26075853230E+02  0.14666728057E+02  0.19611972352E+02  0.35772789843E+02  0.00000000000E+00 0. -1.
</event>
<event>
 7    1  0.3189267E-013  0.7246161E+02  0.7816164E-02  0.1226708E+00
        -11   -1    0    0    0    0  0.00000000000E+00  0.00000000000E+00  0.45593999997E+02  0.45594000000E+02  0.51100000000E-03 0. -1.
         11   -1    0    0    0    0 -0.00000000000E+00 -0.00000000000E+00 -0.45593999997E+02  0.45594000000E+02  0.51100000000E-03 0.  1.
    9900012    2    1    2    0    0  0.94769903615E+01 -0.71250373563E+01 -0.14494763347E+02  0.72461610382E+02  0.70000052221E+02 0.  0.
         12    1    1    2    0    0 -0.94769903615E+01  0.71250373563E+01  0.14494763347E+02  0.18726389618E+02  0.00000000000E+00 0. -1.
         11    1    3    3    0    0  0.12450787012E+02 -0.26518693710E+02 -0.86548783278E+01  0.30547833514E+02  0.51100000000E-03 0.  1.
        -11    1    3    3    0    0 -0.19022661518E+02  0.15769288415E+02 -0.61308002823E+01  0.25458177875E+02  0.51100000000E-03 0. -1.
         12    1    3    3    0    0  0.16048864868E+02  0.36243679383E+01  0.29091526262E+00  0.16455598992E+02  0.00000000000E+00 0. -1.
</event>
<event>
 7    1  0.3189267E-013  0.7246157E+02  0.7816164E-02  0.1226708E+00
        -11   -1    0    0    0    0  0.00000000000E+00  0.00000000000E+00  0.45593999997E+02  0.45594000000E+02  0.51100000000E-03 0. -1.
         11   -1    0    0    0    0 -0.00000000000E+00 -0.00000000000E+00 -0.45593999997E+02  0.45594000000E+02  0.51100000000E-03 0.  1.
    9900012    2    1    2    0    0  0.10296903517E+02 -0.57537484917E+01 -0.14544666096E+02  0.72461570667E+02  0.70000000485E+02 0.  0.
         12    1    1    2    0    0 -0.10296903517E+02  0.57537484917E+01  0.14544666096E+02  0.18726429333E+02  0.00000000000E+00 0. -1.
         11    1    3    3    0    0 -0.47402049272E+01 -0.47403351135E+01  0.25209155891E+00  0.67084923907E+01  0.51100000000E-03 0. -1.
        -11    1    3    3    0    0 -0.19588354597E+02 -0.16743338974E+02 -0.89288615307E+01  0.27272103042E+02  0.51100000000E-03 0.  1.
         12    1    3    3    0    0  0.34625463041E+02  0.15729925595E+02 -0.58678961238E+01  0.38480975234E+02  0.00000000000E+00 0. -1.
</event>
<event>
 7    1  0.3189267E-013  0.7246162E+02  0.7816164E-02  0.1226708E+00
        -11   -1    0    0    0    0  0.00000000000E+00  0.00000000000E+00  0.45593999997E+02  0.45594000000E+02  0.51100000000E-03 0.  1.
         11   -1    0    0    0    0 -0.00000000000E+00 -0.00000000000E+00 -0.45593999997E+02  0.45594000000E+02  0.51100000000E-03 0. -1.
    9900012    2    1    2    0    0  0.17775929130E+02  0.42766175525E+01  0.40502214371E+01  0.72461617332E+02  0.70000061276E+02 0.  0.
         12    1    1    2    0    0 -0.17775929130E+02 -0.42766175525E+01 -0.40502214371E+01  0.18726382668E+02  0.00000000000E+00 0. -1.
         11    1    3    3    0    0 -0.46325298710E+01  0.65842621206E+01  0.53087286436E+01  0.96434143720E+01  0.51100000000E-03 0. -1.
        -11    1    3    3    0    0 -0.18725556527E+02  0.41201373451E+01  0.69299130562E+01  0.20387390569E+02  0.51100000000E-03 0.  1.
         12    1    3    3    0    0  0.41134015528E+02 -0.64277819132E+01 -0.81884202626E+01  0.42430812391E+02  0.00000000000E+00 0. -1.
</event>
<event>
 7    1  0.3189267E-013  0.7246154E+02  0.7816164E-02  0.1226708E+00
        -11   -1    0    0    0    0  0.00000000000E+00  0.00000000000E+00  0.45593999997E+02  0.45594000000E+02  0.51100000000E-03 0.  1.
         11   -1    0    0    0    0 -0.00000000000E+00 -0.00000000000E+00 -0.45593999997E+02  0.45594000000E+02  0.51100000000E-03 0. -1.
    9900012    2    1    2    0    0 -0.14671485647E+02  0.98950825031E+01  0.61249582698E+01  0.72461541108E+02  0.69999961979E+02 0.  0.
         12    1    1    2    0    0  0.14671485647E+02 -0.98950825031E+01 -0.61249582698E+01  0.18726458892E+02  0.00000000000E+00 0. -1.
         11    1    3    3    0    0  0.66940416477E+01  0.21350593518E+02  0.88516445421E+01  0.24062619320E+02  0.51100000000E-03 0. -1.
        -11    1    3    3    0    0  0.26482810166E+01  0.13376394226E+02 -0.24467717114E+01  0.13853808390E+02  0.51100000000E-03 0.  1.
        -12    1    3    3    0    0 -0.24013808311E+02 -0.24831905242E+02 -0.27991456093E+00  0.34545113398E+02  0.00000000000E+00 0.  1.
</event>
<event>
 7    1  0.3189267E-013  0.7246156E+02  0.7816164E-02  0.1226708E+00
        -11   -1    0    0    0    0  0.00000000000E+00  0.00000000000E+00  0.45593999997E+02  0.45594000000E+02  0.51100000000E-03 0. -1.
         11   -1    0    0    0    0 -0.00000000000E+00 -0.00000000000E+00 -0.45593999997E+02  0.45594000000E+02  0.51100000000E-03 0.  1.
    9900012    2    1    2    0    0  0.87755345533E+01  0.14089494694E+02 -0.86692305133E+01  0.72461563469E+02  0.69999991109E+02 0.  0.
         12    1    1    2    0    0 -0.87755345533E+01 -0.14089494694E+02  0.86692305133E+01  0.18726436531E+02  0.00000000000E+00 0. -1.
         11    1    3    3    0    0  0.70162196901E-01  0.14994167657E+02 -0.23049159260E+01  0.15170452338E+02  0.51100000000E-03 0. -1.
        -11    1    3    3    0    0 -0.25548279792E+01  0.98778267492E+01  0.22377269223E+02  0.24593511043E+02  0.51100000000E-03 0.  1.
        -12    1    3    3    0    0  0.11260200336E+02 -0.10782499712E+02 -0.28741583810E+02  0.32697600088E+02  0.00000000000E+00 0.  1.
</event>
<event>
 7    1  0.3189267E-013  0.7246156E+02  0.7816164E-02  0.1226708E+00
        -11   -1    0    0    0    0  0.00000000000E+00  0.00000000000E+00  0.45593999997E+02  0.45594000000E+02  0.51100000000E-03 0.  1.
         11   -1    0    0    0    0 -0.00000000000E+00 -0.00000000000E+00 -0.45593999997E+02  0.45594000000E+02  0.51100000000E-03 0. -1.
    9900012    2    1    2    0    0  0.92846535627E+01  0.84366384913E+00  0.16240780955E+02  0.72461560763E+02  0.69999987583E+02 0.  0.
         12    1    1    2    0    0 -0.92846535627E+01 -0.84366384913E+00 -0.16240780955E+02  0.18726439237E+02  0.00000000000E+00 0. -1.
         11    1    3    3    0    0 -0.18880427077E+01  0.14639064946E+02  0.21808071901E+02  0.26333608337E+02  0.51100000000E-03 0. -1.
        -11    1    3    3    0    0 -0.57226732597E+01 -0.19226820504E+02  0.10095767453E+02  0.22457607545E+02  0.51100000000E-03 0.  1.
         12    1    3    3    0    0  0.16895369530E+02  0.54314194077E+01 -0.15663058399E+02  0.23670344880E+02  0.00000000000E+00 0. -1.
</event>
<event>
 7    1  0.3189267E-013  0.7246158E+02  0.7816164E-02  0.1226708E+00
        -11   -1    0    0    0    0  0.00000000000E+00  0.00000000000E+00  0.45593999997E+02  0.45594000000E+02  0.51100000000E-03 0.  1.
         11   -1    0    0    0    0 -0.00000000000E+00 -0.00000000000E+00 -0.45593999997E+02  0.45594000000E+02  0.51100000000E-03 0. -1.
    9900012    2    1    2    0    0 -0.80738468171E+01 -0.55630964263E+01  0.15954427216E+02  0.72461580372E+02  0.70000013129E+02 0.  0.
         12    1    1    2    0    0  0.80738468171E+01  0.55630964263E+01 -0.15954427216E+02  0.18726419628E+02  0.00000000000E+00 0. -1.
         11    1    3    3    0    0 -0.94770145442E+01 -0.10874846937E+01 -0.20678880975E+02  0.22773066247E+02  0.51100000000E-03 0. -1.
        -11    1    3    3    0    0  0.36102558290E+01  0.14207442289E+02  0.14173141950E+02  0.20390275048E+02  0.51100000000E-03 0.  1.
        -12    1    3    3    0    0 -0.22070881020E+01 -0.18683054021E+02  0.22460166241E+02  0.29298239077E+02  0.00000000000E+00 0.  1.
</event>
<event>
 7    1  0.3189267E-013  0.7246165E+02  0.7816164E-02  0.1226708E+00
        -11   -1    0    0    0    0  0.00000000000E+00  0.00000000000E+00  0.45593999997E+02  0.45594000000E+02  0.51100000000E-03 0. -1.
         11   -1    0    0    0    0 -0.00000000000E+00 -0.00000000000E+00 -0.45593999997E+02  0.45594000000E+02  0.51100000000E-03 0.  1.
    9900012    2    1    2    0    0 -0.10840426393E+02 -0.12460635003E+02 -0.88257536870E+01  0.72461649656E+02  0.70000103383E+02 0.  0.
         12    1    1    2    0    0  0.10840426393E+02  0.12460635003E+02  0.88257536870E+01  0.18726350344E+02  0.00000000000E+00 0. -1.
         11    1    3    3    0    0 -0.70412532302E+01  0.14749706012E+02 -0.44144028779E+01  0.16929856099E+02  0.51100000000E-03 0. -1.
        -11    1    3    3    0    0  0.59013262278E+01  0.12845426535E+02 -0.75539301274E+00  0.14156314951E+02  0.51100000000E-03 0.  1.
         12    1    3    3    0    0 -0.97004993911E+01 -0.40055767550E+02 -0.36559577964E+01  0.41375478606E+02  0.00000000000E+00 0. -1.
</event>
<event>
 7    1  0.3189267E-013  0.7246159E+02  0.7816164E-02  0.1226708E+00
        -11   -1    0    0    0    0  0.00000000000E+00  0.00000000000E+00  0.45593999997E+02  0.45594000000E+02  0.51100000000E-03 0.  1.
         11   -1    0    0    0    0 -0.00000000000E+00 -0.00000000000E+00 -0.45593999997E+02  0.45594000000E+02  0.51100000000E-03 0. -1.
    9900012    2    1    2    0    0 -0.10088555950E+02  0.11388844304E+02  0.10917584732E+02  0.72461591051E+02  0.70000027040E+02 0.  0.
         12    1    1    2    0    0  0.10088555950E+02 -0.11388844304E+02 -0.10917584732E+02  0.18726408949E+02  0.00000000000E+00 0. -1.
         11    1    3    3    0    0 -0.88638199013E+01  0.25801265765E+01 -0.27371237642E+01  0.96289253375E+01  0.51100000000E-03 0.  1.
        -11    1    3    3    0    0 -0.84007823839E+01  0.26858644408E+02 -0.12050941978E+02  0.30613479497E+02  0.51100000000E-03 0. -1.
        -12    1    3    3    0    0  0.71760463356E+01 -0.18049926680E+02  0.25705650474E+02  0.32219186217E+02  0.00000000000E+00 0.  1.
</event>
<event>
 7    1  0.3189267E-013  0.7246154E+02  0.7816164E-02  0.1226708E+00
        -11   -1    0    0    0    0  0.00000000000E+00  0.00000000000E+00  0.45593999997E+02  0.45594000000E+02  0.51100000000E-03 0. -1.
         11   -1    0    0    0    0 -0.00000000000E+00 -0.00000000000E+00 -0.45593999997E+02  0.45594000000E+02  0.51100000000E-03 0.  1.
    9900012    2    1    2    0    0  0.98383841157E+01  0.79547731234E+01 -0.13806087519E+02  0.72461540910E+02  0.69999961722E+02 0.  0.
         12    1    1    2    0    0 -0.98383841157E+01 -0.79547731234E+01  0.13806087519E+02  0.18726459090E+02  0.00000000000E+00 0. -1.
         11    1    3    3    0    0  0.49212516919E+01 -0.13393497702E+02 -0.73717043834E+01  0.16060713704E+02  0.51100000000E-03 0. -1.
        -11    1    3    3    0    0  0.89285330368E+01 -0.13857949242E+02  0.77715432990E+01  0.18225211793E+02  0.51100000000E-03 0.  1.
        -12    1    3    3    0    0 -0.40114006130E+01  0.35206220067E+02 -0.14205926435E+02  0.38175615413E+02  0.00000000000E+00 0.  1.
</event>
<event>
 7    1  0.3189267E-013  0.7246148E+02  0.7816164E-02  0.1226708E+00
        -11   -1    0    0    0    0  0.00000000000E+00  0.00000000000E+00  0.45593999997E+02  0.45594000000E+02  0.51100000000E-03 0.  1.
         11   -1    0    0    0    0 -0.00000000000E+00 -0.00000000000E+00 -0.45593999997E+02  0.45594000000E+02  0.51100000000E-03 0. -1.
    9900012    2    1    2    0    0 -0.33660840442E+01  0.16979581856E+02  0.71446297979E+01  0.72461482525E+02  0.69999885664E+02 0.  0.
         12    1    1    2    0    0  0.33660840442E+01 -0.16979581856E+02 -0.71446297979E+01  0.18726517475E+02  0.00000000000E+00 0. -1.
         11    1    3    3    0    0 -0.38532713588E+01 -0.13656975284E+02  0.14638781622E+02  0.20387609024E+02  0.51100000000E-03 0. -1.
        -11    1    3    3    0    0 -0.65020110605E+01  0.11532919452E+02  0.16150168200E+02  0.20883302231E+02  0.51100000000E-03 0.  1.
         12    1    3    3    0    0  0.69891983751E+01  0.19103637687E+02 -0.23644320024E+02  0.31190571271E+02  0.00000000000E+00 0. -1.
</event>
<event>
 7    1  0.3189267E-013  0.7246151E+02  0.7816164E-02  0.1226708E+00
        -11   -1    0    0    0    0  0.00000000000E+00  0.00000000000E+00  0.45593999997E+02  0.45594000000E+02  0.51100000000E-03 0.  1.
         11   -1    0    0    0    0 -0.00000000000E+00 -0.00000000000E+00 -0.45593999997E+02  0.45594000000E+02  0.51100000000E-03 0. -1.
    9900012    2    1    2    0    0 -0.10269951800E+02 -0.11339643438E+02 -0.10799162072E+02  0.72461512749E+02  0.69999925037E+02 0.  0.
         12    1    1    2    0    0  0.10269951800E+02  0.11339643438E+02  0.10799162072E+02  0.18726487251E+02  0.00000000000E+00 0. -1.
         11    1    3    3    0    0  0.45453631334E+01 -0.18484513593E+02 -0.38348112445E+00  0.19039029041E+02  0.51100000000E-03 0. -1.
        -11    1    3    3    0    0 -0.81226840745E+01 -0.15656379287E+02  0.11532954566E+02  0.21073899740E+02  0.51100000000E-03 0.  1.
         12    1    3    3    0    0 -0.66926308585E+01  0.22801249441E+02 -0.21948635514E+02  0.32348583969E+02  0.00000000000E+00 0. -1.
</event>
<event>
 7    1  0.3189267E-013  0.7246160E+02  0.7816164E-02  0.1226708E+00
        -11   -1    0    0    0    0  0.00000000000E+00  0.00000000000E+00  0.45593999997E+02  0.45594000000E+02  0.51100000000E-03 0.  1.
         11   -1    0    0    0    0 -0.00000000000E+00 -0.00000000000E+00 -0.45593999997E+02  0.45594000000E+02  0.51100000000E-03 0. -1.
    9900012    2    1    2    0    0  0.10353296489E+02  0.11640067225E+02 -0.10392117842E+02  0.72461600816E+02  0.70000039760E+02 0.  0.
         12    1    1    2    0    0 -0.10353296489E+02 -0.11640067225E+02  0.10392117842E+02  0.18726399184E+02  0.00000000000E+00 0. -1.
         11    1    3    3    0    0 -0.65539893691E+01  0.82180167764E+01 -0.19698072206E+02  0.22327217141E+02  0.51100000000E-03 0. -1.
        -11    1    3    3    0    0 -0.13231794891E+02 -0.68242984243E+01  0.10598267001E+02  0.18274974930E+02  0.51100000000E-03 0.  1.
         12    1    3    3    0    0  0.30139080749E+02  0.10246348872E+02 -0.12923126368E+01  0.31859408744E+02  0.00000000000E+00 0. -1.
</event>
<event>
 7    1  0.3189267E-013  0.7246124E+02  0.7816164E-02  0.1226709E+00
        -11   -1    0    0    0    0  0.00000000000E+00  0.00000000000E+00  0.45593999997E+02  0.45594000000E+02  0.51100000000E-03 0.  1.
         11   -1    0    0    0    0 -0.00000000000E+00 -0.00000000000E+00 -0.45593999997E+02  0.45594000000E+02  0.51100000000E-03 0. -1.
    9900012    2    1    2    0    0  0.10064125227E+02 -0.11533180826E+02  0.10788443372E+02  0.72461244089E+02  0.69999575056E+02 0.  0.
         12    1    1    2    0    0 -0.10064125227E+02  0.11533180826E+02 -0.10788443372E+02  0.18726755911E+02  0.00000000000E+00 0. -1.
         11    1    3    3    0    0  0.22505818595E+00  0.33666919194E+01  0.13994679039E+02  0.14395704475E+02  0.51100000000E-03 0. -1.
        -11    1    3    3    0    0  0.18210492301E+02  0.63514410745E+01  0.18377511830E+02  0.26640115895E+02  0.51100000000E-03 0.  1.
         12    1    3    3    0    0 -0.83714252601E+01 -0.21251313820E+02 -0.21583747497E+02  0.31425423719E+02  0.00000000000E+00 0. -1.
</event>
<event>
 7    1  0.3189267E-013  0.7246152E+02  0.7816164E-02  0.1226708E+00
        -11   -1    0    0    0    0  0.00000000000E+00  0.00000000000E+00  0.45593999997E+02  0.45594000000E+02  0.51100000000E-03 0.  1.
         11   -1    0    0    0    0 -0.00000000000E+00 -0.00000000000E+00 -0.45593999997E+02  0.45594000000E+02  0.51100000000E-03 0. -1.
    9900012    2    1    2    0    0 -0.17986664598E+02 -0.12996648051E+01 -0.50469545116E+01  0.72461521906E+02  0.69999936965E+02 0.  0.
         12    1    1    2    0    0  0.17986664598E+02  0.12996648051E+01  0.50469545116E+01  0.18726478094E+02  0.00000000000E+00 0. -1.
         11    1    3    3    0    0  0.77084917300E+00  0.57964168652E+01 -0.18385533293E+00  0.58503384489E+01  0.51100000000E-03 0. -1.
        -11    1    3    3    0    0 -0.37230979889E+02  0.90174484997E+01 -0.13505965987E+02  0.40618608524E+02  0.51100000000E-03 0.  1.
         12    1    3    3    0    0  0.18473466118E+02 -0.16113530170E+02  0.86428668079E+01  0.25992574932E+02  0.00000000000E+00 0. -1.
</event>
<event>
 7    1  0.3189267E-013  0.7246160E+02  0.7816164E-02  0.1226708E+00
        -11   -1    0    0    0    0  0.00000000000E+00  0.00000000000E+00  0.45593999997E+02  0.45594000000E+02  0.51100000000E-03 0.  1.
         11   -1    0    0    0    0 -0.00000000000E+00 -0.00000000000E+00 -0.45593999997E+02  0.45594000000E+02  0.51100000000E-03 0. -1.
    9900012    2    1    2    0    0 -0.16291595322E+02  0.90362079567E+01 -0.18997183504E+01  0.72461599860E+02  0.70000038515E+02 0.  0.
         12    1    1    2    0    0  0.16291595322E+02 -0.90362079567E+01  0.18997183504E+01  0.18726400140E+02  0.00000000000E+00 0. -1.
         11    1    3    3    0    0  0.12075313053E+02  0.56099802300E+01 -0.50720187350E+01  0.14248173139E+02  0.51100000000E-03 0. -1.
        -11    1    3    3    0    0  0.13021551810E+02  0.46717515606E+01 -0.71018398127E+01  0.15550633530E+02  0.51100000000E-03 0.  1.
        -12    1    3    3    0    0 -0.41388460185E+02 -0.12455238339E+01  0.10274140197E+02  0.42662793191E+02  0.00000000000E+00 0.  1.
</event>
<event>
 7    1  0.3189267E-013  0.7246157E+02  0.7816164E-02  0.1226708E+00
        -11   -1    0    0    0    0  0.00000000000E+00  0.00000000000E+00  0.45593999997E+02  0.45594000000E+02  0.51100000000E-03 0. -1.
         11   -1    0    0    0    0 -0.00000000000E+00 -0.00000000000E+00 -0.45593999997E+02  0.45594000000E+02  0.51100000000E-03 0.  1.
    9900012    2    1    2    0    0  0.13523004773E+02 -0.53021051846E+01  0.11819274359E+02  0.72461568843E+02  0.69999998110E+02 0.  0.
         12    1    1    2    0    0 -0.13523004773E+02  0.53021051846E+01 -0.11819274359E+02  0.18726431157E+02  0.00000000000E+00 0. -1.
         11    1    3    3    0    0 -0.34665109337E+00  0.38877059368E+01 -0.12678654343E+02  0.13265847151E+02  0.51100000000E-03 0. -1.
        -11    1    3    3    0    0  0.13786074954E+02  0.12975039824E+02 -0.74222366608E+01  0.20334628553E+02  0.51100000000E-03 0.  1.
         12    1    3    3    0    0  0.83580913047E-01 -0.22164850945E+02  0.31920165363E+02  0.38861093140E+02  0.00000000000E+00 0. -1.
</event>
<event>
 7    1  0.3189267E-013  0.7246156E+02  0.7816164E-02  0.1226708E+00
        -11   -1    0    0    0    0  0.00000000000E+00  0.00000000000E+00  0.45593999997E+02  0.45594000000E+02  0.51100000000E-03 0.  1.
         11   -1    0    0    0    0 -0.00000000000E+00 -0.00000000000E+00 -0.45593999997E+02  0.45594000000E+02  0.51100000000E-03 0. -1.
    9900012    2    1    2    0    0  0.99891925176E+01  0.15762297099E+02  0.15638202115E+01  0.72461561186E+02  0.69999988135E+02 0.  0.
         12    1    1    2    0    0 -0.99891925176E+01 -0.15762297099E+02 -0.15638202115E+01  0.18726438814E+02  0.00000000000E+00 0. -1.
         11    1    3    3    0    0 -0.66872602587E+01 -0.12105750871E+01 -0.19228658549E+02  0.20394270069E+02  0.51100000000E-03 0. -1.
        -11    1    3    3    0    0 -0.11930055850E+01 -0.12320898136E+02  0.91611524588E+00  0.12412375301E+02  0.51100000000E-03 0.  1.
         12    1    3    3    0    0  0.17869458361E+02  0.29293770322E+02  0.19876363514E+02  0.39654915816E+02  0.00000000000E+00 0. -1.
</event>
<event>
 7    1  0.3189267E-013  0.7246154E+02  0.7816164E-02  0.1226708E+00
        -11   -1    0    0    0    0  0.00000000000E+00  0.00000000000E+00  0.45593999997E+02  0.45594000000E+02  0.51100000000E-03 0.  1.
         11   -1    0    0    0    0 -0.00000000000E+00 -0.00000000000E+00 -0.45593999997E+02  0.45594000000E+02  0.51100000000E-03 0. -1.
    9900012    2    1    2    0    0  0.44016020588E+01 -0.11631748277E+02  0.14000303598E+02  0.72461543595E+02  0.69999965219E+02 0.  0.
         12    1    1    2    0    0 -0.44016020588E+01  0.11631748277E+02 -0.14000303598E+02  0.18726456405E+02  0.00000000000E+00 0. -1.
         11    1    3    3    0    0 -0.38319030938E+01 -0.11683637359E+02  0.11513986928E+02  0.16845259230E+02  0.51100000000E-03 0. -1.
        -11    1    3    3    0    0  0.14485620805E+02 -0.15910893787E+02  0.21221312393E+02  0.30221413785E+02  0.51100000000E-03 0.  1.
         12    1    3    3    0    0 -0.62521156521E+01  0.15962782870E+02 -0.18734995723E+02  0.25394870581E+02  0.00000000000E+00 0. -1.
</event>
<event>
 7    1  0.3189267E-013  0.7246172E+02  0.7816164E-02  0.1226708E+00
        -11   -1    0    0    0    0  0.00000000000E+00  0.00000000000E+00  0.45593999997E+02  0.45594000000E+02  0.51100000000E-03 0. -1.
         11   -1    0    0    0    0 -0.00000000000E+00 -0.00000000000E+00 -0.45593999997E+02  0.45594000000E+02  0.51100000000E-03 0.  1.
    9900012    2    1    2    0    0 -0.15770933856E+02  0.50318091489E+01  0.87539760595E+01  0.72461720208E+02  0.70000195290E+02 0.  0.
         12    1    1    2    0    0  0.15770933856E+02 -0.50318091489E+01 -0.87539760595E+01  0.18726279792E+02  0.00000000000E+00 0. -1.
         11    1    3    3    0    0  0.49668869342E+01 -0.18872118900E+02  0.38267162422E+01  0.19886442494E+02  0.51100000000E-03 0. -1.
        -11    1    3    3    0    0 -0.13004504765E+02 -0.10566160583E+02  0.40454293644E+01  0.17237354572E+02  0.51100000000E-03 0.  1.
        -12    1    3    3    0    0 -0.77333160256E+01  0.34470088632E+02  0.88183045279E+00  0.35337923142E+02  0.00000000000E+00 0.  1.
</event>
<event>
 7    1  0.3189267E-013  0.7246158E+02  0.7816164E-02  0.1226708E+00
        -11   -1    0    0    0    0  0.00000000000E+00  0.00000000000E+00  0.45593999997E+02  0.45594000000E+02  0.51100000000E-03 0. -1.
         11   -1    0    0    0    0 -0.00000000000E+00 -0.00000000000E+00 -0.45593999997E+02  0.45594000000E+02  0.51100000000E-03 0.  1.
    9900012    2    1    2    0    0  0.16159268701E+02  0.85570916717E+01 -0.40414280173E+01  0.72461576870E+02  0.70000008566E+02 0.  0.
         12    1    1    2    0    0 -0.16159268701E+02 -0.85570916717E+01  0.40414280173E+01  0.18726423130E+02  0.00000000000E+00 0. -1.
         11    1    3    3    0    0  0.36084615986E+01 -0.13352082776E+01  0.43462849214E+01  0.58046506469E+01  0.51100000000E-03 0. -1.
        -11    1    3    3    0    0  0.19531795734E+02 -0.20300801193E+02  0.10842429546E+02  0.30185623273E+02  0.51100000000E-03 0.  1.
        -12    1    3    3    0    0 -0.69809886311E+01  0.30193101143E+02 -0.19230142485E+02  0.36471302950E+02  0.00000000000E+00 0.  1.
</event>
<event>
 7    1  0.3189267E-013  0.7246161E+02  0.7816164E-02  0.1226708E+00
        -11   -1    0    0    0    0  0.00000000000E+00  0.00000000000E+00  0.45593999997E+02  0.45594000000E+02  0.51100000000E-03 0. -1.
         11   -1    0    0    0    0 -0.00000000000E+00 -0.00000000000E+00 -0.45593999997E+02  0.45594000000E+02  0.51100000000E-03 0.  1.
    9900012    2    1    2    0    0 -0.16887272861E+02  0.44883525289E+01  0.67344141556E+01  0.72461611477E+02  0.70000053648E+02 0.  0.
         12    1    1    2    0    0  0.16887272861E+02 -0.44883525289E+01 -0.67344141556E+01  0.18726388523E+02  0.00000000000E+00 0. -1.
         11    1    3    3    0    0 -0.33278073955E+02  0.96772967601E+01  0.16637053161E+02  0.38443098430E+02  0.51100000000E-03 0. -1.
        -11    1    3    3    0    0  0.11416255544E+01 -0.12039814560E+01  0.91456589169E+01  0.92949425786E+01  0.51100000000E-03 0.  1.
        -12    1    3    3    0    0  0.15249175540E+02 -0.39849627752E+01 -0.19048297923E+02  0.24723570469E+02  0.00000000000E+00 0.  1.
</event>
<event>
 7    1  0.3189267E-013  0.7246158E+02  0.7816164E-02  0.1226708E+00
        -11   -1    0    0    0    0  0.00000000000E+00  0.00000000000E+00  0.45593999997E+02  0.45594000000E+02  0.51100000000E-03 0.  1.
         11   -1    0    0    0    0 -0.00000000000E+00 -0.00000000000E+00 -0.45593999997E+02  0.45594000000E+02  0.51100000000E-03 0. -1.
    9900012    2    1    2    0    0  0.61713180158E+01 -0.82945714409E+01  0.15613897254E+02  0.72461578321E+02  0.70000010457E+02 0.  0.
         12    1    1    2    0    0 -0.61713180158E+01  0.82945714409E+01 -0.15613897254E+02  0.18726421679E+02  0.00000000000E+00 0. -1.
         11    1    3    3    0    0 -0.24138792261E+02  0.78225639743E+01  0.71545028540E+01  0.26364004064E+02  0.51100000000E-03 0. -1.
        -11    1    3    3    0    0 -0.38259847534E+01  0.14375260740E+01  0.64798762742E+01  0.76611642286E+01  0.51100000000E-03 0.  1.
         12    1    3    3    0    0  0.34136095030E+02 -0.17554661489E+02  0.19795181254E+01  0.38436410029E+02  0.00000000000E+00 0. -1.
</event>
<event>
 7    1  0.3189267E-013  0.7246156E+02  0.7816164E-02  0.1226708E+00
        -11   -1    0    0    0    0  0.00000000000E+00  0.00000000000E+00  0.45593999997E+02  0.45594000000E+02  0.51100000000E-03 0.  1.
         11   -1    0    0    0    0 -0.00000000000E+00 -0.00000000000E+00 -0.45593999997E+02  0.45594000000E+02  0.51100000000E-03 0. -1.
    9900012    2    1    2    0    0  0.91663415519E+00  0.11098895527E+02  0.15055026912E+02  0.72461560525E+02  0.69999987273E+02 0.  0.
         12    1    1    2    0    0 -0.91663415519E+00 -0.11098895527E+02 -0.15055026912E+02  0.18726439475E+02  0.00000000000E+00 0. -1.
         11    1    3    3    0    0  0.15816031689E+02 -0.19751250307E+02  0.62857127020E+01  0.26072378709E+02  0.51100000000E-03 0. -1.
        -11    1    3    3    0    0  0.87560958685E+01  0.95821792739E+01 -0.12443714997E+01  0.13039778955E+02  0.51100000000E-03 0.  1.
        -12    1    3    3    0    0 -0.23655493402E+02  0.21267966561E+02  0.10013685710E+02  0.33349402862E+02  0.00000000000E+00 0.  1.
</event>
<event>
 7    1  0.3189267E-013  0.7246156E+02  0.7816164E-02  0.1226708E+00
        -11   -1    0    0    0    0  0.00000000000E+00  0.00000000000E+00  0.45593999997E+02  0.45594000000E+02  0.51100000000E-03 0.  1.
         11   -1    0    0    0    0 -0.00000000000E+00 -0.00000000000E+00 -0.45593999997E+02  0.45594000000E+02  0.51100000000E-03 0. -1.
    9900012    2    1    2    0    0 -0.70017830604E-01  0.18681127727E+02 -0.13001089961E+01  0.72461555622E+02  0.69999980886E+02 0.  0.
         12    1    1    2    0    0  0.70017830604E-01 -0.18681127727E+02  0.13001089961E+01  0.18726444378E+02  0.00000000000E+00 0. -1.
         11    1    3    3    0    0 -0.26316978631E+00  0.15042074409E+01 -0.21755197668E+02  0.21808725872E+02  0.51100000000E-03 0. -1.
        -11    1    3    3    0    0 -0.19305869750E+01 -0.24770163053E+01 -0.12135600498E+02  0.12535372973E+02  0.51100000000E-03 0.  1.
        -12    1    3    3    0    0  0.21237389307E+01  0.19653936591E+02  0.32590689170E+02  0.38117456777E+02  0.00000000000E+00 0.  1.
</event>
<event>
 7    1  0.3189267E-013  0.7246159E+02  0.7816164E-02  0.1226708E+00
        -11   -1    0    0    0    0  0.00000000000E+00  0.00000000000E+00  0.45593999997E+02  0.45594000000E+02  0.51100000000E-03 0.  1.
         11   -1    0    0    0    0 -0.00000000000E+00 -0.00000000000E+00 -0.45593999997E+02  0.45594000000E+02  0.51100000000E-03 0. -1.
    9900012    2    1    2    0    0  0.67977516809E+01  0.12950303081E+02  0.11694382960E+02  0.72461591626E+02  0.70000027788E+02 0.  0.
         12    1    1    2    0    0 -0.67977516809E+01 -0.12950303081E+02 -0.11694382960E+02  0.18726408374E+02  0.00000000000E+00 0. -1.
         11    1    3    3    0    0  0.17240849377E+02 -0.65361066243E+01 -0.11372821843E+02  0.21663532814E+02  0.51100000000E-03 0. -1.
        -11    1    3    3    0    0 -0.57989893324E+01 -0.99915774316E+01  0.16664708673E+02  0.20277386722E+02  0.51100000000E-03 0.  1.
        -12    1    3    3    0    0 -0.46441083634E+01  0.29477987137E+02  0.64024961293E+01  0.30520672090E+02  0.00000000000E+00 0.  1.
</event>
<event>
 7    1  0.3189267E-013  0.7246165E+02  0.7816164E-02  0.1226708E+00
        -11   -1    0    0    0    0  0.00000000000E+00  0.00000000000E+00  0.45593999997E+02  0.45594000000E+02  0.51100000000E-03 0.  1.
         11   -1    0    0    0    0 -0.00000000000E+00 -0.00000000000E+00 -0.45593999997E+02  0.45594000000E+02  0.51100000000E-03 0. -1.
    9900012    2    1    2    0    0 -0.18234185334E+02 -0.84495481601E+00  0.41804992950E+01  0.72461653912E+02  0.70000108928E+02 0.  0.
         12    1    1    2    0    0  0.18234185334E+02  0.84495481601E+00 -0.41804992950E+01  0.18726346088E+02  0.00000000000E+00 0. -1.
         11    1    3    3    0    0  0.12135560667E+02 -0.59352916119E+01  0.17258014220E+02  0.21916627804E+02  0.51100000000E-03 0. -1.
        -11    1    3    3    0    0  0.44992567249E+01 -0.79440027796E+01  0.35229277273E+01  0.97857810762E+01  0.51100000000E-03 0.  1.
        -12    1    3    3    0    0 -0.34869002726E+02  0.13034339576E+02 -0.16600442652E+02  0.40759245032E+02  0.00000000000E+00 0.  1.
</event>
<event>
 7    1  0.3189267E-013  0.7246151E+02  0.7816164E-02  0.1226708E+00
        -11   -1    0    0    0    0  0.00000000000E+00  0.00000000000E+00  0.45593999997E+02  0.45594000000E+02  0.51100000000E-03 0.  1.
         11   -1    0    0    0    0 -0.00000000000E+00 -0.00000000000E+00 -0.45593999997E+02  0.45594000000E+02  0.51100000000E-03 0. -1.
    9900012    2    1    2    0    0  0.35505046834E+00 -0.94359445316E+01  0.16171528173E+02  0.72461509846E+02  0.69999921255E+02 0.  0.
         12    1    1    2    0    0 -0.35505046834E+00  0.94359445316E+01 -0.16171528173E+02  0.18726490154E+02  0.00000000000E+00 0. -1.
         11    1    3    3    0    0  0.62515192638E+01 -0.26008162187E+02  0.43455703552E+01  0.27099630540E+02  0.51100000000E-03 0. -1.
        -11    1    3    3    0    0  0.11542374721E+02 -0.75432588934E+01  0.59964256478E+01  0.15036099552E+02  0.51100000000E-03 0.  1.
        -12    1    3    3    0    0 -0.17438843516E+02  0.24115476549E+02  0.58295321698E+01  0.30325779754E+02  0.00000000000E+00 0.  1.
</event>
<event>
 7    1  0.3189267E-013  0.7246153E+02  0.7816164E-02  0.1226708E+00
        -11   -1    0    0    0    0  0.00000000000E+00  0.00000000000E+00  0.45593999997E+02  0.45594000000E+02  0.51100000000E-03 0. -1.
         11   -1    0    0    0    0 -0.00000000000E+00 -0.00000000000E+00 -0.45593999997E+02  0.45594000000E+02  0.51100000000E-03 0.  1.
    9900012    2    1    2    0    0 -0.10817224982E+02 -0.12017097648E+02 -0.94476350573E+01  0.72461526751E+02  0.69999943276E+02 0.  0.
         12    1    1    2    0    0  0.10817224982E+02  0.12017097648E+02  0.94476350573E+01  0.18726473249E+02  0.00000000000E+00 0. -1.
         11    1    3    3    0    0 -0.49821334660E+01 -0.18553076877E+02  0.22119331409E+02  0.29296811050E+02  0.51100000000E-03 0. -1.
        -11    1    3    3    0    0  0.33876413412E+01 -0.81032312774E+01 -0.21588231731E+01  0.90442793381E+01  0.51100000000E-03 0.  1.
        -12    1    3    3    0    0 -0.92227328573E+01  0.14639210507E+02 -0.29408143293E+02  0.34120436362E+02  0.00000000000E+00 0.  1.
</event>
<event>
 7    1  0.3189267E-013  0.7246204E+02  0.7816164E-02  0.1226707E+00
        -11   -1    0    0    0    0  0.00000000000E+00  0.00000000000E+00  0.45593999997E+02  0.45594000000E+02  0.51100000000E-03 0. -1.
         11   -1    0    0    0    0 -0.00000000000E+00 -0.00000000000E+00 -0.45593999997E+02  0.45594000000E+02  0.51100000000E-03 0.  1.
    9900012    2    1    2    0    0  0.10600150821E+02  0.77868151526E+01  0.13329066461E+02  0.72462036731E+02  0.70000607617E+02 0.  0.
         12    1    1    2    0    0 -0.10600150821E+02 -0.77868151526E+01 -0.13329066461E+02  0.18725963269E+02  0.00000000000E+00 0. -1.
         11    1    3    3    0    0  0.28646106327E+02  0.37547066541E+01  0.30155932286E+02  0.41762153704E+02  0.51100000000E-03 0. -1.
        -11    1    3    3    0    0 -0.59650745232E+01  0.83025688837E+01 -0.90618080323E+00  0.10263329287E+02  0.51100000000E-03 0.  1.
        -12    1    3    3    0    0 -0.12080880982E+02 -0.42704603852E+01 -0.15920685022E+02  0.20436553740E+02  0.00000000000E+00 0.  1.
</event>
<event>
 7    1  0.3189267E-013  0.7246156E+02  0.7816164E-02  0.1226708E+00
        -11   -1    0    0    0    0  0.00000000000E+00  0.00000000000E+00  0.45593999997E+02  0.45594000000E+02  0.51100000000E-03 0. -1.
         11   -1    0    0    0    0 -0.00000000000E+00 -0.00000000000E+00 -0.45593999997E+02  0.45594000000E+02  0.51100000000E-03 0.  1.
    9900012    2    1    2    0    0 -0.14387473650E+02 -0.11518781477E+02  0.33163005057E+01  0.72461559500E+02  0.69999985939E+02 0.  0.
         12    1    1    2    0    0  0.14387473650E+02  0.11518781477E+02 -0.33163005057E+01  0.18726440500E+02  0.00000000000E+00 0. -1.
         11    1    3    3    0    0  0.22296991462E+02 -0.17720748103E+02  0.47127416364E+01  0.28868506639E+02  0.51100000000E-03 0. -1.
        -11    1    3    3    0    0 -0.13460710014E+01  0.61232250089E+01  0.45649239647E+01  0.77552770883E+01  0.51100000000E-03 0.  1.
        -12    1    3    3    0    0 -0.35338394110E+02  0.78741616840E-01 -0.59613650954E+01  0.35837775773E+02  0.00000000000E+00 0.  1.
</event>
<event>
 7    1  0.3189267E-013  0.7246145E+02  0.7816164E-02  0.1226708E+00
        -11   -1    0    0    0    0  0.00000000000E+00  0.00000000000E+00  0.45593999997E+02  0.45594000000E+02  0.51100000000E-03 0.  1.
         11   -1    0    0    0    0 -0.00000000000E+00 -0.00000000000E+00 -0.45593999997E+02  0.45594000000E+02  0.51100000000E-03 0. -1.
    9900012    2    1    2    0    0 -0.15773361786E+02  0.59027971197E+01  0.81879098506E+01  0.72461446030E+02  0.69999838123E+02 0.  0.
         12    1    1    2    0    0  0.15773361786E+02 -0.59027971197E+01 -0.81879098506E+01  0.18726553970E+02  0.00000000000E+00 0. -1.
         11    1    3    3    0    0 -0.10160539284E+02  0.17924928639E+02 -0.10980027982E+02  0.23347390433E+02  0.51100000000E-03 0. -1.
        -11    1    3    3    0    0 -0.19892800330E+02 -0.86268760528E+01 -0.36449289157E+01  0.21987087176E+02  0.51100000000E-03 0.  1.
         12    1    3    3    0    0  0.14279977829E+02 -0.33952554662E+01  0.22812866749E+02  0.27126968422E+02  0.00000000000E+00 0. -1.
</event>
<event>
 7    1  0.3189267E-013  0.7246157E+02  0.7816164E-02  0.1226708E+00
        -11   -1    0    0    0    0  0.00000000000E+00  0.00000000000E+00  0.45593999997E+02  0.45594000000E+02  0.51100000000E-03 0. -1.
         11   -1    0    0    0    0 -0.00000000000E+00 -0.00000000000E+00 -0.45593999997E+02  0.45594000000E+02  0.51100000000E-03 0.  1.
    9900012    2    1    2    0    0 -0.11790018449E+02 -0.13193610447E+02 -0.61321390572E+01  0.72461574258E+02  0.70000005163E+02 0.  0.
         12    1    1    2    0    0  0.11790018449E+02  0.13193610447E+02  0.61321390572E+01  0.18726425742E+02  0.00000000000E+00 0. -1.
         11    1    3    3    0    0 -0.21091911866E+01  0.70687815744E+01  0.82665939433E+00  0.74229189961E+01  0.51100000000E-03 0. -1.
        -11    1    3    3    0    0 -0.31107216935E+02  0.59924750933E-01 -0.14851928145E+02  0.34470890709E+02  0.51100000000E-03 0.  1.
         12    1    3    3    0    0  0.21426389672E+02 -0.20322316772E+02  0.78931296930E+01  0.30567764552E+02  0.00000000000E+00 0. -1.
</event>
<event>
 7    1  0.3189267E-013  0.7246161E+02  0.7816164E-02  0.1226708E+00
        -11   -1    0    0    0    0  0.00000000000E+00  0.00000000000E+00  0.45593999997E+02  0.45594000000E+02  0.51100000000E-03 0.  1.
         11   -1    0    0    0    0 -0.00000000000E+00 -0.00000000000E+00 -0.45593999997E+02  0.45594000000E+02  0.51100000000E-03 0. -1.
    9900012    2    1    2    0    0 -0.18204311300E+02  0.30813553912E+01 -0.31282331903E+01  0.72461613701E+02  0.70000056545E+02 0.  0.
         12    1    1    2    0    0  0.18204311300E+02 -0.30813553912E+01  0.31282331903E+01  0.18726386299E+02  0.00000000000E+00 0. -1.
         11    1    3    3    0    0 -0.36432691396E+02  0.49814218699E+01 -0.14858506788E+02  0.39660191507E+02  0.51100000000E-03 0. -1.
        -11    1    3    3    0    0 -0.45801173809E+01 -0.56954597518E+01  0.12487600849E+01  0.74145221705E+01  0.51100000000E-03 0.  1.
        -12    1    3    3    0    0  0.22808497477E+02  0.37953932731E+01  0.10481513513E+02  0.25386900023E+02  0.00000000000E+00 0.  1.
</event>
<event>
 7    1  0.3189267E-013  0.7246161E+02  0.7816164E-02  0.1226708E+00
        -11   -1    0    0    0    0  0.00000000000E+00  0.00000000000E+00  0.45593999997E+02  0.45594000000E+02  0.51100000000E-03 0. -1.
         11   -1    0    0    0    0 -0.00000000000E+00 -0.00000000000E+00 -0.45593999997E+02  0.45594000000E+02  0.51100000000E-03 0.  1.
    9900012    2    1    2    0    0  0.84405709371E+01 -0.17370754967E+01 -0.16625795454E+02  0.72461608369E+02  0.70000049599E+02 0.  0.
         12    1    1    2    0    0 -0.84405709371E+01  0.17370754967E+01  0.16625795454E+02  0.18726391631E+02  0.00000000000E+00 0. -1.
         11    1    3    3    0    0 -0.12472506519E+02  0.33455624997E+01 -0.12559980542E+01  0.12974349258E+02  0.51100000000E-03 0. -1.
        -11    1    3    3    0    0 -0.11007494877E+02  0.14349055206E+02 -0.12546524122E+02  0.22010806359E+02  0.51100000000E-03 0.  1.
         12    1    3    3    0    0  0.31920572333E+02 -0.19431693203E+02 -0.28232732784E+01  0.37476452751E+02  0.00000000000E+00 0. -1.
</event>
<event>
 7    1  0.3189267E-013  0.7246151E+02  0.7816164E-02  0.1226708E+00
        -11   -1    0    0    0    0  0.00000000000E+00  0.00000000000E+00  0.45593999997E+02  0.45594000000E+02  0.51100000000E-03 0.  1.
         11   -1    0    0    0    0 -0.00000000000E+00 -0.00000000000E+00 -0.45593999997E+02  0.45594000000E+02  0.51100000000E-03 0. -1.
    9900012    2    1    2    0    0 -0.44185805508E+01  0.30595014592E+01  0.17938698208E+02  0.72461513499E+02  0.69999926014E+02 0.  0.
         12    1    1    2    0    0  0.44185805508E+01 -0.30595014592E+01 -0.17938698208E+02  0.18726486501E+02  0.00000000000E+00 0. -1.
         11    1    3    3    0    0 -0.56339438767E+01 -0.16542096194E+01  0.10780891200E+00  0.58727639229E+01  0.51100000000E-03 0. -1.
        -11    1    3    3    0    0  0.16359811154E+02 -0.25374892190E+02  0.53268471362E+01  0.30657851773E+02  0.51100000000E-03 0.  1.
         12    1    3    3    0    0 -0.15144447828E+02  0.30088603269E+02  0.12504042160E+02  0.35930897804E+02  0.00000000000E+00 0. -1.
</event>
<event>
 7    1  0.3189267E-013  0.7246156E+02  0.7816164E-02  0.1226708E+00
        -11   -1    0    0    0    0  0.00000000000E+00  0.00000000000E+00  0.45593999997E+02  0.45594000000E+02  0.51100000000E-03 0.  1.
         11   -1    0    0    0    0 -0.00000000000E+00 -0.00000000000E+00 -0.45593999997E+02  0.45594000000E+02  0.51100000000E-03 0. -1.
    9900012    2    1    2    0    0 -0.98762416430E+01  0.13140283945E+02  0.89706411970E+01  0.72461558410E+02  0.69999984518E+02 0.  0.
         12    1    1    2    0    0  0.98762416430E+01 -0.13140283945E+02 -0.89706411970E+01  0.18726441590E+02  0.00000000000E+00 0. -1.
         11    1    3    3    0    0  0.59398142481E+00  0.35514521129E+01 -0.88964797279E+01  0.95975506173E+01  0.51100000000E-03 0. -1.
        -11    1    3    3    0    0 -0.21497364235E+02 -0.18604112540E+02  0.15789313117E+02  0.32520025852E+02  0.51100000000E-03 0.  1.
         12    1    3    3    0    0  0.11027141168E+02  0.28192944372E+02  0.20778078081E+01  0.30343981940E+02  0.00000000000E+00 0. -1.
</event>
<event>
 7    1  0.3189267E-013  0.7246159E+02  0.7816164E-02  0.1226708E+00
        -11   -1    0    0    0    0  0.00000000000E+00  0.00000000000E+00  0.45593999997E+02  0.45594000000E+02  0.51100000000E-03 0. -1.
         11   -1    0    0    0    0 -0.00000000000E+00 -0.00000000000E+00 -0.45593999997E+02  0.45594000000E+02  0.51100000000E-03 0.  1.
    9900012    2    1    2    0    0 -0.10600516315E+02  0.98650671499E+00 -0.15405663602E+02  0.72461585163E+02  0.70000019369E+02 0.  0.
         12    1    1    2    0    0  0.10600516315E+02 -0.98650671499E+00  0.15405663602E+02  0.18726414837E+02  0.00000000000E+00 0. -1.
         11    1    3    3    0    0 -0.19441106308E+02 -0.79937143478E+01  0.17192046011E+02  0.27155524850E+02  0.51100000000E-03 0. -1.
        -11    1    3    3    0    0  0.12670102796E+01  0.16799097344E+02 -0.85127933734E+01  0.18875450668E+02  0.51100000000E-03 0.  1.
        -12    1    3    3    0    0  0.75735797133E+01 -0.78188762814E+01 -0.24084916239E+02  0.26430609645E+02  0.00000000000E+00 0.  1.
</event>
<event>
 7    1  0.3189267E-013  0.7246157E+02  0.7816164E-02  0.1226708E+00
        -11   -1    0    0    0    0  0.00000000000E+00  0.00000000000E+00  0.45593999997E+02  0.45594000000E+02  0.51100000000E-03 0. -1.
         11   -1    0    0    0    0 -0.00000000000E+00 -0.00000000000E+00 -0.45593999997E+02  0.45594000000E+02  0.51100000000E-03 0.  1.
    9900012    2    1    2    0    0 -0.12637169235E+02  0.30962730423E+01 -0.13468266526E+02  0.72461570649E+02  0.70000000462E+02 0.  0.
         12    1    1    2    0    0  0.12637169235E+02 -0.30962730423E+01  0.13468266526E+02  0.18726429351E+02  0.00000000000E+00 0. -1.
         11    1    3    3    0    0 -0.69140908042E+01 -0.15353311930E+02 -0.47678641189E+01  0.17500324779E+02  0.51100000000E-03 0. -1.
        -11    1    3    3    0    0  0.69104514895E+01  0.25422277129E+02 -0.22759744060E+02  0.34814543860E+02  0.51100000000E-03 0.  1.
         12    1    3    3    0    0 -0.12633529921E+02 -0.69726921572E+01  0.14059341653E+02  0.20146702010E+02  0.00000000000E+00 0. -1.
</event>
<event>
 7    1  0.3189267E-013  0.7246142E+02  0.7816164E-02  0.1226708E+00
        -11   -1    0    0    0    0  0.00000000000E+00  0.00000000000E+00  0.45593999997E+02  0.45594000000E+02  0.51100000000E-03 0.  1.
         11   -1    0    0    0    0 -0.00000000000E+00 -0.00000000000E+00 -0.45593999997E+02  0.45594000000E+02  0.51100000000E-03 0. -1.
    9900012    2    1    2    0    0  0.33796228366E+01  0.13627855810E+02  0.12391313146E+02  0.72461416063E+02  0.69999799084E+02 0.  0.
         12    1    1    2    0    0 -0.33796228366E+01 -0.13627855810E+02 -0.12391313146E+02  0.18726583937E+02  0.00000000000E+00 0. -1.
         11    1    3    3    0    0 -0.15523531518E+01 -0.23333138577E+01 -0.18619106141E+02  0.18828841377E+02  0.51100000000E-03 0. -1.
        -11    1    3    3    0    0  0.13266827880E+02  0.73977719753E+01 -0.47604200976E+01  0.15918459472E+02  0.51100000000E-03 0.  1.
        -12    1    3    3    0    0 -0.83348518913E+01  0.85633976922E+01  0.35770839384E+02  0.37714115213E+02  0.00000000000E+00 0.  1.
</event>
<event>
 7    1  0.3189267E-013  0.7246158E+02  0.7816164E-02  0.1226708E+00
        -11   -1    0    0    0    0  0.00000000000E+00  0.00000000000E+00  0.45593999997E+02  0.45594000000E+02  0.51100000000E-03 0. -1.
         11   -1    0    0    0    0 -0.00000000000E+00 -0.00000000000E+00 -0.45593999997E+02  0.45594000000E+02  0.51100000000E-03 0.  1.
    9900012    2    1    2    0    0  0.39314370174E+01 -0.18209960206E+02 -0.19026043535E+01  0.72461581467E+02  0.70000014555E+02 0.  0.
         12    1    1    2    0    0 -0.39314370174E+01  0.18209960206E+02  0.19026043535E+01  0.18726418533E+02  0.00000000000E+00 0. -1.
         11    1    3    3    0    0  0.15872074956E+02  0.20477259901E+00  0.10663527240E+01  0.15909173568E+02  0.51100000000E-03 0. -1.
        -11    1    3    3    0    0  0.53918339945E+01 -0.18953785576E+02 -0.22848563939E+02  0.30172416804E+02  0.51100000000E-03 0.  1.
         12    1    3    3    0    0 -0.17332471933E+02  0.53905277095E+00  0.19879606861E+02  0.26379991095E+02  0.00000000000E+00 0. -1.
</event>
<event>
 7    1  0.3189267E-013  0.7246156E+02  0.7816164E-02  0.1226708E+00
        -11   -1    0    0    0    0  0.00000000000E+00  0.00000000000E+00  0.45593999997E+02  0.45594000000E+02  0.51100000000E-03 0. -1.
         11   -1    0    0    0    0 -0.00000000000E+00 -0.00000000000E+00 -0.45593999997E+02  0.45594000000E+02  0.51100000000E-03 0.  1.
    9900012    2    1    2    0    0 -0.15646038897E+02  0.76822523881E-01 -0.10289561876E+02  0.72461560978E+02  0.69999987863E+02 0.  0.
         12    1    1    2    0    0  0.15646038897E+02 -0.76822523881E-01  0.10289561876E+02  0.18726439022E+02  0.00000000000E+00 0. -1.
         11    1    3    3    0    0 -0.98487051449E+01 -0.74326951813E+01  0.37788284364E+01  0.12904320800E+02  0.51100000000E-03 0. -1.
        -11    1    3    3    0    0 -0.28427181806E+02  0.14205948501E+02  0.57344500106E+00  0.31784311817E+02  0.51100000000E-03 0.  1.
         12    1    3    3    0    0  0.22629848054E+02 -0.66964307960E+01 -0.14641835313E+02  0.27772928361E+02  0.00000000000E+00 0. -1.
</event>
<event>
 7    1  0.3189267E-013  0.7246153E+02  0.7816164E-02  0.1226708E+00
        -11   -1    0    0    0    0  0.00000000000E+00  0.00000000000E+00  0.45593999997E+02  0.45594000000E+02  0.51100000000E-03 0. -1.
         11   -1    0    0    0    0 -0.00000000000E+00 -0.00000000000E+00 -0.45593999997E+02  0.45594000000E+02  0.51100000000E-03 0.  1.
    9900012    2    1    2    0    0  0.68626722998E+01  0.13415904489E+02 -0.11117457969E+02  0.72461531138E+02  0.69999948991E+02 0.  0.
         12    1    1    2    0    0 -0.68626722998E+01 -0.13415904489E+02  0.11117457969E+02  0.18726468862E+02  0.00000000000E+00 0. -1.
         11    1    3    3    0    0  0.29546225735E+02 -0.14439789437E+02 -0.22530717743E+01  0.32963059731E+02  0.51100000000E-03 0. -1.
        -11    1    3    3    0    0  0.43858612826E+00  0.31138161217E+01  0.22390886362E+01  0.38602754842E+01  0.51100000000E-03 0.  1.
        -12    1    3    3    0    0 -0.23122139564E+02  0.24741877804E+02 -0.11103474831E+02  0.35638195922E+02  0.00000000000E+00 0.  1.
</event>
<event>
 7    1  0.3189267E-013  0.7246162E+02  0.7816164E-02  0.1226708E+00
        -11   -1    0    0    0    0  0.00000000000E+00  0.00000000000E+00  0.45593999997E+02  0.45594000000E+02  0.51100000000E-03 0. -1.
         11   -1    0    0    0    0 -0.00000000000E+00 -0.00000000000E+00 -0.45593999997E+02  0.45594000000E+02  0.51100000000E-03 0.  1.
    9900012    2    1    2    0    0  0.49206819330E+01 -0.16234503028E+02 -0.79312816220E+01  0.72461616809E+02  0.70000060594E+02 0.  0.
         12    1    1    2    0    0 -0.49206819330E+01  0.16234503028E+02  0.79312816220E+01  0.18726383191E+02  0.00000000000E+00 0. -1.
         11    1    3    3    0    0 -0.39396030700E+01  0.26039139125E+01 -0.33059150211E+01  0.57645393919E+01  0.51100000000E-03 0. -1.
        -11    1    3    3    0    0 -0.10008723377E+02 -0.13590300367E+02 -0.30132900123E+02  0.34537841244E+02  0.51100000000E-03 0.  1.
         12    1    3    3    0    0  0.18869008380E+02 -0.52481165733E+01  0.25507533522E+02  0.32159236173E+02  0.00000000000E+00 0. -1.
</event>
<event>
 7    1  0.3189267E-013  0.7246166E+02  0.7816164E-02  0.1226708E+00
        -11   -1    0    0    0    0  0.00000000000E+00  0.00000000000E+00  0.45593999997E+02  0.45594000000E+02  0.51100000000E-03 0.  1.
         11   -1    0    0    0    0 -0.00000000000E+00 -0.00000000000E+00 -0.45593999997E+02  0.45594000000E+02  0.51100000000E-03 0. -1.
    9900012    2    1    2    0    0 -0.34504901956E+01  0.33317219772E+01  0.18101640947E+02  0.72461664029E+02  0.70000122107E+02 0.  0.
         12    1    1    2    0    0  0.34504901956E+01 -0.33317219772E+01 -0.18101640947E+02  0.18726335971E+02  0.00000000000E+00 0. -1.
         11    1    3    3    0    0 -0.10480422655E+02  0.17030879672E+01 -0.98032564963E+01  0.14451422277E+02  0.51100000000E-03 0. -1.
        -11    1    3    3    0    0 -0.15925847115E+02  0.10113230862E+02  0.27726411068E+02  0.33536009240E+02  0.51100000000E-03 0.  1.
        -12    1    3    3    0    0  0.22955779575E+02 -0.84845968519E+01  0.17848637564E+00  0.24474232511E+02  0.00000000000E+00 0.  1.
</event>
<event>
 7    1  0.3189267E-013  0.7246160E+02  0.7816164E-02  0.1226708E+00
        -11   -1    0    0    0    0  0.00000000000E+00  0.00000000000E+00  0.45593999997E+02  0.45594000000E+02  0.51100000000E-03 0.  1.
         11   -1    0    0    0    0 -0.00000000000E+00 -0.00000000000E+00 -0.45593999997E+02  0.45594000000E+02  0.51100000000E-03 0. -1.
    9900012    2    1    2    0    0 -0.95486954728E+01  0.15301884392E+02  0.50351622631E+01  0.72461598578E+02  0.70000036845E+02 0.  0.
         12    1    1    2    0    0  0.95486954728E+01 -0.15301884392E+02 -0.50351622631E+01  0.18726401422E+02  0.00000000000E+00 0. -1.
         11    1    3    3    0    0  0.41205038975E+01 -0.13049887220E+02 -0.52616397233E+01  0.14661615247E+02  0.51100000000E-03 0. -1.
        -11    1    3    3    0    0 -0.20607091710E+02 -0.38644020203E+01 -0.48671100621E+01  0.21523814539E+02  0.51100000000E-03 0.  1.
         12    1    3    3    0    0  0.69378923395E+01  0.32216173632E+02  0.15163912048E+02  0.36276168792E+02  0.00000000000E+00 0. -1.
</event>
<event>
 7    1  0.3189267E-013  0.7246152E+02  0.7816164E-02  0.1226708E+00
        -11   -1    0    0    0    0  0.00000000000E+00  0.00000000000E+00  0.45593999997E+02  0.45594000000E+02  0.51100000000E-03 0.  1.
         11   -1    0    0    0    0 -0.00000000000E+00 -0.00000000000E+00 -0.45593999997E+02  0.45594000000E+02  0.51100000000E-03 0. -1.
    9900012    2    1    2    0    0 -0.14364718431E+00 -0.83358213726E+01  0.16768255926E+02  0.72461522507E+02  0.69999937749E+02 0.  0.
         12    1    1    2    0    0  0.14364718431E+00  0.83358213726E+01 -0.16768255926E+02  0.18726477493E+02  0.00000000000E+00 0. -1.
         11    1    3    3    0    0 -0.10101460014E+02 -0.23263553860E+01 -0.23271842295E+02  0.25476068532E+02  0.51100000000E-03 0. -1.
        -11    1    3    3    0    0  0.56963045208E+01 -0.83820081041E+01  0.44596150224E+01  0.11072222517E+02  0.51100000000E-03 0.  1.
        -12    1    3    3    0    0  0.42615083084E+01  0.23725421175E+01  0.35580483199E+02  0.35913231459E+02  0.00000000000E+00 0.  1.
</event>
<event>
 7    1  0.3189267E-013  0.7246161E+02  0.7816164E-02  0.1226708E+00
        -11   -1    0    0    0    0  0.00000000000E+00  0.00000000000E+00  0.45593999997E+02  0.45594000000E+02  0.51100000000E-03 0.  1.
         11   -1    0    0    0    0 -0.00000000000E+00 -0.00000000000E+00 -0.45593999997E+02  0.45594000000E+02  0.51100000000E-03 0. -1.
    9900012    2    1    2    0    0  0.93827821661E+01 -0.15374689072E+02  0.51244492487E+01  0.72461610990E+02  0.70000053014E+02 0.  0.
         12    1    1    2    0    0 -0.93827821661E+01  0.15374689072E+02 -0.51244492487E+01  0.18726389010E+02  0.00000000000E+00 0. -1.
         11    1    3    3    0    0 -0.17003752723E+02 -0.52428626025E+01  0.40381205684E+00  0.17798266190E+02  0.51100000000E-03 0. -1.
        -11    1    3    3    0    0  0.20874901526E+02 -0.23098983006E+02  0.17436335071E+02  0.35684034394E+02  0.51100000000E-03 0.  1.
        -12    1    3    3    0    0  0.55116333628E+01  0.12967156536E+02 -0.12715697879E+02  0.18979310407E+02  0.00000000000E+00 0.  1.
</event>
<event>
 7    1  0.3189267E-013  0.7246164E+02  0.7816164E-02  0.1226708E+00
        -11   -1    0    0    0    0  0.00000000000E+00  0.00000000000E+00  0.45593999997E+02  0.45594000000E+02  0.51100000000E-03 0.  1.
         11   -1    0    0    0    0 -0.00000000000E+00 -0.00000000000E+00 -0.45593999997E+02  0.45594000000E+02  0.51100000000E-03 0. -1.
    9900012    2    1    2    0    0 -0.21167559412E+01 -0.20759065951E+00  0.18605187067E+02  0.72461635286E+02  0.70000084664E+02 0.  0.
         12    1    1    2    0    0  0.21167559412E+01  0.20759065951E+00 -0.18605187067E+02  0.18726364714E+02  0.00000000000E+00 0. -1.
         11    1    3    3    0    0 -0.22285678153E+02 -0.45103276574E+01 -0.14749437842E+02  0.27102406226E+02  0.51100000000E-03 0. -1.
        -11    1    3    3    0    0  0.23472300213E+01 -0.82460259460E+01  0.64240341190E+01  0.10713293018E+02  0.51100000000E-03 0.  1.
        -12    1    3    3    0    0  0.17821692191E+02  0.12548762944E+02  0.26930590789E+02  0.34645936042E+02  0.00000000000E+00 0.  1.
</event>
<event>
 7    1  0.3189267E-013  0.7246168E+02  0.7816164E-02  0.1226708E+00
        -11   -1    0    0    0    0  0.00000000000E+00  0.00000000000E+00  0.45593999997E+02  0.45594000000E+02  0.51100000000E-03 0.  1.
         11   -1    0    0    0    0 -0.00000000000E+00 -0.00000000000E+00 -0.45593999997E+02  0.45594000000E+02  0.51100000000E-03 0. -1.
    9900012    2    1    2    0    0 -0.17580015349E+02 -0.53263114413E+01  0.36398428996E+01  0.72461681900E+02  0.70000145387E+02 0.  0.
         12    1    1    2    0    0  0.17580015349E+02  0.53263114413E+01 -0.36398428996E+01  0.18726318100E+02  0.00000000000E+00 0. -1.
         11    1    3    3    0    0 -0.11947467612E+02  0.11368154939E+02 -0.45659315814E+01  0.17112120281E+02  0.51100000000E-03 0. -1.
        -11    1    3    3    0    0 -0.43555854528E+01  0.15864822362E+02  0.14771648070E+02  0.22110298510E+02  0.51100000000E-03 0.  1.
        -12    1    3    3    0    0 -0.12769622840E+01 -0.32559288742E+02 -0.65658735893E+01  0.33239263109E+02  0.00000000000E+00 0.  1.
</event>
<event>
 7    1  0.3189267E-013  0.7246163E+02  0.7816164E-02  0.1226708E+00
        -11   -1    0    0    0    0  0.00000000000E+00  0.00000000000E+00  0.45593999997E+02  0.45594000000E+02  0.51100000000E-03 0.  1.
         11   -1    0    0    0    0 -0.00000000000E+00 -0.00000000000E+00 -0.45593999997E+02  0.45594000000E+02  0.51100000000E-03 0. -1.
    9900012    2    1    2    0    0  0.45453316612E+01 -0.13716966184E+02  0.11910576589E+02  0.72461627263E+02  0.70000074212E+02 0.  0.
         12    1    1    2    0    0 -0.45453316612E+01  0.13716966184E+02 -0.11910576589E+02  0.18726372737E+02  0.00000000000E+00 0. -1.
         11    1    3    3    0    0 -0.11163574609E+02 -0.14015273960E+02  0.19058336975E+01  0.18019031732E+02  0.51100000000E-03 0. -1.
        -11    1    3    3    0    0 -0.29430821958E+01 -0.63322432083E+01  0.27285916604E+02  0.28165231794E+02  0.51100000000E-03 0.  1.
         12    1    3    3    0    0  0.18651988466E+02  0.66305509843E+01 -0.17281173712E+02  0.26277363737E+02  0.00000000000E+00 0. -1.
</event>
<event>
 7    1  0.3189267E-013  0.7246157E+02  0.7816164E-02  0.1226708E+00
        -11   -1    0    0    0    0  0.00000000000E+00  0.00000000000E+00  0.45593999997E+02  0.45594000000E+02  0.51100000000E-03 0.  1.
         11   -1    0    0    0    0 -0.00000000000E+00 -0.00000000000E+00 -0.45593999997E+02  0.45594000000E+02  0.51100000000E-03 0. -1.
    9900012    2    1    2    0    0 -0.15161968608E+02 -0.31362608595E+00  0.10986148765E+02  0.72461571668E+02  0.70000001790E+02 0.  0.
         12    1    1    2    0    0  0.15161968608E+02  0.31362608595E+00 -0.10986148765E+02  0.18726428332E+02  0.00000000000E+00 0. -1.
         11    1    3    3    0    0  0.99685360528E+01  0.80415188080E+01  0.10191539410E+01  0.12848206520E+02  0.51100000000E-03 0. -1.
        -11    1    3    3    0    0  0.12403578162E+02  0.16139358163E+01  0.16003375405E+02  0.20311611572E+02  0.51100000000E-03 0.  1.
        -12    1    3    3    0    0 -0.37534082823E+02 -0.99690807102E+01 -0.60363805812E+01  0.39301753575E+02  0.00000000000E+00 0.  1.
</event>
<event>
 7    1  0.3189267E-013  0.7246145E+02  0.7816164E-02  0.1226708E+00
        -11   -1    0    0    0    0  0.00000000000E+00  0.00000000000E+00  0.45593999997E+02  0.45594000000E+02  0.51100000000E-03 0.  1.
         11   -1    0    0    0    0 -0.00000000000E+00 -0.00000000000E+00 -0.45593999997E+02  0.45594000000E+02  0.51100000000E-03 0. -1.
    9900012    2    1    2    0    0 -0.43997893510E+01  0.13929975148E+02  0.11716711430E+02  0.72461449846E+02  0.69999843093E+02 0.  0.
         12    1    1    2    0    0  0.43997893510E+01 -0.13929975148E+02 -0.11716711430E+02  0.18726550154E+02  0.00000000000E+00 0. -1.
         11    1    3    3    0    0  0.82738892797E+01  0.22880894049E+02 -0.45103542288E+01  0.24745420826E+02  0.51100000000E-03 0. -1.
        -11    1    3    3    0    0 -0.10801263319E+02 -0.53905889632E+00 -0.13193388598E+02  0.17059407280E+02  0.51100000000E-03 0.  1.
        -12    1    3    3    0    0 -0.18724153119E+01 -0.84118600054E+01  0.29420454257E+02  0.30656621740E+02  0.00000000000E+00 0.  1.
</event>
<event>
 7    1  0.3189267E-013  0.7246154E+02  0.7816164E-02  0.1226708E+00
        -11   -1    0    0    0    0  0.00000000000E+00  0.00000000000E+00  0.45593999997E+02  0.45594000000E+02  0.51100000000E-03 0.  1.
         11   -1    0    0    0    0 -0.00000000000E+00 -0.00000000000E+00 -0.45593999997E+02  0.45594000000E+02  0.51100000000E-03 0. -1.
    9900012    2    1    2    0    0  0.24297581255E+01  0.48933677910E+01  0.17911766732E+02  0.72461543839E+02  0.69999965537E+02 0.  0.
         12    1    1    2    0    0 -0.24297581255E+01 -0.48933677910E+01 -0.17911766732E+02  0.18726456161E+02  0.00000000000E+00 0. -1.
         11    1    3    3    0    0  0.33788421378E+00  0.17050036719E+01  0.30092231741E+01  0.34751442611E+01  0.51100000000E-03 0.  1.
        -11    1    3    3    0    0 -0.18164472979E+02  0.15799128015E+02  0.31700492286E+02  0.39805549061E+02  0.51100000000E-03 0. -1.
         12    1    3    3    0    0  0.20256346891E+02 -0.12610763896E+02 -0.16797948728E+02  0.29180850517E+02  0.00000000000E+00 0. -1.
</event>
<event>
 7    1  0.3189267E-013  0.7246168E+02  0.7816164E-02  0.1226708E+00
        -11   -1    0    0    0    0  0.00000000000E+00  0.00000000000E+00  0.45593999997E+02  0.45594000000E+02  0.51100000000E-03 0. -1.
         11   -1    0    0    0    0 -0.00000000000E+00 -0.00000000000E+00 -0.45593999997E+02  0.45594000000E+02  0.51100000000E-03 0.  1.
    9900012    2    1    2    0    0  0.84845592338E+01  0.14569733130E+02  0.81492373464E+01  0.72461683272E+02  0.70000147174E+02 0.  0.
         12    1    1    2    0    0 -0.84845592338E+01 -0.14569733130E+02 -0.81492373464E+01  0.18726316728E+02  0.00000000000E+00 0. -1.
         11    1    3    3    0    0 -0.10937819765E+02 -0.10654171274E+02  0.75153551553E+01  0.17018455574E+02  0.51100000000E-03 0. -1.
        -11    1    3    3    0    0 -0.82408667491E+01  0.23409576188E+02  0.91362954947E+01  0.26446021208E+02  0.51100000000E-03 0.  1.
        -12    1    3    3    0    0  0.27663245748E+02  0.18143282168E+01 -0.85024133036E+01  0.28997206490E+02  0.00000000000E+00 0.  1.
</event>
<event>
 7    1  0.3189267E-013  0.7246156E+02  0.7816164E-02  0.1226708E+00
        -11   -1    0    0    0    0  0.00000000000E+00  0.00000000000E+00  0.45593999997E+02  0.45594000000E+02  0.51100000000E-03 0.  1.
         11   -1    0    0    0    0 -0.00000000000E+00 -0.00000000000E+00 -0.45593999997E+02  0.45594000000E+02  0.51100000000E-03 0. -1.
    9900012    2    1    2    0    0 -0.92789442254E+01  0.13898420853E+02  0.84507165935E+01  0.72461560961E+02  0.69999987842E+02 0.  0.
         12    1    1    2    0    0  0.92789442254E+01 -0.13898420853E+02 -0.84507165935E+01  0.18726439039E+02  0.00000000000E+00 0. -1.
         11    1    3    3    0    0  0.13661120699E+02  0.29511101797E+02  0.28648230277E+01  0.32645651460E+02  0.51100000000E-03 0.  1.
        -11    1    3    3    0    0 -0.12463599907E+01 -0.12850684938E+02  0.11360507094E+02  0.17197518376E+02  0.51100000000E-03 0. -1.
        -12    1    3    3    0    0 -0.21693704934E+02 -0.27619960065E+01 -0.57746135285E+01  0.22618391125E+02  0.00000000000E+00 0.  1.
</event>
<event>
 7    1  0.3189267E-013  0.7246160E+02  0.7816164E-02  0.1226708E+00
        -11   -1    0    0    0    0  0.00000000000E+00  0.00000000000E+00  0.45593999997E+02  0.45594000000E+02  0.51100000000E-03 0.  1.
         11   -1    0    0    0    0 -0.00000000000E+00 -0.00000000000E+00 -0.45593999997E+02  0.45594000000E+02  0.51100000000E-03 0. -1.
    9900012    2    1    2    0    0  0.71122157138E+01  0.16277993000E+02  0.59263148562E+01  0.72461604825E+02  0.70000044983E+02 0.  0.
         12    1    1    2    0    0 -0.71122157138E+01 -0.16277993000E+02 -0.59263148562E+01  0.18726395175E+02  0.00000000000E+00 0. -1.
         11    1    3    3    0    0  0.18916292930E+02 -0.10402755563E+02  0.10138677693E+02  0.23850288198E+02  0.51100000000E-03 0. -1.
        -11    1    3    3    0    0  0.70060733981E+01 -0.31715786829E+01  0.81673428925E+01  0.11218264838E+02  0.51100000000E-03 0.  1.
         12    1    3    3    0    0 -0.18810150614E+02  0.29852327246E+02 -0.12379705729E+02  0.37393051789E+02  0.00000000000E+00 0. -1.
</event>
<event>
 7    1  0.3189267E-013  0.7246157E+02  0.7816164E-02  0.1226708E+00
        -11   -1    0    0    0    0  0.00000000000E+00  0.00000000000E+00  0.45593999997E+02  0.45594000000E+02  0.51100000000E-03 0. -1.
         11   -1    0    0    0    0 -0.00000000000E+00 -0.00000000000E+00 -0.45593999997E+02  0.45594000000E+02  0.51100000000E-03 0.  1.
    9900012    2    1    2    0    0 -0.14443854513E+02  0.11344796606E+02  0.36537429426E+01  0.72461569995E+02  0.69999999610E+02 0.  0.
         12    1    1    2    0    0  0.14443854513E+02 -0.11344796606E+02 -0.36537429426E+01  0.18726430005E+02  0.00000000000E+00 0. -1.
         11    1    3    3    0    0 -0.75405144231E+01  0.39898761181E+01  0.10902286143E+02  0.13843349039E+02  0.51100000000E-03 0. -1.
        -11    1    3    3    0    0 -0.31030283152E+02  0.12249694857E+02 -0.18319041032E+01  0.33410916921E+02  0.51100000000E-03 0.  1.
        -12    1    3    3    0    0  0.24126943062E+02 -0.48947743689E+01 -0.54166390973E+01  0.25207304036E+02  0.00000000000E+00 0.  1.
</event>
<event>
 7    1  0.3189267E-013  0.7246159E+02  0.7816164E-02  0.1226708E+00
        -11   -1    0    0    0    0  0.00000000000E+00  0.00000000000E+00  0.45593999997E+02  0.45594000000E+02  0.51100000000E-03 0. -1.
         11   -1    0    0    0    0 -0.00000000000E+00 -0.00000000000E+00 -0.45593999997E+02  0.45594000000E+02  0.51100000000E-03 0.  1.
    9900012    2    1    2    0    0  0.15754766133E+02 -0.99965067361E+01 -0.15924002194E+01  0.72461587069E+02  0.70000021852E+02 0.  0.
         12    1    1    2    0    0 -0.15754766133E+02  0.99965067361E+01  0.15924002194E+01  0.18726412931E+02  0.00000000000E+00 0. -1.
         11    1    3    3    0    0  0.90090594715E+01  0.70151125555E-01  0.88455150233E+01  0.12625815222E+02  0.51100000000E-03 0. -1.
        -11    1    3    3    0    0  0.12694590811E+02  0.21078454206E+02 -0.13349915499E+02  0.27994179961E+02  0.51100000000E-03 0.  1.
         12    1    3    3    0    0 -0.59488841503E+01 -0.31145112067E+02  0.29120002565E+01  0.31841591886E+02  0.00000000000E+00 0. -1.
</event>
<event>
 7    1  0.3189267E-013  0.7246157E+02  0.7816164E-02  0.1226708E+00
        -11   -1    0    0    0    0  0.00000000000E+00  0.00000000000E+00  0.45593999997E+02  0.45594000000E+02  0.51100000000E-03 0. -1.
         11   -1    0    0    0    0 -0.00000000000E+00 -0.00000000000E+00 -0.45593999997E+02  0.45594000000E+02  0.51100000000E-03 0.  1.
    9900012    2    1    2    0    0 -0.11875888950E+01  0.77500468496E+01 -0.17006040331E+02  0.72461574786E+02  0.70000005851E+02 0.  0.
         12    1    1    2    0    0  0.11875888950E+01 -0.77500468496E+01  0.17006040331E+02  0.18726425214E+02  0.00000000000E+00 0. -1.
         11    1    3    3    0    0 -0.19966211222E+00 -0.11275854168E+02 -0.14711189503E+02  0.18536554400E+02  0.51100000000E-03 0. -1.
        -11    1    3    3    0    0  0.18067792649E+02  0.41794665972E+01 -0.17404000160E+02  0.25432504675E+02  0.51100000000E-03 0.  1.
        -12    1    3    3    0    0 -0.19055719432E+02  0.14846434420E+02  0.15109149331E+02  0.28492515711E+02  0.00000000000E+00 0.  1.
</event>
<event>
 7    1  0.3189267E-013  0.7246154E+02  0.7816164E-02  0.1226708E+00
        -11   -1    0    0    0    0  0.00000000000E+00  0.00000000000E+00  0.45593999997E+02  0.45594000000E+02  0.51100000000E-03 0. -1.
         11   -1    0    0    0    0 -0.00000000000E+00 -0.00000000000E+00 -0.45593999997E+02  0.45594000000E+02  0.51100000000E-03 0.  1.
    9900012    2    1    2    0    0 -0.15523005732E+02 -0.50042783116E+01 -0.92018316008E+01  0.72461542428E+02  0.69999963699E+02 0.  0.
         12    1    1    2    0    0  0.15523005732E+02  0.50042783116E+01  0.92018316008E+01  0.18726457572E+02  0.00000000000E+00 0. -1.
         11    1    3    3    0    0  0.13004996844E+02  0.12054647705E+02  0.11211563375E+01  0.17767989926E+02  0.51100000000E-03 0. -1.
        -11    1    3    3    0    0 -0.11790845765E+02  0.13172442052E+02 -0.96297651917E+01  0.20131310225E+02  0.51100000000E-03 0.  1.
        -12    1    3    3    0    0 -0.16737156811E+02 -0.30231368069E+02 -0.69322274662E+00  0.34562242277E+02  0.00000000000E+00 0.  1.
</event>
<event>
 7    1  0.3189267E-013  0.7246157E+02  0.7816164E-02  0.1226708E+00
        -11   -1    0    0    0    0  0.00000000000E+00  0.00000000000E+00  0.45593999997E+02  0.45594000000E+02  0.51100000000E-03 0.  1.
         11   -1    0    0    0    0 -0.00000000000E+00 -0.00000000000E+00 -0.45593999997E+02  0.45594000000E+02  0.51100000000E-03 0. -1.
    9900012    2    1    2    0    0  0.77474833261E+01 -0.12590677679E+01  0.17002072150E+02  0.72461569296E+02  0.69999998699E+02 0.  0.
         12    1    1    2    0    0 -0.77474833261E+01  0.12590677679E+01 -0.17002072150E+02  0.18726430704E+02  0.00000000000E+00 0. -1.
         11    1    3    3    0    0  0.13547005981E+02 -0.11094508758E+02  0.18645321135E+02  0.25578457657E+02  0.51100000000E-03 0. -1.
        -11    1    3    3    0    0  0.37453331996E-01 -0.23656791807E+01  0.20662231920E+02  0.20797251475E+02  0.51100000000E-03 0.  1.
         12    1    3    3    0    0 -0.58369759870E+01  0.12201120171E+02 -0.22305480904E+02  0.26085860164E+02  0.00000000000E+00 0. -1.
</event>
<event>
 7    1  0.3189267E-013  0.7246145E+02  0.7816164E-02  0.1226708E+00
        -11   -1    0    0    0    0  0.00000000000E+00  0.00000000000E+00  0.45593999997E+02  0.45594000000E+02  0.51100000000E-03 0. -1.
         11   -1    0    0    0    0 -0.00000000000E+00 -0.00000000000E+00 -0.45593999997E+02  0.45594000000E+02  0.51100000000E-03 0.  1.
    9900012    2    1    2    0    0 -0.16538453906E+02  0.85452327259E+01 -0.20352190772E+01  0.72461452624E+02  0.69999846712E+02 0.  0.
         12    1    1    2    0    0  0.16538453906E+02 -0.85452327259E+01  0.20352190772E+01  0.18726547376E+02  0.00000000000E+00 0. -1.
         11    1    3    3    0    0  0.91007887252E+01  0.10435267012E+02 -0.10140134918E+02  0.17162211089E+02  0.51100000000E-03 0. -1.
        -11    1    3    3    0    0  0.12674957905E+01 -0.32441307364E+01 -0.17672691267E+02  0.18012632975E+02  0.51100000000E-03 0.  1.
        -12    1    3    3    0    0 -0.26906738422E+02  0.13540964501E+01  0.25777607108E+02  0.37286608560E+02  0.00000000000E+00 0.  1.
</event>
<event>
 7    1  0.3189267E-013  0.7246151E+02  0.7816164E-02  0.1226708E+00
        -11   -1    0    0    0    0  0.00000000000E+00  0.00000000000E+00  0.45593999997E+02  0.45594000000E+02  0.51100000000E-03 0. -1.
         11   -1    0    0    0    0 -0.00000000000E+00 -0.00000000000E+00 -0.45593999997E+02  0.45594000000E+02  0.51100000000E-03 0.  1.
    9900012    2    1    2    0    0 -0.85465969487E+01  0.37668993942E+01 -0.16231072699E+02  0.72461506164E+02  0.69999916458E+02 0.  0.
         12    1    1    2    0    0  0.85465969487E+01 -0.37668993942E+01  0.16231072699E+02  0.18726493836E+02  0.00000000000E+00 0. -1.
         11    1    3    3    0    0 -0.25740835612E+01 -0.57518231018E+01 -0.24005709100E+01  0.67433015749E+01  0.51100000000E-03 0. -1.
        -11    1    3    3    0    0  0.39164289883E+01 -0.25647056794E+02  0.17526601871E+01  0.26003495077E+02  0.51100000000E-03 0.  1.
         12    1    3    3    0    0 -0.98889423758E+01  0.35165779290E+02 -0.15583161976E+02  0.39714709512E+02  0.00000000000E+00 0. -1.
</event>
<event>
 7    1  0.3189267E-013  0.7246175E+02  0.7816164E-02  0.1226708E+00
        -11   -1    0    0    0    0  0.00000000000E+00  0.00000000000E+00  0.45593999997E+02  0.45594000000E+02  0.51100000000E-03 0. -1.
         11   -1    0    0    0    0 -0.00000000000E+00 -0.00000000000E+00 -0.45593999997E+02  0.45594000000E+02  0.51100000000E-03 0.  1.
    9900012    2    1    2    0    0  0.49440754801E+01  0.58607988386E-02 -0.18061800582E+02  0.72461746852E+02  0.70000229999E+02 0.  0.
         12    1    1    2    0    0 -0.49440754801E+01 -0.58607988386E-02  0.18061800582E+02  0.18726253148E+02  0.00000000000E+00 0. -1.
         11    1    3    3    0    0  0.11986885256E+02 -0.13229415819E+02  0.19754508411E+01  0.17961215642E+02  0.51100000000E-03 0. -1.
        -11    1    3    3    0    0 -0.14518847635E+02 -0.12873499486E+02 -0.19247331147E+02  0.27331002217E+02  0.51100000000E-03 0.  1.
        -12    1    3    3    0    0  0.74760378591E+01  0.26108776103E+02 -0.78992027581E+00  0.27169528993E+02  0.00000000000E+00 0.  1.
</event>
<event>
 7    1  0.3189267E-013  0.7246152E+02  0.7816164E-02  0.1226708E+00
        -11   -1    0    0    0    0  0.00000000000E+00  0.00000000000E+00  0.45593999997E+02  0.45594000000E+02  0.51100000000E-03 0.  1.
         11   -1    0    0    0    0 -0.00000000000E+00 -0.00000000000E+00 -0.45593999997E+02  0.45594000000E+02  0.51100000000E-03 0. -1.
    9900012    2    1    2    0    0 -0.17485831487E+01 -0.97190226243E+01  0.15911134423E+02  0.72461517618E+02  0.69999931379E+02 0.  0.
         12    1    1    2    0    0  0.17485831487E+01  0.97190226243E+01 -0.15911134423E+02  0.18726482382E+02  0.00000000000E+00 0. -1.
         11    1    3    3    0    0 -0.68237983547E+01 -0.44945210304E+01  0.17137266206E+02  0.18985542830E+02  0.51100000000E-03 0. -1.
        -11    1    3    3    0    0  0.18458971135E+02 -0.13514382856E+02  0.17651347589E+02  0.28895366953E+02  0.51100000000E-03 0.  1.
         12    1    3    3    0    0 -0.13383755929E+02  0.82898812624E+01 -0.18877479372E+02  0.24580607835E+02  0.00000000000E+00 0. -1.
</event>
<event>
 7    1  0.3189267E-013  0.7246145E+02  0.7816164E-02  0.1226708E+00
        -11   -1    0    0    0    0  0.00000000000E+00  0.00000000000E+00  0.45593999997E+02  0.45594000000E+02  0.51100000000E-03 0. -1.
         11   -1    0    0    0    0 -0.00000000000E+00 -0.00000000000E+00 -0.45593999997E+02  0.45594000000E+02  0.51100000000E-03 0.  1.
    9900012    2    1    2    0    0 -0.75939745538E+01  0.11298013089E+02 -0.12859629836E+02  0.72461451231E+02  0.69999844898E+02 0.  0.
         12    1    1    2    0    0  0.75939745538E+01 -0.11298013089E+02  0.12859629836E+02  0.18726548769E+02  0.00000000000E+00 0. -1.
         11    1    3    3    0    0 -0.17051250766E+02  0.19922633551E+02  0.11320032967E+01  0.26247626788E+02  0.51100000000E-03 0. -1.
        -11    1    3    3    0    0  0.21169018486E+02  0.88678383013E+01 -0.83094539040E+01  0.24409279470E+02  0.51100000000E-03 0.  1.
        -12    1    3    3    0    0 -0.11711742274E+02 -0.17492458763E+02 -0.56821792284E+01  0.21804544973E+02  0.00000000000E+00 0.  1.
</event>
<event>
 7    1  0.3189267E-013  0.7246120E+02  0.7816164E-02  0.1226709E+00
        -11   -1    0    0    0    0  0.00000000000E+00  0.00000000000E+00  0.45593999997E+02  0.45594000000E+02  0.51100000000E-03 0.  1.
         11   -1    0    0    0    0 -0.00000000000E+00 -0.00000000000E+00 -0.45593999997E+02  0.45594000000E+02  0.51100000000E-03 0. -1.
    9900012    2    1    2    0    0  0.90133415961E+01  0.16154635810E+02 -0.29121102241E+01  0.72461201800E+02  0.69999519966E+02 0.  0.
         12    1    1    2    0    0 -0.90133415961E+01 -0.16154635810E+02  0.29121102241E+01  0.18726798200E+02  0.00000000000E+00 0. -1.
         11    1    3    3    0    0  0.11364263969E+02 -0.68311540061E+01 -0.11150900524E+02  0.17324945696E+02  0.51100000000E-03 0. -1.
        -11    1    3    3    0    0 -0.26332003363E+01 -0.15652308677E+02  0.20323075768E+01  0.16001836934E+02  0.51100000000E-03 0.  1.
         12    1    3    3    0    0  0.28227796345E+00  0.38638098492E+02  0.62064827232E+01  0.39134419170E+02  0.00000000000E+00 0. -1.
</event>
<event>
 7    1  0.3189267E-013  0.7246158E+02  0.7816164E-02  0.1226708E+00
        -11   -1    0    0    0    0  0.00000000000E+00  0.00000000000E+00  0.45593999997E+02  0.45594000000E+02  0.51100000000E-03 0. -1.
         11   -1    0    0    0    0 -0.00000000000E+00 -0.00000000000E+00 -0.45593999997E+02  0.45594000000E+02  0.51100000000E-03 0.  1.
    9900012    2    1    2    0    0 -0.81747739623E+01  0.15495159260E+02 -0.66145091741E+01  0.72461584928E+02  0.70000019063E+02 0.  0.
         12    1    1    2    0    0  0.81747739623E+01 -0.15495159260E+02  0.66145091741E+01  0.18726415072E+02  0.00000000000E+00 0. -1.
         11    1    3    3    0    0  0.59674816425E+00  0.32588110298E+02  0.20494856821E+02  0.38501690840E+02  0.51100000000E-03 0. -1.
        -11    1    3    3    0    0 -0.15120575780E+01 -0.50995997510E+00 -0.57202563221E+01  0.59386623029E+01  0.51100000000E-03 0.  1.
        -12    1    3    3    0    0 -0.72594645486E+01 -0.16582991063E+02 -0.21389109673E+02  0.28021231785E+02  0.00000000000E+00 0.  1.
</event>
<event>
 7    1  0.3189267E-013  0.7246159E+02  0.7816164E-02  0.1226708E+00
        -11   -1    0    0    0    0  0.00000000000E+00  0.00000000000E+00  0.45593999997E+02  0.45594000000E+02  0.51100000000E-03 0.  1.
         11   -1    0    0    0    0 -0.00000000000E+00 -0.00000000000E+00 -0.45593999997E+02  0.45594000000E+02  0.51100000000E-03 0. -1.
    9900012    2    1    2    0    0 -0.30918825504E+01  0.65247050468E+01  0.17278508560E+02  0.72461591596E+02  0.70000027749E+02 0.  0.
         12    1    1    2    0    0  0.30918825504E+01 -0.65247050468E+01 -0.17278508560E+02  0.18726408404E+02  0.00000000000E+00 0. -1.
         11    1    3    3    0    0 -0.82734462866E+01 -0.17004648379E+02  0.16319074635E+02  0.24978394207E+02  0.51100000000E-03 0.  1.
        -11    1    3    3    0    0 -0.14609819849E+02  0.19860285590E+02  0.83649057992E+01  0.26035541650E+02  0.51100000000E-03 0. -1.
        -12    1    3    3    0    0  0.19791383585E+02  0.36690678358E+01 -0.74054718737E+01  0.21447655738E+02  0.00000000000E+00 0.  1.
</event>
<event>
 7    1  0.3189267E-013  0.7246154E+02  0.7816164E-02  0.1226708E+00
        -11   -1    0    0    0    0  0.00000000000E+00  0.00000000000E+00  0.45593999997E+02  0.45594000000E+02  0.51100000000E-03 0.  1.
         11   -1    0    0    0    0 -0.00000000000E+00 -0.00000000000E+00 -0.45593999997E+02  0.45594000000E+02  0.51100000000E-03 0. -1.
    9900012    2    1    2    0    0 -0.13786763826E+02  0.10066911435E+02  0.76982270760E+01  0.72461541105E+02  0.69999961975E+02 0.  0.
         12    1    1    2    0    0  0.13786763826E+02 -0.10066911435E+02 -0.76982270760E+01  0.18726458895E+02  0.00000000000E+00 0. -1.
         11    1    3    3    0    0 -0.62649331854E+01 -0.19814278345E+02  0.16079292130E+01  0.20843235132E+02  0.51100000000E-03 0. -1.
        -11    1    3    3    0    0 -0.18729064026E+02  0.11792926952E+02 -0.10633115901E+02  0.24554309589E+02  0.51100000000E-03 0.  1.
         12    1    3    3    0    0  0.11207233385E+02  0.18088262829E+02  0.16723413764E+02  0.27063996384E+02  0.00000000000E+00 0. -1.
</event>
<event>
 7    1  0.3189267E-013  0.7246151E+02  0.7816164E-02  0.1226708E+00
        -11   -1    0    0    0    0  0.00000000000E+00  0.00000000000E+00  0.45593999997E+02  0.45594000000E+02  0.51100000000E-03 0. -1.
         11   -1    0    0    0    0 -0.00000000000E+00 -0.00000000000E+00 -0.45593999997E+02  0.45594000000E+02  0.51100000000E-03 0.  1.
    9900012    2    1    2    0    0  0.16616684392E+02  0.26207390189E+01  0.82279419603E+01  0.72461508015E+02  0.69999918869E+02 0.  0.
         12    1    1    2    0    0 -0.16616684392E+02 -0.26207390189E+01 -0.82279419603E+01  0.18726491985E+02  0.00000000000E+00 0. -1.
         11    1    3    3    0    0  0.19295823485E+02  0.10307325999E+02  0.11741011574E+02  0.24827829673E+02  0.51100000000E-03 0. -1.
        -11    1    3    3    0    0  0.73932314807E+01  0.10199489805E+02 -0.18384019292E+02  0.22285906524E+02  0.51100000000E-03 0.  1.
         12    1    3    3    0    0 -0.10072370575E+02 -0.17886076785E+02  0.14870949678E+02  0.25347771817E+02  0.00000000000E+00 0. -1.
</event>
<event>
 7    1  0.3189267E-013  0.7246159E+02  0.7816164E-02  0.1226708E+00
        -11   -1    0    0    0    0  0.00000000000E+00  0.00000000000E+00  0.45593999997E+02  0.45594000000E+02  0.51100000000E-03 0.  1.
         11   -1    0    0    0    0 -0.00000000000E+00 -0.00000000000E+00 -0.45593999997E+02  0.45594000000E+02  0.51100000000E-03 0. -1.
    9900012    2    1    2    0    0 -0.64071136411E+01 -0.17354276219E+02  0.29080203598E+01  0.72461585749E+02  0.70000020132E+02 0.  0.
         12    1    1    2    0    0  0.64071136411E+01  0.17354276219E+02 -0.29080203598E+01  0.18726414251E+02  0.00000000000E+00 0. -1.
         11    1    3    3    0    0 -0.17239652222E+02  0.41729824748E+01 -0.13276116518E+02  0.22155691403E+02  0.51100000000E-03 0. -1.
        -11    1    3    3    0    0 -0.79690953395E+01 -0.41762429406E+01 -0.10168141700E+02  0.13577134879E+02  0.51100000000E-03 0.  1.
        -12    1    3    3    0    0  0.18801633921E+02 -0.17351015753E+02  0.26352278578E+02  0.36728759467E+02  0.00000000000E+00 0.  1.
</event>
<event>
 7    1  0.3189267E-013  0.7246156E+02  0.7816164E-02  0.1226708E+00
        -11   -1    0    0    0    0  0.00000000000E+00  0.00000000000E+00  0.45593999997E+02  0.45594000000E+02  0.51100000000E-03 0.  1.
         11   -1    0    0    0    0 -0.00000000000E+00 -0.00000000000E+00 -0.45593999997E+02  0.45594000000E+02  0.51100000000E-03 0. -1.
    9900012    2    1    2    0    0 -0.10365722393E+02 -0.92121955167E+01  0.12584389034E+02  0.72461558952E+02  0.69999985225E+02 0.  0.
         12    1    1    2    0    0  0.10365722393E+02  0.92121955167E+01 -0.12584389034E+02  0.18726441048E+02  0.00000000000E+00 0. -1.
         11    1    3    3    0    0  0.70050520685E+00  0.10673169658E+02 -0.19671197241E+02  0.22391142428E+02  0.51100000000E-03 0.  1.
        -11    1    3    3    0    0 -0.16918843566E+01  0.74412299981E+01  0.13230713104E+01  0.77449915761E+01  0.51100000000E-03 0. -1.
        -12    1    3    3    0    0 -0.93743432429E+01 -0.27326595173E+02  0.30932514965E+02  0.42325424948E+02  0.00000000000E+00 0.  1.
</event>
<event>
 7    1  0.3189267E-013  0.7246159E+02  0.7816164E-02  0.1226708E+00
        -11   -1    0    0    0    0  0.00000000000E+00  0.00000000000E+00  0.45593999997E+02  0.45594000000E+02  0.51100000000E-03 0. -1.
         11   -1    0    0    0    0 -0.00000000000E+00 -0.00000000000E+00 -0.45593999997E+02  0.45594000000E+02  0.51100000000E-03 0.  1.
    9900012    2    1    2    0    0  0.15889300694E+02  0.94211760829E-02 -0.99100231316E+01  0.72461587536E+02  0.70000022460E+02 0.  0.
         12    1    1    2    0    0 -0.15889300694E+02 -0.94211760829E-02  0.99100231316E+01  0.18726412464E+02  0.00000000000E+00 0. -1.
         11    1    3    3    0    0 -0.89358342512E+01 -0.13139499372E+02  0.85590335152E+01  0.18048618576E+02  0.51100000000E-03 0. -1.
        -11    1    3    3    0    0  0.10496452039E+02  0.22762630609E+02  0.47218572831E+01  0.25507034209E+02  0.51100000000E-03 0.  1.
        -12    1    3    3    0    0  0.14328682906E+02 -0.96137100611E+01 -0.23190913930E+02  0.28905934752E+02  0.00000000000E+00 0.  1.
</event>
<event>
 7    1  0.3189267E-013  0.7246163E+02  0.7816164E-02  0.1226708E+00
        -11   -1    0    0    0    0  0.00000000000E+00  0.00000000000E+00  0.45593999997E+02  0.45594000000E+02  0.51100000000E-03 0. -1.
         11   -1    0    0    0    0 -0.00000000000E+00 -0.00000000000E+00 -0.45593999997E+02  0.45594000000E+02  0.51100000000E-03 0.  1.
    9900012    2    1    2    0    0 -0.33419235230E+01  0.16967968702E+02 -0.71830694540E+01  0.72461630851E+02  0.70000078887E+02 0.  0.
         12    1    1    2    0    0  0.33419235230E+01 -0.16967968702E+02  0.71830694540E+01  0.18726369149E+02  0.00000000000E+00 0. -1.
         11    1    3    3    0    0 -0.72414280049E+01  0.15818848605E+02 -0.90117355502E+01  0.19592999480E+02  0.51100000000E-03 0. -1.
        -11    1    3    3    0    0 -0.19673203419E+01 -0.23530543854E+02  0.10795012218E+02  0.25963226542E+02  0.51100000000E-03 0.  1.
         12    1    3    3    0    0  0.58668248238E+01  0.24679663951E+02 -0.89663461222E+01  0.26905404829E+02  0.00000000000E+00 0. -1.
</event>
<event>
 7    1  0.3189267E-013  0.7246153E+02  0.7816164E-02  0.1226708E+00
        -11   -1    0    0    0    0  0.00000000000E+00  0.00000000000E+00  0.45593999997E+02  0.45594000000E+02  0.51100000000E-03 0.  1.
         11   -1    0    0    0    0 -0.00000000000E+00 -0.00000000000E+00 -0.45593999997E+02  0.45594000000E+02  0.51100000000E-03 0. -1.
    9900012    2    1    2    0    0 -0.81630125269E+01 -0.11116121605E+02  0.12667975943E+02  0.72461533501E+02  0.69999952070E+02 0.  0.
         12    1    1    2    0    0  0.81630125269E+01  0.11116121605E+02 -0.12667975943E+02  0.18726466499E+02  0.00000000000E+00 0. -1.
         11    1    3    3    0    0  0.19901983194E+02 -0.27135015272E+01 -0.61986064051E+00  0.20095677472E+02  0.51100000000E-03 0. -1.
        -11    1    3    3    0    0 -0.32473205260E+01  0.14825298718E+02 -0.15914215256E+01  0.15259986743E+02  0.51100000000E-03 0.  1.
         12    1    3    3    0    0 -0.24817675195E+02 -0.23227918795E+02  0.14879258109E+02  0.37105869286E+02  0.00000000000E+00 0. -1.
</event>
<event>
 7    1  0.3189267E-013  0.7246156E+02  0.7816164E-02  0.1226708E+00
        -11   -1    0    0    0    0  0.00000000000E+00  0.00000000000E+00  0.45593999997E+02  0.45594000000E+02  0.51100000000E-03 0.  1.
         11   -1    0    0    0    0 -0.00000000000E+00 -0.00000000000E+00 -0.45593999997E+02  0.45594000000E+02  0.51100000000E-03 0. -1.
    9900012    2    1    2    0    0 -0.18554513869E+02  0.21696492158E+01 -0.13046676062E+01  0.72461560932E+02  0.69999987803E+02 0.  0.
         12    1    1    2    0    0  0.18554513869E+02 -0.21696492158E+01  0.13046676062E+01  0.18726439068E+02  0.00000000000E+00 0. -1.
         11    1    3    3    0    0 -0.34819805531E+01  0.20846574966E+02 -0.24987598854E+01  0.21282567458E+02  0.51100000000E-03 0. -1.
        -11    1    3    3    0    0 -0.20447192053E+02 -0.73904183489E-01 -0.15463520843E+02  0.25636177598E+02  0.51100000000E-03 0.  1.
        -12    1    3    3    0    0  0.53746587379E+01 -0.18603021566E+02  0.16657613122E+02  0.25542815876E+02  0.00000000000E+00 0.  1.
</event>
<event>
 7    1  0.3189267E-013  0.7246131E+02  0.7816164E-02  0.1226709E+00
        -11   -1    0    0    0    0  0.00000000000E+00  0.00000000000E+00  0.45593999997E+02  0.45594000000E+02  0.51100000000E-03 0. -1.
         11   -1    0    0    0    0 -0.00000000000E+00 -0.00000000000E+00 -0.45593999997E+02  0.45594000000E+02  0.51100000000E-03 0.  1.
    9900012    2    1    2    0    0 -0.67396573901E+01  0.12057196361E+02 -0.12644764908E+02  0.72461306608E+02  0.69999656499E+02 0.  0.
         12    1    1    2    0    0  0.67396573901E+01 -0.12057196361E+02  0.12644764908E+02  0.18726693392E+02  0.00000000000E+00 0. -1.
         11    1    3    3    0    0  0.17069036019E+02  0.29034185086E+02 -0.13302003080E+01  0.33706161564E+02  0.51100000000E-03 0. -1.
        -11    1    3    3    0    0  0.19922767668E+01 -0.31565305307E+01  0.42075580142E+01  0.56246241129E+01  0.51100000000E-03 0.  1.
        -12    1    3    3    0    0 -0.25800970176E+02 -0.13820458194E+02 -0.15522122614E+02  0.33130520931E+02  0.00000000000E+00 0.  1.
</event>
<event>
 7    1  0.3189267E-013  0.7246158E+02  0.7816164E-02  0.1226708E+00
        -11   -1    0    0    0    0  0.00000000000E+00  0.00000000000E+00  0.45593999997E+02  0.45594000000E+02  0.51100000000E-03 0.  1.
         11   -1    0    0    0    0 -0.00000000000E+00 -0.00000000000E+00 -0.45593999997E+02  0.45594000000E+02  0.51100000000E-03 0. -1.
    9900012    2    1    2    0    0 -0.14786836916E+02  0.54549312207E+01  0.10112959703E+02  0.72461580841E+02  0.70000013738E+02 0.  0.
         12    1    1    2    0    0  0.14786836916E+02 -0.54549312207E+01 -0.10112959703E+02  0.18726419159E+02  0.00000000000E+00 0. -1.
         11    1    3    3    0    0 -0.11342818828E+02 -0.56869654149E+01  0.50511910956E+01  0.13657073125E+02  0.51100000000E-03 0. -1.
        -11    1    3    3    0    0 -0.22409202195E+02 -0.13901185339E+02 -0.25131635800E+01  0.26490211178E+02  0.51100000000E-03 0.  1.
         12    1    3    3    0    0  0.18965184108E+02  0.25043081974E+02  0.75749321870E+01  0.32314296537E+02  0.00000000000E+00 0. -1.
</event>
<event>
 7    1  0.3189267E-013  0.7246145E+02  0.7816164E-02  0.1226708E+00
        -11   -1    0    0    0    0  0.00000000000E+00  0.00000000000E+00  0.45593999997E+02  0.45594000000E+02  0.51100000000E-03 0.  1.
         11   -1    0    0    0    0 -0.00000000000E+00 -0.00000000000E+00 -0.45593999997E+02  0.45594000000E+02  0.51100000000E-03 0. -1.
    9900012    2    1    2    0    0 -0.87953203252E+01 -0.16460039038E+02  0.15469631981E+01  0.72461450935E+02  0.69999844512E+02 0.  0.
         12    1    1    2    0    0  0.87953203252E+01  0.16460039038E+02 -0.15469631981E+01  0.18726549065E+02  0.00000000000E+00 0. -1.
         11    1    3    3    0    0  0.76292445971E+01  0.21222467436E+01 -0.77074418336E+01  0.11050518732E+02  0.51100000000E-03 0. -1.
        -11    1    3    3    0    0 -0.77606270635E+01  0.94336387428E+01 -0.17749336176E+02  0.21546689010E+02  0.51100000000E-03 0.  1.
        -12    1    3    3    0    0 -0.86639378589E+01 -0.28015924524E+02  0.27003741208E+02  0.39864243193E+02  0.00000000000E+00 0.  1.
</event>
<event>
 7    1  0.3189267E-013  0.7246156E+02  0.7816164E-02  0.1226708E+00
        -11   -1    0    0    0    0  0.00000000000E+00  0.00000000000E+00  0.45593999997E+02  0.45594000000E+02  0.51100000000E-03 0. -1.
         11   -1    0    0    0    0 -0.00000000000E+00 -0.00000000000E+00 -0.45593999997E+02  0.45594000000E+02  0.51100000000E-03 0.  1.
    9900012    2    1    2    0    0  0.75670866453E+01  0.14117921009E+02 -0.97006708551E+01  0.72461561232E+02  0.69999988194E+02 0.  0.
         12    1    1    2    0    0 -0.75670866453E+01 -0.14117921009E+02  0.97006708551E+01  0.18726438768E+02  0.00000000000E+00 0. -1.
         11    1    3    3    0    0  0.11959390346E+02  0.26628577513E+02 -0.58015591493E+01  0.29761825325E+02  0.51100000000E-03 0. -1.
        -11    1    3    3    0    0  0.14583326908E+02  0.20454266019E+01 -0.10265887554E+02  0.17951201665E+02  0.51100000000E-03 0.  1.
        -12    1    3    3    0    0 -0.18975630609E+02 -0.14556083107E+02  0.63667758478E+01  0.24748534242E+02  0.00000000000E+00 0.  1.
</event>
<event>
 7    1  0.3189267E-013  0.7246159E+02  0.7816164E-02  0.1226708E+00
        -11   -1    0    0    0    0  0.00000000000E+00  0.00000000000E+00  0.45593999997E+02  0.45594000000E+02  0.51100000000E-03 0. -1.
         11   -1    0    0    0    0 -0.00000000000E+00 -0.00000000000E+00 -0.45593999997E+02  0.45594000000E+02  0.51100000000E-03 0.  1.
    9900012    2    1    2    0    0  0.11231269369E+02 -0.99715129848E+01  0.11185073937E+02  0.72461591860E+02  0.70000028094E+02 0.  0.
         12    1    1    2    0    0 -0.11231269369E+02  0.99715129848E+01 -0.11185073937E+02  0.18726408140E+02  0.00000000000E+00 0. -1.
         11    1    3    3    0    0  0.46014391887E+01  0.57357691235E+00 -0.24423728593E+01  0.52409367986E+01  0.51100000000E-03 0. -1.
        -11    1    3    3    0    0  0.23716504607E+02  0.11418659124E+02 -0.12419467827E+02  0.29105008991E+02  0.51100000000E-03 0.  1.
         12    1    3    3    0    0 -0.17086674427E+02 -0.21963749021E+02  0.26046914623E+02  0.38115646071E+02  0.00000000000E+00 0. -1.
</event>
<event>
 7    1  0.3189267E-013  0.7246156E+02  0.7816164E-02  0.1226708E+00
        -11   -1    0    0    0    0  0.00000000000E+00  0.00000000000E+00  0.45593999997E+02  0.45594000000E+02  0.51100000000E-03 0. -1.
         11   -1    0    0    0    0 -0.00000000000E+00 -0.00000000000E+00 -0.45593999997E+02  0.45594000000E+02  0.51100000000E-03 0.  1.
    9900012    2    1    2    0    0 -0.17900727185E+01  0.50775816751E+00 -0.18633772576E+02  0.72461557222E+02  0.69999982971E+02 0.  0.
         12    1    1    2    0    0  0.17900727185E+01 -0.50775816751E+00  0.18633772576E+02  0.18726442778E+02  0.00000000000E+00 0. -1.
         11    1    3    3    0    0 -0.29434235878E+02 -0.74282343953E+01 -0.16971659187E+02  0.34779162206E+02  0.51100000000E-03 0. -1.
        -11    1    3    3    0    0 -0.30293004477E+01 -0.12896481174E+00 -0.49412265730E+01  0.57973281287E+01  0.51100000000E-03 0.  1.
         12    1    3    3    0    0  0.30673463607E+02  0.80649573745E+01  0.32791131835E+01  0.31885066887E+02  0.00000000000E+00 0. -1.
</event>
<event>
 7    1  0.3189267E-013  0.7246144E+02  0.7816164E-02  0.1226708E+00
        -11   -1    0    0    0    0  0.00000000000E+00  0.00000000000E+00  0.45593999997E+02  0.45594000000E+02  0.51100000000E-03 0.  1.
         11   -1    0    0    0    0 -0.00000000000E+00 -0.00000000000E+00 -0.45593999997E+02  0.45594000000E+02  0.51100000000E-03 0. -1.
    9900012    2    1    2    0    0  0.14124904001E+02 -0.68100773874E+01  0.10236886415E+02  0.72461443709E+02  0.69999835099E+02 0.  0.
         12    1    1    2    0    0 -0.14124904001E+02  0.68100773874E+01 -0.10236886415E+02  0.18726556291E+02  0.00000000000E+00 0. -1.
         11    1    3    3    0    0  0.26818298935E+01  0.66567775371E+01  0.32601696737E+01  0.78824872546E+01  0.51100000000E-03 0. -1.
        -11    1    3    3    0    0  0.25053663169E+02 -0.27446013790E+01  0.27777246972E+02  0.37507256958E+02  0.51100000000E-03 0.  1.
         12    1    3    3    0    0 -0.13610589062E+02 -0.10722253546E+02 -0.20800530231E+02  0.27071699496E+02  0.00000000000E+00 0. -1.
</event>
<event>
 7    1  0.3189267E-013  0.7246162E+02  0.7816164E-02  0.1226708E+00
        -11   -1    0    0    0    0  0.00000000000E+00  0.00000000000E+00  0.45593999997E+02  0.45594000000E+02  0.51100000000E-03 0.  1.
         11   -1    0    0    0    0 -0.00000000000E+00 -0.00000000000E+00 -0.45593999997E+02  0.45594000000E+02  0.51100000000E-03 0. -1.
    9900012    2    1    2    0    0  0.14722163303E+02  0.60017815464E+01  0.98951346342E+01  0.72461623856E+02  0.70000069774E+02 0.  0.
         12    1    1    2    0    0 -0.14722163303E+02 -0.60017815464E+01 -0.98951346342E+01  0.18726376144E+02  0.00000000000E+00 0. -1.
         11    1    3    3    0    0  0.99346934734E+01 -0.10496244501E+01  0.11870837517E+02  0.15515045263E+02  0.51100000000E-03 0. -1.
        -11    1    3    3    0    0  0.12643995606E+02 -0.22416204653E+02 -0.52760988158E+01  0.26271544966E+02  0.51100000000E-03 0.  1.
         12    1    3    3    0    0 -0.78565257755E+01  0.29467610650E+02  0.33003959327E+01  0.30675033626E+02  0.00000000000E+00 0. -1.
</event>
<event>
 7    1  0.3189267E-013  0.7246097E+02  0.7816164E-02  0.1226710E+00
        -11   -1    0    0    0    0  0.00000000000E+00  0.00000000000E+00  0.45593999997E+02  0.45594000000E+02  0.51100000000E-03 0. -1.
         11   -1    0    0    0    0 -0.00000000000E+00 -0.00000000000E+00 -0.45593999997E+02  0.45594000000E+02  0.51100000000E-03 0.  1.
    9900012    2    1    2    0    0  0.80231384461E+01 -0.12149985278E+02 -0.11777468707E+02  0.72460969752E+02  0.69999217678E+02 0.  0.
         12    1    1    2    0    0 -0.80231384461E+01  0.12149985278E+02  0.11777468707E+02  0.18727030248E+02  0.00000000000E+00 0. -1.
         11    1    3    3    0    0 -0.50768519070E+01 -0.80872195171E+01 -0.72607829199E+01  0.11995687295E+02  0.51100000000E-03 0. -1.
        -11    1    3    3    0    0 -0.18396374910E+02 -0.13513617601E+02 -0.13313506802E+02  0.26425251827E+02  0.51100000000E-03 0.  1.
         12    1    3    3    0    0  0.31496365263E+02  0.94508518401E+01  0.87968210157E+01  0.34040030630E+02  0.00000000000E+00 0. -1.
</event>
<event>
 7    1  0.3189267E-013  0.7246167E+02  0.7816164E-02  0.1226708E+00
        -11   -1    0    0    0    0  0.00000000000E+00  0.00000000000E+00  0.45593999997E+02  0.45594000000E+02  0.51100000000E-03 0.  1.
         11   -1    0    0    0    0 -0.00000000000E+00 -0.00000000000E+00 -0.45593999997E+02  0.45594000000E+02  0.51100000000E-03 0. -1.
    9900012    2    1    2    0    0 -0.54353345106E+01 -0.17003314273E+02  0.56586033886E+01  0.72461672281E+02  0.70000132857E+02 0.  0.
         12    1    1    2    0    0  0.54353345106E+01  0.17003314273E+02 -0.56586033886E+01  0.18726327719E+02  0.00000000000E+00 0. -1.
         11    1    3    3    0    0  0.53562320982E+01  0.13245509900E+02 -0.13471413456E+02  0.19636999148E+02  0.51100000000E-03 0. -1.
        -11    1    3    3    0    0 -0.14811411132E+02 -0.20605102700E+02 -0.55925095287E+01  0.25985078797E+02  0.51100000000E-03 0.  1.
        -12    1    3    3    0    0  0.40198445234E+01 -0.96437214729E+01  0.24722526373E+02  0.26839594336E+02  0.00000000000E+00 0.  1.
</event>
<event>
 7    1  0.3189267E-013  0.7246161E+02  0.7816164E-02  0.1226708E+00
        -11   -1    0    0    0    0  0.00000000000E+00  0.00000000000E+00  0.45593999997E+02  0.45594000000E+02  0.51100000000E-03 0.  1.
         11   -1    0    0    0    0 -0.00000000000E+00 -0.00000000000E+00 -0.45593999997E+02  0.45594000000E+02  0.51100000000E-03 0. -1.
    9900012    2    1    2    0    0 -0.45122932553E+01 -0.15986618647E+02  0.86455227814E+01  0.72461606051E+02  0.70000046579E+02 0.  0.
         12    1    1    2    0    0  0.45122932553E+01  0.15986618647E+02 -0.86455227814E+01  0.18726393949E+02  0.00000000000E+00 0. -1.
         11    1    3    3    0    0 -0.30114986546E+01 -0.33453604540E+01  0.70686593642E+01  0.83801256662E+01  0.51100000000E-03 0. -1.
        -11    1    3    3    0    0 -0.25286216088E+02 -0.80684315610E+01  0.20342827914E+02  0.33441336093E+02  0.51100000000E-03 0.  1.
         12    1    3    3    0    0  0.23785421487E+02 -0.45728266319E+01 -0.18765964497E+02  0.30640144292E+02  0.00000000000E+00 0. -1.
</event>
<event>
 7    1  0.3189267E-013  0.7246143E+02  0.7816164E-02  0.1226708E+00
        -11   -1    0    0    0    0  0.00000000000E+00  0.00000000000E+00  0.45593999997E+02  0.45594000000E+02  0.51100000000E-03 0.  1.
         11   -1    0    0    0    0 -0.00000000000E+00 -0.00000000000E+00 -0.45593999997E+02  0.45594000000E+02  0.51100000000E-03 0. -1.
    9900012    2    1    2    0    0  0.14393299726E+02 -0.92720891079E+01 -0.75858906966E+01  0.72461429276E+02  0.69999816297E+02 0.  0.
         12    1    1    2    0    0 -0.14393299726E+02  0.92720891079E+01  0.75858906966E+01  0.18726570724E+02  0.00000000000E+00 0. -1.
         11    1    3    3    0    0  0.18180611318E+00 -0.13680165038E+02 -0.15214272501E+02  0.20461037533E+02  0.51100000000E-03 0. -1.
        -11    1    3    3    0    0 -0.15575037977E+02  0.95106670572E+00 -0.86906792566E+01  0.17860969797E+02  0.51100000000E-03 0.  1.
         12    1    3    3    0    0  0.29786531590E+02  0.34570092242E+01  0.16319061061E+02  0.34139421946E+02  0.00000000000E+00 0. -1.
</event>
<event>
 7    1  0.3189267E-013  0.7246154E+02  0.7816164E-02  0.1226708E+00
        -11   -1    0    0    0    0  0.00000000000E+00  0.00000000000E+00  0.45593999997E+02  0.45594000000E+02  0.51100000000E-03 0. -1.
         11   -1    0    0    0    0 -0.00000000000E+00 -0.00000000000E+00 -0.45593999997E+02  0.45594000000E+02  0.51100000000E-03 0.  1.
    9900012    2    1    2    0    0 -0.76560059396E+01  0.13063948486E+02 -0.11018122570E+02  0.72461542728E+02  0.69999964090E+02 0.  0.
         12    1    1    2    0    0  0.76560059396E+01 -0.13063948486E+02  0.11018122570E+02  0.18726457272E+02  0.00000000000E+00 0. -1.
         11    1    3    3    0    0  0.55405707705E+01  0.77449239917E+01 -0.86269629067E+01  0.12849368131E+02  0.51100000000E-03 0. -1.
        -11    1    3    3    0    0  0.19287340561E+00  0.10507198225E+02  0.25864051901E+02  0.27917514138E+02  0.51100000000E-03 0.  1.
         12    1    3    3    0    0 -0.13389450116E+02 -0.51881737302E+01 -0.28255211564E+02  0.31694660459E+02  0.00000000000E+00 0. -1.
</event>
<event>
 7    1  0.3189267E-013  0.7246171E+02  0.7816164E-02  0.1226708E+00
        -11   -1    0    0    0    0  0.00000000000E+00  0.00000000000E+00  0.45593999997E+02  0.45594000000E+02  0.51100000000E-03 0. -1.
         11   -1    0    0    0    0 -0.00000000000E+00 -0.00000000000E+00 -0.45593999997E+02  0.45594000000E+02  0.51100000000E-03 0.  1.
    9900012    2    1    2    0    0 -0.32983468838E+01 -0.13975486955E+02 -0.12020015700E+02  0.72461705513E+02  0.70000176147E+02 0.  0.
         12    1    1    2    0    0  0.32983468838E+01  0.13975486955E+02  0.12020015700E+02  0.18726294487E+02  0.00000000000E+00 0. -1.
         11    1    3    3    0    0  0.36420105843E+01  0.28506590523E+00  0.13565817754E+02  0.14049089482E+02  0.51100000000E-03 0. -1.
        -11    1    3    3    0    0 -0.48484688186E+01 -0.17649686492E+02  0.11169317909E+02  0.21442312048E+02  0.51100000000E-03 0.  1.
         12    1    3    3    0    0 -0.20918886494E+01  0.33891336317E+01 -0.36755151363E+02  0.36970303983E+02  0.00000000000E+00 0. -1.
</event>
<event>
 7    1  0.3189267E-013  0.7246159E+02  0.7816164E-02  0.1226708E+00
        -11   -1    0    0    0    0  0.00000000000E+00  0.00000000000E+00  0.45593999997E+02  0.45594000000E+02  0.51100000000E-03 0.  1.
         11   -1    0    0    0    0 -0.00000000000E+00 -0.00000000000E+00 -0.45593999997E+02  0.45594000000E+02  0.51100000000E-03 0. -1.
    9900012    2    1    2    0    0  0.72876296411E+01  0.77077598799E+01 -0.15432409474E+02  0.72461591633E+02  0.70000027798E+02 0.  0.
         12    1    1    2    0    0 -0.72876296411E+01 -0.77077598799E+01  0.15432409474E+02  0.18726408367E+02  0.00000000000E+00 0. -1.
         11    1    3    3    0    0  0.11913101798E+02  0.32084945515E+02 -0.11162616776E+02  0.35999579674E+02  0.51100000000E-03 0. -1.
        -11    1    3    3    0    0 -0.40947046976E+01  0.18684782326E+01 -0.87421311814E+01  0.98327348851E+01  0.51100000000E-03 0.  1.
        -12    1    3    3    0    0 -0.53076745918E+00 -0.26245663868E+02  0.44723384839E+01  0.26629277074E+02  0.00000000000E+00 0.  1.
</event>
<event>
 7    1  0.3189267E-013  0.7246143E+02  0.7816164E-02  0.1226708E+00
        -11   -1    0    0    0    0  0.00000000000E+00  0.00000000000E+00  0.45593999997E+02  0.45594000000E+02  0.51100000000E-03 0.  1.
         11   -1    0    0    0    0 -0.00000000000E+00 -0.00000000000E+00 -0.45593999997E+02  0.45594000000E+02  0.51100000000E-03 0. -1.
    9900012    2    1    2    0    0 -0.21104410220E+01  0.21061481923E+01  0.18487686167E+02  0.72461431672E+02  0.69999819419E+02 0.  0.
         12    1    1    2    0    0  0.21104410220E+01 -0.21061481923E+01 -0.18487686167E+02  0.18726568328E+02  0.00000000000E+00 0. -1.
         11    1    3    3    0    0  0.27643630300E+02  0.40627087303E+01  0.91518481720E+01  0.29401228267E+02  0.51100000000E-03 0. -1.
        -11    1    3    3    0    0 -0.29206333906E+01 -0.95482809521E+01  0.11330436614E+02  0.15102270117E+02  0.51100000000E-03 0.  1.
         12    1    3    3    0    0 -0.26833437932E+02  0.75917204142E+01 -0.19945986192E+01  0.27957933288E+02  0.00000000000E+00 0. -1.
</event>
<event>
 7    1  0.3189267E-013  0.7246154E+02  0.7816164E-02  0.1226708E+00
        -11   -1    0    0    0    0  0.00000000000E+00  0.00000000000E+00  0.45593999997E+02  0.45594000000E+02  0.51100000000E-03 0. -1.
         11   -1    0    0    0    0 -0.00000000000E+00 -0.00000000000E+00 -0.45593999997E+02  0.45594000000E+02  0.51100000000E-03 0.  1.
    9900012    2    1    2    0    0 -0.34771960202E+01 -0.13987026801E+01 -0.18347564118E+02  0.72461538231E+02  0.69999958231E+02 0.  0.
         12    1    1    2    0    0  0.34771960202E+01  0.13987026801E+01  0.18347564118E+02  0.18726461769E+02  0.00000000000E+00 0. -1.
         11    1    3    3    0    0  0.26489527708E+02  0.31467901738E+01  0.68528333923E+01  0.27541944237E+02  0.51100000000E-03 0. -1.
        -11    1    3    3    0    0 -0.91776076087E+00  0.61573847587E+01 -0.40709394564E+01  0.74382941727E+01  0.51100000000E-03 0.  1.
        -12    1    3    3    0    0 -0.29048962967E+02 -0.10702877613E+02 -0.21129458054E+02  0.37481299821E+02  0.00000000000E+00 0.  1.
</event>
<event>
 7    1  0.3189267E-013  0.7246158E+02  0.7816164E-02  0.1226708E+00
        -11   -1    0    0    0    0  0.00000000000E+00  0.00000000000E+00  0.45593999997E+02  0.45594000000E+02  0.51100000000E-03 0. -1.
         11   -1    0    0    0    0 -0.00000000000E+00 -0.00000000000E+00 -0.45593999997E+02  0.45594000000E+02  0.51100000000E-03 0.  1.
    9900012    2    1    2    0    0  0.18275719611E+02  0.40702741159E+01  0.33123737261E+00  0.72461580778E+02  0.70000013656E+02 0.  0.
         12    1    1    2    0    0 -0.18275719611E+02 -0.40702741159E+01 -0.33123737261E+00  0.18726419222E+02  0.00000000000E+00 0. -1.
         11    1    3    3    0    0  0.10209659800E+02 -0.20919547759E+01  0.14568282606E+02  0.17912238452E+02  0.51100000000E-03 0. -1.
        -11    1    3    3    0    0  0.16884910362E+02 -0.97054414964E+01  0.11827699249E+02  0.22785746912E+02  0.51100000000E-03 0.  1.
        -12    1    3    3    0    0 -0.88188505509E+01  0.15867670388E+02 -0.26064744483E+02  0.31763595413E+02  0.00000000000E+00 0.  1.
</event>
<event>
 7    1  0.3189267E-013  0.7246162E+02  0.7816164E-02  0.1226708E+00
        -11   -1    0    0    0    0  0.00000000000E+00  0.00000000000E+00  0.45593999997E+02  0.45594000000E+02  0.51100000000E-03 0.  1.
         11   -1    0    0    0    0 -0.00000000000E+00 -0.00000000000E+00 -0.45593999997E+02  0.45594000000E+02  0.51100000000E-03 0. -1.
    9900012    2    1    2    0    0 -0.52367013464E+01 -0.20010232718E+01  0.17867570613E+02  0.72461622487E+02  0.70000067991E+02 0.  0.
         12    1    1    2    0    0  0.52367013464E+01  0.20010232718E+01 -0.17867570613E+02  0.18726377513E+02  0.00000000000E+00 0. -1.
         11    1    3    3    0    0 -0.13848033756E+02  0.36570755560E+01 -0.13798899073E+02  0.19888485523E+02  0.51100000000E-03 0. -1.
        -11    1    3    3    0    0 -0.21290368907E+01 -0.60381693376E+00 -0.94871406848E+01  0.97418289662E+01  0.51100000000E-03 0.  1.
        -12    1    3    3    0    0  0.10740369300E+02 -0.50542818940E+01  0.41153610372E+02  0.42831307998E+02  0.00000000000E+00 0.  1.
</event>
<event>
 7    1  0.3189267E-013  0.7246157E+02  0.7816164E-02  0.1226708E+00
        -11   -1    0    0    0    0  0.00000000000E+00  0.00000000000E+00  0.45593999997E+02  0.45594000000E+02  0.51100000000E-03 0. -1.
         11   -1    0    0    0    0 -0.00000000000E+00 -0.00000000000E+00 -0.45593999997E+02  0.45594000000E+02  0.51100000000E-03 0.  1.
    9900012    2    1    2    0    0  0.10531818578E+02  0.15471115843E+02 -0.63609031093E+00  0.72461568443E+02  0.69999997588E+02 0.  0.
         12    1    1    2    0    0 -0.10531818578E+02 -0.15471115843E+02  0.63609031093E+00  0.18726431557E+02  0.00000000000E+00 0. -1.
         11    1    3    3    0    0  0.11493744130E+02 -0.20041158604E+02 -0.43367272247E+01  0.23506624505E+02  0.51100000000E-03 0. -1.
        -11    1    3    3    0    0 -0.33154798617E+01  0.14787888392E+02 -0.14720425117E+02  0.21127351129E+02  0.51100000000E-03 0.  1.
        -12    1    3    3    0    0  0.23535543100E+01  0.20724386054E+02  0.18421062031E+02  0.27827592810E+02  0.00000000000E+00 0.  1.
</event>
<event>
 7    1  0.3189267E-013  0.7246088E+02  0.7816164E-02  0.1226710E+00
        -11   -1    0    0    0    0  0.00000000000E+00  0.00000000000E+00  0.45593999997E+02  0.45594000000E+02  0.51100000000E-03 0.  1.
         11   -1    0    0    0    0 -0.00000000000E+00 -0.00000000000E+00 -0.45593999997E+02  0.45594000000E+02  0.51100000000E-03 0. -1.
    9900012    2    1    2    0    0  0.12253527995E+02 -0.10599652744E+02  0.93916666031E+01  0.72460880942E+02  0.69999101985E+02 0.  0.
         12    1    1    2    0    0 -0.12253527995E+02  0.10599652744E+02 -0.93916666031E+01  0.18727119058E+02  0.00000000000E+00 0. -1.
         11    1    3    3    0    0  0.56869932955E+01 -0.16824806359E+02 -0.12225816807E+02  0.21561229061E+02  0.51100000000E-03 0. -1.
        -11    1    3    3    0    0  0.16034576324E+02  0.17824508081E+02  0.25932496695E+02  0.35317348588E+02  0.51100000000E-03 0.  1.
         12    1    3    3    0    0 -0.94680416254E+01 -0.11599354467E+02 -0.43150132847E+01  0.15582303293E+02  0.00000000000E+00 0. -1.
</event>
<event>
 7    1  0.3189267E-013  0.7246155E+02  0.7816164E-02  0.1226708E+00
        -11   -1    0    0    0    0  0.00000000000E+00  0.00000000000E+00  0.45593999997E+02  0.45594000000E+02  0.51100000000E-03 0.  1.
         11   -1    0    0    0    0 -0.00000000000E+00 -0.00000000000E+00 -0.45593999997E+02  0.45594000000E+02  0.51100000000E-03 0. -1.
    9900012    2    1    2    0    0 -0.11695029194E+02  0.41889043646E+01  0.14012820835E+02  0.72461554118E+02  0.69999978927E+02 0.  0.
         12    1    1    2    0    0  0.11695029194E+02 -0.41889043646E+01 -0.14012820835E+02  0.18726445882E+02  0.00000000000E+00 0. -1.
         11    1    3    3    0    0  0.99036456361E+00  0.13210455823E+01 -0.10396586678E+02  0.10526870295E+02  0.51100000000E-03 0. -1.
        -11    1    3    3    0    0 -0.30754426762E+02  0.15894131857E+02  0.13901305857E+02  0.37305555856E+02  0.51100000000E-03 0.  1.
         12    1    3    3    0    0  0.18069033005E+02 -0.13026273075E+02  0.10508101656E+02  0.24629127966E+02  0.00000000000E+00 0. -1.
</event>
<event>
 7    1  0.3189267E-013  0.7246156E+02  0.7816164E-02  0.1226708E+00
        -11   -1    0    0    0    0  0.00000000000E+00  0.00000000000E+00  0.45593999997E+02  0.45594000000E+02  0.51100000000E-03 0.  1.
         11   -1    0    0    0    0 -0.00000000000E+00 -0.00000000000E+00 -0.45593999997E+02  0.45594000000E+02  0.51100000000E-03 0. -1.
    9900012    2    1    2    0    0  0.40770256943E+01  0.13151076336E+02 -0.12692776493E+02  0.72461560872E+02  0.69999987726E+02 0.  0.
         12    1    1    2    0    0 -0.40770256943E+01 -0.13151076336E+02  0.12692776493E+02  0.18726439128E+02  0.00000000000E+00 0. -1.
         11    1    3    3    0    0  0.23728570445E+01 -0.31908363697E+01  0.97222440596E+01  0.10503995293E+02  0.51100000000E-03 0. -1.
        -11    1    3    3    0    0  0.14969014442E+02 -0.20383013907E+01  0.12986146320E+02  0.19921497494E+02  0.51100000000E-03 0.  1.
         12    1    3    3    0    0 -0.13264845792E+02  0.18380214097E+02 -0.35401166872E+02  0.42036068085E+02  0.00000000000E+00 0. -1.
</event>
<event>
 7    1  0.3189267E-013  0.7246158E+02  0.7816164E-02  0.1226708E+00
        -11   -1    0    0    0    0  0.00000000000E+00  0.00000000000E+00  0.45593999997E+02  0.45594000000E+02  0.51100000000E-03 0.  1.
         11   -1    0    0    0    0 -0.00000000000E+00 -0.00000000000E+00 -0.45593999997E+02  0.45594000000E+02  0.51100000000E-03 0. -1.
    9900012    2    1    2    0    0 -0.91370147894E+01 -0.78605492557E+01  0.14331975498E+02  0.72461580279E+02  0.70000013007E+02 0.  0.
         12    1    1    2    0    0  0.91370147894E+01  0.78605492557E+01 -0.14331975498E+02  0.18726419721E+02  0.00000000000E+00 0. -1.
         11    1    3    3    0    0 -0.19244841647E+01 -0.16486099218E+02 -0.48601617038E+01  0.17294978427E+02  0.51100000000E-03 0. -1.
        -11    1    3    3    0    0  0.92077580589E+01  0.26126052812E+02  0.11078481271E+02  0.29834312319E+02  0.51100000000E-03 0.  1.
         12    1    3    3    0    0 -0.16420288684E+02 -0.17500502850E+02  0.81136559315E+01  0.25332289534E+02  0.00000000000E+00 0. -1.
</event>
<event>
 7    1  0.3189267E-013  0.7246159E+02  0.7816164E-02  0.1226708E+00
        -11   -1    0    0    0    0  0.00000000000E+00  0.00000000000E+00  0.45593999997E+02  0.45594000000E+02  0.51100000000E-03 0. -1.
         11   -1    0    0    0    0 -0.00000000000E+00 -0.00000000000E+00 -0.45593999997E+02  0.45594000000E+02  0.51100000000E-03 0.  1.
    9900012    2    1    2    0    0 -0.45585574832E+01  0.17405253621E+02 -0.51918329840E+01  0.72461590049E+02  0.70000025734E+02 0.  0.
         12    1    1    2    0    0  0.45585574832E+01 -0.17405253621E+02  0.51918329840E+01  0.18726409951E+02  0.00000000000E+00 0. -1.
         11    1    3    3    0    0  0.16439068957E+01  0.15327581367E+01  0.39754276287E+01  0.45668153542E+01  0.51100000000E-03 0. -1.
        -11    1    3    3    0    0  0.64064377193E+00  0.40863183111E+02 -0.15909393975E+01  0.40899159488E+02  0.51100000000E-03 0.  1.
         12    1    3    3    0    0 -0.68431081508E+01 -0.24990687627E+02 -0.75763212151E+01  0.26995615207E+02  0.00000000000E+00 0. -1.
</event>
<event>
 7    1  0.3189267E-013  0.7246157E+02  0.7816164E-02  0.1226708E+00
        -11   -1    0    0    0    0  0.00000000000E+00  0.00000000000E+00  0.45593999997E+02  0.45594000000E+02  0.51100000000E-03 0.  1.
         11   -1    0    0    0    0 -0.00000000000E+00 -0.00000000000E+00 -0.45593999997E+02  0.45594000000E+02  0.51100000000E-03 0. -1.
    9900012    2    1    2    0    0 -0.32448209273E+01  0.17380421945E+02  0.61701780946E+01  0.72461574084E+02  0.70000004937E+02 0.  0.
         12    1    1    2    0    0  0.32448209273E+01 -0.17380421945E+02 -0.61701780946E+01  0.18726425916E+02  0.00000000000E+00 0. -1.
         11    1    3    3    0    0  0.77455930636E+01  0.14627397241E+02  0.91333172623E+01  0.18904297036E+02  0.51100000000E-03 0. -1.
        -11    1    3    3    0    0  0.13347727566E+01 -0.10540296722E+02  0.20985259074E+02  0.23521491704E+02  0.51100000000E-03 0.  1.
         12    1    3    3    0    0 -0.12325186747E+02  0.13293321426E+02 -0.23948398242E+02  0.30035785344E+02  0.00000000000E+00 0. -1.
</event>
<event>
 7    1  0.3189267E-013  0.7246158E+02  0.7816164E-02  0.1226708E+00
        -11   -1    0    0    0    0  0.00000000000E+00  0.00000000000E+00  0.45593999997E+02  0.45594000000E+02  0.51100000000E-03 0.  1.
         11   -1    0    0    0    0 -0.00000000000E+00 -0.00000000000E+00 -0.45593999997E+02  0.45594000000E+02  0.51100000000E-03 0. -1.
    9900012    2    1    2    0    0 -0.15883043709E+02  0.95710482004E+01  0.26082021661E+01  0.72461581238E+02  0.70000014256E+02 0.  0.
         12    1    1    2    0    0  0.15883043709E+02 -0.95710482004E+01 -0.26082021661E+01  0.18726418762E+02  0.00000000000E+00 0. -1.
         11    1    3    3    0    0 -0.31963665495E+02  0.16723361276E+01  0.13052485598E+02  0.34566457738E+02  0.51100000000E-03 0. -1.
        -11    1    3    3    0    0 -0.79952307618E+01 -0.13938112276E+01  0.31752276318E+01  0.87148433977E+01  0.51100000000E-03 0.  1.
         12    1    3    3    0    0  0.24075852548E+02  0.92925233004E+01 -0.13619511064E+02  0.29180280102E+02  0.00000000000E+00 0. -1.
</event>
<event>
 7    1  0.3189267E-013  0.7246156E+02  0.7816164E-02  0.1226708E+00
        -11   -1    0    0    0    0  0.00000000000E+00  0.00000000000E+00  0.45593999997E+02  0.45594000000E+02  0.51100000000E-03 0. -1.
         11   -1    0    0    0    0 -0.00000000000E+00 -0.00000000000E+00 -0.45593999997E+02  0.45594000000E+02  0.51100000000E-03 0.  1.
    9900012    2    1    2    0    0  0.17868682950E+02  0.29690608582E+01 -0.47512381485E+01  0.72461563695E+02  0.69999991403E+02 0.  0.
         12    1    1    2    0    0 -0.17868682950E+02 -0.29690608582E+01  0.47512381485E+01  0.18726436305E+02  0.00000000000E+00 0. -1.
         11    1    3    3    0    0 -0.11834310136E+02  0.13623660239E+02 -0.17743074082E+02  0.25307542213E+02  0.51100000000E-03 0. -1.
        -11    1    3    3    0    0  0.13689457614E+01 -0.13801708847E+02 -0.33851227449E+01  0.14276562466E+02  0.51100000000E-03 0.  1.
        -12    1    3    3    0    0  0.28334047325E+02  0.31471094657E+01  0.16376958678E+02  0.32877459016E+02  0.00000000000E+00 0.  1.
</event>
<event>
 7    1  0.3189267E-013  0.7246152E+02  0.7816164E-02  0.1226708E+00
        -11   -1    0    0    0    0  0.00000000000E+00  0.00000000000E+00  0.45593999997E+02  0.45594000000E+02  0.51100000000E-03 0. -1.
         11   -1    0    0    0    0 -0.00000000000E+00 -0.00000000000E+00 -0.45593999997E+02  0.45594000000E+02  0.51100000000E-03 0.  1.
    9900012    2    1    2    0    0  0.12041025824E+02  0.10705538113E+02 -0.95439028324E+01  0.72461523277E+02  0.69999938751E+02 0.  0.
         12    1    1    2    0    0 -0.12041025824E+02 -0.10705538113E+02  0.95439028324E+01  0.18726476723E+02  0.00000000000E+00 0. -1.
         11    1    3    3    0    0 -0.96234487972E+01  0.13194441291E+02 -0.59763093954E+01  0.17390236398E+02  0.51100000000E-03 0. -1.
        -11    1    3    3    0    0 -0.75348518422E+01 -0.73185262119E+01 -0.18987382573E+02  0.21699205410E+02  0.51100000000E-03 0.  1.
         12    1    3    3    0    0  0.29199326464E+02  0.48296230339E+01  0.15419789136E+02  0.33372081469E+02  0.00000000000E+00 0. -1.
</event>
<event>
 7    1  0.3189267E-013  0.7246159E+02  0.7816164E-02  0.1226708E+00
        -11   -1    0    0    0    0  0.00000000000E+00  0.00000000000E+00  0.45593999997E+02  0.45594000000E+02  0.51100000000E-03 0. -1.
         11   -1    0    0    0    0 -0.00000000000E+00 -0.00000000000E+00 -0.45593999997E+02  0.45594000000E+02  0.51100000000E-03 0.  1.
    9900012    2    1    2    0    0  0.15592698425E+02  0.67619390190E+01 -0.78627271334E+01  0.72461587064E+02  0.70000021845E+02 0.  0.
         12    1    1    2    0    0 -0.15592698425E+02 -0.67619390190E+01  0.78627271334E+01  0.18726412936E+02  0.00000000000E+00 0. -1.
         11    1    3    3    0    0  0.21394202681E+02 -0.18679710660E+02 -0.23295593522E+01  0.28496847996E+02  0.51100000000E-03 0. -1.
        -11    1    3    3    0    0  0.50958338045E+01 -0.52760729877E+01 -0.85108235655E+01  0.11235594615E+02  0.51100000000E-03 0.  1.
         12    1    3    3    0    0 -0.10897338060E+02  0.30717722666E+02  0.29776557843E+01  0.32729144452E+02  0.00000000000E+00 0. -1.
</event>
<event>
 7    1  0.3189267E-013  0.7246149E+02  0.7816164E-02  0.1226708E+00
        -11   -1    0    0    0    0  0.00000000000E+00  0.00000000000E+00  0.45593999997E+02  0.45594000000E+02  0.51100000000E-03 0.  1.
         11   -1    0    0    0    0 -0.00000000000E+00 -0.00000000000E+00 -0.45593999997E+02  0.45594000000E+02  0.51100000000E-03 0. -1.
    9900012    2    1    2    0    0 -0.98137053063E+01 -0.15883120383E+02 -0.14490248971E+01  0.72461494771E+02  0.69999901617E+02 0.  0.
         12    1    1    2    0    0  0.98137053063E+01  0.15883120383E+02  0.14490248971E+01  0.18726505229E+02  0.00000000000E+00 0. -1.
         11    1    3    3    0    0 -0.10488207623E+02  0.97829405886E+01  0.95923511633E+01  0.17254611755E+02  0.51100000000E-03 0. -1.
        -11    1    3    3    0    0  0.17166598778E+02  0.58847513233E+01 -0.81268067716E+00  0.18165430407E+02  0.51100000000E-03 0.  1.
        -12    1    3    3    0    0 -0.16492096461E+02 -0.31550812295E+02 -0.10228695383E+02  0.37041452609E+02  0.00000000000E+00 0.  1.
</event>
<event>
 7    1  0.3189267E-013  0.7246160E+02  0.7816164E-02  0.1226708E+00
        -11   -1    0    0    0    0  0.00000000000E+00  0.00000000000E+00  0.45593999997E+02  0.45594000000E+02  0.51100000000E-03 0. -1.
         11   -1    0    0    0    0 -0.00000000000E+00 -0.00000000000E+00 -0.45593999997E+02  0.45594000000E+02  0.51100000000E-03 0.  1.
    9900012    2    1    2    0    0 -0.11454931902E+02 -0.14780100028E+02 -0.10056732458E+01  0.72461596170E+02  0.70000033708E+02 0.  0.
         12    1    1    2    0    0  0.11454931902E+02  0.14780100028E+02  0.10056732458E+01  0.18726403830E+02  0.00000000000E+00 0. -1.
         11    1    3    3    0    0  0.78473852569E+01 -0.25680476862E+01  0.10707680411E+02  0.13521491942E+02  0.51100000000E-03 0. -1.
        -11    1    3    3    0    0 -0.12344273210E+02  0.51297541771E+00  0.20317345034E+02  0.23778955703E+02  0.51100000000E-03 0.  1.
        -12    1    3    3    0    0 -0.69580439484E+01 -0.12725027760E+02 -0.32030698690E+02  0.35161148526E+02  0.00000000000E+00 0.  1.
</event>
<event>
 7    1  0.3189267E-013  0.7246173E+02  0.7816164E-02  0.1226708E+00
        -11   -1    0    0    0    0  0.00000000000E+00  0.00000000000E+00  0.45593999997E+02  0.45594000000E+02  0.51100000000E-03 0.  1.
         11   -1    0    0    0    0 -0.00000000000E+00 -0.00000000000E+00 -0.45593999997E+02  0.45594000000E+02  0.51100000000E-03 0. -1.
    9900012    2    1    2    0    0  0.19385161149E+01 -0.15258816613E+02  0.10680999202E+02  0.72461733070E+02  0.70000212045E+02 0.  0.
         12    1    1    2    0    0 -0.19385161149E+01  0.15258816613E+02 -0.10680999202E+02  0.18726266930E+02  0.00000000000E+00 0. -1.
         11    1    3    3    0    0 -0.23584020739E+02  0.49168151045E+01  0.19209003639E+02  0.30811798488E+02  0.51100000000E-03 0. -1.
        -11    1    3    3    0    0 -0.10328267771E+01 -0.66336362723E+00 -0.86095285483E+01  0.86965949968E+01  0.51100000000E-03 0.  1.
        -12    1    3    3    0    0  0.26555363631E+02 -0.19512268091E+02  0.81524111978E-01  0.32953339585E+02  0.00000000000E+00 0.  1.
</event>
<event>
 7    1  0.3189267E-013  0.7246157E+02  0.7816164E-02  0.1226708E+00
        -11   -1    0    0    0    0  0.00000000000E+00  0.00000000000E+00  0.45593999997E+02  0.45594000000E+02  0.51100000000E-03 0.  1.
         11   -1    0    0    0    0 -0.00000000000E+00 -0.00000000000E+00 -0.45593999997E+02  0.45594000000E+02  0.51100000000E-03 0. -1.
    9900012    2    1    2    0    0 -0.50630347967E+01 -0.90356154684E+01  0.15601357493E+02  0.72461574183E+02  0.70000005066E+02 0.  0.
         12    1    1    2    0    0  0.50630347967E+01  0.90356154684E+01 -0.15601357493E+02  0.18726425817E+02  0.00000000000E+00 0. -1.
         11    1    3    3    0    0 -0.72896869020E+01  0.69353667307E+00  0.10732660531E+02  0.12992710671E+02  0.51100000000E-03 0. -1.
        -11    1    3    3    0    0  0.17179409485E+02  0.15265609791E+02  0.16304645546E+02  0.28178225977E+02  0.51100000000E-03 0.  1.
         12    1    3    3    0    0 -0.14952757380E+02 -0.24994761933E+02 -0.11435948584E+02  0.31290637535E+02  0.00000000000E+00 0. -1.
</event>
<event>
 7    1  0.3189267E-013  0.7246157E+02  0.7816164E-02  0.1226708E+00
        -11   -1    0    0    0    0  0.00000000000E+00  0.00000000000E+00  0.45593999997E+02  0.45594000000E+02  0.51100000000E-03 0.  1.
         11   -1    0    0    0    0 -0.00000000000E+00 -0.00000000000E+00 -0.45593999997E+02  0.45594000000E+02  0.51100000000E-03 0. -1.
    9900012    2    1    2    0    0  0.24390740245E+01 -0.15016467929E+02  0.10919512661E+02  0.72461570871E+02  0.70000000751E+02 0.  0.
         12    1    1    2    0    0 -0.24390740245E+01  0.15016467929E+02 -0.10919512661E+02  0.18726429129E+02  0.00000000000E+00 0. -1.
         11    1    3    3    0    0  0.11036714689E+02  0.41948928347E+01  0.15345206880E+01  0.11906340791E+02  0.51100000000E-03 0. -1.
        -11    1    3    3    0    0  0.14086968465E+02  0.11651794875E+01 -0.15659946906E+02  0.21095835161E+02  0.51100000000E-03 0.  1.
        -12    1    3    3    0    0 -0.22684609130E+02 -0.20376540251E+02  0.25044938879E+02  0.39459394920E+02  0.00000000000E+00 0.  1.
</event>
<event>
 7    1  0.3189267E-013  0.7246154E+02  0.7816164E-02  0.1226708E+00
        -11   -1    0    0    0    0  0.00000000000E+00  0.00000000000E+00  0.45593999997E+02  0.45594000000E+02  0.51100000000E-03 0. -1.
         11   -1    0    0    0    0 -0.00000000000E+00 -0.00000000000E+00 -0.45593999997E+02  0.45594000000E+02  0.51100000000E-03 0.  1.
    9900012    2    1    2    0    0 -0.41083134047E+00 -0.18045314769E+02  0.49878010582E+01  0.72461539392E+02  0.69999959744E+02 0.  0.
         12    1    1    2    0    0  0.41083134047E+00  0.18045314769E+02 -0.49878010582E+01  0.18726460608E+02  0.00000000000E+00 0. -1.
         11    1    3    3    0    0  0.18948144057E+02  0.15580298101E+02 -0.80039008504E+01  0.25803881127E+02  0.51100000000E-03 0.  1.
        -11    1    3    3    0    0  0.16888243714E+01  0.24610951322E+01  0.14378636714E+01  0.33130905822E+01  0.51100000000E-03 0. -1.
        -12    1    3    3    0    0 -0.21047799769E+02 -0.36086708002E+02  0.11553838237E+02  0.43344567683E+02  0.00000000000E+00 0.  1.
</event>
<event>
 7    1  0.3189267E-013  0.7246154E+02  0.7816164E-02  0.1226708E+00
        -11   -1    0    0    0    0  0.00000000000E+00  0.00000000000E+00  0.45593999997E+02  0.45594000000E+02  0.51100000000E-03 0.  1.
         11   -1    0    0    0    0 -0.00000000000E+00 -0.00000000000E+00 -0.45593999997E+02  0.45594000000E+02  0.51100000000E-03 0. -1.
    9900012    2    1    2    0    0  0.11131591863E+02  0.55944767972E+01 -0.13981047838E+02  0.72461542602E+02  0.69999963925E+02 0.  0.
         12    1    1    2    0    0 -0.11131591863E+02 -0.55944767972E+01  0.13981047838E+02  0.18726457398E+02  0.00000000000E+00 0. -1.
         11    1    3    3    0    0  0.13398900007E+02  0.21860659708E+02 -0.21876873238E+02  0.33704844566E+02  0.51100000000E-03 0. -1.
        -11    1    3    3    0    0 -0.41216196106E+01  0.87677841135E+01  0.95446219464E+01  0.13600058634E+02  0.51100000000E-03 0.  1.
         12    1    3    3    0    0  0.18543114666E+01 -0.25033967024E+02 -0.16487965464E+01  0.25156639403E+02  0.00000000000E+00 0. -1.
</event>
<event>
 7    1  0.3189267E-013  0.7246153E+02  0.7816164E-02  0.1226708E+00
        -11   -1    0    0    0    0  0.00000000000E+00  0.00000000000E+00  0.45593999997E+02  0.45594000000E+02  0.51100000000E-03 0.  1.
         11   -1    0    0    0    0 -0.00000000000E+00 -0.00000000000E+00 -0.45593999997E+02  0.45594000000E+02  0.51100000000E-03 0. -1.
    9900012    2    1    2    0    0  0.56123138013E+01 -0.10419797176E+02  0.14512418078E+02  0.72461534293E+02  0.69999953102E+02 0.  0.
         12    1    1    2    0    0 -0.56123138013E+01  0.10419797176E+02 -0.14512418078E+02  0.18726465707E+02  0.00000000000E+00 0. -1.
         11    1    3    3    0    0 -0.11900128741E+02 -0.10812100808E+02  0.93423547689E+01  0.18595541961E+02  0.51100000000E-03 0. -1.
        -11    1    3    3    0    0 -0.99398472744E+01  0.86241316043E+01 -0.14133474822E+02  0.19311429791E+02  0.51100000000E-03 0.  1.
         12    1    3    3    0    0  0.27452289817E+02 -0.82318279717E+01  0.19303538132E+02  0.34554562540E+02  0.00000000000E+00 0. -1.
</event>
<event>
 7    1  0.3189267E-013  0.7246157E+02  0.7816164E-02  0.1226708E+00
        -11   -1    0    0    0    0  0.00000000000E+00  0.00000000000E+00  0.45593999997E+02  0.45594000000E+02  0.51100000000E-03 0.  1.
         11   -1    0    0    0    0 -0.00000000000E+00 -0.00000000000E+00 -0.45593999997E+02  0.45594000000E+02  0.51100000000E-03 0. -1.
    9900012    2    1    2    0    0  0.13209131463E+02  0.93750276222E+01  0.93971697158E+01  0.72461572268E+02  0.70000002571E+02 0.  0.
         12    1    1    2    0    0 -0.13209131463E+02 -0.93750276222E+01 -0.93971697158E+01  0.18726427732E+02  0.00000000000E+00 0. -1.
         11    1    3    3    0    0  0.20943144096E+02  0.20090212109E+02 -0.13987879379E+02  0.32216341769E+02  0.51100000000E-03 0. -1.
        -11    1    3    3    0    0 -0.79853590569E+00 -0.11244221289E+02 -0.40225757061E+01  0.11968762993E+02  0.51100000000E-03 0.  1.
        -12    1    3    3    0    0 -0.69354767267E+01  0.52903680261E+00  0.27407624801E+02  0.28276467506E+02  0.00000000000E+00 0.  1.
</event>
<event>
 7    1  0.3189267E-013  0.7246158E+02  0.7816164E-02  0.1226708E+00
        -11   -1    0    0    0    0  0.00000000000E+00  0.00000000000E+00  0.45593999997E+02  0.45594000000E+02  0.51100000000E-03 0.  1.
         11   -1    0    0    0    0 -0.00000000000E+00 -0.00000000000E+00 -0.45593999997E+02  0.45594000000E+02  0.51100000000E-03 0. -1.
    9900012    2    1    2    0    0 -0.41566102146E+01  0.29429523376E+01  0.18020553195E+02  0.72461582446E+02  0.70000015830E+02 0.  0.
         12    1    1    2    0    0  0.41566102146E+01 -0.29429523376E+01 -0.18020553195E+02  0.18726417554E+02  0.00000000000E+00 0. -1.
         11    1    3    3    0    0 -0.14976989703E+02 -0.99935726013E+01 -0.16489263007E+01  0.18080394689E+02  0.51100000000E-03 0. -1.
        -11    1    3    3    0    0  0.12249456954E+02 -0.12937460906E+02  0.22061835496E+02  0.28357568233E+02  0.51100000000E-03 0.  1.
        -12    1    3    3    0    0 -0.14290774660E+01  0.25873985845E+02 -0.23923560005E+01  0.26023619524E+02  0.00000000000E+00 0.  1.
</event>
<event>
 7    1  0.3189267E-013  0.7246157E+02  0.7816164E-02  0.1226708E+00
        -11   -1    0    0    0    0  0.00000000000E+00  0.00000000000E+00  0.45593999997E+02  0.45594000000E+02  0.51100000000E-03 0. -1.
         11   -1    0    0    0    0 -0.00000000000E+00 -0.00000000000E+00 -0.45593999997E+02  0.45594000000E+02  0.51100000000E-03 0.  1.
    9900012    2    1    2    0    0 -0.79026888531E+01 -0.14049548491E+02 -0.95308425488E+01  0.72461567782E+02  0.69999996727E+02 0.  0.
         12    1    1    2    0    0  0.79026888531E+01  0.14049548491E+02  0.95308425488E+01  0.18726432218E+02  0.00000000000E+00 0. -1.
         11    1    3    3    0    0 -0.10598643045E+02  0.42634096984E+01 -0.21921317129E+02  0.24719466855E+02  0.51100000000E-03 0. -1.
        -11    1    3    3    0    0  0.98106628341E+01  0.11688142330E+02  0.35648984833E+01  0.15670682111E+02  0.51100000000E-03 0.  1.
         12    1    3    3    0    0 -0.71147086424E+01 -0.30001100520E+02  0.88255760969E+01  0.32071418816E+02  0.00000000000E+00 0. -1.
</event>
<event>
 7    1  0.3189267E-013  0.7246159E+02  0.7816164E-02  0.1226708E+00
        -11   -1    0    0    0    0  0.00000000000E+00  0.00000000000E+00  0.45593999997E+02  0.45594000000E+02  0.51100000000E-03 0.  1.
         11   -1    0    0    0    0 -0.00000000000E+00 -0.00000000000E+00 -0.45593999997E+02  0.45594000000E+02  0.51100000000E-03 0. -1.
    9900012    2    1    2    0    0 -0.68613508700E+01 -0.12029556956E-01  0.17424124998E+02  0.72461590509E+02  0.70000026333E+02 0.  0.
         12    1    1    2    0    0  0.68613508700E+01  0.12029556956E-01 -0.17424124998E+02  0.18726409491E+02  0.00000000000E+00 0. -1.
         11    1    3    3    0    0 -0.33177102921E+01 -0.85851813355E+01 -0.20613725857E+02  0.22575168529E+02  0.51100000000E-03 0. -1.
        -11    1    3    3    0    0 -0.14349501111E+02 -0.15411789936E+01  0.82488976826E+01  0.16623108255E+02  0.51100000000E-03 0.  1.
         12    1    3    3    0    0  0.10805860533E+02  0.10114330772E+02  0.29788953173E+02  0.33263313725E+02  0.00000000000E+00 0. -1.
</event>
<event>
 7    1  0.3189267E-013  0.7246157E+02  0.7816164E-02  0.1226708E+00
        -11   -1    0    0    0    0  0.00000000000E+00  0.00000000000E+00  0.45593999997E+02  0.45594000000E+02  0.51100000000E-03 0.  1.
         11   -1    0    0    0    0 -0.00000000000E+00 -0.00000000000E+00 -0.45593999997E+02  0.45594000000E+02  0.51100000000E-03 0. -1.
    9900012    2    1    2    0    0 -0.13705790611E+01  0.12056706208E+02  0.14263116310E+02  0.72461571125E+02  0.70000001082E+02 0.  0.
         12    1    1    2    0    0  0.13705790611E+01 -0.12056706208E+02 -0.14263116310E+02  0.18726428875E+02  0.00000000000E+00 0. -1.
         11    1    3    3    0    0  0.54624812755E+01  0.63728321250E+01  0.21888583527E+01  0.86742603216E+01  0.51100000000E-03 0. -1.
        -11    1    3    3    0    0  0.16512537140E+02 -0.23964620627E+01  0.29266946345E+02  0.33689183158E+02  0.51100000000E-03 0.  1.
         12    1    3    3    0    0 -0.23345597477E+02  0.80803361454E+01 -0.17192688387E+02  0.30098127645E+02  0.00000000000E+00 0. -1.
</event>
<event>
 7    1  0.3189267E-013  0.7246157E+02  0.7816164E-02  0.1226708E+00
        -11   -1    0    0    0    0  0.00000000000E+00  0.00000000000E+00  0.45593999997E+02  0.45594000000E+02  0.51100000000E-03 0.  1.
         11   -1    0    0    0    0 -0.00000000000E+00 -0.00000000000E+00 -0.45593999997E+02  0.45594000000E+02  0.51100000000E-03 0. -1.
    9900012    2    1    2    0    0 -0.28570311423E+01 -0.13996438739E+02  0.12108525273E+02  0.72461566581E+02  0.69999995162E+02 0.  0.
         12    1    1    2    0    0  0.28570311423E+01  0.13996438739E+02 -0.12108525273E+02  0.18726433419E+02  0.00000000000E+00 0. -1.
         11    1    3    3    0    0 -0.11804078056E+02  0.19379944028E+01 -0.10507372585E+02  0.15921587859E+02  0.51100000000E-03 0. -1.
        -11    1    3    3    0    0  0.82541354712E+01  0.16134786993E+02  0.16048159559E+01  0.18194437012E+02  0.51100000000E-03 0.  1.
         12    1    3    3    0    0  0.69291144232E+00 -0.32069220134E+02  0.21011081903E+02  0.38345541709E+02  0.00000000000E+00 0. -1.
</event>
<event>
 7    1  0.3189267E-013  0.7246169E+02  0.7816164E-02  0.1226708E+00
        -11   -1    0    0    0    0  0.00000000000E+00  0.00000000000E+00  0.45593999997E+02  0.45594000000E+02  0.51100000000E-03 0.  1.
         11   -1    0    0    0    0 -0.00000000000E+00 -0.00000000000E+00 -0.45593999997E+02  0.45594000000E+02  0.51100000000E-03 0. -1.
    9900012    2    1    2    0    0  0.14112409667E+02  0.12247174653E+02 -0.12334267321E+01  0.72461688695E+02  0.70000154239E+02 0.  0.
         12    1    1    2    0    0 -0.14112409667E+02 -0.12247174653E+02  0.12334267321E+01  0.18726311305E+02  0.00000000000E+00 0. -1.
         11    1    3    3    0    0 -0.11399675337E+02  0.36640963950E+01  0.33341940888E+01  0.12429603801E+02  0.51100000000E-03 0. -1.
        -11    1    3    3    0    0  0.16087482155E+02 -0.19119501701E+01  0.23544359912E+02  0.28579704678E+02  0.51100000000E-03 0.  1.
        -12    1    3    3    0    0  0.94246028485E+01  0.10495028428E+02 -0.28111980733E+02  0.31452380216E+02  0.00000000000E+00 0.  1.
</event>
<event>
 7    1  0.3189267E-013  0.7246150E+02  0.7816164E-02  0.1226708E+00
        -11   -1    0    0    0    0  0.00000000000E+00  0.00000000000E+00  0.45593999997E+02  0.45594000000E+02  0.51100000000E-03 0.  1.
         11   -1    0    0    0    0 -0.00000000000E+00 -0.00000000000E+00 -0.45593999997E+02  0.45594000000E+02  0.51100000000E-03 0. -1.
    9900012    2    1    2    0    0 -0.55412473816E+01  0.67525796647E+01 -0.16564394916E+02  0.72461496493E+02  0.69999903860E+02 0.  0.
         12    1    1    2    0    0  0.55412473816E+01 -0.67525796647E+01  0.16564394916E+02  0.18726503507E+02  0.00000000000E+00 0. -1.
         11    1    3    3    0    0  0.17545651542E+01  0.43710222848E+01 -0.49519740127E+01  0.68342067263E+01  0.51100000000E-03 0. -1.
        -11    1    3    3    0    0  0.23442285658E+02  0.15680354507E+02  0.43322353658E+01  0.28533884031E+02  0.51100000000E-03 0.  1.
         12    1    3    3    0    0 -0.30738098194E+02 -0.13298797127E+02 -0.15944656269E+02  0.37093405736E+02  0.00000000000E+00 0. -1.
</event>
<event>
 7    1  0.3189267E-013  0.7246157E+02  0.7816164E-02  0.1226708E+00
        -11   -1    0    0    0    0  0.00000000000E+00  0.00000000000E+00  0.45593999997E+02  0.45594000000E+02  0.51100000000E-03 0.  1.
         11   -1    0    0    0    0 -0.00000000000E+00 -0.00000000000E+00 -0.45593999997E+02  0.45594000000E+02  0.51100000000E-03 0. -1.
    9900012    2    1    2    0    0  0.73741980673E+01  0.72654444897E+01  0.15604926099E+02  0.72461569498E+02  0.69999998963E+02 0.  0.
         12    1    1    2    0    0 -0.73741980673E+01 -0.72654444897E+01 -0.15604926099E+02  0.18726430502E+02  0.00000000000E+00 0. -1.
         11    1    3    3    0    0 -0.83235619918E+00 -0.18463920721E+02  0.63914585121E+01  0.19556582713E+02  0.51100000000E-03 0. -1.
        -11    1    3    3    0    0  0.60176806256E+01 -0.11546763236E+02  0.85155786913E+01  0.15558126560E+02  0.51100000000E-03 0.  1.
        -12    1    3    3    0    0  0.21888736409E+01  0.37276128447E+02  0.69788889573E+00  0.37346860226E+02  0.00000000000E+00 0.  1.
</event>
<event>
 7    1  0.3189267E-013  0.7246157E+02  0.7816164E-02  0.1226708E+00
        -11   -1    0    0    0    0  0.00000000000E+00  0.00000000000E+00  0.45593999997E+02  0.45594000000E+02  0.51100000000E-03 0.  1.
         11   -1    0    0    0    0 -0.00000000000E+00 -0.00000000000E+00 -0.45593999997E+02  0.45594000000E+02  0.51100000000E-03 0. -1.
    9900012    2    1    2    0    0 -0.75420232430E+00 -0.18405759387E+02  0.33672438196E+01  0.72461571331E+02  0.70000001351E+02 0.  0.
         12    1    1    2    0    0  0.75420232430E+00  0.18405759387E+02 -0.33672438196E+01  0.18726428669E+02  0.00000000000E+00 0. -1.
         11    1    3    3    0    0 -0.10292977993E+01  0.68569264027E+01 -0.14729118344E+02  0.16279552239E+02  0.51100000000E-03 0. -1.
        -11    1    3    3    0    0  0.40436542889E+01  0.97872067083E+01 -0.71891320414E+01  0.12799381818E+02  0.51100000000E-03 0.  1.
        -12    1    3    3    0    0 -0.37685588139E+01 -0.35049892497E+02  0.25285494205E+02  0.43382637274E+02  0.00000000000E+00 0.  1.
</event>
<event>
 7    1  0.3189267E-013  0.7246156E+02  0.7816164E-02  0.1226708E+00
        -11   -1    0    0    0    0  0.00000000000E+00  0.00000000000E+00  0.45593999997E+02  0.45594000000E+02  0.51100000000E-03 0.  1.
         11   -1    0    0    0    0 -0.00000000000E+00 -0.00000000000E+00 -0.45593999997E+02  0.45594000000E+02  0.51100000000E-03 0. -1.
    9900012    2    1    2    0    0 -0.15177769997E+02  0.11009728504E+01  0.10913412955E+02  0.72461563456E+02  0.69999991092E+02 0.  0.
         12    1    1    2    0    0  0.15177769997E+02 -0.11009728504E+01 -0.10913412955E+02  0.18726436544E+02  0.00000000000E+00 0. -1.
         11    1    3    3    0    0  0.76430801492E+01 -0.13794418135E+02  0.13228932557E+02  0.20584151737E+02  0.51100000000E-03 0.  1.
        -11    1    3    3    0    0  0.74941445485E+01  0.19745692381E+02 -0.13030104584E+01  0.21160160837E+02  0.51100000000E-03 0. -1.
         12    1    3    3    0    0 -0.30314994695E+02 -0.48503013956E+01 -0.10125091442E+01  0.30717250882E+02  0.00000000000E+00 0. -1.
</event>
<event>
 7    1  0.3189267E-013  0.7246090E+02  0.7816164E-02  0.1226710E+00
        -11   -1    0    0    0    0  0.00000000000E+00  0.00000000000E+00  0.45593999997E+02  0.45594000000E+02  0.51100000000E-03 0.  1.
         11   -1    0    0    0    0 -0.00000000000E+00 -0.00000000000E+00 -0.45593999997E+02  0.45594000000E+02  0.51100000000E-03 0. -1.
    9900012    2    1    2    0    0 -0.17947563962E+02 -0.14727363318E+01  0.51400583225E+01  0.72460901879E+02  0.69999129259E+02 0.  0.
         12    1    1    2    0    0  0.17947563962E+02  0.14727363318E+01 -0.51400583225E+01  0.18727098121E+02  0.00000000000E+00 0. -1.
         11    1    3    3    0    0 -0.72675183100E+01 -0.62655017034E+00 -0.17431625293E+02  0.18896321021E+02  0.51100000000E-03 0. -1.
        -11    1    3    3    0    0  0.12714075028E+02  0.17689226688E+01  0.26737256446E+02  0.29659023479E+02  0.51100000000E-03 0.  1.
         12    1    3    3    0    0 -0.23394120680E+02 -0.26151088302E+01 -0.41655728302E+01  0.23905557379E+02  0.00000000000E+00 0. -1.
</event>
<event>
 7    1  0.3189267E-013  0.7246157E+02  0.7816164E-02  0.1226708E+00
        -11   -1    0    0    0    0  0.00000000000E+00  0.00000000000E+00  0.45593999997E+02  0.45594000000E+02  0.51100000000E-03 0. -1.
         11   -1    0    0    0    0 -0.00000000000E+00 -0.00000000000E+00 -0.45593999997E+02  0.45594000000E+02  0.51100000000E-03 0.  1.
    9900012    2    1    2    0    0 -0.14405990481E+02 -0.11099034711E+02  0.44674437953E+01  0.72461569819E+02  0.69999999380E+02 0.  0.
         12    1    1    2    0    0  0.14405990481E+02  0.11099034711E+02 -0.44674437953E+01  0.18726430181E+02  0.00000000000E+00 0. -1.
         11    1    3    3    0    0 -0.45975960188E+01 -0.90205198784E+01  0.24465922277E+02  0.26478085678E+02  0.51100000000E-03 0. -1.
        -11    1    3    3    0    0 -0.15549244249E+02 -0.17639204855E+02 -0.59696126229E+01  0.24260190019E+02  0.51100000000E-03 0.  1.
         12    1    3    3    0    0  0.57408497859E+01  0.15560690022E+02 -0.14028865859E+02  0.21723294122E+02  0.00000000000E+00 0. -1.
</event>
<event>
 7    1  0.3189267E-013  0.7246161E+02  0.7816164E-02  0.1226708E+00
        -11   -1    0    0    0    0  0.00000000000E+00  0.00000000000E+00  0.45593999997E+02  0.45594000000E+02  0.51100000000E-03 0.  1.
         11   -1    0    0    0    0 -0.00000000000E+00 -0.00000000000E+00 -0.45593999997E+02  0.45594000000E+02  0.51100000000E-03 0. -1.
    9900012    2    1    2    0    0  0.88626302318E+01  0.69758281744E+01  0.14948895192E+02  0.72461605238E+02  0.70000045520E+02 0.  0.
         12    1    1    2    0    0 -0.88626302318E+01 -0.69758281744E+01 -0.14948895192E+02  0.18726394762E+02  0.00000000000E+00 0. -1.
         11    1    3    3    0    0 -0.34739871064E+01 -0.36951462293E+00  0.10516822704E+02  0.11081908117E+02  0.51100000000E-03 0. -1.
        -11    1    3    3    0    0 -0.53792342607E+01 -0.66958474832E+00  0.29308479273E+02  0.29805560933E+02  0.51100000000E-03 0.  1.
         12    1    3    3    0    0  0.17715851599E+02  0.80149275457E+01 -0.24876406785E+02  0.31574136187E+02  0.00000000000E+00 0. -1.
</event>
<event>
 7    1  0.3189267E-013  0.7246159E+02  0.7816164E-02  0.1226708E+00
        -11   -1    0    0    0    0  0.00000000000E+00  0.00000000000E+00  0.45593999997E+02  0.45594000000E+02  0.51100000000E-03 0. -1.
         11   -1    0    0    0    0 -0.00000000000E+00 -0.00000000000E+00 -0.45593999997E+02  0.45594000000E+02  0.51100000000E-03 0.  1.
    9900012    2    1    2    0    0  0.12189369091E+02 -0.13702156041E+02 -0.37879624508E+01  0.72461589277E+02  0.70000024729E+02 0.  0.
         12    1    1    2    0    0 -0.12189369091E+02  0.13702156041E+02  0.37879624508E+01  0.18726410723E+02  0.00000000000E+00 0. -1.
         11    1    3    3    0    0  0.16505277637E+02 -0.20385441215E+02  0.69314925612E+00  0.26238728238E+02  0.51100000000E-03 0. -1.
        -11    1    3    3    0    0  0.10862913592E+02  0.52145354087E+01  0.16409462865E+02  0.20358407183E+02  0.51100000000E-03 0.  1.
         12    1    3    3    0    0 -0.15178822137E+02  0.14687497653E+01 -0.20890574572E+02  0.25864453856E+02  0.00000000000E+00 0. -1.
</event>
<event>
 7    1  0.3189267E-013  0.7246150E+02  0.7816164E-02  0.1226708E+00
        -11   -1    0    0    0    0  0.00000000000E+00  0.00000000000E+00  0.45593999997E+02  0.45594000000E+02  0.51100000000E-03 0. -1.
         11   -1    0    0    0    0 -0.00000000000E+00 -0.00000000000E+00 -0.45593999997E+02  0.45594000000E+02  0.51100000000E-03 0.  1.
    9900012    2    1    2    0    0 -0.94940902205E+01  0.15748959031E+02 -0.35375783186E+01  0.72461496855E+02  0.69999904332E+02 0.  0.
         12    1    1    2    0    0  0.94940902205E+01 -0.15748959031E+02  0.35375783186E+01  0.18726503145E+02  0.00000000000E+00 0. -1.
         11    1    3    3    0    0  0.23343364971E+02  0.12303650398E+02  0.98249346072E+00  0.26405639453E+02  0.51100000000E-03 0. -1.
        -11    1    3    3    0    0  0.62964157595E+00  0.11392478310E+02 -0.17969982996E+01  0.11550507076E+02  0.51100000000E-03 0.  1.
        -12    1    3    3    0    0 -0.33467096768E+02 -0.79471696770E+01 -0.27230734798E+01  0.34505350326E+02  0.00000000000E+00 0.  1.
</event>
<event>
 7    1  0.3189267E-013  0.7246157E+02  0.7816164E-02  0.1226708E+00
        -11   -1    0    0    0    0  0.00000000000E+00  0.00000000000E+00  0.45593999997E+02  0.45594000000E+02  0.51100000000E-03 0. -1.
         11   -1    0    0    0    0 -0.00000000000E+00 -0.00000000000E+00 -0.45593999997E+02  0.45594000000E+02  0.51100000000E-03 0.  1.
    9900012    2    1    2    0    0  0.13058594216E+02  0.19038032297E+01 -0.13286374912E+02  0.72461571939E+02  0.70000002142E+02 0.  0.
         12    1    1    2    0    0 -0.13058594216E+02 -0.19038032297E+01  0.13286374912E+02  0.18726428061E+02  0.00000000000E+00 0. -1.
         11    1    3    3    0    0  0.96974789874E+01  0.88727408695E+01  0.14498133988E+02  0.19569428163E+02  0.51100000000E-03 0. -1.
        -11    1    3    3    0    0  0.97733437644E+01  0.15190120505E+02 -0.23150201775E+02  0.29363069523E+02  0.51100000000E-03 0.  1.
        -12    1    3    3    0    0 -0.64122285358E+01 -0.22159058145E+02 -0.46343071250E+01  0.23529074253E+02  0.00000000000E+00 0.  1.
</event>
<event>
 7    1  0.3189267E-013  0.7246161E+02  0.7816164E-02  0.1226708E+00
        -11   -1    0    0    0    0  0.00000000000E+00  0.00000000000E+00  0.45593999997E+02  0.45594000000E+02  0.51100000000E-03 0.  1.
         11   -1    0    0    0    0 -0.00000000000E+00 -0.00000000000E+00 -0.45593999997E+02  0.45594000000E+02  0.51100000000E-03 0. -1.
    9900012    2    1    2    0    0  0.75941172956E+01  0.83798628293E+01 -0.14925986717E+02  0.72461606914E+02  0.70000047704E+02 0.  0.
         12    1    1    2    0    0 -0.75941172956E+01 -0.83798628293E+01  0.14925986717E+02  0.18726393086E+02  0.00000000000E+00 0. -1.
         11    1    3    3    0    0  0.50386439157E+01  0.19852603147E+02 -0.11394263095E+02  0.23438067667E+02  0.51100000000E-03 0. -1.
        -11    1    3    3    0    0  0.24906310278E+01  0.13662828229E+02 -0.15814820913E+02  0.21047201214E+02  0.51100000000E-03 0.  1.
        -12    1    3    3    0    0  0.64842352098E-01 -0.25135568547E+02  0.12283097291E+02  0.27976338034E+02  0.00000000000E+00 0.  1.
</event>
<event>
 7    1  0.3189267E-013  0.7246131E+02  0.7816164E-02  0.1226709E+00
        -11   -1    0    0    0    0  0.00000000000E+00  0.00000000000E+00  0.45593999997E+02  0.45594000000E+02  0.51100000000E-03 0. -1.
         11   -1    0    0    0    0 -0.00000000000E+00 -0.00000000000E+00 -0.45593999997E+02  0.45594000000E+02  0.51100000000E-03 0.  1.
    9900012    2    1    2    0    0  0.15950680606E+02 -0.67146859546E+01 -0.71538469657E+01  0.72461314611E+02  0.69999666924E+02 0.  0.
         12    1    1    2    0    0 -0.15950680606E+02  0.67146859546E+01  0.71538469657E+01  0.18726685389E+02  0.00000000000E+00 0. -1.
         11    1    3    3    0    0 -0.14724842724E+02 -0.79452495190E+01  0.15338096973E+02  0.22698132130E+02  0.51100000000E-03 0. -1.
        -11    1    3    3    0    0  0.18953647393E+01  0.78718802288E+01  0.49134007758E+01  0.94710302120E+01  0.51100000000E-03 0.  1.
        -12    1    3    3    0    0  0.28780158590E+02 -0.66413166645E+01 -0.27405344715E+02  0.40292152269E+02  0.00000000000E+00 0.  1.
</event>
<event>
 7    1  0.3189267E-013  0.7246158E+02  0.7816164E-02  0.1226708E+00
        -11   -1    0    0    0    0  0.00000000000E+00  0.00000000000E+00  0.45593999997E+02  0.45594000000E+02  0.51100000000E-03 0.  1.
         11   -1    0    0    0    0 -0.00000000000E+00 -0.00000000000E+00 -0.45593999997E+02  0.45594000000E+02  0.51100000000E-03 0. -1.
    9900012    2    1    2    0    0  0.58490629142E+01  0.10652892279E+02  0.14247222152E+02  0.72461575089E+02  0.70000006247E+02 0.  0.
         12    1    1    2    0    0 -0.58490629142E+01 -0.10652892279E+02 -0.14247222152E+02  0.18726424911E+02  0.00000000000E+00 0. -1.
         11    1    3    3    0    0  0.62201835854E+01  0.16567571433E+02  0.27478932950E+01  0.17908825334E+02  0.51100000000E-03 0. -1.
        -11    1    3    3    0    0 -0.16547529778E+02  0.10531649134E+02  0.21768316562E+02  0.29301808501E+02  0.51100000000E-03 0.  1.
         12    1    3    3    0    0  0.16176409106E+02 -0.16446328287E+02 -0.10268987706E+02  0.25250941254E+02  0.00000000000E+00 0. -1.
</event>
<event>
 7    1  0.3189267E-013  0.7246157E+02  0.7816164E-02  0.1226708E+00
        -11   -1    0    0    0    0  0.00000000000E+00  0.00000000000E+00  0.45593999997E+02  0.45594000000E+02  0.51100000000E-03 0. -1.
         11   -1    0    0    0    0 -0.00000000000E+00 -0.00000000000E+00 -0.45593999997E+02  0.45594000000E+02  0.51100000000E-03 0.  1.
    9900012    2    1    2    0    0 -0.17044163379E+02  0.40767587559E+01 -0.65996669765E+01  0.72461572913E+02  0.70000003411E+02 0.  0.
         12    1    1    2    0    0  0.17044163379E+02 -0.40767587559E+01  0.65996669765E+01  0.18726427087E+02  0.00000000000E+00 0. -1.
         11    1    3    3    0    0 -0.14151676190E+02  0.16328416217E+02  0.14093036018E+02  0.25797301790E+02  0.51100000000E-03 0. -1.
        -11    1    3    3    0    0  0.14244542706E+02  0.51760845027E+01 -0.84598013181E+00  0.15179411396E+02  0.51100000000E-03 0.  1.
        -12    1    3    3    0    0 -0.17137029896E+02 -0.17427741964E+02 -0.19846722863E+02  0.31484859727E+02  0.00000000000E+00 0.  1.
</event>
<event>
 7    1  0.3189267E-013  0.7246157E+02  0.7816164E-02  0.1226708E+00
        -11   -1    0    0    0    0  0.00000000000E+00  0.00000000000E+00  0.45593999997E+02  0.45594000000E+02  0.51100000000E-03 0.  1.
         11   -1    0    0    0    0 -0.00000000000E+00 -0.00000000000E+00 -0.45593999997E+02  0.45594000000E+02  0.51100000000E-03 0. -1.
    9900012    2    1    2    0    0  0.91201702411E+01 -0.48855579303E+01  0.15608750902E+02  0.72461567178E+02  0.69999995941E+02 0.  0.
         12    1    1    2    0    0 -0.91201702411E+01  0.48855579303E+01 -0.15608750902E+02  0.18726432822E+02  0.00000000000E+00 0. -1.
         11    1    3    3    0    0 -0.63837875805E+01 -0.55863973797E+01 -0.48043964017E+01  0.97489899273E+01  0.51100000000E-03 0. -1.
        -11    1    3    3    0    0 -0.40073829266E+01 -0.21503643629E+02 -0.64139684722E+01  0.22794841501E+02  0.51100000000E-03 0.  1.
         12    1    3    3    0    0  0.19511340748E+02  0.22204483078E+02  0.26827115775E+02  0.39917735750E+02  0.00000000000E+00 0. -1.
</event>
<event>
 7    1  0.3189267E-013  0.7246157E+02  0.7816164E-02  0.1226708E+00
        -11   -1    0    0    0    0  0.00000000000E+00  0.00000000000E+00  0.45593999997E+02  0.45594000000E+02  0.51100000000E-03 0.  1.
         11   -1    0    0    0    0 -0.00000000000E+00 -0.00000000000E+00 -0.45593999997E+02  0.45594000000E+02  0.51100000000E-03 0. -1.
    9900012    2    1    2    0    0  0.90065176319E+01  0.84605602570E+01 -0.14070560059E+02  0.72461572148E+02  0.70000002415E+02 0.  0.
         12    1    1    2    0    0 -0.90065176319E+01 -0.84605602570E+01  0.14070560059E+02  0.18726427852E+02  0.00000000000E+00 0. -1.
         11    1    3    3    0    0  0.20669509476E+02  0.38925628471E+01 -0.10008843296E+01  0.21056648289E+02  0.51100000000E-03 0. -1.
        -11    1    3    3    0    0  0.17669109938E+01 -0.19210672212E+02  0.32904124224E+01  0.19570352972E+02  0.51100000000E-03 0.  1.
        -12    1    3    3    0    0 -0.13429902838E+02  0.23778669621E+02 -0.16360088152E+02  0.31834570887E+02  0.00000000000E+00 0.  1.
</event>
<event>
 7    1  0.3189267E-013  0.7246156E+02  0.7816164E-02  0.1226708E+00
        -11   -1    0    0    0    0  0.00000000000E+00  0.00000000000E+00  0.45593999997E+02  0.45594000000E+02  0.51100000000E-03 0. -1.
         11   -1    0    0    0    0 -0.00000000000E+00 -0.00000000000E+00 -0.45593999997E+02  0.45594000000E+02  0.51100000000E-03 0.  1.
    9900012    2    1    2    0    0 -0.90308999883E+01  0.83283967762E+01 -0.14133651022E+02  0.72461563108E+02  0.69999990638E+02 0.  0.
         12    1    1    2    0    0  0.90308999883E+01 -0.83283967762E+01  0.14133651022E+02  0.18726436892E+02  0.00000000000E+00 0. -1.
         11    1    3    3    0    0  0.71871361740E+01 -0.22200100944E+01 -0.94294420182E+00  0.75810629355E+01  0.51100000000E-03 0. -1.
        -11    1    3    3    0    0 -0.49401540400E+01 -0.22742230879E+02  0.70539651557E+01  0.24318153959E+02  0.51100000000E-03 0.  1.
         12    1    3    3    0    0 -0.11277882122E+02  0.33290637749E+02 -0.20244671976E+02  0.40562346213E+02  0.00000000000E+00 0. -1.
</event>
<event>
 7    1  0.3189267E-013  0.7246157E+02  0.7816164E-02  0.1226708E+00
        -11   -1    0    0    0    0  0.00000000000E+00  0.00000000000E+00  0.45593999997E+02  0.45594000000E+02  0.51100000000E-03 0.  1.
         11   -1    0    0    0    0 -0.00000000000E+00 -0.00000000000E+00 -0.45593999997E+02  0.45594000000E+02  0.51100000000E-03 0. -1.
    9900012    2    1    2    0    0 -0.16500217050E+02 -0.88438162675E+01 -0.45692868874E+00  0.72461573948E+02  0.70000004760E+02 0.  0.
         12    1    1    2    0    0  0.16500217050E+02  0.88438162675E+01  0.45692868874E+00  0.18726426052E+02  0.00000000000E+00 0. -1.
         11    1    3    3    0    0  0.78535557158E+01 -0.25395258305E+02  0.17042731703E+02  0.31576133169E+02  0.51100000000E-03 0. -1.
        -11    1    3    3    0    0  0.16492755386E+01 -0.10918195664E+01  0.28346296199E+01  0.34564873949E+01  0.51100000000E-03 0.  1.
        -12    1    3    3    0    0 -0.26003048304E+02  0.17643261604E+02 -0.20334290012E+02  0.37428953384E+02  0.00000000000E+00 0.  1.
</event>
<event>
 7    1  0.3189267E-013  0.7246165E+02  0.7816164E-02  0.1226708E+00
        -11   -1    0    0    0    0  0.00000000000E+00  0.00000000000E+00  0.45593999997E+02  0.45594000000E+02  0.51100000000E-03 0. -1.
         11   -1    0    0    0    0 -0.00000000000E+00 -0.00000000000E+00 -0.45593999997E+02  0.45594000000E+02  0.51100000000E-03 0.  1.
    9900012    2    1    2    0    0 -0.61564813771E+01 -0.74161597204E+01 -0.16055362367E+02  0.72461645611E+02  0.70000098114E+02 0.  0.
         12    1    1    2    0    0  0.61564813771E+01  0.74161597204E+01  0.16055362367E+02  0.18726354389E+02  0.00000000000E+00 0. -1.
         11    1    3    3    0    0  0.21508014346E+02 -0.15469966257E+02 -0.11419914956E+02  0.28850112564E+02  0.51100000000E-03 0. -1.
        -11    1    3    3    0    0 -0.40305018245E+01 -0.31897170641E+01 -0.14698603826E+02  0.15571390259E+02  0.51100000000E-03 0.  1.
        -12    1    3    3    0    0 -0.23633993899E+02  0.11243523601E+02  0.10063156415E+02  0.28040142788E+02  0.00000000000E+00 0.  1.
</event>
<event>
 7    1  0.3189267E-013  0.7246163E+02  0.7816164E-02  0.1226708E+00
        -11   -1    0    0    0    0  0.00000000000E+00  0.00000000000E+00  0.45593999997E+02  0.45594000000E+02  0.51100000000E-03 0. -1.
         11   -1    0    0    0    0 -0.00000000000E+00 -0.00000000000E+00 -0.45593999997E+02  0.45594000000E+02  0.51100000000E-03 0.  1.
    9900012    2    1    2    0    0 -0.15195173718E+02  0.88624877908E+00  0.10908630635E+02  0.72461629194E+02  0.70000076728E+02 0.  0.
         12    1    1    2    0    0  0.15195173718E+02 -0.88624877908E+00 -0.10908630635E+02  0.18726370806E+02  0.00000000000E+00 0. -1.
         11    1    3    3    0    0 -0.20621183336E+02  0.22973563046E+02  0.17411465876E+02  0.35442586607E+02  0.51100000000E-03 0. -1.
        -11    1    3    3    0    0  0.20885941627E+01 -0.12991575120E+02  0.10909480802E+02  0.17092689119E+02  0.51100000000E-03 0.  1.
        -12    1    3    3    0    0  0.33374154547E+01 -0.90957391465E+01 -0.17412316043E+02  0.19926353468E+02  0.00000000000E+00 0.  1.
</event>
<event>
 7    1  0.5016657E-013  0.7246157E+02  0.7816164E-02  0.1226708E+00
        -11   -1    0    0    0    0  0.00000000000E+00  0.00000000000E+00  0.45593999997E+02  0.45594000000E+02  0.51100000000E-03 0. -1.
         11   -1    0    0    0    0 -0.00000000000E+00 -0.00000000000E+00 -0.45593999997E+02  0.45594000000E+02  0.51100000000E-03 0.  1.
    9900012    2    1    2    0    0 -0.23259517754E+01  0.27109264225E+01 -0.18382596487E+02  0.72461574091E+02  0.70000004945E+02 0.  0.
         12    1    1    2    0    0  0.23259517754E+01 -0.27109264225E+01  0.18382596487E+02  0.18726425909E+02  0.00000000000E+00 0. -1.
         11    1    3    3    0    0 -0.83079920449E+01  0.29303442126E+01  0.19086738825E+02  0.21021732760E+02  0.51100000000E-03 0. -1.
        -11    1    3    3    0    0  0.99370073496E+01 -0.10264846206E+02 -0.20762479133E+01  0.14436827503E+02  0.51100000000E-03 0.  1.
        -12    1    3    3    0    0 -0.39549670801E+01  0.10045428416E+02 -0.35393087399E+02  0.37003013827E+02  0.00000000000E+00 0.  1.
</event>
<event>
 7    1  0.3189267E-013  0.7246156E+02  0.7816164E-02  0.1226708E+00
        -11   -1    0    0    0    0  0.00000000000E+00  0.00000000000E+00  0.45593999997E+02  0.45594000000E+02  0.51100000000E-03 0.  1.
         11   -1    0    0    0    0 -0.00000000000E+00 -0.00000000000E+00 -0.45593999997E+02  0.45594000000E+02  0.51100000000E-03 0. -1.
    9900012    2    1    2    0    0 -0.15583262283E+02  0.39032311534E+01  0.96232068610E+01  0.72461564485E+02  0.69999992432E+02 0.  0.
         12    1    1    2    0    0  0.15583262283E+02 -0.39032311534E+01 -0.96232068610E+01  0.18726435515E+02  0.00000000000E+00 0. -1.
         11    1    3    3    0    0  0.18414170092E+02  0.16530413510E+02 -0.39476101940E+01  0.25058329104E+02  0.51100000000E-03 0. -1.
        -11    1    3    3    0    0  0.10202178921E+01 -0.69800386424E+01 -0.36847406082E+01  0.79585864076E+01  0.51100000000E-03 0.  1.
        -12    1    3    3    0    0 -0.35017650267E+02 -0.56471437147E+01  0.17255557663E+02  0.39444648973E+02  0.00000000000E+00 0.  1.
</event>
<event>
 7    1  0.3189267E-013  0.7246182E+02  0.7816164E-02  0.1226707E+00
        -11   -1    0    0    0    0  0.00000000000E+00  0.00000000000E+00  0.45593999997E+02  0.45594000000E+02  0.51100000000E-03 0.  1.
         11   -1    0    0    0    0 -0.00000000000E+00 -0.00000000000E+00 -0.45593999997E+02  0.45594000000E+02  0.51100000000E-03 0. -1.
    9900012    2    1    2    0    0  0.88736097444E+01  0.16488018886E+02 -0.27215856611E+00  0.72461820812E+02  0.70000326345E+02 0.  0.
         12    1    1    2    0    0 -0.88736097444E+01 -0.16488018886E+02  0.27215856611E+00  0.18726179188E+02  0.00000000000E+00 0. -1.
         11    1    3    3    0    0 -0.22756216361E+01 -0.60395538156E+01 -0.26820135749E+02  0.27585763466E+02  0.51100000000E-03 0. -1.
        -11    1    3    3    0    0  0.87718992260E+01 -0.39209911030E+01  0.64436448435E+01  0.11568964793E+02  0.51100000000E-03 0.  1.
         12    1    3    3    0    0  0.23773321545E+01  0.26448563805E+02  0.20104332340E+02  0.33307092553E+02  0.00000000000E+00 0. -1.
</event>
<event>
 7    1  0.3189267E-013  0.7246154E+02  0.7816164E-02  0.1226708E+00
        -11   -1    0    0    0    0  0.00000000000E+00  0.00000000000E+00  0.45593999997E+02  0.45594000000E+02  0.51100000000E-03 0.  1.
         11   -1    0    0    0    0 -0.00000000000E+00 -0.00000000000E+00 -0.45593999997E+02  0.45594000000E+02  0.51100000000E-03 0. -1.
    9900012    2    1    2    0    0  0.45211349590E+01  0.10465778360E+02  0.14856214368E+02  0.72461540555E+02  0.69999961259E+02 0.  0.
         12    1    1    2    0    0 -0.45211349590E+01 -0.10465778360E+02 -0.14856214368E+02  0.18726459445E+02  0.00000000000E+00 0. -1.
         11    1    3    3    0    0  0.18013179208E+02  0.95416294763E+01  0.10800695344E+02  0.23068860796E+02  0.51100000000E-03 0. -1.
        -11    1    3    3    0    0  0.14157569332E+02  0.10741159294E+02  0.85310411093E+01  0.19712633894E+02  0.51100000000E-03 0.  1.
        -12    1    3    3    0    0 -0.27649613581E+02 -0.98170104109E+01 -0.44755220854E+01  0.29680045865E+02  0.00000000000E+00 0.  1.
</event>
<event>
 7    1  0.3189267E-013  0.7246157E+02  0.7816164E-02  0.1226708E+00
        -11   -1    0    0    0    0  0.00000000000E+00  0.00000000000E+00  0.45593999997E+02  0.45594000000E+02  0.51100000000E-03 0. -1.
         11   -1    0    0    0    0 -0.00000000000E+00 -0.00000000000E+00 -0.45593999997E+02  0.45594000000E+02  0.51100000000E-03 0.  1.
    9900012    2    1    2    0    0  0.90385076764E+01  0.11999546663E+02  0.11180133937E+02  0.72461571190E+02  0.70000001166E+02 0.  0.
         12    1    1    2    0    0 -0.90385076764E+01 -0.11999546663E+02 -0.11180133937E+02  0.18726428810E+02  0.00000000000E+00 0. -1.
         11    1    3    3    0    0  0.13440714027E+01  0.50763293761E+01 -0.51880255812E+01  0.73818193938E+01  0.51100000000E-03 0. -1.
        -11    1    3    3    0    0  0.17615841382E+02  0.62901042524E+01 -0.19996023365E+02  0.27381092560E+02  0.51100000000E-03 0.  1.
         12    1    3    3    0    0 -0.99214051078E+01  0.63311303497E+00  0.36364182883E+02  0.37698659236E+02  0.00000000000E+00 0. -1.
</event>
<event>
 7    1  0.3189267E-013  0.7246164E+02  0.7816164E-02  0.1226708E+00
        -11   -1    0    0    0    0  0.00000000000E+00  0.00000000000E+00  0.45593999997E+02  0.45594000000E+02  0.51100000000E-03 0.  1.
         11   -1    0    0    0    0 -0.00000000000E+00 -0.00000000000E+00 -0.45593999997E+02  0.45594000000E+02  0.51100000000E-03 0. -1.
    9900012    2    1    2    0    0  0.74883150777E+01 -0.81293827103E+00  0.17144703380E+02  0.72461639293E+02  0.70000089884E+02 0.  0.
         12    1    1    2    0    0 -0.74883150777E+01  0.81293827103E+00 -0.17144703380E+02  0.18726360707E+02  0.00000000000E+00 0. -1.
         11    1    3    3    0    0  0.29729368561E+01 -0.68930321254E+01 -0.16474536146E+02  0.18104214617E+02  0.51100000000E-03 0. -1.
        -11    1    3    3    0    0  0.13332456670E+02 -0.45288451923E+01 -0.37097454808E+01  0.14561148699E+02  0.51100000000E-03 0.  1.
        -12    1    3    3    0    0 -0.88170784485E+01  0.10608939047E+02  0.37328985006E+02  0.39796275977E+02  0.00000000000E+00 0.  1.
</event>
<event>
 7    1  0.3189267E-013  0.7246160E+02  0.7816164E-02  0.1226708E+00
        -11   -1    0    0    0    0  0.00000000000E+00  0.00000000000E+00  0.45593999997E+02  0.45594000000E+02  0.51100000000E-03 0. -1.
         11   -1    0    0    0    0 -0.00000000000E+00 -0.00000000000E+00 -0.45593999997E+02  0.45594000000E+02  0.51100000000E-03 0.  1.
    9900012    2    1    2    0    0 -0.65343572425E+01  0.88279047331E+01 -0.15167350284E+02  0.72461595081E+02  0.70000032290E+02 0.  0.
         12    1    1    2    0    0  0.65343572425E+01 -0.88279047331E+01  0.15167350284E+02  0.18726404919E+02  0.00000000000E+00 0. -1.
         11    1    3    3    0    0 -0.45504306194E+01  0.16588389967E+02  0.22133137111E+02  0.28031354929E+02  0.51100000000E-03 0. -1.
        -11    1    3    3    0    0  0.55078454309E+01 -0.17144364878E+01  0.14165359862E+00  0.57702443418E+01  0.51100000000E-03 0.  1.
         12    1    3    3    0    0 -0.74917720540E+01 -0.60460487463E+01 -0.37442140993E+02  0.38659995811E+02  0.00000000000E+00 0. -1.
</event>
<event>
 7    1  0.3189267E-013  0.7246129E+02  0.7816164E-02  0.1226709E+00
        -11   -1    0    0    0    0  0.00000000000E+00  0.00000000000E+00  0.45593999997E+02  0.45594000000E+02  0.51100000000E-03 0. -1.
         11   -1    0    0    0    0 -0.00000000000E+00 -0.00000000000E+00 -0.45593999997E+02  0.45594000000E+02  0.51100000000E-03 0.  1.
    9900012    2    1    2    0    0 -0.12282187319E+02  0.73954425857E+00 -0.14117029734E+02  0.72461292346E+02  0.69999637919E+02 0.  0.
         12    1    1    2    0    0  0.12282187319E+02 -0.73954425857E+00  0.14117029734E+02  0.18726707654E+02  0.00000000000E+00 0. -1.
         11    1    3    3    0    0 -0.52493235182E+01  0.18665436567E+01 -0.97630906629E+01  0.11240877287E+02  0.51100000000E-03 0. -1.
        -11    1    3    3    0    0 -0.16370886823E+02  0.21037508157E+02 -0.19294085428E+02  0.32906601429E+02  0.51100000000E-03 0.  1.
         12    1    3    3    0    0  0.93380230223E+01 -0.22164507555E+02  0.14940146357E+02  0.28313813630E+02  0.00000000000E+00 0. -1.
</event>
<event>
 7    1  0.3189267E-013  0.7246170E+02  0.7816164E-02  0.1226708E+00
        -11   -1    0    0    0    0  0.00000000000E+00  0.00000000000E+00  0.45593999997E+02  0.45594000000E+02  0.51100000000E-03 0. -1.
         11   -1    0    0    0    0 -0.00000000000E+00 -0.00000000000E+00 -0.45593999997E+02  0.45594000000E+02  0.51100000000E-03 0.  1.
    9900012    2    1    2    0    0  0.60980137343E+01 -0.17526495269E+02  0.25120747421E+01  0.72461699580E+02  0.70000168418E+02 0.  0.
         12    1    1    2    0    0 -0.60980137343E+01  0.17526495269E+02 -0.25120747421E+01  0.18726300420E+02  0.00000000000E+00 0. -1.
         11    1    3    3    0    0  0.50051198356E+00  0.61166856998E+01 -0.23923400718E+02  0.24698045638E+02  0.51100000000E-03 0.  1.
        -11    1    3    3    0    0 -0.31500621939E+01  0.56090175965E+01  0.12798878410E+02  0.14324638182E+02  0.51100000000E-03 0. -1.
        -12    1    3    3    0    0  0.87475639447E+01 -0.29252198565E+02  0.13636597050E+02  0.33439015760E+02  0.00000000000E+00 0.  1.
</event>
<event>
 7    1  0.3189267E-013  0.7246171E+02  0.7816164E-02  0.1226708E+00
        -11   -1    0    0    0    0  0.00000000000E+00  0.00000000000E+00  0.45593999997E+02  0.45594000000E+02  0.51100000000E-03 0.  1.
         11   -1    0    0    0    0 -0.00000000000E+00 -0.00000000000E+00 -0.45593999997E+02  0.45594000000E+02  0.51100000000E-03 0. -1.
    9900012    2    1    2    0    0 -0.87684504666E+01  0.83464331277E+01  0.14287240695E+02  0.72461710559E+02  0.70000182721E+02 0.  0.
         12    1    1    2    0    0  0.87684504666E+01 -0.83464331277E+01 -0.14287240695E+02  0.18726289441E+02  0.00000000000E+00 0. -1.
         11    1    3    3    0    0 -0.13458743131E+02  0.50951925327E+01  0.57436906552E+01  0.15494797069E+02  0.51100000000E-03 0. -1.
        -11    1    3    3    0    0 -0.18332057159E+02 -0.43631170096E+01  0.22213996821E+02  0.29130100665E+02  0.51100000000E-03 0.  1.
         12    1    3    3    0    0  0.23022349823E+02  0.76143576046E+01 -0.13670446781E+02  0.27836812826E+02  0.00000000000E+00 0. -1.
</event>
<event>
 7    1  0.3189267E-013  0.7246156E+02  0.7816164E-02  0.1226708E+00
        -11   -1    0    0    0    0  0.00000000000E+00  0.00000000000E+00  0.45593999997E+02  0.45594000000E+02  0.51100000000E-03 0.  1.
         11   -1    0    0    0    0 -0.00000000000E+00 -0.00000000000E+00 -0.45593999997E+02  0.45594000000E+02  0.51100000000E-03 0. -1.
    9900012    2    1    2    0    0 -0.17272523480E+02 -0.65669360546E+01  0.30355772381E+01  0.72461562921E+02  0.69999990394E+02 0.  0.
         12    1    1    2    0    0  0.17272523480E+02  0.65669360546E+01 -0.30355772381E+01  0.18726437079E+02  0.00000000000E+00 0. -1.
         11    1    3    3    0    0  0.39584787877E+01  0.29457823817E+01 -0.20979496671E+02  0.21551948148E+02  0.51100000000E-03 0.  1.
        -11    1    3    3    0    0 -0.83480241696E+01 -0.22751344775E+02  0.56983079350E+01  0.24895459630E+02  0.51100000000E-03 0. -1.
        -12    1    3    3    0    0 -0.12882978098E+02  0.13238626339E+02  0.18316765974E+02  0.26014155142E+02  0.00000000000E+00 0.  1.
</event>
<event>
 7    1  0.3189267E-013  0.7246158E+02  0.7816164E-02  0.1226708E+00
        -11   -1    0    0    0    0  0.00000000000E+00  0.00000000000E+00  0.45593999997E+02  0.45594000000E+02  0.51100000000E-03 0.  1.
         11   -1    0    0    0    0 -0.00000000000E+00 -0.00000000000E+00 -0.45593999997E+02  0.45594000000E+02  0.51100000000E-03 0. -1.
    9900012    2    1    2    0    0 -0.57123886216E+01 -0.16043951358E+02  0.77871032772E+01  0.72461581859E+02  0.70000015065E+02 0.  0.
         12    1    1    2    0    0  0.57123886216E+01  0.16043951358E+02 -0.77871032772E+01  0.18726418141E+02  0.00000000000E+00 0. -1.
         11    1    3    3    0    0  0.62902962438E+01 -0.81135478279E+00 -0.15053588335E+02  0.16335135305E+02  0.51100000000E-03 0. -1.
        -11    1    3    3    0    0  0.36981420838E+01  0.11586462521E+02  0.21881803004E+02  0.25034689365E+02  0.51100000000E-03 0.  1.
        -12    1    3    3    0    0 -0.15700826949E+02 -0.26819059097E+02  0.95888860775E+00  0.31091757189E+02  0.00000000000E+00 0.  1.
</event>
<event>
 7    1  0.3189267E-013  0.7246170E+02  0.7816164E-02  0.1226708E+00
        -11   -1    0    0    0    0  0.00000000000E+00  0.00000000000E+00  0.45593999997E+02  0.45594000000E+02  0.51100000000E-03 0.  1.
         11   -1    0    0    0    0 -0.00000000000E+00 -0.00000000000E+00 -0.45593999997E+02  0.45594000000E+02  0.51100000000E-03 0. -1.
    9900012    2    1    2    0    0  0.10337936091E+02 -0.60501699400E+01  0.14394339132E+02  0.72461695560E+02  0.70000163182E+02 0.  0.
         12    1    1    2    0    0 -0.10337936091E+02  0.60501699400E+01 -0.14394339132E+02  0.18726304440E+02  0.00000000000E+00 0. -1.
         11    1    3    3    0    0 -0.13909302059E+02  0.15923507229E+02 -0.14787208162E+02  0.25800935870E+02  0.51100000000E-03 0. -1.
        -11    1    3    3    0    0  0.71203422482E+01 -0.58065792928E+01  0.35155065144E-01  0.91878655277E+01  0.51100000000E-03 0.  1.
        -12    1    3    3    0    0  0.17126895902E+02 -0.16167097876E+02  0.29146392229E+02  0.37472894163E+02  0.00000000000E+00 0.  1.
</event>
<event>
 7    1  0.3189267E-013  0.7246152E+02  0.7816164E-02  0.1226708E+00
        -11   -1    0    0    0    0  0.00000000000E+00  0.00000000000E+00  0.45593999997E+02  0.45594000000E+02  0.51100000000E-03 0. -1.
         11   -1    0    0    0    0 -0.00000000000E+00 -0.00000000000E+00 -0.45593999997E+02  0.45594000000E+02  0.51100000000E-03 0.  1.
    9900012    2    1    2    0    0 -0.56555691202E+01  0.22506000407E+00 -0.17850629605E+02  0.72461518980E+02  0.69999933154E+02 0.  0.
         12    1    1    2    0    0  0.56555691202E+01 -0.22506000407E+00  0.17850629605E+02  0.18726481020E+02  0.00000000000E+00 0. -1.
         11    1    3    3    0    0  0.93817868997E+01  0.85884264958E-01  0.10889976243E+02  0.14374174216E+02  0.51100000000E-03 0. -1.
        -11    1    3    3    0    0 -0.25774056652E+01  0.16141682732E+02  0.63671841583E+01  0.17542462078E+02  0.51100000000E-03 0.  1.
         12    1    3    3    0    0 -0.12459950355E+02 -0.16002506993E+02 -0.35107790007E+02  0.40544882687E+02  0.00000000000E+00 0. -1.
</event>
<event>
 7    1  0.3189267E-013  0.7246177E+02  0.7816164E-02  0.1226707E+00
        -11   -1    0    0    0    0  0.00000000000E+00  0.00000000000E+00  0.45593999997E+02  0.45594000000E+02  0.51100000000E-03 0. -1.
         11   -1    0    0    0    0 -0.00000000000E+00 -0.00000000000E+00 -0.45593999997E+02  0.45594000000E+02  0.51100000000E-03 0.  1.
    9900012    2    1    2    0    0  0.59026092916E+01  0.48753035100E+00 -0.17764943721E+02  0.72461769528E+02  0.70000259538E+02 0.  0.
         12    1    1    2    0    0 -0.59026092916E+01 -0.48753035100E+00  0.17764943721E+02  0.18726230472E+02  0.00000000000E+00 0. -1.
         11    1    3    3    0    0  0.82220206584E+01  0.10289420620E+02  0.17256854907E+01  0.13283515765E+02  0.51100000000E-03 0. -1.
        -11    1    3    3    0    0  0.18212429394E+02 -0.14434803643E+02 -0.28076422108E+02  0.36446421214E+02  0.51100000000E-03 0.  1.
        -12    1    3    3    0    0 -0.20531840761E+02  0.46329133740E+01  0.85857928960E+01  0.22731832548E+02  0.00000000000E+00 0.  1.
</event>
<event>
 7    1  0.3189267E-013  0.7246157E+02  0.7816164E-02  0.1226708E+00
        -11   -1    0    0    0    0  0.00000000000E+00  0.00000000000E+00  0.45593999997E+02  0.45594000000E+02  0.51100000000E-03 0.  1.
         11   -1    0    0    0    0 -0.00000000000E+00 -0.00000000000E+00 -0.45593999997E+02  0.45594000000E+02  0.51100000000E-03 0. -1.
    9900012    2    1    2    0    0 -0.73812485434E+01 -0.14209599112E+02  0.97099674451E+01  0.72461574693E+02  0.70000005730E+02 0.  0.
         12    1    1    2    0    0  0.73812485434E+01  0.14209599112E+02 -0.97099674451E+01  0.18726425307E+02  0.00000000000E+00 0. -1.
         11    1    3    3    0    0 -0.30167018466E+02  0.12766147385E+02  0.73661449840E+01  0.33575044518E+02  0.51100000000E-03 0. -1.
        -11    1    3    3    0    0  0.63495531279E+01 -0.18625645234E+01 -0.46265341193E+01  0.80740813561E+01  0.51100000000E-03 0.  1.
        -12    1    3    3    0    0  0.16436216795E+02 -0.25113181974E+02  0.69703565804E+01  0.30812448819E+02  0.00000000000E+00 0.  1.
</event>
<event>
 7    1  0.3189267E-013  0.7246148E+02  0.7816164E-02  0.1226708E+00
        -11   -1    0    0    0    0  0.00000000000E+00  0.00000000000E+00  0.45593999997E+02  0.45594000000E+02  0.51100000000E-03 0.  1.
         11   -1    0    0    0    0 -0.00000000000E+00 -0.00000000000E+00 -0.45593999997E+02  0.45594000000E+02  0.51100000000E-03 0. -1.
    9900012    2    1    2    0    0  0.20090039386E+00  0.88395043061E+00  0.18704569980E+02  0.72461476898E+02  0.69999878334E+02 0.  0.
         12    1    1    2    0    0 -0.20090039386E+00 -0.88395043061E+00 -0.18704569980E+02  0.18726523102E+02  0.00000000000E+00 0. -1.
         11    1    3    3    0    0 -0.18191332739E+02  0.13263827772E+02 -0.14311470686E+02  0.26677179525E+02  0.51100000000E-03 0. -1.
        -11    1    3    3    0    0  0.14962946165E+02 -0.11428266935E+01  0.57066647761E+01  0.16054962906E+02  0.51100000000E-03 0.  1.
         12    1    3    3    0    0  0.34292869675E+01 -0.11237050647E+02  0.27309375890E+02  0.29729334467E+02  0.00000000000E+00 0. -1.
</event>
<event>
 7    1  0.3189267E-013  0.7246168E+02  0.7816164E-02  0.1226708E+00
        -11   -1    0    0    0    0  0.00000000000E+00  0.00000000000E+00  0.45593999997E+02  0.45594000000E+02  0.51100000000E-03 0.  1.
         11   -1    0    0    0    0 -0.00000000000E+00 -0.00000000000E+00 -0.45593999997E+02  0.45594000000E+02  0.51100000000E-03 0. -1.
    9900012    2    1    2    0    0  0.12480527457E+02 -0.56007970325E+01  0.12788370754E+02  0.72461683770E+02  0.70000147823E+02 0.  0.
         12    1    1    2    0    0 -0.12480527457E+02  0.56007970325E+01 -0.12788370754E+02  0.18726316230E+02  0.00000000000E+00 0. -1.
         11    1    3    3    0    0  0.25081960434E+02  0.18453576548E+02 -0.67113659209E+01  0.31854068177E+02  0.51100000000E-03 0. -1.
        -11    1    3    3    0    0  0.40550714255E+01  0.78401884326E+00  0.71388451567E+01  0.82475087296E+01  0.51100000000E-03 0.  1.
        -12    1    3    3    0    0 -0.16656504402E+02 -0.24838392424E+02  0.12360891518E+02  0.32360106863E+02  0.00000000000E+00 0.  1.
</event>
<event>
 7    1  0.3189267E-013  0.7246143E+02  0.7816164E-02  0.1226708E+00
        -11   -1    0    0    0    0  0.00000000000E+00  0.00000000000E+00  0.45593999997E+02  0.45594000000E+02  0.51100000000E-03 0. -1.
         11   -1    0    0    0    0 -0.00000000000E+00 -0.00000000000E+00 -0.45593999997E+02  0.45594000000E+02  0.51100000000E-03 0.  1.
    9900012    2    1    2    0    0  0.19522282525E+01 -0.41346146246E+01 -0.18159792545E+02  0.72461433349E+02  0.69999821603E+02 0.  0.
         12    1    1    2    0    0 -0.19522282525E+01  0.41346146246E+01  0.18159792545E+02  0.18726566651E+02  0.00000000000E+00 0. -1.
         11    1    3    3    0    0 -0.11261182236E+02  0.53879076903E+01  0.65392237335E+01  0.14092736496E+02  0.51100000000E-03 0. -1.
        -11    1    3    3    0    0  0.12047299775E+02 -0.14185339225E+02  0.11483382022E+02  0.21868455449E+02  0.51100000000E-03 0.  1.
        -12    1    3    3    0    0  0.11661107133E+01  0.46628169103E+01 -0.36182398301E+02  0.36500241404E+02  0.00000000000E+00 0.  1.
</event>
<event>
 7    1  0.3189267E-013  0.7246160E+02  0.7816164E-02  0.1226708E+00
        -11   -1    0    0    0    0  0.00000000000E+00  0.00000000000E+00  0.45593999997E+02  0.45594000000E+02  0.51100000000E-03 0.  1.
         11   -1    0    0    0    0 -0.00000000000E+00 -0.00000000000E+00 -0.45593999997E+02  0.45594000000E+02  0.51100000000E-03 0. -1.
    9900012    2    1    2    0    0 -0.29345761871E+01  0.16952049996E+02 -0.73955630887E+01  0.72461599121E+02  0.70000037553E+02 0.  0.
         12    1    1    2    0    0  0.29345761871E+01 -0.16952049996E+02  0.73955630887E+01  0.18726400879E+02  0.00000000000E+00 0. -1.
         11    1    3    3    0    0 -0.57764067364E+01 -0.43687830914E+01  0.85603522418E+01  0.11213062528E+02  0.51100000000E-03 0. -1.
        -11    1    3    3    0    0  0.15468350847E+02 -0.60833621041E+01  0.11693587929E+02  0.20322823901E+02  0.51100000000E-03 0.  1.
         12    1    3    3    0    0 -0.12626520298E+02  0.27404195192E+02 -0.27649503259E+02  0.40925712693E+02  0.00000000000E+00 0. -1.
</event>
<event>
 7    1  0.3189267E-013  0.7246157E+02  0.7816164E-02  0.1226708E+00
        -11   -1    0    0    0    0  0.00000000000E+00  0.00000000000E+00  0.45593999997E+02  0.45594000000E+02  0.51100000000E-03 0.  1.
         11   -1    0    0    0    0 -0.00000000000E+00 -0.00000000000E+00 -0.45593999997E+02  0.45594000000E+02  0.51100000000E-03 0. -1.
    9900012    2    1    2    0    0 -0.14883519476E+02  0.10326019746E+02 -0.47469238281E+01  0.72461571573E+02  0.70000001666E+02 0.  0.
         12    1    1    2    0    0  0.14883519476E+02 -0.10326019746E+02  0.47469238281E+01  0.18726428427E+02  0.00000000000E+00 0. -1.
         11    1    3    3    0    0 -0.89915388959E+01 -0.26997534477E+01  0.22573522004E+02  0.24447910674E+02  0.51100000000E-03 0. -1.
        -11    1    3    3    0    0 -0.41351578651E+01  0.18786304005E+02  0.80282766086E+00  0.19252773339E+02  0.51100000000E-03 0.  1.
         12    1    3    3    0    0 -0.17568227152E+01 -0.57605308113E+01 -0.28123273493E+02  0.28760887560E+02  0.00000000000E+00 0. -1.
</event>
<event>
 7    1  0.3189267E-013  0.7246138E+02  0.7816164E-02  0.1226709E+00
        -11   -1    0    0    0    0  0.00000000000E+00  0.00000000000E+00  0.45593999997E+02  0.45594000000E+02  0.51100000000E-03 0.  1.
         11   -1    0    0    0    0 -0.00000000000E+00 -0.00000000000E+00 -0.45593999997E+02  0.45594000000E+02  0.51100000000E-03 0. -1.
    9900012    2    1    2    0    0 -0.32935446479E+01  0.22419338800E+01  0.18297886922E+02  0.72461378050E+02  0.69999749565E+02 0.  0.
         12    1    1    2    0    0  0.32935446479E+01 -0.22419338800E+01 -0.18297886922E+02  0.18726621950E+02  0.00000000000E+00 0. -1.
         11    1    3    3    0    0  0.15034269274E+02  0.89064989368E+01 -0.73184238750E+01  0.18945033760E+02  0.51100000000E-03 0. -1.
        -11    1    3    3    0    0  0.13298881059E+02 -0.72069594022E+01  0.10805630429E+02  0.18589302044E+02  0.51100000000E-03 0.  1.
        -12    1    3    3    0    0 -0.31626694981E+02  0.54239434549E+00  0.14810680368E+02  0.34927042245E+02  0.00000000000E+00 0.  1.
</event>
<event>
 7    1  0.3189267E-013  0.7246151E+02  0.7816164E-02  0.1226708E+00
        -11   -1    0    0    0    0  0.00000000000E+00  0.00000000000E+00  0.45593999997E+02  0.45594000000E+02  0.51100000000E-03 0.  1.
         11   -1    0    0    0    0 -0.00000000000E+00 -0.00000000000E+00 -0.45593999997E+02  0.45594000000E+02  0.51100000000E-03 0. -1.
    9900012    2    1    2    0    0 -0.11478281964E+02 -0.14508659922E+02  0.29033269789E+01  0.72461508681E+02  0.69999919737E+02 0.  0.
         12    1    1    2    0    0  0.11478281964E+02  0.14508659922E+02 -0.29033269789E+01  0.18726491319E+02  0.00000000000E+00 0. -1.
         11    1    3    3    0    0 -0.19415278630E+02  0.93653159675E+01 -0.92620807441E+01  0.23461635225E+02  0.51100000000E-03 0. -1.
        -11    1    3    3    0    0 -0.14422990686E+02 -0.32210081606E+00  0.72786110794E+01  0.16158731038E+02  0.51100000000E-03 0.  1.
         12    1    3    3    0    0  0.22359987352E+02 -0.23551875074E+02  0.48867966435E+01  0.32841142417E+02  0.00000000000E+00 0. -1.
</event>
<event>
 7    1  0.3189267E-013  0.7246158E+02  0.7816164E-02  0.1226708E+00
        -11   -1    0    0    0    0  0.00000000000E+00  0.00000000000E+00  0.45593999997E+02  0.45594000000E+02  0.51100000000E-03 0.  1.
         11   -1    0    0    0    0 -0.00000000000E+00 -0.00000000000E+00 -0.45593999997E+02  0.45594000000E+02  0.51100000000E-03 0. -1.
    9900012    2    1    2    0    0 -0.16501241859E+02  0.29734054946E+01  0.83394564925E+01  0.72461583960E+02  0.70000017802E+02 0.  0.
         12    1    1    2    0    0  0.16501241859E+02 -0.29734054946E+01 -0.83394564925E+01  0.18726416040E+02  0.00000000000E+00 0. -1.
         11    1    3    3    0    0 -0.96213443705E+01 -0.21972332680E+02  0.11048882382E+02  0.26408927905E+02  0.51100000000E-03 0. -1.
        -11    1    3    3    0    0 -0.22266120504E+02  0.19562086005E+02 -0.90976648387E+00  0.29652706563E+02  0.51100000000E-03 0.  1.
         12    1    3    3    0    0  0.15386223016E+02  0.53836521696E+01 -0.17996594056E+01  0.16399949492E+02  0.00000000000E+00 0. -1.
</event>
<event>
 7    1  0.3189267E-013  0.7246149E+02  0.7816164E-02  0.1226708E+00
        -11   -1    0    0    0    0  0.00000000000E+00  0.00000000000E+00  0.45593999997E+02  0.45594000000E+02  0.51100000000E-03 0.  1.
         11   -1    0    0    0    0 -0.00000000000E+00 -0.00000000000E+00 -0.45593999997E+02  0.45594000000E+02  0.51100000000E-03 0. -1.
    9900012    2    1    2    0    0 -0.98235860303E+01 -0.53242569320E+01  0.15027693911E+02  0.72461491018E+02  0.69999896728E+02 0.  0.
         12    1    1    2    0    0  0.98235860303E+01  0.53242569320E+01 -0.15027693911E+02  0.18726508982E+02  0.00000000000E+00 0. -1.
         11    1    3    3    0    0 -0.13858788790E+02  0.68592130509E+01 -0.93842127761E+01  0.18088070104E+02  0.51100000000E-03 0. -1.
        -11    1    3    3    0    0 -0.17221368360E+02 -0.18903128509E+02  0.17670762038E+02  0.31083108385E+02  0.51100000000E-03 0.  1.
         12    1    3    3    0    0  0.21256571120E+02  0.67196585264E+01  0.67411446494E+01  0.23290312529E+02  0.00000000000E+00 0. -1.
</event>
<event>
 7    1  0.4083331E-013  0.7246154E+02  0.7816164E-02  0.1226708E+00
        -11   -1    0    0    0    0  0.00000000000E+00  0.00000000000E+00  0.45593999997E+02  0.45594000000E+02  0.51100000000E-03 0. -1.
         11   -1    0    0    0    0 -0.00000000000E+00 -0.00000000000E+00 -0.45593999997E+02  0.45594000000E+02  0.51100000000E-03 0.  1.
    9900012    2    1    2    0    0  0.42565863221E+01  0.52629844201E+01 -0.17460318438E+02  0.72461541390E+02  0.69999962347E+02 0.  0.
         12    1    1    2    0    0 -0.42565863221E+01 -0.52629844201E+01  0.17460318438E+02  0.18726458610E+02  0.00000000000E+00 0. -1.
         11    1    3    3    0    0 -0.71526793770E+01 -0.17139020226E+02  0.14944716063E+02  0.23838023724E+02  0.51100000000E-03 0. -1.
        -11    1    3    3    0    0  0.51746497438E+01 -0.45118721909E+01 -0.12402678292E+01  0.69765503787E+01  0.51100000000E-03 0.  1.
        -12    1    3    3    0    0  0.62346159554E+01  0.26913876837E+02 -0.31164766672E+02  0.41646967287E+02  0.00000000000E+00 0.  1.
</event>
<event>
 7    1  0.3189267E-013  0.7246156E+02  0.7816164E-02  0.1226708E+00
        -11   -1    0    0    0    0  0.00000000000E+00  0.00000000000E+00  0.45593999997E+02  0.45594000000E+02  0.51100000000E-03 0. -1.
         11   -1    0    0    0    0 -0.00000000000E+00 -0.00000000000E+00 -0.45593999997E+02  0.45594000000E+02  0.51100000000E-03 0.  1.
    9900012    2    1    2    0    0  0.91212550219E+01 -0.10213916506E+02 -0.12773344369E+02  0.72461555865E+02  0.69999981203E+02 0.  0.
         12    1    1    2    0    0 -0.91212550219E+01  0.10213916506E+02  0.12773344369E+02  0.18726444135E+02  0.00000000000E+00 0. -1.
         11    1    3    3    0    0 -0.80045853164E+01  0.47092961968E+01 -0.14389087978E+02  0.17125907563E+02  0.51100000000E-03 0. -1.
        -11    1    3    3    0    0  0.26384736459E+02  0.98837859423E+01 -0.34214596665E+01  0.28382211490E+02  0.51100000000E-03 0.  1.
        -12    1    3    3    0    0 -0.92588961202E+01 -0.24806998645E+02  0.50372032745E+01  0.26953436812E+02  0.00000000000E+00 0.  1.
</event>
<event>
 7    1  0.3189267E-013  0.7246155E+02  0.7816164E-02  0.1226708E+00
        -11   -1    0    0    0    0  0.00000000000E+00  0.00000000000E+00  0.45593999997E+02  0.45594000000E+02  0.51100000000E-03 0.  1.
         11   -1    0    0    0    0 -0.00000000000E+00 -0.00000000000E+00 -0.45593999997E+02  0.45594000000E+02  0.51100000000E-03 0. -1.
    9900012    2    1    2    0    0 -0.16933862148E+02 -0.14266236593E+01  0.78669499441E+01  0.72461552293E+02  0.69999976550E+02 0.  0.
         12    1    1    2    0    0  0.16933862148E+02  0.14266236593E+01 -0.78669499441E+01  0.18726447707E+02  0.00000000000E+00 0. -1.
         11    1    3    3    0    0 -0.67893291505E+01 -0.50448959734E+01 -0.10474283926E+02  0.13463156751E+02  0.51100000000E-03 0. -1.
        -11    1    3    3    0    0 -0.11673186377E+02  0.27539536109E+02  0.19800609917E+01  0.29976823899E+02  0.51100000000E-03 0.  1.
        -12    1    3    3    0    0  0.15286533794E+01 -0.23921263794E+02  0.16361172878E+02  0.29021571643E+02  0.00000000000E+00 0.  1.
</event>
<event>
 7    1  0.3189267E-013  0.7246193E+02  0.7816164E-02  0.1226707E+00
        -11   -1    0    0    0    0  0.00000000000E+00  0.00000000000E+00  0.45593999997E+02  0.45594000000E+02  0.51100000000E-03 0.  1.
         11   -1    0    0    0    0 -0.00000000000E+00 -0.00000000000E+00 -0.45593999997E+02  0.45594000000E+02  0.51100000000E-03 0. -1.
    9900012    2    1    2    0    0 -0.79776309592E+01 -0.16053976578E+02 -0.54122849730E+01  0.72461932919E+02  0.70000472384E+02 0.  0.
         12    1    1    2    0    0  0.79776309592E+01  0.16053976578E+02  0.54122849730E+01  0.18726067081E+02  0.00000000000E+00 0. -1.
         11    1    3    3    0    0 -0.18650418493E+02 -0.15045779627E+02  0.19254967812E+01  0.24039990280E+02  0.51100000000E-03 0. -1.
        -11    1    3    3    0    0 -0.10438152172E+02  0.55377916435E+01  0.13572637252E+02  0.17995517200E+02  0.51100000000E-03 0.  1.
        -12    1    3    3    0    0  0.21110939706E+02 -0.65459885952E+01 -0.20910419007E+02  0.30426425439E+02  0.00000000000E+00 0.  1.
</event>
<event>
 7    1  0.3189267E-013  0.7246160E+02  0.7816164E-02  0.1226708E+00
        -11   -1    0    0    0    0  0.00000000000E+00  0.00000000000E+00  0.45593999997E+02  0.45594000000E+02  0.51100000000E-03 0.  1.
         11   -1    0    0    0    0 -0.00000000000E+00 -0.00000000000E+00 -0.45593999997E+02  0.45594000000E+02  0.51100000000E-03 0. -1.
    9900012    2    1    2    0    0  0.16104639853E+02  0.92682276125E+01  0.23278140354E+01  0.72461596553E+02  0.70000034207E+02 0.  0.
         12    1    1    2    0    0 -0.16104639853E+02 -0.92682276125E+01 -0.23278140354E+01  0.18726403447E+02  0.00000000000E+00 0. -1.
         11    1    3    3    0    0 -0.21405456246E+01 -0.52570792665E+01  0.22550836875E+01  0.61077181241E+01  0.51100000000E-03 0. -1.
        -11    1    3    3    0    0  0.41410128370E+02  0.94255090985E+01 -0.21956781529E+01  0.42525991537E+02  0.51100000000E-03 0.  1.
         12    1    3    3    0    0 -0.23164942892E+02  0.50997977805E+01  0.22684085008E+01  0.23827886892E+02  0.00000000000E+00 0. -1.
</event>
<event>
 7    1  0.3189267E-013  0.7246164E+02  0.7816164E-02  0.1226708E+00
        -11   -1    0    0    0    0  0.00000000000E+00  0.00000000000E+00  0.45593999997E+02  0.45594000000E+02  0.51100000000E-03 0.  1.
         11   -1    0    0    0    0 -0.00000000000E+00 -0.00000000000E+00 -0.45593999997E+02  0.45594000000E+02  0.51100000000E-03 0. -1.
    9900012    2    1    2    0    0  0.15867066767E+01 -0.10956767827E+02  0.15103255346E+02  0.72461635662E+02  0.70000085153E+02 0.  0.
         12    1    1    2    0    0 -0.15867066767E+01  0.10956767827E+02 -0.15103255346E+02  0.18726364338E+02  0.00000000000E+00 0. -1.
         11    1    3    3    0    0  0.83396920633E+01  0.10809671351E+02  0.11929152270E+02  0.18130199463E+02  0.51100000000E-03 0. -1.
        -11    1    3    3    0    0 -0.64570857347E+01  0.15212405211E+02  0.51177522207E+01  0.17300364636E+02  0.51100000000E-03 0.  1.
         12    1    3    3    0    0 -0.29589965179E+00 -0.36978844390E+02 -0.19436491450E+01  0.37031071562E+02  0.00000000000E+00 0. -1.
</event>
<event>
 7    1  0.3189267E-013  0.7246157E+02  0.7816164E-02  0.1226708E+00
        -11   -1    0    0    0    0  0.00000000000E+00  0.00000000000E+00  0.45593999997E+02  0.45594000000E+02  0.51100000000E-03 0.  1.
         11   -1    0    0    0    0 -0.00000000000E+00 -0.00000000000E+00 -0.45593999997E+02  0.45594000000E+02  0.51100000000E-03 0. -1.
    9900012    2    1    2    0    0  0.14771771385E+01 -0.14468322243E+02  0.11796809569E+02  0.72461571702E+02  0.70000001833E+02 0.  0.
         12    1    1    2    0    0 -0.14771771385E+01  0.14468322243E+02 -0.11796809569E+02  0.18726428298E+02  0.00000000000E+00 0. -1.
         11    1    3    3    0    0  0.96724130709E+00  0.29031415076E+01  0.83638605192E+01  0.89060625085E+01  0.51100000000E-03 0. -1.
        -11    1    3    3    0    0  0.11585001952E+02 -0.33908713783E+02 -0.12614604272E+02  0.37988700713E+02  0.51100000000E-03 0.  1.
         12    1    3    3    0    0 -0.11075066120E+02  0.16537250033E+02  0.16047553322E+02  0.25566808480E+02  0.00000000000E+00 0. -1.
</event>
<event>
 7    1  0.3189267E-013  0.7246164E+02  0.7816164E-02  0.1226708E+00
        -11   -1    0    0    0    0  0.00000000000E+00  0.00000000000E+00  0.45593999997E+02  0.45594000000E+02  0.51100000000E-03 0.  1.
         11   -1    0    0    0    0 -0.00000000000E+00 -0.00000000000E+00 -0.45593999997E+02  0.45594000000E+02  0.51100000000E-03 0. -1.
    9900012    2    1    2    0    0  0.47140836993E+01 -0.14960377952E+02  0.10229429044E+02  0.72461635906E+02  0.70000085472E+02 0.  0.
         12    1    1    2    0    0 -0.47140836993E+01  0.14960377952E+02 -0.10229429044E+02  0.18726364094E+02  0.00000000000E+00 0. -1.
         11    1    3    3    0    0  0.12203913149E+02  0.58701009497E+01 -0.55069451179E+01  0.14619166396E+02  0.51100000000E-03 0. -1.
        -11    1    3    3    0    0  0.18288791439E+02  0.41716046261E+01  0.10654384740E+02  0.21573087213E+02  0.51100000000E-03 0.  1.
         12    1    3    3    0    0 -0.25778620890E+02 -0.25002083528E+02  0.50819894226E+01  0.36269382297E+02  0.00000000000E+00 0. -1.
</event>
<event>
 7    1  0.3189267E-013  0.7246201E+02  0.7816164E-02  0.1226707E+00
        -11   -1    0    0    0    0  0.00000000000E+00  0.00000000000E+00  0.45593999997E+02  0.45594000000E+02  0.51100000000E-03 0.  1.
         11   -1    0    0    0    0 -0.00000000000E+00 -0.00000000000E+00 -0.45593999997E+02  0.45594000000E+02  0.51100000000E-03 0. -1.
    9900012    2    1    2    0    0 -0.18044383243E+02 -0.39941784037E+01  0.30181817443E+01  0.72462011407E+02  0.70000574629E+02 0.  0.
         12    1    1    2    0    0  0.18044383243E+02  0.39941784037E+01 -0.30181817443E+01  0.18725988593E+02  0.00000000000E+00 0. -1.
         11    1    3    3    0    0 -0.41205868674E+01 -0.12472984953E+02 -0.18801713968E+02  0.22935976939E+02  0.51100000000E-03 0. -1.
        -11    1    3    3    0    0  0.26175389252E+01  0.57141227909E+01 -0.11000298222E+02  0.12669225332E+02  0.51100000000E-03 0.  1.
        -12    1    3    3    0    0 -0.16541335301E+02  0.27646837582E+01  0.32820193934E+02  0.36856809136E+02  0.00000000000E+00 0.  1.
</event>
<event>
 7    1  0.3189267E-013  0.7246177E+02  0.7816164E-02  0.1226707E+00
        -11   -1    0    0    0    0  0.00000000000E+00  0.00000000000E+00  0.45593999997E+02  0.45594000000E+02  0.51100000000E-03 0. -1.
         11   -1    0    0    0    0 -0.00000000000E+00 -0.00000000000E+00 -0.45593999997E+02  0.45594000000E+02  0.51100000000E-03 0.  1.
    9900012    2    1    2    0    0 -0.14702624181E+02 -0.83441837520E+01 -0.80547478497E+01  0.72461774453E+02  0.70000265954E+02 0.  0.
         12    1    1    2    0    0  0.14702624181E+02  0.83441837520E+01  0.80547478497E+01  0.18726225547E+02  0.00000000000E+00 0. -1.
         11    1    3    3    0    0 -0.11151011946E+02 -0.10003333677E+02  0.21776813452E+02  0.26431824691E+02  0.51100000000E-03 0. -1.
        -11    1    3    3    0    0 -0.48977814023E+01 -0.43990632778E+01  0.64529788876E+01  0.92185116571E+01  0.51100000000E-03 0.  1.
         12    1    3    3    0    0  0.13461691668E+01  0.60582132031E+01 -0.36284540189E+02  0.36811438106E+02  0.00000000000E+00 0. -1.
</event>
<event>
 7    1  0.3189267E-013  0.7246153E+02  0.7816164E-02  0.1226708E+00
        -11   -1    0    0    0    0  0.00000000000E+00  0.00000000000E+00  0.45593999997E+02  0.45594000000E+02  0.51100000000E-03 0. -1.
         11   -1    0    0    0    0 -0.00000000000E+00 -0.00000000000E+00 -0.45593999997E+02  0.45594000000E+02  0.51100000000E-03 0.  1.
    9900012    2    1    2    0    0 -0.17867229227E+02 -0.27828309576E+01  0.48681233136E+01  0.72461530686E+02  0.69999948403E+02 0.  0.
         12    1    1    2    0    0  0.17867229227E+02  0.27828309576E+01 -0.48681233136E+01  0.18726469314E+02  0.00000000000E+00 0. -1.
         11    1    3    3    0    0 -0.15643881800E+01 -0.78019133841E+01  0.10269780008E+02  0.12991749094E+02  0.51100000000E-03 0. -1.
        -11    1    3    3    0    0  0.49540821251E+01 -0.18958689083E+02  0.12028282792E+02  0.22992485917E+02  0.51100000000E-03 0.  1.
        -12    1    3    3    0    0 -0.21256923172E+02  0.23977771510E+02 -0.17429939486E+02  0.36477295675E+02  0.00000000000E+00 0.  1.
</event>
<event>
 7    1  0.3189267E-013  0.7246156E+02  0.7816164E-02  0.1226708E+00
        -11   -1    0    0    0    0  0.00000000000E+00  0.00000000000E+00  0.45593999997E+02  0.45594000000E+02  0.51100000000E-03 0.  1.
         11   -1    0    0    0    0 -0.00000000000E+00 -0.00000000000E+00 -0.45593999997E+02  0.45594000000E+02  0.51100000000E-03 0. -1.
    9900012    2    1    2    0    0 -0.12709413618E+02 -0.13325906207E+02 -0.34015626416E+01  0.72461558823E+02  0.69999985057E+02 0.  0.
         12    1    1    2    0    0  0.12709413618E+02  0.13325906207E+02  0.34015626416E+01  0.18726441177E+02  0.00000000000E+00 0. -1.
         11    1    3    3    0    0  0.21413486077E+01 -0.50014528474E+01 -0.16321914792E+02  0.17204790239E+02  0.51100000000E-03 0. -1.
        -11    1    3    3    0    0  0.17484528731E+02  0.54518343680E+01  0.70367835856E+01  0.19620080693E+02  0.51100000000E-03 0.  1.
        -12    1    3    3    0    0 -0.32335290956E+02 -0.13776287727E+02  0.58835685646E+01  0.35636687891E+02  0.00000000000E+00 0.  1.
</event>
<event>
 7    1  0.3189267E-013  0.7246159E+02  0.7816164E-02  0.1226708E+00
        -11   -1    0    0    0    0  0.00000000000E+00  0.00000000000E+00  0.45593999997E+02  0.45594000000E+02  0.51100000000E-03 0. -1.
         11   -1    0    0    0    0 -0.00000000000E+00 -0.00000000000E+00 -0.45593999997E+02  0.45594000000E+02  0.51100000000E-03 0.  1.
    9900012    2    1    2    0    0 -0.10545045332E+02  0.12260741897E+02  0.94421653583E+01  0.72461594590E+02  0.70000031650E+02 0.  0.
         12    1    1    2    0    0  0.10545045332E+02 -0.12260741897E+02 -0.94421653583E+01  0.18726405410E+02  0.00000000000E+00 0. -1.
         11    1    3    3    0    0 -0.29151710124E+01 -0.13501710241E+02 -0.10751978977E+02  0.17504269583E+02  0.51100000000E-03 0. -1.
        -11    1    3    3    0    0  0.14453481101E+02 -0.30657057602E+01  0.65947827794E+01  0.16180013223E+02  0.51100000000E-03 0.  1.
        -12    1    3    3    0    0 -0.22083355420E+02  0.28828157899E+02  0.13599361556E+02  0.38777311784E+02  0.00000000000E+00 0.  1.
</event>
<event>
 7    1  0.3189267E-013  0.7246169E+02  0.7816164E-02  0.1226708E+00
        -11   -1    0    0    0    0  0.00000000000E+00  0.00000000000E+00  0.45593999997E+02  0.45594000000E+02  0.51100000000E-03 0. -1.
         11   -1    0    0    0    0 -0.00000000000E+00 -0.00000000000E+00 -0.45593999997E+02  0.45594000000E+02  0.51100000000E-03 0.  1.
    9900012    2    1    2    0    0 -0.17026670835E+02  0.35942967926E+01 -0.69172467958E+01  0.72461687165E+02  0.70000152246E+02 0.  0.
         12    1    1    2    0    0  0.17026670835E+02 -0.35942967926E+01  0.69172467958E+01  0.18726312835E+02  0.00000000000E+00 0. -1.
         11    1    3    3    0    0 -0.11855054798E+02  0.14289751697E+02 -0.51420508776E+01  0.19266032682E+02  0.51100000000E-03 0. -1.
        -11    1    3    3    0    0  0.12822908979E+02  0.14387447711E+02  0.79239786524E+01  0.20837828204E+02  0.51100000000E-03 0.  1.
         12    1    3    3    0    0 -0.17994525015E+02 -0.25082902615E+02 -0.96991745706E+01  0.32357826279E+02  0.00000000000E+00 0. -1.
</event>
<event>
 7    1  0.3189267E-013  0.7246163E+02  0.7816164E-02  0.1226708E+00
        -11   -1    0    0    0    0  0.00000000000E+00  0.00000000000E+00  0.45593999997E+02  0.45594000000E+02  0.51100000000E-03 0.  1.
         11   -1    0    0    0    0 -0.00000000000E+00 -0.00000000000E+00 -0.45593999997E+02  0.45594000000E+02  0.51100000000E-03 0. -1.
    9900012    2    1    2    0    0 -0.97914763216E+01 -0.26818005777E+01  0.15735683973E+02  0.72461633214E+02  0.70000081964E+02 0.  0.
         12    1    1    2    0    0  0.97914763216E+01  0.26818005777E+01 -0.15735683973E+02  0.18726366786E+02  0.00000000000E+00 0. -1.
         11    1    3    3    0    0 -0.15439685011E+02  0.15081783833E+02  0.16875755174E+02  0.27397722347E+02  0.51100000000E-03 0. -1.
        -11    1    3    3    0    0 -0.12040624135E+02  0.26762330467E+01  0.99488371702E+01  0.15846709885E+02  0.51100000000E-03 0.  1.
         12    1    3    3    0    0  0.17688832824E+02 -0.20439817457E+02 -0.11088908371E+02  0.29217200982E+02  0.00000000000E+00 0. -1.
</event>
<event>
 7    1  0.3189267E-013  0.7246157E+02  0.7816164E-02  0.1226708E+00
        -11   -1    0    0    0    0  0.00000000000E+00  0.00000000000E+00  0.45593999997E+02  0.45594000000E+02  0.51100000000E-03 0.  1.
         11   -1    0    0    0    0 -0.00000000000E+00 -0.00000000000E+00 -0.45593999997E+02  0.45594000000E+02  0.51100000000E-03 0. -1.
    9900012    2    1    2    0    0 -0.16228472042E+02 -0.81437880534E+01  0.45819905248E+01  0.72461568791E+02  0.69999998041E+02 0.  0.
         12    1    1    2    0    0  0.16228472042E+02  0.81437880534E+01 -0.45819905248E+01  0.18726431209E+02  0.00000000000E+00 0. -1.
         11    1    3    3    0    0 -0.24908276184E+02  0.17231664869E+01 -0.11433058952E+02  0.27460997114E+02  0.51100000000E-03 0. -1.
        -11    1    3    3    0    0 -0.14879072920E+02 -0.25728800214E+01  0.13421174874E+02  0.20202337930E+02  0.51100000000E-03 0.  1.
         12    1    3    3    0    0  0.23558877063E+02 -0.72940745190E+01  0.25938746028E+01  0.24798233748E+02  0.00000000000E+00 0. -1.
</event>
<event>
 7    1  0.3189267E-013  0.7246156E+02  0.7816164E-02  0.1226708E+00
        -11   -1    0    0    0    0  0.00000000000E+00  0.00000000000E+00  0.45593999997E+02  0.45594000000E+02  0.51100000000E-03 0.  1.
         11   -1    0    0    0    0 -0.00000000000E+00 -0.00000000000E+00 -0.45593999997E+02  0.45594000000E+02  0.51100000000E-03 0. -1.
    9900012    2    1    2    0    0 -0.17884376905E+02  0.40262122482E+01  0.38233934147E+01  0.72461557210E+02  0.69999982956E+02 0.  0.
         12    1    1    2    0    0  0.17884376905E+02 -0.40262122482E+01 -0.38233934147E+01  0.18726442790E+02  0.00000000000E+00 0. -1.
         11    1    3    3    0    0 -0.45548731265E+00 -0.27299316289E+01 -0.39834222697E+01  0.48505307576E+01  0.51100000000E-03 0. -1.
        -11    1    3    3    0    0 -0.72678989508E+01 -0.97414024654E+01 -0.25968974824E+02  0.28672372257E+02  0.51100000000E-03 0.  1.
         12    1    3    3    0    0 -0.10160990642E+02  0.16497546342E+02  0.33775790508E+02  0.38938654196E+02  0.00000000000E+00 0. -1.
</event>
<event>
 7    1  0.3189267E-013  0.7246157E+02  0.7816164E-02  0.1226708E+00
        -11   -1    0    0    0    0  0.00000000000E+00  0.00000000000E+00  0.45593999997E+02  0.45594000000E+02  0.51100000000E-03 0.  1.
         11   -1    0    0    0    0 -0.00000000000E+00 -0.00000000000E+00 -0.45593999997E+02  0.45594000000E+02  0.51100000000E-03 0. -1.
    9900012    2    1    2    0    0  0.14498757037E+02 -0.10023981120E+01  0.11809340203E+02  0.72461567515E+02  0.69999996380E+02 0.  0.
         12    1    1    2    0    0 -0.14498757037E+02  0.10023981120E+01 -0.11809340203E+02  0.18726432485E+02  0.00000000000E+00 0. -1.
         11    1    3    3    0    0  0.25233283808E+01 -0.13736763311E+02 -0.31511990326E+01  0.14317678163E+02  0.51100000000E-03 0. -1.
        -11    1    3    3    0    0 -0.55596169134E+01 -0.15873794561E+02  0.17775501765E+02  0.24471517265E+02  0.51100000000E-03 0.  1.
         12    1    3    3    0    0  0.17535045569E+02  0.28608159760E+02 -0.28149625295E+01  0.33672372088E+02  0.00000000000E+00 0. -1.
</event>
<event>
 7    1  0.3189267E-013  0.7246156E+02  0.7816164E-02  0.1226708E+00
        -11   -1    0    0    0    0  0.00000000000E+00  0.00000000000E+00  0.45593999997E+02  0.45594000000E+02  0.51100000000E-03 0.  1.
         11   -1    0    0    0    0 -0.00000000000E+00 -0.00000000000E+00 -0.45593999997E+02  0.45594000000E+02  0.51100000000E-03 0. -1.
    9900012    2    1    2    0    0 -0.65727998220E+01 -0.56252410006E+01  0.16608261727E+02  0.72461564370E+02  0.69999992282E+02 0.  0.
         12    1    1    2    0    0  0.65727998220E+01  0.56252410006E+01 -0.16608261727E+02  0.18726435630E+02  0.00000000000E+00 0. -1.
         11    1    3    3    0    0 -0.16859808695E+01 -0.13296715243E+01 -0.26307169782E+02  0.26394653626E+02  0.51100000000E-03 0. -1.
        -11    1    3    3    0    0 -0.41014239975E+01  0.44057878407E+01  0.76438300457E+01  0.97293773354E+01  0.51100000000E-03 0.  1.
        -12    1    3    3    0    0 -0.78539495499E+00 -0.87013573170E+01  0.35271601463E+02  0.36337533408E+02  0.00000000000E+00 0.  1.
</event>
<event>
 7    1  0.3189267E-013  0.7246156E+02  0.7816164E-02  0.1226708E+00
        -11   -1    0    0    0    0  0.00000000000E+00  0.00000000000E+00  0.45593999997E+02  0.45594000000E+02  0.51100000000E-03 0.  1.
         11   -1    0    0    0    0 -0.00000000000E+00 -0.00000000000E+00 -0.45593999997E+02  0.45594000000E+02  0.51100000000E-03 0. -1.
    9900012    2    1    2    0    0 -0.10803165325E+02 -0.40132711072E+01  0.14760248967E+02  0.72461556782E+02  0.69999982398E+02 0.  0.
         12    1    1    2    0    0  0.10803165325E+02  0.40132711072E+01 -0.14760248967E+02  0.18726443218E+02  0.00000000000E+00 0. -1.
         11    1    3    3    0    0 -0.17459900979E+02 -0.50053112323E+01 -0.48132733063E+01  0.18790127273E+02  0.51100000000E-03 0. -1.
        -11    1    3    3    0    0 -0.18822504430E+02 -0.85240676187E+01  0.90475706234E+00  0.20682480204E+02  0.51100000000E-03 0.  1.
        -12    1    3    3    0    0  0.25479240084E+02  0.95161077438E+01  0.18668765211E+02  0.32988949306E+02  0.00000000000E+00 0.  1.
</event>
<event>
 7    1  0.3189267E-013  0.7246159E+02  0.7816164E-02  0.1226708E+00
        -11   -1    0    0    0    0  0.00000000000E+00  0.00000000000E+00  0.45593999997E+02  0.45594000000E+02  0.51100000000E-03 0.  1.
         11   -1    0    0    0    0 -0.00000000000E+00 -0.00000000000E+00 -0.45593999997E+02  0.45594000000E+02  0.51100000000E-03 0. -1.
    9900012    2    1    2    0    0 -0.87452371424E+01 -0.12385770327E+02 -0.10990533083E+02  0.72461593599E+02  0.70000030358E+02 0.  0.
         12    1    1    2    0    0  0.87452371424E+01  0.12385770327E+02  0.10990533083E+02  0.18726406401E+02  0.00000000000E+00 0. -1.
         11    1    3    3    0    0  0.19176304130E+01 -0.14347229124E+01 -0.43325412655E+01  0.49504192059E+01  0.51100000000E-03 0. -1.
        -11    1    3    3    0    0  0.52689958714E+01  0.12728260832E+02 -0.28445286677E+02  0.31605462751E+02  0.51100000000E-03 0.  1.
        -12    1    3    3    0    0 -0.15931863427E+02 -0.23679308246E+02  0.21787294859E+02  0.35905711642E+02  0.00000000000E+00 0.  1.
</event>
<event>
 7    1  0.3189267E-013  0.7246152E+02  0.7816164E-02  0.1226708E+00
        -11   -1    0    0    0    0  0.00000000000E+00  0.00000000000E+00  0.45593999997E+02  0.45594000000E+02  0.51100000000E-03 0.  1.
         11   -1    0    0    0    0 -0.00000000000E+00 -0.00000000000E+00 -0.45593999997E+02  0.45594000000E+02  0.51100000000E-03 0. -1.
    9900012    2    1    2    0    0  0.46445079992E+00 -0.29076143771E+01  0.18493542833E+02  0.72461519754E+02  0.69999934161E+02 0.  0.
         12    1    1    2    0    0 -0.46445079992E+00  0.29076143771E+01 -0.18493542833E+02  0.18726480246E+02  0.00000000000E+00 0. -1.
         11    1    3    3    0    0 -0.19167605663E+02 -0.23635564312E+02 -0.20272313069E+01  0.30498306088E+02  0.51100000000E-03 0. -1.
        -11    1    3    3    0    0 -0.12697494578E+01 -0.39840954115E+01  0.16338642587E+01  0.44894089377E+01  0.51100000000E-03 0.  1.
        -12    1    3    3    0    0  0.20901805921E+02  0.24712045346E+02  0.18886909881E+02  0.37473804728E+02  0.00000000000E+00 0.  1.
</event>
<event>
 7    1  0.3189267E-013  0.7246158E+02  0.7816164E-02  0.1226708E+00
        -11   -1    0    0    0    0  0.00000000000E+00  0.00000000000E+00  0.45593999997E+02  0.45594000000E+02  0.51100000000E-03 0.  1.
         11   -1    0    0    0    0 -0.00000000000E+00 -0.00000000000E+00 -0.45593999997E+02  0.45594000000E+02  0.51100000000E-03 0. -1.
    9900012    2    1    2    0    0 -0.25477808966E+01 -0.43690028910E+01  0.18030509123E+02  0.72461584620E+02  0.70000018662E+02 0.  0.
         12    1    1    2    0    0  0.25477808966E+01  0.43690028910E+01 -0.18030509123E+02  0.18726415380E+02  0.00000000000E+00 0. -1.
         11    1    3    3    0    0 -0.22905729405E+02  0.16967724838E+02 -0.15109778528E+01  0.28545738387E+02  0.51100000000E-03 0. -1.
        -11    1    3    3    0    0 -0.11850146373E+01  0.20012768109E+01  0.10696209890E+02  0.10946153427E+02  0.51100000000E-03 0.  1.
        -12    1    3    3    0    0  0.21542963146E+02 -0.23338004540E+02  0.88452770853E+01  0.32969692806E+02  0.00000000000E+00 0.  1.
</event>
<event>
 7    1  0.3189267E-013  0.7246157E+02  0.7816164E-02  0.1226708E+00
        -11   -1    0    0    0    0  0.00000000000E+00  0.00000000000E+00  0.45593999997E+02  0.45594000000E+02  0.51100000000E-03 0.  1.
         11   -1    0    0    0    0 -0.00000000000E+00 -0.00000000000E+00 -0.45593999997E+02  0.45594000000E+02  0.51100000000E-03 0. -1.
    9900012    2    1    2    0    0  0.11603102954E+02  0.11017088356E+02  0.97299046928E+01  0.72461567363E+02  0.69999996181E+02 0.  0.
         12    1    1    2    0    0 -0.11603102954E+02 -0.11017088356E+02 -0.97299046928E+01  0.18726432637E+02  0.00000000000E+00 0. -1.
         11    1    3    3    0    0  0.33684259327E+00  0.81370992992E+01 -0.11299425447E+02  0.13928491075E+02  0.51100000000E-03 0. -1.
        -11    1    3    3    0    0  0.12704414108E+01  0.17485269291E+02 -0.11872485160E+02  0.21173204002E+02  0.51100000000E-03 0.  1.
        -12    1    3    3    0    0  0.99958189496E+01 -0.14605280234E+02  0.32901815300E+02  0.37359872286E+02  0.00000000000E+00 0.  1.
</event>
<event>
 7    1  0.3189267E-013  0.7246161E+02  0.7816164E-02  0.1226708E+00
        -11   -1    0    0    0    0  0.00000000000E+00  0.00000000000E+00  0.45593999997E+02  0.45594000000E+02  0.51100000000E-03 0.  1.
         11   -1    0    0    0    0 -0.00000000000E+00 -0.00000000000E+00 -0.45593999997E+02  0.45594000000E+02  0.51100000000E-03 0. -1.
    9900012    2    1    2    0    0 -0.16003388270E+02 -0.76596372156E+01  0.59916100271E+01  0.72461605015E+02  0.70000045230E+02 0.  0.
         12    1    1    2    0    0  0.16003388270E+02  0.76596372156E+01 -0.59916100271E+01  0.18726394985E+02  0.00000000000E+00 0. -1.
         11    1    3    3    0    0 -0.74878155790E+01 -0.50321359216E+01 -0.61060737457E+01  0.10893755593E+02  0.51100000000E-03 0. -1.
        -11    1    3    3    0    0 -0.34159801315E+02 -0.45376717497E+01  0.93524853210E+01  0.35706462618E+02  0.51100000000E-03 0.  1.
        -12    1    3    3    0    0  0.25644228623E+02  0.19101704556E+01  0.27451984518E+01  0.25861386803E+02  0.00000000000E+00 0.  1.
</event>
<event>
 7    1  0.3189267E-013  0.7246155E+02  0.7816164E-02  0.1226708E+00
        -11   -1    0    0    0    0  0.00000000000E+00  0.00000000000E+00  0.45593999997E+02  0.45594000000E+02  0.51100000000E-03 0. -1.
         11   -1    0    0    0    0 -0.00000000000E+00 -0.00000000000E+00 -0.45593999997E+02  0.45594000000E+02  0.51100000000E-03 0.  1.
    9900012    2    1    2    0    0  0.95074585457E+01  0.15423110472E+02 -0.47345464756E+01  0.72461547187E+02  0.69999969898E+02 0.  0.
         12    1    1    2    0    0 -0.95074585457E+01 -0.15423110472E+02  0.47345464756E+01  0.18726452813E+02  0.00000000000E+00 0. -1.
         11    1    3    3    0    0  0.12626134491E+02 -0.49865094280E+01  0.13707882136E+02  0.19292241481E+02  0.51100000000E-03 0. -1.
        -11    1    3    3    0    0 -0.44758247965E+01 -0.14356383505E+02 -0.46190053853E+01  0.15731305285E+02  0.51100000000E-03 0.  1.
         12    1    3    3    0    0  0.13571488508E+01  0.34766003406E+02 -0.13823423226E+02  0.37438000420E+02  0.00000000000E+00 0. -1.
</event>
<event>
 7    1  0.3189267E-013  0.7246152E+02  0.7816164E-02  0.1226708E+00
        -11   -1    0    0    0    0  0.00000000000E+00  0.00000000000E+00  0.45593999997E+02  0.45594000000E+02  0.51100000000E-03 0.  1.
         11   -1    0    0    0    0 -0.00000000000E+00 -0.00000000000E+00 -0.45593999997E+02  0.45594000000E+02  0.51100000000E-03 0. -1.
    9900012    2    1    2    0    0 -0.73593863358E+00  0.71866192717E+01  0.17276921084E+02  0.72461518633E+02  0.69999932702E+02 0.  0.
         12    1    1    2    0    0  0.73593863358E+00 -0.71866192717E+01 -0.17276921084E+02  0.18726481367E+02  0.00000000000E+00 0. -1.
         11    1    3    3    0    0 -0.21450863748E+01  0.22303919402E+02  0.10476005661E+02  0.24734852155E+02  0.51100000000E-03 0.  1.
        -11    1    3    3    0    0  0.54566425160E+01  0.15455000132E+02  0.28411323746E+01  0.16634422444E+02  0.51100000000E-03 0. -1.
        -12    1    3    3    0    0 -0.40474947749E+01 -0.30572300262E+02  0.39597830481E+01  0.31092244034E+02  0.00000000000E+00 0.  1.
</event>
<event>
 7    1  0.3189267E-013  0.7246155E+02  0.7816164E-02  0.1226708E+00
        -11   -1    0    0    0    0  0.00000000000E+00  0.00000000000E+00  0.45593999997E+02  0.45594000000E+02  0.51100000000E-03 0.  1.
         11   -1    0    0    0    0 -0.00000000000E+00 -0.00000000000E+00 -0.45593999997E+02  0.45594000000E+02  0.51100000000E-03 0. -1.
    9900012    2    1    2    0    0 -0.62307272946E+01 -0.10393655326E+02 -0.14276899350E+02  0.72461551092E+02  0.69999974985E+02 0.  0.
         12    1    1    2    0    0  0.62307272946E+01  0.10393655326E+02  0.14276899350E+02  0.18726448908E+02  0.00000000000E+00 0. -1.
         11    1    3    3    0    0  0.26987596397E+01 -0.52243858918E+01 -0.21158867692E+02  0.21960764873E+02  0.51100000000E-03 0.  1.
        -11    1    3    3    0    0 -0.25170024606E+02  0.85084976971E+01 -0.36164273929E+01  0.26814235381E+02  0.51100000000E-03 0. -1.
        -12    1    3    3    0    0  0.16240537672E+02 -0.13677767132E+02  0.10498395735E+02  0.23686550838E+02  0.00000000000E+00 0.  1.
</event>
<event>
 7    1  0.3189267E-013  0.7246157E+02  0.7816164E-02  0.1226708E+00
        -11   -1    0    0    0    0  0.00000000000E+00  0.00000000000E+00  0.45593999997E+02  0.45594000000E+02  0.51100000000E-03 0.  1.
         11   -1    0    0    0    0 -0.00000000000E+00 -0.00000000000E+00 -0.45593999997E+02  0.45594000000E+02  0.51100000000E-03 0. -1.
    9900012    2    1    2    0    0 -0.81955313027E+01 -0.19505721033E+00  0.16836702429E+02  0.72461566027E+02  0.69999994441E+02 0.  0.
         12    1    1    2    0    0  0.81955313027E+01  0.19505721033E+00 -0.16836702429E+02  0.18726433973E+02  0.00000000000E+00 0. -1.
         11    1    3    3    0    0 -0.10825478610E+02 -0.79690708621E+01  0.87105026976E+01  0.16017800568E+02  0.51100000000E-03 0. -1.
        -11    1    3    3    0    0  0.16238737882E+01  0.31612980208E+02  0.77094046724E+01  0.32579938680E+02  0.51100000000E-03 0.  1.
         12    1    3    3    0    0  0.10060735188E+01 -0.23838966557E+02  0.41679505950E+00  0.23863826779E+02  0.00000000000E+00 0. -1.
</event>
<event>
 7    1  0.3189267E-013  0.7246155E+02  0.7816164E-02  0.1226708E+00
        -11   -1    0    0    0    0  0.00000000000E+00  0.00000000000E+00  0.45593999997E+02  0.45594000000E+02  0.51100000000E-03 0.  1.
         11   -1    0    0    0    0 -0.00000000000E+00 -0.00000000000E+00 -0.45593999997E+02  0.45594000000E+02  0.51100000000E-03 0. -1.
    9900012    2    1    2    0    0 -0.54857490331E+01 -0.15626139997E+02  0.87412950954E+01  0.72461549894E+02  0.69999973424E+02 0.  0.
         12    1    1    2    0    0  0.54857490331E+01  0.15626139997E+02 -0.87412950954E+01  0.18726450106E+02  0.00000000000E+00 0. -1.
         11    1    3    3    0    0 -0.22153650957E+01  0.23135075289E+01 -0.51776495130E+00  0.32447250114E+01  0.51100000000E-03 0.  1.
        -11    1    3    3    0    0 -0.20832391016E+02  0.11165220377E+02 -0.14513465379E+02  0.27736101728E+02  0.51100000000E-03 0. -1.
         12    1    3    3    0    0  0.17562007078E+02 -0.29104867902E+02  0.23772525426E+02  0.41480723154E+02  0.00000000000E+00 0. -1.
</event>
<event>
 7    1  0.3189267E-013  0.7246157E+02  0.7816164E-02  0.1226708E+00
        -11   -1    0    0    0    0  0.00000000000E+00  0.00000000000E+00  0.45593999997E+02  0.45594000000E+02  0.51100000000E-03 0.  1.
         11   -1    0    0    0    0 -0.00000000000E+00 -0.00000000000E+00 -0.45593999997E+02  0.45594000000E+02  0.51100000000E-03 0. -1.
    9900012    2    1    2    0    0  0.15818705686E+02  0.99949610058E+01  0.74055251856E+00  0.72461571800E+02  0.70000001961E+02 0.  0.
         12    1    1    2    0    0 -0.15818705686E+02 -0.99949610058E+01 -0.74055251856E+00  0.18726428200E+02  0.00000000000E+00 0. -1.
         11    1    3    3    0    0 -0.18571489940E+02 -0.51413016686E+01  0.12647478884E+02  0.23049771014E+02  0.51100000000E-03 0. -1.
        -11    1    3    3    0    0  0.35241228386E+01 -0.32654006787E+01 -0.12584337397E+02  0.13470257286E+02  0.51100000000E-03 0.  1.
        -12    1    3    3    0    0  0.30866072787E+02  0.18401663353E+02  0.67741103180E+00  0.35941543500E+02  0.00000000000E+00 0.  1.
</event>
<event>
 7    1  0.3189267E-013  0.7246159E+02  0.7816164E-02  0.1226708E+00
        -11   -1    0    0    0    0  0.00000000000E+00  0.00000000000E+00  0.45593999997E+02  0.45594000000E+02  0.51100000000E-03 0. -1.
         11   -1    0    0    0    0 -0.00000000000E+00 -0.00000000000E+00 -0.45593999997E+02  0.45594000000E+02  0.51100000000E-03 0.  1.
    9900012    2    1    2    0    0  0.32623289253E+01 -0.13083180441E+02 -0.12994846665E+02  0.72461589764E+02  0.70000025363E+02 0.  0.
         12    1    1    2    0    0 -0.32623289253E+01  0.13083180441E+02  0.12994846665E+02  0.18726410236E+02  0.00000000000E+00 0. -1.
         11    1    3    3    0    0  0.10402568008E+02  0.12217571537E+02 -0.80025676413E+01  0.17931078175E+02  0.51100000000E-03 0. -1.
        -11    1    3    3    0    0  0.14358018283E+02  0.65747351724E+01 -0.26405344049E+01  0.16011004148E+02  0.51100000000E-03 0.  1.
         12    1    3    3    0    0 -0.21498257366E+02 -0.31875487150E+02 -0.23517446193E+01  0.38519507442E+02  0.00000000000E+00 0. -1.
</event>
<event>
 7    1  0.3189267E-013  0.7246161E+02  0.7816164E-02  0.1226708E+00
        -11   -1    0    0    0    0  0.00000000000E+00  0.00000000000E+00  0.45593999997E+02  0.45594000000E+02  0.51100000000E-03 0.  1.
         11   -1    0    0    0    0 -0.00000000000E+00 -0.00000000000E+00 -0.45593999997E+02  0.45594000000E+02  0.51100000000E-03 0. -1.
    9900012    2    1    2    0    0 -0.16981492637E+02 -0.71612819667E+01  0.33200578591E+01  0.72461605906E+02  0.70000046391E+02 0.  0.
         12    1    1    2    0    0  0.16981492637E+02  0.71612819667E+01 -0.33200578591E+01  0.18726394094E+02  0.00000000000E+00 0. -1.
         11    1    3    3    0    0  0.12100891716E+02  0.10470232401E+02 -0.69164691691E+01  0.17432581360E+02  0.51100000000E-03 0. -1.
        -11    1    3    3    0    0 -0.99150586840E+00 -0.17240953107E+01 -0.14326841293E+02  0.14464230717E+02  0.51100000000E-03 0.  1.
        -12    1    3    3    0    0 -0.28090878485E+02 -0.15907419057E+02  0.24563368321E+02  0.40564793829E+02  0.00000000000E+00 0.  1.
</event>
<event>
 7    1  0.3189267E-013  0.7246155E+02  0.7816164E-02  0.1226708E+00
        -11   -1    0    0    0    0  0.00000000000E+00  0.00000000000E+00  0.45593999997E+02  0.45594000000E+02  0.51100000000E-03 0.  1.
         11   -1    0    0    0    0 -0.00000000000E+00 -0.00000000000E+00 -0.45593999997E+02  0.45594000000E+02  0.51100000000E-03 0. -1.
    9900012    2    1    2    0    0 -0.14547561730E+02  0.80983224630E+01  0.85712003109E+01  0.72461552024E+02  0.69999976200E+02 0.  0.
         12    1    1    2    0    0  0.14547561730E+02 -0.80983224630E+01 -0.85712003109E+01  0.18726447976E+02  0.00000000000E+00 0. -1.
         11    1    3    3    0    0  0.57526259036E+01 -0.23015425423E+01  0.63308137999E+00  0.62282096268E+01  0.51100000000E-03 0. -1.
        -11    1    3    3    0    0 -0.70317212867E+01 -0.17720405876E+02 -0.17638162190E+02  0.25972344029E+02  0.51100000000E-03 0.  1.
         12    1    3    3    0    0 -0.13268466347E+02  0.28120270881E+02  0.25576281121E+02  0.40260998368E+02  0.00000000000E+00 0. -1.
</event>
<event>
 7    1  0.3189267E-013  0.7246157E+02  0.7816164E-02  0.1226708E+00
        -11   -1    0    0    0    0  0.00000000000E+00  0.00000000000E+00  0.45593999997E+02  0.45594000000E+02  0.51100000000E-03 0.  1.
         11   -1    0    0    0    0 -0.00000000000E+00 -0.00000000000E+00 -0.45593999997E+02  0.45594000000E+02  0.51100000000E-03 0. -1.
    9900012    2    1    2    0    0  0.12409078686E+02  0.11231397817E+02  0.83993749079E+01  0.72461574030E+02  0.70000004867E+02 0.  0.
         12    1    1    2    0    0 -0.12409078686E+02 -0.11231397817E+02 -0.83993749079E+01  0.18726425970E+02  0.00000000000E+00 0. -1.
         11    1    3    3    0    0 -0.96637533775E+01  0.56726510967E+01 -0.44713679091E+01  0.12064834481E+02  0.51100000000E-03 0. -1.
        -11    1    3    3    0    0 -0.13716167022E+02  0.14919710688E+02  0.11665637115E+02  0.23384141941E+02  0.51100000000E-03 0.  1.
         12    1    3    3    0    0  0.35788999085E+02 -0.93609639674E+01  0.12051057018E+01  0.37012597608E+02  0.00000000000E+00 0. -1.
</event>
<event>
 7    1  0.3189267E-013  0.7246162E+02  0.7816164E-02  0.1226708E+00
        -11   -1    0    0    0    0  0.00000000000E+00  0.00000000000E+00  0.45593999997E+02  0.45594000000E+02  0.51100000000E-03 0.  1.
         11   -1    0    0    0    0 -0.00000000000E+00 -0.00000000000E+00 -0.45593999997E+02  0.45594000000E+02  0.51100000000E-03 0. -1.
    9900012    2    1    2    0    0 -0.13800741996E+02  0.12632758582E+02  0.79387886887E+00  0.72461619872E+02  0.70000064584E+02 0.  0.
         12    1    1    2    0    0  0.13800741996E+02 -0.12632758582E+02 -0.79387886887E+00  0.18726380128E+02  0.00000000000E+00 0. -1.
         11    1    3    3    0    0  0.13769781197E+01  0.53180686091E+01  0.79344794876E+00  0.55504488450E+01  0.51100000000E-03 0. -1.
        -11    1    3    3    0    0  0.20961643662E+02  0.17126816053E+02  0.87631051144E+01  0.28451895273E+02  0.51100000000E-03 0.  1.
         12    1    3    3    0    0 -0.36139363778E+02 -0.98121260805E+01 -0.87626741943E+01  0.38459275754E+02  0.00000000000E+00 0. -1.
</event>
<event>
 7    1  0.3189267E-013  0.7246159E+02  0.7816164E-02  0.1226708E+00
        -11   -1    0    0    0    0  0.00000000000E+00  0.00000000000E+00  0.45593999997E+02  0.45594000000E+02  0.51100000000E-03 0.  1.
         11   -1    0    0    0    0 -0.00000000000E+00 -0.00000000000E+00 -0.45593999997E+02  0.45594000000E+02  0.51100000000E-03 0. -1.
    9900012    2    1    2    0    0  0.13553040201E+02 -0.12194943616E+02 -0.42751323017E+01  0.72461593385E+02  0.70000030080E+02 0.  0.
         12    1    1    2    0    0 -0.13553040201E+02  0.12194943616E+02  0.42751323017E+01  0.18726406615E+02  0.00000000000E+00 0. -1.
         11    1    3    3    0    0  0.85374871296E+01  0.41383520291E+01 -0.12828258233E+02  0.15955527367E+02  0.51100000000E-03 0. -1.
        -11    1    3    3    0    0  0.83519603485E+00  0.19624346694E+02  0.24258808767E+01  0.19791347450E+02  0.51100000000E-03 0.  1.
        -12    1    3    3    0    0  0.41803570370E+01 -0.35957642340E+02  0.61272450549E+01  0.36714718568E+02  0.00000000000E+00 0.  1.
</event>
<event>
 7    1  0.3189267E-013  0.7246160E+02  0.7816164E-02  0.1226708E+00
        -11   -1    0    0    0    0  0.00000000000E+00  0.00000000000E+00  0.45593999997E+02  0.45594000000E+02  0.51100000000E-03 0.  1.
         11   -1    0    0    0    0 -0.00000000000E+00 -0.00000000000E+00 -0.45593999997E+02  0.45594000000E+02  0.51100000000E-03 0. -1.
    9900012    2    1    2    0    0 -0.69255989201E+00  0.11834196135E+02  0.14496559283E+02  0.72461599694E+02  0.70000038299E+02 0.  0.
         12    1    1    2    0    0  0.69255989201E+00 -0.11834196135E+02 -0.14496559283E+02  0.18726400306E+02  0.00000000000E+00 0. -1.
         11    1    3    3    0    0 -0.10038713324E+02 -0.19945680198E+01  0.64451719820E+00  0.10255216696E+02  0.51100000000E-03 0. -1.
        -11    1    3    3    0    0  0.20214626735E+00  0.35768655269E+02  0.24750146788E+01  0.35854752276E+02  0.51100000000E-03 0.  1.
         12    1    3    3    0    0  0.91440071649E+01 -0.21939891114E+02  0.11377027406E+02  0.26351630723E+02  0.00000000000E+00 0. -1.
</event>
<event>
 7    1  0.3189267E-013  0.7246148E+02  0.7816164E-02  0.1226708E+00
        -11   -1    0    0    0    0  0.00000000000E+00  0.00000000000E+00  0.45593999997E+02  0.45594000000E+02  0.51100000000E-03 0.  1.
         11   -1    0    0    0    0 -0.00000000000E+00 -0.00000000000E+00 -0.45593999997E+02  0.45594000000E+02  0.51100000000E-03 0. -1.
    9900012    2    1    2    0    0 -0.91005176226E+01  0.91962972971E+01  0.13538505542E+02  0.72461483045E+02  0.69999886341E+02 0.  0.
         12    1    1    2    0    0  0.91005176226E+01 -0.91962972971E+01 -0.13538505542E+02  0.18726516955E+02  0.00000000000E+00 0. -1.
         11    1    3    3    0    0 -0.66263808577E+01  0.17370838759E+02 -0.17856284564E+02  0.25777933609E+02  0.51100000000E-03 0. -1.
        -11    1    3    3    0    0 -0.53144534517E+01  0.12459557240E+02  0.14705276722E+02  0.19993227499E+02  0.51100000000E-03 0.  1.
        -12    1    3    3    0    0  0.28403166868E+01 -0.20634098701E+02  0.16689513383E+02  0.26690321936E+02  0.00000000000E+00 0.  1.
</event>
<event>
 7    1  0.3189267E-013  0.7246147E+02  0.7816164E-02  0.1226708E+00
        -11   -1    0    0    0    0  0.00000000000E+00  0.00000000000E+00  0.45593999997E+02  0.45594000000E+02  0.51100000000E-03 0. -1.
         11   -1    0    0    0    0 -0.00000000000E+00 -0.00000000000E+00 -0.45593999997E+02  0.45594000000E+02  0.51100000000E-03 0.  1.
    9900012    2    1    2    0    0 -0.84088189779E+01  0.11373443399E+02 -0.12272712149E+02  0.72461470294E+02  0.69999869730E+02 0.  0.
         12    1    1    2    0    0  0.84088189779E+01 -0.11373443399E+02  0.12272712149E+02  0.18726529706E+02  0.00000000000E+00 0. -1.
         11    1    3    3    0    0 -0.17955338136E+01  0.65497156974E+01 -0.58795528190E+01  0.89828647438E+01  0.51100000000E-03 0. -1.
        -11    1    3    3    0    0 -0.24659016460E+02  0.95316746250E+00 -0.26482721568E+02  0.36198206625E+02  0.51100000000E-03 0.  1.
         12    1    3    3    0    0  0.18045731296E+02  0.38705602396E+01  0.20089562238E+02  0.27280398925E+02  0.00000000000E+00 0. -1.
</event>
<event>
 7    1  0.3189267E-013  0.7246156E+02  0.7816164E-02  0.1226708E+00
        -11   -1    0    0    0    0  0.00000000000E+00  0.00000000000E+00  0.45593999997E+02  0.45594000000E+02  0.51100000000E-03 0. -1.
         11   -1    0    0    0    0 -0.00000000000E+00 -0.00000000000E+00 -0.45593999997E+02  0.45594000000E+02  0.51100000000E-03 0.  1.
    9900012    2    1    2    0    0  0.17846587339E+02 -0.82561193383E+00  0.56122542544E+01  0.72461555796E+02  0.69999981113E+02 0.  0.
         12    1    1    2    0    0 -0.17846587339E+02  0.82561193383E+00 -0.56122542544E+01  0.18726444204E+02  0.00000000000E+00 0. -1.
         11    1    3    3    0    0  0.36330341440E+01 -0.97970298801E+01 -0.39766784735E+01  0.11180103019E+02  0.51100000000E-03 0. -1.
        -11    1    3    3    0    0  0.50667638182E+01  0.11670668300E+02 -0.23566533843E+02  0.26781674925E+02  0.51100000000E-03 0.  1.
         12    1    3    3    0    0  0.91467893770E+01 -0.26992503536E+01  0.33155466570E+02  0.34499777853E+02  0.00000000000E+00 0. -1.
</event>
<event>
 7    1  0.3189267E-013  0.7246158E+02  0.7816164E-02  0.1226708E+00
        -11   -1    0    0    0    0  0.00000000000E+00  0.00000000000E+00  0.45593999997E+02  0.45594000000E+02  0.51100000000E-03 0. -1.
         11   -1    0    0    0    0 -0.00000000000E+00 -0.00000000000E+00 -0.45593999997E+02  0.45594000000E+02  0.51100000000E-03 0.  1.
    9900012    2    1    2    0    0  0.27499667062E+00  0.38012338419E+01 -0.18334499134E+02  0.72461578548E+02  0.70000010752E+02 0.  0.
         12    1    1    2    0    0 -0.27499667062E+00 -0.38012338419E+01  0.18334499134E+02  0.18726421452E+02  0.00000000000E+00 0. -1.
         11    1    3    3    0    0 -0.12682937091E+02 -0.50636119038E+01  0.66191812990E+00  0.13672424607E+02  0.51100000000E-03 0. -1.
        -11    1    3    3    0    0 -0.19326689066E+02  0.49632891795E+01  0.20413049926E+01  0.20057967895E+02  0.51100000000E-03 0.  1.
        -12    1    3    3    0    0  0.32284622828E+02  0.39015565662E+01 -0.21037722257E+02  0.38731186046E+02  0.00000000000E+00 0.  1.
</event>
<event>
 7    1  0.3189267E-013  0.7246154E+02  0.7816164E-02  0.1226708E+00
        -11   -1    0    0    0    0  0.00000000000E+00  0.00000000000E+00  0.45593999997E+02  0.45594000000E+02  0.51100000000E-03 0. -1.
         11   -1    0    0    0    0 -0.00000000000E+00 -0.00000000000E+00 -0.45593999997E+02  0.45594000000E+02  0.51100000000E-03 0.  1.
    9900012    2    1    2    0    0  0.15154194442E+02  0.10963272715E+02 -0.91509272840E+00  0.72461538709E+02  0.69999958854E+02 0.  0.
         12    1    1    2    0    0 -0.15154194442E+02 -0.10963272715E+02  0.91509272840E+00  0.18726461291E+02  0.00000000000E+00 0. -1.
         11    1    3    3    0    0  0.11444836234E+02 -0.25872487902E+02 -0.11224374313E+02  0.30436104968E+02  0.51100000000E-03 0. -1.
        -11    1    3    3    0    0 -0.24942020777E+01  0.99599325550E+01  0.10157012360E+02  0.14442513661E+02  0.51100000000E-03 0.  1.
        -12    1    3    3    0    0  0.62035602849E+01  0.26875828061E+02  0.15226922481E+00  0.27582920079E+02  0.00000000000E+00 0.  1.
</event>
<event>
 7    1  0.3189267E-013  0.7246134E+02  0.7816164E-02  0.1226709E+00
        -11   -1    0    0    0    0  0.00000000000E+00  0.00000000000E+00  0.45593999997E+02  0.45594000000E+02  0.51100000000E-03 0. -1.
         11   -1    0    0    0    0 -0.00000000000E+00 -0.00000000000E+00 -0.45593999997E+02  0.45594000000E+02  0.51100000000E-03 0.  1.
    9900012    2    1    2    0    0  0.15576277776E+02  0.56416177850E+01  0.87315213020E+01  0.72461341332E+02  0.69999701734E+02 0.  0.
         12    1    1    2    0    0 -0.15576277776E+02 -0.56416177850E+01 -0.87315213020E+01  0.18726658668E+02  0.00000000000E+00 0. -1.
         11    1    3    3    0    0 -0.18522454847E+02  0.11267881033E+01  0.13432508272E+02  0.22908148413E+02  0.51100000000E-03 0. -1.
        -11    1    3    3    0    0  0.15019410121E+01  0.51520967619E+01 -0.14539298399E+02  0.15498100723E+02  0.51100000000E-03 0.  1.
         12    1    3    3    0    0  0.32596791611E+02 -0.63726708021E+00  0.98383114285E+01  0.34055092196E+02  0.00000000000E+00 0. -1.
</event>
<event>
 7    1  0.3189267E-013  0.7246142E+02  0.7816164E-02  0.1226708E+00
        -11   -1    0    0    0    0  0.00000000000E+00  0.00000000000E+00  0.45593999997E+02  0.45594000000E+02  0.51100000000E-03 0.  1.
         11   -1    0    0    0    0 -0.00000000000E+00 -0.00000000000E+00 -0.45593999997E+02  0.45594000000E+02  0.51100000000E-03 0. -1.
    9900012    2    1    2    0    0  0.82439763192E+01 -0.16599954221E+02  0.26764114256E+01  0.72461419859E+02  0.69999804029E+02 0.  0.
         12    1    1    2    0    0 -0.82439763192E+01  0.16599954221E+02 -0.26764114256E+01  0.18726580141E+02  0.00000000000E+00 0. -1.
         11    1    3    3    0    0  0.82306053549E+01 -0.23319580082E+02 -0.26986577447E+01  0.24876262452E+02  0.51100000000E-03 0. -1.
        -11    1    3    3    0    0  0.26073039696E+01 -0.36102593070E+01 -0.19776387273E+02  0.20271593427E+02  0.51100000000E-03 0.  1.
        -12    1    3    3    0    0 -0.25939330053E+01  0.10329885169E+02  0.25151456443E+02  0.27313563979E+02  0.00000000000E+00 0.  1.
</event>
<event>
 7    1  0.3189267E-013  0.7246157E+02  0.7816164E-02  0.1226708E+00
        -11   -1    0    0    0    0  0.00000000000E+00  0.00000000000E+00  0.45593999997E+02  0.45594000000E+02  0.51100000000E-03 0. -1.
         11   -1    0    0    0    0 -0.00000000000E+00 -0.00000000000E+00 -0.45593999997E+02  0.45594000000E+02  0.51100000000E-03 0.  1.
    9900012    2    1    2    0    0  0.15664028320E+02 -0.83897401421E+01 -0.59101319783E+01  0.72461569938E+02  0.69999999536E+02 0.  0.
         12    1    1    2    0    0 -0.15664028320E+02  0.83897401421E+01  0.59101319783E+01  0.18726430062E+02  0.00000000000E+00 0. -1.
         11    1    3    3    0    0 -0.68347257956E+01 -0.72585322707E+01 -0.47095135357E+01  0.11026299716E+02  0.51100000000E-03 0. -1.
        -11    1    3    3    0    0 -0.78618533966E+01 -0.20016831296E+02  0.10342282962E+02  0.23863048655E+02  0.51100000000E-03 0.  1.
        -12    1    3    3    0    0  0.30360607512E+02  0.18885623425E+02 -0.11542901405E+02  0.37572221567E+02  0.00000000000E+00 0.  1.
</event>
<event>
 7    1  0.3189267E-013  0.7246156E+02  0.7816164E-02  0.1226708E+00
        -11   -1    0    0    0    0  0.00000000000E+00  0.00000000000E+00  0.45593999997E+02  0.45594000000E+02  0.51100000000E-03 0.  1.
         11   -1    0    0    0    0 -0.00000000000E+00 -0.00000000000E+00 -0.45593999997E+02  0.45594000000E+02  0.51100000000E-03 0. -1.
    9900012    2    1    2    0    0 -0.16181498572E+02 -0.32035974906E+01  0.88642861833E+01  0.72461561404E+02  0.69999988419E+02 0.  0.
         12    1    1    2    0    0  0.16181498572E+02  0.32035974906E+01 -0.88642861833E+01  0.18726438596E+02  0.00000000000E+00 0. -1.
         11    1    3    3    0    0  0.13543258527E+02 -0.41276241111E+01  0.81116017613E+01  0.16317328694E+02  0.51100000000E-03 0. -1.
        -11    1    3    3    0    0 -0.10380716428E+02  0.16711203868E+02  0.17293956556E+02  0.26193597345E+02  0.51100000000E-03 0.  1.
        -12    1    3    3    0    0 -0.19344040672E+02 -0.15787177247E+02 -0.16541272134E+02  0.29950635365E+02  0.00000000000E+00 0.  1.
</event>
<event>
 7    1  0.3189267E-013  0.7246157E+02  0.7816164E-02  0.1226708E+00
        -11   -1    0    0    0    0  0.00000000000E+00  0.00000000000E+00  0.45593999997E+02  0.45594000000E+02  0.51100000000E-03 0. -1.
         11   -1    0    0    0    0 -0.00000000000E+00 -0.00000000000E+00 -0.45593999997E+02  0.45594000000E+02  0.51100000000E-03 0.  1.
    9900012    2    1    2    0    0 -0.11748925489E+02 -0.93399286957E+01 -0.11198555367E+02  0.72461570536E+02  0.70000000314E+02 0.  0.
         12    1    1    2    0    0  0.11748925489E+02  0.93399286957E+01  0.11198555367E+02  0.18726429464E+02  0.00000000000E+00 0. -1.
         11    1    3    3    0    0 -0.45088394309E+01  0.24484921828E+01 -0.17243451534E+02  0.17990591098E+02  0.51100000000E-03 0. -1.
        -11    1    3    3    0    0 -0.14444655786E+02 -0.27351363510E+02 -0.83966154799E+01  0.32050714788E+02  0.51100000000E-03 0.  1.
        -12    1    3    3    0    0  0.72045697280E+01  0.15562942631E+02  0.14441511648E+02  0.22420264650E+02  0.00000000000E+00 0.  1.
</event>
<event>
 7    1  0.3189267E-013  0.7246157E+02  0.7816164E-02  0.1226708E+00
        -11   -1    0    0    0    0  0.00000000000E+00  0.00000000000E+00  0.45593999997E+02  0.45594000000E+02  0.51100000000E-03 0. -1.
         11   -1    0    0    0    0 -0.00000000000E+00 -0.00000000000E+00 -0.45593999997E+02  0.45594000000E+02  0.51100000000E-03 0.  1.
    9900012    2    1    2    0    0  0.60117177412E+01  0.15214775998E+02  0.91131209455E+01  0.72461571290E+02  0.70000001296E+02 0.  0.
         12    1    1    2    0    0 -0.60117177412E+01 -0.15214775998E+02 -0.91131209455E+01  0.18726428710E+02  0.00000000000E+00 0. -1.
         11    1    3    3    0    0  0.29335576577E+01 -0.36391577929E+00  0.31324035966E+01  0.43069882492E+01  0.51100000000E-03 0. -1.
        -11    1    3    3    0    0  0.45236588641E+01 -0.30330595692E+01  0.34028926951E+02  0.34462019813E+02  0.51100000000E-03 0.  1.
        -12    1    3    3    0    0 -0.14454987806E+01  0.18611751347E+02 -0.28048209602E+02  0.33692563227E+02  0.00000000000E+00 0.  1.
</event>
<event>
 7    1  0.3189267E-013  0.7246154E+02  0.7816164E-02  0.1226708E+00
        -11   -1    0    0    0    0  0.00000000000E+00  0.00000000000E+00  0.45593999997E+02  0.45594000000E+02  0.51100000000E-03 0.  1.
         11   -1    0    0    0    0 -0.00000000000E+00 -0.00000000000E+00 -0.45593999997E+02  0.45594000000E+02  0.51100000000E-03 0. -1.
    9900012    2    1    2    0    0  0.87867599579E+01 -0.13722658291E+02  0.92283161609E+01  0.72461539568E+02  0.69999959973E+02 0.  0.
         12    1    1    2    0    0 -0.87867599579E+01  0.13722658291E+02 -0.92283161609E+01  0.18726460432E+02  0.00000000000E+00 0. -1.
         11    1    3    3    0    0 -0.18116060364E+02 -0.73465410505E+01 -0.19200441625E+02  0.27401099748E+02  0.51100000000E-03 0. -1.
        -11    1    3    3    0    0 -0.14739611329E+01 -0.38534528386E+01  0.10793394403E+02  0.11555043194E+02  0.51100000000E-03 0.  1.
        -12    1    3    3    0    0  0.28376781455E+02 -0.25226644022E+01  0.17635363383E+02  0.33505396626E+02  0.00000000000E+00 0.  1.
</event>
<event>
 7    1  0.3189267E-013  0.7246156E+02  0.7816164E-02  0.1226708E+00
        -11   -1    0    0    0    0  0.00000000000E+00  0.00000000000E+00  0.45593999997E+02  0.45594000000E+02  0.51100000000E-03 0. -1.
         11   -1    0    0    0    0 -0.00000000000E+00 -0.00000000000E+00 -0.45593999997E+02  0.45594000000E+02  0.51100000000E-03 0.  1.
    9900012    2    1    2    0    0  0.80679915838E+01  0.95280378846E+01 -0.13957201699E+02  0.72461562181E+02  0.69999989431E+02 0.  0.
         12    1    1    2    0    0 -0.80679915838E+01 -0.95280378846E+01  0.13957201699E+02  0.18726437819E+02  0.00000000000E+00 0. -1.
         11    1    3    3    0    0 -0.88566590161E+00  0.57614668549E+00 -0.64739595306E+00  0.12391411839E+01  0.51100000000E-03 0. -1.
        -11    1    3    3    0    0 -0.30078028146E+01  0.27923707403E+02 -0.31603792820E+02  0.42279782802E+02  0.51100000000E-03 0.  1.
         12    1    3    3    0    0  0.11961460300E+02 -0.18971816204E+02  0.18293987074E+02  0.28942638195E+02  0.00000000000E+00 0. -1.
</event>
<event>
 7    1  0.3189267E-013  0.7246159E+02  0.7816164E-02  0.1226708E+00
        -11   -1    0    0    0    0  0.00000000000E+00  0.00000000000E+00  0.45593999997E+02  0.45594000000E+02  0.51100000000E-03 0.  1.
         11   -1    0    0    0    0 -0.00000000000E+00 -0.00000000000E+00 -0.45593999997E+02  0.45594000000E+02  0.51100000000E-03 0. -1.
    9900012    2    1    2    0    0  0.16040299549E+02 -0.68320760188E+01  0.68344644860E+01  0.72461591451E+02  0.70000027560E+02 0.  0.
         12    1    1    2    0    0 -0.16040299549E+02  0.68320760188E+01 -0.68344644860E+01  0.18726408549E+02  0.00000000000E+00 0. -1.
         11    1    3    3    0    0 -0.47059969093E+01  0.31058560595E+01 -0.57716622206E+00  0.56679687616E+01  0.51100000000E-03 0. -1.
        -11    1    3    3    0    0 -0.31048828472E+01  0.19610081045E+02  0.18600682686E+02  0.27206267159E+02  0.51100000000E-03 0.  1.
         12    1    3    3    0    0  0.23851179305E+02 -0.29548013123E+02 -0.11189051978E+02  0.39587355531E+02  0.00000000000E+00 0. -1.
</event>
<event>
 7    1  0.3189267E-013  0.7246153E+02  0.7816164E-02  0.1226708E+00
        -11   -1    0    0    0    0  0.00000000000E+00  0.00000000000E+00  0.45593999997E+02  0.45594000000E+02  0.51100000000E-03 0. -1.
         11   -1    0    0    0    0 -0.00000000000E+00 -0.00000000000E+00 -0.45593999997E+02  0.45594000000E+02  0.51100000000E-03 0.  1.
    9900012    2    1    2    0    0  0.16922496136E+02 -0.78791107619E+01 -0.14931515749E+01  0.72461527735E+02  0.69999944559E+02 0.  0.
         12    1    1    2    0    0 -0.16922496136E+02  0.78791107619E+01  0.14931515749E+01  0.18726472265E+02  0.00000000000E+00 0. -1.
         11    1    3    3    0    0  0.30712954905E+01 -0.64959001003E+01  0.27467972429E+02  0.28392236329E+02  0.51100000000E-03 0. -1.
        -11    1    3    3    0    0  0.32347898554E+01  0.98138287238E+01  0.98670668674E+00  0.10380206644E+02  0.51100000000E-03 0.  1.
        -12    1    3    3    0    0  0.10616410790E+02 -0.11197039385E+02 -0.29947830691E+02  0.33689084763E+02  0.00000000000E+00 0.  1.
</event>
<event>
 7    1  0.3189267E-013  0.7246159E+02  0.7816164E-02  0.1226708E+00
        -11   -1    0    0    0    0  0.00000000000E+00  0.00000000000E+00  0.45593999997E+02  0.45594000000E+02  0.51100000000E-03 0. -1.
         11   -1    0    0    0    0 -0.00000000000E+00 -0.00000000000E+00 -0.45593999997E+02  0.45594000000E+02  0.51100000000E-03 0.  1.
    9900012    2    1    2    0    0  0.91291546905E+01  0.12742825852E+02  0.10244874745E+02  0.72461587247E+02  0.70000022084E+02 0.  0.
         12    1    1    2    0    0 -0.91291546905E+01 -0.12742825852E+02 -0.10244874745E+02  0.18726412753E+02  0.00000000000E+00 0. -1.
         11    1    3    3    0    0  0.25933216440E+01  0.40260541684E+01  0.19486628843E+02  0.20066467882E+02  0.51100000000E-03 0. -1.
        -11    1    3    3    0    0 -0.65873213577E+01  0.26027487939E+02 -0.13818305298E+02  0.30195504511E+02  0.51100000000E-03 0.  1.
         12    1    3    3    0    0  0.13123154404E+02 -0.17310716256E+02  0.45765511998E+01  0.22199614855E+02  0.00000000000E+00 0. -1.
</event>
<event>
 7    1  0.3189267E-013  0.7246157E+02  0.7816164E-02  0.1226708E+00
        -11   -1    0    0    0    0  0.00000000000E+00  0.00000000000E+00  0.45593999997E+02  0.45594000000E+02  0.51100000000E-03 0. -1.
         11   -1    0    0    0    0 -0.00000000000E+00 -0.00000000000E+00 -0.45593999997E+02  0.45594000000E+02  0.51100000000E-03 0.  1.
    9900012    2    1    2    0    0  0.11059263295E+02 -0.73244584386E+01 -0.13218334192E+02  0.72461565346E+02  0.69999993554E+02 0.  0.
         12    1    1    2    0    0 -0.11059263295E+02  0.73244584386E+01  0.13218334192E+02  0.18726434654E+02  0.00000000000E+00 0. -1.
         11    1    3    3    0    0  0.89173478090E+01 -0.14330509903E+02 -0.27577359624E+02  0.32332543514E+02  0.51100000000E-03 0. -1.
        -11    1    3    3    0    0  0.14549582721E+02  0.23149502340E+01 -0.59360140345E+01  0.15883501340E+02  0.51100000000E-03 0.  1.
         12    1    3    3    0    0 -0.12407667235E+02  0.46911012301E+01  0.20295039466E+02  0.24245520492E+02  0.00000000000E+00 0. -1.
</event>
<event>
 7    1  0.3189267E-013  0.7246158E+02  0.7816164E-02  0.1226708E+00
        -11   -1    0    0    0    0  0.00000000000E+00  0.00000000000E+00  0.45593999997E+02  0.45594000000E+02  0.51100000000E-03 0. -1.
         11   -1    0    0    0    0 -0.00000000000E+00 -0.00000000000E+00 -0.45593999997E+02  0.45594000000E+02  0.51100000000E-03 0.  1.
    9900012    2    1    2    0    0 -0.52622210919E+00 -0.10497417544E+02 -0.15498589909E+02  0.72461575516E+02  0.70000006802E+02 0.  0.
         12    1    1    2    0    0  0.52622210919E+00  0.10497417544E+02  0.15498589909E+02  0.18726424484E+02  0.00000000000E+00 0. -1.
         11    1    3    3    0    0  0.20022865521E+02  0.16770065507E+02 -0.25068452720E+01  0.26238035640E+02  0.51100000000E-03 0. -1.
        -11    1    3    3    0    0  0.20639237740E+01  0.27598277353E+01  0.37334581913E+01  0.50808602422E+01  0.51100000000E-03 0.  1.
        -12    1    3    3    0    0 -0.22613011404E+02 -0.30027310786E+02 -0.16725202828E+02  0.41142679634E+02  0.00000000000E+00 0.  1.
</event>
<event>
 7    1  0.3189267E-013  0.7246079E+02  0.7816164E-02  0.1226710E+00
        -11   -1    0    0    0    0  0.00000000000E+00  0.00000000000E+00  0.45593999997E+02  0.45594000000E+02  0.51100000000E-03 0.  1.
         11   -1    0    0    0    0 -0.00000000000E+00 -0.00000000000E+00 -0.45593999997E+02  0.45594000000E+02  0.51100000000E-03 0. -1.
    9900012    2    1    2    0    0  0.12542090490E+02 -0.94192304719E+01 -0.10231445329E+02  0.72460789581E+02  0.69998982969E+02 0.  0.
         12    1    1    2    0    0 -0.12542090490E+02  0.94192304719E+01  0.10231445329E+02  0.18727210419E+02  0.00000000000E+00 0. -1.
         11    1    3    3    0    0 -0.97370874041E+01 -0.68554938695E+01 -0.66296378021E+01  0.13629408093E+02  0.51100000000E-03 0. -1.
        -11    1    3    3    0    0  0.89701584774E+01  0.63264369429E+00 -0.28791510955E+02  0.30163141158E+02  0.51100000000E-03 0.  1.
        -12    1    3    3    0    0  0.13309019417E+02 -0.31963802966E+01  0.25189703429E+02  0.28668240331E+02  0.00000000000E+00 0.  1.
</event>
<event>
 7    1  0.3189267E-013  0.7246164E+02  0.7816164E-02  0.1226708E+00
        -11   -1    0    0    0    0  0.00000000000E+00  0.00000000000E+00  0.45593999997E+02  0.45594000000E+02  0.51100000000E-03 0.  1.
         11   -1    0    0    0    0 -0.00000000000E+00 -0.00000000000E+00 -0.45593999997E+02  0.45594000000E+02  0.51100000000E-03 0. -1.
    9900012    2    1    2    0    0  0.82200858945E+01  0.10964994461E+02  0.12762279148E+02  0.72461636640E+02  0.70000086427E+02 0.  0.
         12    1    1    2    0    0 -0.82200858945E+01 -0.10964994461E+02 -0.12762279148E+02  0.18726363360E+02  0.00000000000E+00 0. -1.
         11    1    3    3    0    0 -0.25238879147E+01 -0.69463409154E+01  0.34625206077E+01  0.81615385522E+01  0.51100000000E-03 0. -1.
        -11    1    3    3    0    0  0.21062185893E+02  0.19357126818E+02  0.29797561034E+02  0.41306278906E+02  0.51100000000E-03 0.  1.
         12    1    3    3    0    0 -0.10318212084E+02 -0.14457914415E+01 -0.20497802493E+02  0.22993819182E+02  0.00000000000E+00 0. -1.
</event>
<event>
 7    1  0.3189267E-013  0.7246158E+02  0.7816164E-02  0.1226708E+00
        -11   -1    0    0    0    0  0.00000000000E+00  0.00000000000E+00  0.45593999997E+02  0.45594000000E+02  0.51100000000E-03 0. -1.
         11   -1    0    0    0    0 -0.00000000000E+00 -0.00000000000E+00 -0.45593999997E+02  0.45594000000E+02  0.51100000000E-03 0.  1.
    9900012    2    1    2    0    0  0.14726257965E+02 -0.72178975076E+01 -0.90398113443E+01  0.72461577298E+02  0.70000009123E+02 0.  0.
         12    1    1    2    0    0 -0.14726257965E+02  0.72178975076E+01  0.90398113443E+01  0.18726422702E+02  0.00000000000E+00 0. -1.
         11    1    3    3    0    0  0.83165002646E+01  0.15888282721E+01 -0.69460144487E+01  0.10951514457E+02  0.51100000000E-03 0. -1.
        -11    1    3    3    0    0 -0.12197590615E+02  0.90375302766E+01 -0.23516086714E+02  0.27990435954E+02  0.51100000000E-03 0.  1.
         12    1    3    3    0    0  0.18607348315E+02 -0.17844256056E+02  0.21422289818E+02  0.33519626886E+02  0.00000000000E+00 0. -1.
</event>
<event>
 7    1  0.3189267E-013  0.7246158E+02  0.7816164E-02  0.1226708E+00
        -11   -1    0    0    0    0  0.00000000000E+00  0.00000000000E+00  0.45593999997E+02  0.45594000000E+02  0.51100000000E-03 0.  1.
         11   -1    0    0    0    0 -0.00000000000E+00 -0.00000000000E+00 -0.45593999997E+02  0.45594000000E+02  0.51100000000E-03 0. -1.
    9900012    2    1    2    0    0 -0.78450695288E+01 -0.51289331465E+01  0.16211967351E+02  0.72461575981E+02  0.70000007409E+02 0.  0.
         12    1    1    2    0    0  0.78450695288E+01  0.51289331465E+01 -0.16211967351E+02  0.18726424019E+02  0.00000000000E+00 0. -1.
         11    1    3    3    0    0  0.20972146430E+02 -0.97613825009E+01  0.46038501476E+01  0.23586244946E+02  0.51100000000E-03 0. -1.
        -11    1    3    3    0    0  0.20121922046E+01 -0.81048611266E+01 -0.68061185176E+01  0.10773158352E+02  0.51100000000E-03 0.  1.
        -12    1    3    3    0    0 -0.30829408163E+02  0.12737310481E+02  0.18414235721E+02  0.38102172683E+02  0.00000000000E+00 0.  1.
</event>
<event>
 7    1  0.3189267E-013  0.7246158E+02  0.7816164E-02  0.1226708E+00
        -11   -1    0    0    0    0  0.00000000000E+00  0.00000000000E+00  0.45593999997E+02  0.45594000000E+02  0.51100000000E-03 0. -1.
         11   -1    0    0    0    0 -0.00000000000E+00 -0.00000000000E+00 -0.45593999997E+02  0.45594000000E+02  0.51100000000E-03 0.  1.
    9900012    2    1    2    0    0  0.67675364437E+01 -0.11533814965E+02 -0.13109165494E+02  0.72461583976E+02  0.70000017823E+02 0.  0.
         12    1    1    2    0    0 -0.67675364437E+01  0.11533814965E+02  0.13109165494E+02  0.18726416024E+02  0.00000000000E+00 0. -1.
         11    1    3    3    0    0 -0.14240094257E+02  0.22052898504E+01 -0.23243203999E+01  0.14596097196E+02  0.51100000000E-03 0. -1.
        -11    1    3    3    0    0 -0.17397460406E+01 -0.29260760825E+02 -0.54157450727E+01  0.29808541314E+02  0.51100000000E-03 0.  1.
        -12    1    3    3    0    0  0.22747376741E+02  0.15521656009E+02 -0.53691000212E+01  0.28056945466E+02  0.00000000000E+00 0.  1.
</event>
<event>
 7    1  0.3189267E-013  0.7246164E+02  0.7816164E-02  0.1226708E+00
        -11   -1    0    0    0    0  0.00000000000E+00  0.00000000000E+00  0.45593999997E+02  0.45594000000E+02  0.51100000000E-03 0.  1.
         11   -1    0    0    0    0 -0.00000000000E+00 -0.00000000000E+00 -0.45593999997E+02  0.45594000000E+02  0.51100000000E-03 0. -1.
    9900012    2    1    2    0    0  0.49037025875E+01  0.15179958898E+02  0.98081163649E+01  0.72461638959E+02  0.70000089448E+02 0.  0.
         12    1    1    2    0    0 -0.49037025875E+01 -0.15179958898E+02 -0.98081163649E+01  0.18726361041E+02  0.00000000000E+00 0. -1.
         11    1    3    3    0    0 -0.14612921965E+02  0.45915363917E+01 -0.17122409326E+02  0.22973824152E+02  0.51100000000E-03 0. -1.
        -11    1    3    3    0    0 -0.11805927913E+01 -0.19827816056E+01 -0.72443796286E+01  0.76030427263E+01  0.51100000000E-03 0.  1.
        -12    1    3    3    0    0  0.20697217344E+02  0.12571204112E+02  0.34174905320E+02  0.41884772080E+02  0.00000000000E+00 0.  1.
</event>
<event>
 7    1  0.3189267E-013  0.7246163E+02  0.7816164E-02  0.1226708E+00
        -11   -1    0    0    0    0  0.00000000000E+00  0.00000000000E+00  0.45593999997E+02  0.45594000000E+02  0.51100000000E-03 0. -1.
         11   -1    0    0    0    0 -0.00000000000E+00 -0.00000000000E+00 -0.45593999997E+02  0.45594000000E+02  0.51100000000E-03 0.  1.
    9900012    2    1    2    0    0  0.12243733327E+01 -0.16102121837E+02 -0.94815416331E+01  0.72461626901E+02  0.70000073741E+02 0.  0.
         12    1    1    2    0    0 -0.12243733327E+01  0.16102121837E+02  0.94815416331E+01  0.18726373099E+02  0.00000000000E+00 0. -1.
         11    1    3    3    0    0  0.96978822174E+01 -0.20101174752E+02 -0.55029016549E+00  0.22325074814E+02  0.51100000000E-03 0.  1.
        -11    1    3    3    0    0  0.17945390621E+02  0.11565207231E+02 -0.36854734740E+00  0.21352444596E+02  0.51100000000E-03 0. -1.
        -12    1    3    3    0    0 -0.26418899505E+02 -0.75661543159E+01 -0.85627041202E+01  0.28784107491E+02  0.00000000000E+00 0.  1.
</event>
<event>
 7    1  0.3189267E-013  0.7246160E+02  0.7816164E-02  0.1226708E+00
        -11   -1    0    0    0    0  0.00000000000E+00  0.00000000000E+00  0.45593999997E+02  0.45594000000E+02  0.51100000000E-03 0.  1.
         11   -1    0    0    0    0 -0.00000000000E+00 -0.00000000000E+00 -0.45593999997E+02  0.45594000000E+02  0.51100000000E-03 0. -1.
    9900012    2    1    2    0    0  0.75640002128E+00 -0.18709293285E+02  0.26114823837E+00  0.72461601665E+02  0.70000040866E+02 0.  0.
         12    1    1    2    0    0 -0.75640002128E+00  0.18709293285E+02 -0.26114823837E+00  0.18726398335E+02  0.00000000000E+00 0. -1.
         11    1    3    3    0    0  0.10189571573E+02 -0.84118259487E+01  0.23854311384E+01  0.13426707214E+02  0.51100000000E-03 0. -1.
        -11    1    3    3    0    0  0.13450704478E+02 -0.20315739817E+02  0.15124664773E+02  0.28677625774E+02  0.51100000000E-03 0.  1.
         12    1    3    3    0    0 -0.22883876030E+02  0.10018272481E+02 -0.17248947673E+02  0.30357268676E+02  0.00000000000E+00 0. -1.
</event>
<event>
 7    1  0.3189267E-013  0.7246146E+02  0.7816164E-02  0.1226708E+00
        -11   -1    0    0    0    0  0.00000000000E+00  0.00000000000E+00  0.45593999997E+02  0.45594000000E+02  0.51100000000E-03 0. -1.
         11   -1    0    0    0    0 -0.00000000000E+00 -0.00000000000E+00 -0.45593999997E+02  0.45594000000E+02  0.51100000000E-03 0.  1.
    9900012    2    1    2    0    0  0.13295716376E+02 -0.91047194265E+00 -0.13155927839E+02  0.72461455460E+02  0.69999850406E+02 0.  0.
         12    1    1    2    0    0 -0.13295716376E+02  0.91047194265E+00  0.13155927839E+02  0.18726544540E+02  0.00000000000E+00 0. -1.
         11    1    3    3    0    0 -0.13008139393E+01  0.50303161322E+01  0.13981246290E+02  0.14915476707E+02  0.51100000000E-03 0. -1.
        -11    1    3    3    0    0 -0.92726346859E+01  0.95824636816E+01  0.53319479954E+01  0.14360885555E+02  0.51100000000E-03 0.  1.
         12    1    3    3    0    0  0.23869165002E+02 -0.15523251756E+02 -0.32469122125E+02  0.43185093198E+02  0.00000000000E+00 0. -1.
</event>
<event>
 7    1  0.3189267E-013  0.7246142E+02  0.7816164E-02  0.1226708E+00
        -11   -1    0    0    0    0  0.00000000000E+00  0.00000000000E+00  0.45593999997E+02  0.45594000000E+02  0.51100000000E-03 0. -1.
         11   -1    0    0    0    0 -0.00000000000E+00 -0.00000000000E+00 -0.45593999997E+02  0.45594000000E+02  0.51100000000E-03 0.  1.
    9900012    2    1    2    0    0  0.10864555982E+02 -0.11126157106E+02  0.10433345145E+02  0.72461424243E+02  0.69999809741E+02 0.  0.
         12    1    1    2    0    0 -0.10864555982E+02  0.11126157106E+02 -0.10433345145E+02  0.18726575757E+02  0.00000000000E+00 0. -1.
         11    1    3    3    0    0  0.16140135915E+00  0.25424722957E+01  0.27317494332E+02  0.27436029461E+02  0.51100000000E-03 0. -1.
        -11    1    3    3    0    0 -0.96623692668E+01 -0.65166887388E+01  0.63829522820E+01  0.13287990520E+02  0.51100000000E-03 0.  1.
        -12    1    3    3    0    0  0.20365523890E+02 -0.71519406632E+01 -0.23267101468E+02  0.31737404262E+02  0.00000000000E+00 0.  1.
</event>
<event>
 7    1  0.3189267E-013  0.7246155E+02  0.7816164E-02  0.1226708E+00
        -11   -1    0    0    0    0  0.00000000000E+00  0.00000000000E+00  0.45593999997E+02  0.45594000000E+02  0.51100000000E-03 0.  1.
         11   -1    0    0    0    0 -0.00000000000E+00 -0.00000000000E+00 -0.45593999997E+02  0.45594000000E+02  0.51100000000E-03 0. -1.
    9900012    2    1    2    0    0  0.14809391420E+02  0.78406586628E+01  0.83597712476E+01  0.72461554053E+02  0.69999978843E+02 0.  0.
         12    1    1    2    0    0 -0.14809391420E+02 -0.78406586628E+01 -0.83597712476E+01  0.18726445947E+02  0.00000000000E+00 0. -1.
         11    1    3    3    0    0 -0.63957431663E+00  0.37469670520E+01  0.11702988105E+01  0.39772373530E+01  0.51100000000E-03 0. -1.
        -11    1    3    3    0    0 -0.87820656560E+01  0.27341216968E+02 -0.10442932319E+02  0.30556859429E+02  0.51100000000E-03 0.  1.
         12    1    3    3    0    0  0.24231031392E+02 -0.23247525357E+02  0.17632404756E+02  0.37927457271E+02  0.00000000000E+00 0. -1.
</event>
<event>
 7    1  0.3189267E-013  0.7246148E+02  0.7816164E-02  0.1226708E+00
        -11   -1    0    0    0    0  0.00000000000E+00  0.00000000000E+00  0.45593999997E+02  0.45594000000E+02  0.51100000000E-03 0.  1.
         11   -1    0    0    0    0 -0.00000000000E+00 -0.00000000000E+00 -0.45593999997E+02  0.45594000000E+02  0.51100000000E-03 0. -1.
    9900012    2    1    2    0    0  0.16760764091E+02 -0.66788618507E+01  0.50151873443E+01  0.72461481033E+02  0.69999883720E+02 0.  0.
         12    1    1    2    0    0 -0.16760764091E+02  0.66788618507E+01 -0.50151873443E+01  0.18726518967E+02  0.00000000000E+00 0. -1.
         11    1    3    3    0    0 -0.12826511912E+02 -0.67881456326E+01  0.75154077110E+01  0.16342572695E+02  0.51100000000E-03 0. -1.
        -11    1    3    3    0    0 -0.67746815519E+01 -0.31727725438E+01 -0.15623550738E+02  0.17322186169E+02  0.51100000000E-03 0.  1.
        -12    1    3    3    0    0  0.36361957555E+02  0.32820563258E+01  0.13123330371E+02  0.38796722169E+02  0.00000000000E+00 0.  1.
</event>
<event>
 7    1  0.3189267E-013  0.7246153E+02  0.7816164E-02  0.1226708E+00
        -11   -1    0    0    0    0  0.00000000000E+00  0.00000000000E+00  0.45593999997E+02  0.45594000000E+02  0.51100000000E-03 0.  1.
         11   -1    0    0    0    0 -0.00000000000E+00 -0.00000000000E+00 -0.45593999997E+02  0.45594000000E+02  0.51100000000E-03 0. -1.
    9900012    2    1    2    0    0  0.76128101372E+01 -0.16330422586E+02  0.51032577492E+01  0.72461526235E+02  0.69999942604E+02 0.  0.
         12    1    1    2    0    0 -0.76128101372E+01  0.16330422586E+02 -0.51032577492E+01  0.18726473765E+02  0.00000000000E+00 0. -1.
         11    1    3    3    0    0 -0.75027463996E+01 -0.13816885517E+02 -0.18382899034E+02  0.24189429635E+02  0.51100000000E-03 0. -1.
        -11    1    3    3    0    0  0.73043173660E+01 -0.13925957191E+02 -0.50873443194E+01  0.16527746620E+02  0.51100000000E-03 0.  1.
        -12    1    3    3    0    0  0.78112391708E+01  0.11412420121E+02  0.28573501102E+02  0.31744349980E+02  0.00000000000E+00 0.  1.
</event>
<event>
 7    1  0.3189267E-013  0.7246155E+02  0.7816164E-02  0.1226708E+00
        -11   -1    0    0    0    0  0.00000000000E+00  0.00000000000E+00  0.45593999997E+02  0.45594000000E+02  0.51100000000E-03 0. -1.
         11   -1    0    0    0    0 -0.00000000000E+00 -0.00000000000E+00 -0.45593999997E+02  0.45594000000E+02  0.51100000000E-03 0.  1.
    9900012    2    1    2    0    0 -0.97170836700E+01  0.13144882059E+02 -0.91362114642E+01  0.72461548139E+02  0.69999971138E+02 0.  0.
         12    1    1    2    0    0  0.97170836700E+01 -0.13144882059E+02  0.91362114642E+01  0.18726451861E+02  0.00000000000E+00 0. -1.
         11    1    3    3    0    0  0.14001759309E+02  0.44548973589E+00  0.13411917890E+02  0.19394000789E+02  0.51100000000E-03 0. -1.
        -11    1    3    3    0    0  0.69580792539E+01  0.15231019408E+02 -0.11712624845E+02  0.20434881946E+02  0.51100000000E-03 0.  1.
        -12    1    3    3    0    0 -0.30676922233E+02 -0.25316270845E+01 -0.10835504508E+02  0.32632665404E+02  0.00000000000E+00 0.  1.
</event>
<event>
 7    1  0.3189267E-013  0.7246157E+02  0.7816164E-02  0.1226708E+00
        -11   -1    0    0    0    0  0.00000000000E+00  0.00000000000E+00  0.45593999997E+02  0.45594000000E+02  0.51100000000E-03 0. -1.
         11   -1    0    0    0    0 -0.00000000000E+00 -0.00000000000E+00 -0.45593999997E+02  0.45594000000E+02  0.51100000000E-03 0.  1.
    9900012    2    1    2    0    0 -0.39428010047E+01  0.52599764909E+01 -0.17534710100E+02  0.72461572398E+02  0.70000002741E+02 0.  0.
         12    1    1    2    0    0  0.39428010047E+01 -0.52599764909E+01  0.17534710100E+02  0.18726427602E+02  0.00000000000E+00 0. -1.
         11    1    3    3    0    0 -0.17352923982E+02  0.27525921067E+02  0.81396162172E+01  0.33541819475E+02  0.51100000000E-03 0. -1.
        -11    1    3    3    0    0  0.31677800497E+01 -0.12206941674E+02 -0.46074565662E+01  0.13426574833E+02  0.51100000000E-03 0.  1.
        -12    1    3    3    0    0  0.10242342928E+02 -0.10059002902E+02 -0.21066869751E+02  0.25493178090E+02  0.00000000000E+00 0.  1.
</event>
<event>
 7    1  0.3189267E-013  0.7246164E+02  0.7816164E-02  0.1226708E+00
        -11   -1    0    0    0    0  0.00000000000E+00  0.00000000000E+00  0.45593999997E+02  0.45594000000E+02  0.51100000000E-03 0.  1.
         11   -1    0    0    0    0 -0.00000000000E+00 -0.00000000000E+00 -0.45593999997E+02  0.45594000000E+02  0.51100000000E-03 0. -1.
    9900012    2    1    2    0    0  0.11883479545E+02  0.71089937357E+01  0.12606417972E+02  0.72461637510E+02  0.70000087560E+02 0.  0.
         12    1    1    2    0    0 -0.11883479545E+02 -0.71089937357E+01 -0.12606417972E+02  0.18726362490E+02  0.00000000000E+00 0. -1.
         11    1    3    3    0    0  0.71891825926E+01  0.35875753201E+02  0.85610412679E+01  0.37577193109E+02  0.51100000000E-03 0. -1.
        -11    1    3    3    0    0  0.10070505581E+02 -0.74790999839E+01  0.30308826423E+01  0.12904970712E+02  0.51100000000E-03 0.  1.
        -12    1    3    3    0    0 -0.53762086288E+01 -0.21287659482E+02  0.10144940619E+01  0.21979473688E+02  0.00000000000E+00 0.  1.
</event>
<event>
 7    1  0.3189267E-013  0.7246159E+02  0.7816164E-02  0.1226708E+00
        -11   -1    0    0    0    0  0.00000000000E+00  0.00000000000E+00  0.45593999997E+02  0.45594000000E+02  0.51100000000E-03 0. -1.
         11   -1    0    0    0    0 -0.00000000000E+00 -0.00000000000E+00 -0.45593999997E+02  0.45594000000E+02  0.51100000000E-03 0.  1.
    9900012    2    1    2    0    0  0.46001008565E+01 -0.83712379566E+01 -0.16107134963E+02  0.72461592189E+02  0.70000028521E+02 0.  0.
         12    1    1    2    0    0 -0.46001008565E+01  0.83712379566E+01  0.16107134963E+02  0.18726407811E+02  0.00000000000E+00 0. -1.
         11    1    3    3    0    0 -0.17702431124E+02 -0.10362005271E+02 -0.89593571886E+01  0.22383415790E+02  0.51100000000E-03 0. -1.
        -11    1    3    3    0    0 -0.71360164690E+01 -0.28401861586E+01  0.12275331266E+02  0.14480094835E+02  0.51100000000E-03 0.  1.
        -12    1    3    3    0    0  0.29438548449E+02  0.48309534725E+01 -0.19423109040E+02  0.35598081564E+02  0.00000000000E+00 0.  1.
</event>
<event>
 7    1  0.3189267E-013  0.7246157E+02  0.7816164E-02  0.1226708E+00
        -11   -1    0    0    0    0  0.00000000000E+00  0.00000000000E+00  0.45593999997E+02  0.45594000000E+02  0.51100000000E-03 0. -1.
         11   -1    0    0    0    0 -0.00000000000E+00 -0.00000000000E+00 -0.45593999997E+02  0.45594000000E+02  0.51100000000E-03 0.  1.
    9900012    2    1    2    0    0 -0.17560417992E+01  0.17222852124E+02 -0.71392605996E+01  0.72461565209E+02  0.69999993375E+02 0.  0.
         12    1    1    2    0    0  0.17560417992E+01 -0.17222852124E+02  0.71392605996E+01  0.18726434791E+02  0.00000000000E+00 0. -1.
         11    1    3    3    0    0 -0.78772371791E+01  0.39087015207E+01  0.24311409553E+01  0.91235552149E+01  0.51100000000E-03 0. -1.
        -11    1    3    3    0    0 -0.25482879225E+02 -0.82534620785E+00  0.46352702013E+01  0.25914167169E+02  0.51100000000E-03 0.  1.
         12    1    3    3    0    0  0.31604074605E+02  0.14139496811E+02 -0.14205671756E+02  0.37423842825E+02  0.00000000000E+00 0. -1.
</event>
<event>
 7    1  0.3189267E-013  0.7246162E+02  0.7816164E-02  0.1226708E+00
        -11   -1    0    0    0    0  0.00000000000E+00  0.00000000000E+00  0.45593999997E+02  0.45594000000E+02  0.51100000000E-03 0. -1.
         11   -1    0    0    0    0 -0.00000000000E+00 -0.00000000000E+00 -0.45593999997E+02  0.45594000000E+02  0.51100000000E-03 0.  1.
    9900012    2    1    2    0    0  0.15149753054E+02 -0.80149870466E+01 -0.75446764289E+01  0.72461623485E+02  0.70000069291E+02 0.  0.
         12    1    1    2    0    0 -0.15149753054E+02  0.80149870466E+01  0.75446764289E+01  0.18726376515E+02  0.00000000000E+00 0. -1.
         11    1    3    3    0    0 -0.16762655830E+02 -0.69220267087E+01  0.91665846810E+01  0.20320614145E+02  0.51100000000E-03 0. -1.
        -11    1    3    3    0    0  0.10849107370E+02 -0.12056455538E+02  0.78144054631E+01  0.18003504766E+02  0.51100000000E-03 0.  1.
        -12    1    3    3    0    0  0.21063301515E+02  0.10963495200E+02 -0.24525666573E+02  0.34137504574E+02  0.00000000000E+00 0.  1.
</event>
<event>
 7    1  0.3189267E-013  0.7246157E+02  0.7816164E-02  0.1226708E+00
        -11   -1    0    0    0    0  0.00000000000E+00  0.00000000000E+00  0.45593999997E+02  0.45594000000E+02  0.51100000000E-03 0.  1.
         11   -1    0    0    0    0 -0.00000000000E+00 -0.00000000000E+00 -0.45593999997E+02  0.45594000000E+02  0.51100000000E-03 0. -1.
    9900012    2    1    2    0    0  0.70636867075E+01 -0.77995361903E+00  0.17325568265E+02  0.72461566456E+02  0.69999995000E+02 0.  0.
         12    1    1    2    0    0 -0.70636867075E+01  0.77995361903E+00 -0.17325568265E+02  0.18726433544E+02  0.00000000000E+00 0. -1.
         11    1    3    3    0    0  0.16491823884E+02  0.12230013182E+02 -0.77910544472E+01  0.21960282492E+02  0.51100000000E-03 0. -1.
        -11    1    3    3    0    0 -0.66737362483E+01  0.82765412374E+00 -0.10343457508E+02  0.12337377369E+02  0.51100000000E-03 0.  1.
        -12    1    3    3    0    0 -0.27544009284E+01 -0.13837620925E+02  0.35460080221E+02  0.38163906595E+02  0.00000000000E+00 0.  1.
</event>
<event>
 7    1  0.3189267E-013  0.7246164E+02  0.7816164E-02  0.1226708E+00
        -11   -1    0    0    0    0  0.00000000000E+00  0.00000000000E+00  0.45593999997E+02  0.45594000000E+02  0.51100000000E-03 0.  1.
         11   -1    0    0    0    0 -0.00000000000E+00 -0.00000000000E+00 -0.45593999997E+02  0.45594000000E+02  0.51100000000E-03 0. -1.
    9900012    2    1    2    0    0 -0.12975874385E+02  0.17252802569E+01  0.13391291112E+02  0.72461639284E+02  0.70000089871E+02 0.  0.
         12    1    1    2    0    0  0.12975874385E+02 -0.17252802569E+01 -0.13391291112E+02  0.18726360716E+02  0.00000000000E+00 0. -1.
         11    1    3    3    0    0 -0.78717058435E+01 -0.18974085257E+02 -0.35210988290E+01  0.20841732209E+02  0.51100000000E-03 0. -1.
        -11    1    3    3    0    0 -0.23859802075E+02  0.71781324454E+01  0.13218285270E+02  0.28205297485E+02  0.51100000000E-03 0.  1.
        -12    1    3    3    0    0  0.18755633534E+02  0.13521233069E+02  0.36941046716E+01  0.23414609590E+02  0.00000000000E+00 0.  1.
</event>
<event>
 7    1  0.3189267E-013  0.7246137E+02  0.7816164E-02  0.1226709E+00
        -11   -1    0    0    0    0  0.00000000000E+00  0.00000000000E+00  0.45593999997E+02  0.45594000000E+02  0.51100000000E-03 0. -1.
         11   -1    0    0    0    0 -0.00000000000E+00 -0.00000000000E+00 -0.45593999997E+02  0.45594000000E+02  0.51100000000E-03 0.  1.
    9900012    2    1    2    0    0  0.10992456731E+02 -0.27211146892E+01 -0.14914699166E+02  0.72461365990E+02  0.69999733855E+02 0.  0.
         12    1    1    2    0    0 -0.10992456731E+02  0.27211146892E+01  0.14914699166E+02  0.18726634010E+02  0.00000000000E+00 0. -1.
         11    1    3    3    0    0  0.15178558879E+02 -0.16464203642E+01 -0.19472443298E+02  0.24744199278E+02  0.51100000000E-03 0.  1.
        -11    1    3    3    0    0 -0.12515966289E+02  0.13504796728E+02  0.18344308034E+02  0.25991202056E+02  0.51100000000E-03 0. -1.
         12    1    3    3    0    0  0.83298641410E+01 -0.14579491053E+02 -0.13786563902E+02  0.21725964655E+02  0.00000000000E+00 0. -1.
</event>
<event>
 7    1  0.3189267E-013  0.7246160E+02  0.7816164E-02  0.1226708E+00
        -11   -1    0    0    0    0  0.00000000000E+00  0.00000000000E+00  0.45593999997E+02  0.45594000000E+02  0.51100000000E-03 0. -1.
         11   -1    0    0    0    0 -0.00000000000E+00 -0.00000000000E+00 -0.45593999997E+02  0.45594000000E+02  0.51100000000E-03 0.  1.
    9900012    2    1    2    0    0  0.85662025714E+01  0.66453299388E+01 -0.15268845374E+02  0.72461604844E+02  0.70000045007E+02 0.  0.
         12    1    1    2    0    0 -0.85662025714E+01 -0.66453299388E+01  0.15268845374E+02  0.18726395156E+02  0.00000000000E+00 0. -1.
         11    1    3    3    0    0 -0.21069144578E+01 -0.26033878350E+01 -0.28302786075E+01  0.43848824396E+01  0.51100000000E-03 0. -1.
        -11    1    3    3    0    0 -0.17029309879E+02 -0.57221925600E+01 -0.27753891358E+02  0.33060843432E+02  0.51100000000E-03 0.  1.
         12    1    3    3    0    0  0.27702426908E+02  0.14970910334E+02  0.15315324592E+02  0.35015878972E+02  0.00000000000E+00 0. -1.
</event>
<event>
 7    1  0.3189267E-013  0.7246160E+02  0.7816164E-02  0.1226708E+00
        -11   -1    0    0    0    0  0.00000000000E+00  0.00000000000E+00  0.45593999997E+02  0.45594000000E+02  0.51100000000E-03 0.  1.
         11   -1    0    0    0    0 -0.00000000000E+00 -0.00000000000E+00 -0.45593999997E+02  0.45594000000E+02  0.51100000000E-03 0. -1.
    9900012    2    1    2    0    0 -0.75010700626E+01  0.83646374540E+01  0.14981480304E+02  0.72461602484E+02  0.70000041933E+02 0.  0.
         12    1    1    2    0    0  0.75010700626E+01 -0.83646374540E+01 -0.14981480304E+02  0.18726397516E+02  0.00000000000E+00 0. -1.
         11    1    3    3    0    0 -0.14510885598E+02 -0.15861638869E+01 -0.14421024951E+02  0.20519446329E+02  0.51100000000E-03 0. -1.
        -11    1    3    3    0    0 -0.57630713105E+01 -0.12893377955E+02  0.19237566170E+02  0.23864956283E+02  0.51100000000E-03 0.  1.
         12    1    3    3    0    0  0.12772886846E+02  0.22844179295E+02  0.10164939086E+02  0.28077199872E+02  0.00000000000E+00 0. -1.
</event>
<event>
 7    1  0.3189267E-013  0.7246102E+02  0.7816164E-02  0.1226709E+00
        -11   -1    0    0    0    0  0.00000000000E+00  0.00000000000E+00  0.45593999997E+02  0.45594000000E+02  0.51100000000E-03 0.  1.
         11   -1    0    0    0    0 -0.00000000000E+00 -0.00000000000E+00 -0.45593999997E+02  0.45594000000E+02  0.51100000000E-03 0. -1.
    9900012    2    1    2    0    0 -0.52833319213E+01 -0.17548808732E+02 -0.38503944300E+01  0.72461018894E+02  0.69999281695E+02 0.  0.
         12    1    1    2    0    0  0.52833319213E+01  0.17548808732E+02  0.38503944300E+01  0.18726981106E+02  0.00000000000E+00 0. -1.
         11    1    3    3    0    0 -0.24432837551E+02 -0.41294405260E+01 -0.15135621891E+02  0.29036233917E+02  0.51100000000E-03 0. -1.
        -11    1    3    3    0    0  0.18402169583E+01 -0.22335119261E+02  0.49656365972E+01  0.22954335058E+02  0.51100000000E-03 0.  1.
        -12    1    3    3    0    0  0.17309288671E+02  0.89157510556E+01  0.63195908635E+01  0.20470449918E+02  0.00000000000E+00 0.  1.
</event>
<event>
 7    1  0.3189267E-013  0.7246157E+02  0.7816164E-02  0.1226708E+00
        -11   -1    0    0    0    0  0.00000000000E+00  0.00000000000E+00  0.45593999997E+02  0.45594000000E+02  0.51100000000E-03 0. -1.
         11   -1    0    0    0    0 -0.00000000000E+00 -0.00000000000E+00 -0.45593999997E+02  0.45594000000E+02  0.51100000000E-03 0.  1.
    9900012    2    1    2    0    0 -0.97472946595E+01 -0.39973628992E+01 -0.15481943927E+02  0.72461568116E+02  0.69999997163E+02 0.  0.
         12    1    1    2    0    0  0.97472946595E+01  0.39973628992E+01  0.15481943927E+02  0.18726431884E+02  0.00000000000E+00 0. -1.
         11    1    3    3    0    0 -0.80569527938E+01  0.19517926505E+02  0.35476545333E+01  0.21411440782E+02  0.51100000000E-03 0. -1.
        -11    1    3    3    0    0  0.10614898978E+02  0.74744588518E+01 -0.70134605175E+00  0.13001365389E+02  0.51100000000E-03 0.  1.
        -12    1    3    3    0    0 -0.12305240844E+02 -0.30989748256E+02 -0.18328252409E+02  0.38048761945E+02  0.00000000000E+00 0.  1.
</event>
<event>
 7    1  0.3189267E-013  0.7246161E+02  0.7816164E-02  0.1226708E+00
        -11   -1    0    0    0    0  0.00000000000E+00  0.00000000000E+00  0.45593999997E+02  0.45594000000E+02  0.51100000000E-03 0. -1.
         11   -1    0    0    0    0 -0.00000000000E+00 -0.00000000000E+00 -0.45593999997E+02  0.45594000000E+02  0.51100000000E-03 0.  1.
    9900012    2    1    2    0    0 -0.10160136393E+02  0.70220639468E+01 -0.14076215446E+02  0.72461612338E+02  0.70000054769E+02 0.  0.
         12    1    1    2    0    0  0.10160136393E+02 -0.70220639468E+01  0.14076215446E+02  0.18726387662E+02  0.00000000000E+00 0. -1.
         11    1    3    3    0    0 -0.12601758173E+02 -0.32382454439E+01 -0.67546201233E+01  0.14659994403E+02  0.51100000000E-03 0. -1.
        -11    1    3    3    0    0  0.31124447290E+01  0.33474751419E+02 -0.80370629039E+01  0.34566467495E+02  0.51100000000E-03 0.  1.
         12    1    3    3    0    0 -0.67082294900E+00 -0.23214442028E+02  0.71546758143E+00  0.23235150440E+02  0.00000000000E+00 0. -1.
</event>
<event>
 7    1  0.3189267E-013  0.7246147E+02  0.7816164E-02  0.1226708E+00
        -11   -1    0    0    0    0  0.00000000000E+00  0.00000000000E+00  0.45593999997E+02  0.45594000000E+02  0.51100000000E-03 0.  1.
         11   -1    0    0    0    0 -0.00000000000E+00 -0.00000000000E+00 -0.45593999997E+02  0.45594000000E+02  0.51100000000E-03 0. -1.
    9900012    2    1    2    0    0  0.13236591090E+02  0.15298179694E+01 -0.13158083306E+02  0.72461472212E+02  0.69999872229E+02 0.  0.
         12    1    1    2    0    0 -0.13236591090E+02 -0.15298179694E+01  0.13158083306E+02  0.18726527788E+02  0.00000000000E+00 0. -1.
         11    1    3    3    0    0  0.19015282697E+02  0.67366123330E+01 -0.40980733135E+01  0.20585361957E+02  0.51100000000E-03 0. -1.
        -11    1    3    3    0    0 -0.15675329118E+01  0.10041386166E+02  0.17919564534E+02  0.20600907478E+02  0.51100000000E-03 0.  1.
         12    1    3    3    0    0 -0.42111586953E+01 -0.15248180530E+02 -0.26979574527E+02  0.31275202776E+02  0.00000000000E+00 0. -1.
</event>
<event>
 7    1  0.3189267E-013  0.7246157E+02  0.7816164E-02  0.1226708E+00
        -11   -1    0    0    0    0  0.00000000000E+00  0.00000000000E+00  0.45593999997E+02  0.45594000000E+02  0.51100000000E-03 0.  1.
         11   -1    0    0    0    0 -0.00000000000E+00 -0.00000000000E+00 -0.45593999997E+02  0.45594000000E+02  0.51100000000E-03 0. -1.
    9900012    2    1    2    0    0 -0.62482589893E+01 -0.77718428586E+01  0.15850460050E+02  0.72461565058E+02  0.69999993179E+02 0.  0.
         12    1    1    2    0    0  0.62482589893E+01  0.77718428586E+01 -0.15850460050E+02  0.18726434942E+02  0.00000000000E+00 0. -1.
         11    1    3    3    0    0  0.68574419090E+01  0.14049547004E+02 -0.31303753961E+01  0.15944075104E+02  0.51100000000E-03 0. -1.
        -11    1    3    3    0    0  0.12088759894E+02 -0.98335314222E+01  0.23555830313E+02  0.28243824068E+02  0.51100000000E-03 0.  1.
        -12    1    3    3    0    0 -0.25194460792E+02 -0.11987858440E+02 -0.45749948664E+01  0.28273665886E+02  0.00000000000E+00 0.  1.
</event>
<event>
 7    1  0.3189267E-013  0.7246159E+02  0.7816164E-02  0.1226708E+00
        -11   -1    0    0    0    0  0.00000000000E+00  0.00000000000E+00  0.45593999997E+02  0.45594000000E+02  0.51100000000E-03 0.  1.
         11   -1    0    0    0    0 -0.00000000000E+00 -0.00000000000E+00 -0.45593999997E+02  0.45594000000E+02  0.51100000000E-03 0. -1.
    9900012    2    1    2    0    0 -0.39823289014E+01  0.18221006924E+02  0.16776336606E+01  0.72461588398E+02  0.70000023583E+02 0.  0.
         12    1    1    2    0    0  0.39823289014E+01 -0.18221006924E+02 -0.16776336606E+01  0.18726411602E+02  0.00000000000E+00 0. -1.
         11    1    3    3    0    0  0.55236933987E+01 -0.61503002037E+01 -0.11122272603E+02  0.13857933810E+02  0.51100000000E-03 0. -1.
        -11    1    3    3    0    0 -0.16659332402E+02 -0.11733736273E+02  0.41872392349E+01  0.20802569448E+02  0.51100000000E-03 0.  1.
         12    1    3    3    0    0  0.71533101014E+01  0.36105043400E+02  0.86126670289E+01  0.37801085139E+02  0.00000000000E+00 0. -1.
</event>
<event>
 7    1  0.3189267E-013  0.7246154E+02  0.7816164E-02  0.1226708E+00
        -11   -1    0    0    0    0  0.00000000000E+00  0.00000000000E+00  0.45593999997E+02  0.45594000000E+02  0.51100000000E-03 0. -1.
         11   -1    0    0    0    0 -0.00000000000E+00 -0.00000000000E+00 -0.45593999997E+02  0.45594000000E+02  0.51100000000E-03 0.  1.
    9900012    2    1    2    0    0  0.65738284183E+01  0.17503207592E+02 -0.10501982816E+01  0.72461537106E+02  0.69999956766E+02 0.  0.
         12    1    1    2    0    0 -0.65738284183E+01 -0.17503207592E+02  0.10501982816E+01  0.18726462894E+02  0.00000000000E+00 0. -1.
         11    1    3    3    0    0 -0.65910174738E+01 -0.80781351447E+01  0.44462283005E+00  0.10435299156E+02  0.51100000000E-03 0. -1.
        -11    1    3    3    0    0  0.32158061954E+02  0.38610583032E+01 -0.56409272179E+01  0.32876568860E+02  0.51100000000E-03 0.  1.
         12    1    3    3    0    0 -0.18993216061E+02  0.21720284434E+02  0.41461061062E+01  0.29149669090E+02  0.00000000000E+00 0. -1.
</event>
<event>
 7    1  0.3189267E-013  0.7246155E+02  0.7816164E-02  0.1226708E+00
        -11   -1    0    0    0    0  0.00000000000E+00  0.00000000000E+00  0.45593999997E+02  0.45594000000E+02  0.51100000000E-03 0.  1.
         11   -1    0    0    0    0 -0.00000000000E+00 -0.00000000000E+00 -0.45593999997E+02  0.45594000000E+02  0.51100000000E-03 0. -1.
    9900012    2    1    2    0    0 -0.25304236886E+01 -0.12053602380E+02  0.14106300396E+02  0.72461545844E+02  0.69999968149E+02 0.  0.
         12    1    1    2    0    0  0.25304236886E+01  0.12053602380E+02 -0.14106300396E+02  0.18726454156E+02  0.00000000000E+00 0. -1.
         11    1    3    3    0    0  0.17395504220E+02 -0.12174418492E+01 -0.16772239940E+02  0.24194911956E+02  0.51100000000E-03 0. -1.
        -11    1    3    3    0    0  0.17669739647E+01 -0.14275677305E+02  0.76269795224E+01  0.16281522546E+02  0.51100000000E-03 0.  1.
         12    1    3    3    0    0 -0.21692901873E+02  0.34395167738E+01  0.23251560813E+02  0.31985111342E+02  0.00000000000E+00 0. -1.
</event>
<event>
 7    1  0.3189267E-013  0.7246152E+02  0.7816164E-02  0.1226708E+00
        -11   -1    0    0    0    0  0.00000000000E+00  0.00000000000E+00  0.45593999997E+02  0.45594000000E+02  0.51100000000E-03 0. -1.
         11   -1    0    0    0    0 -0.00000000000E+00 -0.00000000000E+00 -0.45593999997E+02  0.45594000000E+02  0.51100000000E-03 0.  1.
    9900012    2    1    2    0    0 -0.55041368752E+01  0.15791962432E+02 -0.84261106643E+01  0.72461522993E+02  0.69999938381E+02 0.  0.
         12    1    1    2    0    0  0.55041368752E+01 -0.15791962432E+02  0.84261106643E+01  0.18726477007E+02  0.00000000000E+00 0. -1.
         11    1    3    3    0    0  0.13698662263E+02  0.71484560640E+01  0.81514308078E+01  0.17469962689E+02  0.51100000000E-03 0. -1.
        -11    1    3    3    0    0  0.15232145700E+02  0.76022689887E+01 -0.10520849989E+02  0.20012522109E+02  0.51100000000E-03 0.  1.
         12    1    3    3    0    0 -0.34434944838E+02  0.10412373789E+01 -0.60566914833E+01  0.34979038195E+02  0.00000000000E+00 0. -1.
</event>
<event>
 7    1  0.3189267E-013  0.7246157E+02  0.7816164E-02  0.1226708E+00
        -11   -1    0    0    0    0  0.00000000000E+00  0.00000000000E+00  0.45593999997E+02  0.45594000000E+02  0.51100000000E-03 0.  1.
         11   -1    0    0    0    0 -0.00000000000E+00 -0.00000000000E+00 -0.45593999997E+02  0.45594000000E+02  0.51100000000E-03 0. -1.
    9900012    2    1    2    0    0 -0.28323884186E+01  0.39268501687E+01  0.18089681127E+02  0.72461571091E+02  0.70000001038E+02 0.  0.
         12    1    1    2    0    0  0.28323884186E+01 -0.39268501687E+01 -0.18089681127E+02  0.18726428909E+02  0.00000000000E+00 0. -1.
         11    1    3    3    0    0 -0.14677218627E+02 -0.20750273277E+02  0.15367568313E+02  0.29701123612E+02  0.51100000000E-03 0. -1.
        -11    1    3    3    0    0 -0.41060252024E+00 -0.71504118404E+01  0.47508522207E+01  0.85946251227E+01  0.51100000000E-03 0.  1.
        -12    1    3    3    0    0  0.12255432728E+02  0.31827535286E+02 -0.20287394067E+01  0.34165822357E+02  0.00000000000E+00 0.  1.
</event>
<event>
 7    1  0.3189267E-013  0.7246158E+02  0.7816164E-02  0.1226708E+00
        -11   -1    0    0    0    0  0.00000000000E+00  0.00000000000E+00  0.45593999997E+02  0.45594000000E+02  0.51100000000E-03 0. -1.
         11   -1    0    0    0    0 -0.00000000000E+00 -0.00000000000E+00 -0.45593999997E+02  0.45594000000E+02  0.51100000000E-03 0.  1.
    9900012    2    1    2    0    0 -0.10983509959E+02  0.32148782016E+01 -0.14822483347E+02  0.72461576278E+02  0.70000007795E+02 0.  0.
         12    1    1    2    0    0  0.10983509959E+02 -0.32148782016E+01  0.14822483347E+02  0.18726423722E+02  0.00000000000E+00 0. -1.
         11    1    3    3    0    0  0.69432004643E+01 -0.12666764419E+01 -0.75322382697E+01  0.10322166222E+02  0.51100000000E-03 0. -1.
        -11    1    3    3    0    0 -0.18662326806E+02  0.27250682344E+02 -0.17266812634E+02  0.37269625016E+02  0.51100000000E-03 0.  1.
         12    1    3    3    0    0  0.73561638337E+00 -0.22769127701E+02  0.99765675571E+01  0.24869785040E+02  0.00000000000E+00 0. -1.
</event>
<event>
 7    1  0.3189267E-013  0.7246165E+02  0.7816164E-02  0.1226708E+00
        -11   -1    0    0    0    0  0.00000000000E+00  0.00000000000E+00  0.45593999997E+02  0.45594000000E+02  0.51100000000E-03 0.  1.
         11   -1    0    0    0    0 -0.00000000000E+00 -0.00000000000E+00 -0.45593999997E+02  0.45594000000E+02  0.51100000000E-03 0. -1.
    9900012    2    1    2    0    0 -0.49204404367E+01  0.66389881073E-01  0.18068237371E+02  0.72461645753E+02  0.70000098299E+02 0.  0.
         12    1    1    2    0    0  0.49204404367E+01 -0.66389881073E-01 -0.18068237371E+02  0.18726354247E+02  0.00000000000E+00 0. -1.
         11    1    3    3    0    0  0.21200278487E+02  0.16386893054E+01 -0.53063582116E+00  0.21270135994E+02  0.51100000000E-03 0. -1.
        -11    1    3    3    0    0 -0.66532683433E+00 -0.12323333560E+01  0.24921207536E+02  0.24960526649E+02  0.51100000000E-03 0.  1.
        -12    1    3    3    0    0 -0.25455392089E+02 -0.33996606829E+00 -0.63223343442E+01  0.26230983110E+02  0.00000000000E+00 0.  1.
</event>
<event>
 7    1  0.3189267E-013  0.7246163E+02  0.7816164E-02  0.1226708E+00
        -11   -1    0    0    0    0  0.00000000000E+00  0.00000000000E+00  0.45593999997E+02  0.45594000000E+02  0.51100000000E-03 0.  1.
         11   -1    0    0    0    0 -0.00000000000E+00 -0.00000000000E+00 -0.45593999997E+02  0.45594000000E+02  0.51100000000E-03 0. -1.
    9900012    2    1    2    0    0  0.13964371080E+02  0.88789789474E+01  0.87656733217E+01  0.72461629407E+02  0.70000077005E+02 0.  0.
         12    1    1    2    0    0 -0.13964371080E+02 -0.88789789474E+01 -0.87656733217E+01  0.18726370593E+02  0.00000000000E+00 0. -1.
         11    1    3    3    0    0 -0.61530220163E+01  0.22150612176E+01 -0.92505899156E+01  0.11328706465E+02  0.51100000000E-03 0. -1.
        -11    1    3    3    0    0 -0.15679339475E+02  0.57082435744E+01 -0.63131328418E+01  0.17840442192E+02  0.51100000000E-03 0.  1.
        -12    1    3    3    0    0  0.35796732571E+02  0.95567415537E+00  0.24329396079E+02  0.43292480749E+02  0.00000000000E+00 0.  1.
</event>
<event>
 7    1  0.3189267E-013  0.7246157E+02  0.7816164E-02  0.1226708E+00
        -11   -1    0    0    0    0  0.00000000000E+00  0.00000000000E+00  0.45593999997E+02  0.45594000000E+02  0.51100000000E-03 0. -1.
         11   -1    0    0    0    0 -0.00000000000E+00 -0.00000000000E+00 -0.45593999997E+02  0.45594000000E+02  0.51100000000E-03 0.  1.
    9900012    2    1    2    0    0 -0.11633888877E+02  0.10933739995E+02 -0.97869883506E+01  0.72461569970E+02  0.69999999577E+02 0.  0.
         12    1    1    2    0    0  0.11633888877E+02 -0.10933739995E+02  0.97869883506E+01  0.18726430030E+02  0.00000000000E+00 0. -1.
         11    1    3    3    0    0 -0.37957170617E+01  0.49272353317E+01 -0.37780309415E+01  0.72772683118E+01  0.51100000000E-03 0. -1.
        -11    1    3    3    0    0  0.70518205028E+00 -0.22720164474E+02 -0.21638463019E+02  0.31383534497E+02  0.51100000000E-03 0.  1.
         12    1    3    3    0    0 -0.85433538658E+01  0.28726669138E+02  0.15629505610E+02  0.33800767161E+02  0.00000000000E+00 0. -1.
</event>
<event>
 7    1  0.3189267E-013  0.7246159E+02  0.7816164E-02  0.1226708E+00
        -11   -1    0    0    0    0  0.00000000000E+00  0.00000000000E+00  0.45593999997E+02  0.45594000000E+02  0.51100000000E-03 0.  1.
         11   -1    0    0    0    0 -0.00000000000E+00 -0.00000000000E+00 -0.45593999997E+02  0.45594000000E+02  0.51100000000E-03 0. -1.
    9900012    2    1    2    0    0 -0.17159724086E+02 -0.20664778831E+01 -0.72077713476E+01  0.72461590057E+02  0.70000025744E+02 0.  0.
         12    1    1    2    0    0  0.17159724086E+02  0.20664778831E+01  0.72077713476E+01  0.18726409943E+02  0.00000000000E+00 0. -1.
         11    1    3    3    0    0 -0.73020058087E+01  0.16008948385E+02 -0.21519803095E+02  0.27797619372E+02  0.51100000000E-03 0. -1.
        -11    1    3    3    0    0  0.13248128156E+02 -0.48628163481E+00  0.49983556088E+01  0.14168024863E+02  0.51100000000E-03 0.  1.
        -12    1    3    3    0    0 -0.23105846434E+02 -0.17589144634E+02  0.93136761383E+01  0.30495945822E+02  0.00000000000E+00 0.  1.
</event>
<event>
 7    1  0.3189267E-013  0.7246177E+02  0.7816164E-02  0.1226707E+00
        -11   -1    0    0    0    0  0.00000000000E+00  0.00000000000E+00  0.45593999997E+02  0.45594000000E+02  0.51100000000E-03 0.  1.
         11   -1    0    0    0    0 -0.00000000000E+00 -0.00000000000E+00 -0.45593999997E+02  0.45594000000E+02  0.51100000000E-03 0. -1.
    9900012    2    1    2    0    0  0.17648225746E+02 -0.32826616288E+01 -0.53325475018E+01  0.72461767005E+02  0.70000256251E+02 0.  0.
         12    1    1    2    0    0 -0.17648225746E+02  0.32826616288E+01  0.53325475018E+01  0.18726232995E+02  0.00000000000E+00 0. -1.
         11    1    3    3    0    0  0.17021338596E+02  0.77167185543E+01  0.38957748039E+01  0.19090593873E+02  0.51100000000E-03 0.  1.
        -11    1    3    3    0    0 -0.19879385765E+02 -0.56891179476E+01 -0.20719741506E+02  0.29272234792E+02  0.51100000000E-03 0. -1.
         12    1    3    3    0    0  0.20506272915E+02 -0.53102622354E+01  0.11491419200E+02  0.24098938339E+02  0.00000000000E+00 0. -1.
</event>
<event>
 7    1  0.3189267E-013  0.7246156E+02  0.7816164E-02  0.1226708E+00
        -11   -1    0    0    0    0  0.00000000000E+00  0.00000000000E+00  0.45593999997E+02  0.45594000000E+02  0.51100000000E-03 0.  1.
         11   -1    0    0    0    0 -0.00000000000E+00 -0.00000000000E+00 -0.45593999997E+02  0.45594000000E+02  0.51100000000E-03 0. -1.
    9900012    2    1    2    0    0 -0.17704678783E+02 -0.35881025523E+01 -0.49345079392E+01  0.72461561488E+02  0.69999988529E+02 0.  0.
         12    1    1    2    0    0  0.17704678783E+02  0.35881025523E+01  0.49345079392E+01  0.18726438512E+02  0.00000000000E+00 0. -1.
         11    1    3    3    0    0  0.80808986504E+01 -0.14494679323E+02  0.12580974761E+02  0.20824926840E+02  0.51100000000E-03 0.  1.
        -11    1    3    3    0    0 -0.19578737390E+02 -0.12385761622E+02 -0.14530928682E+02  0.27347430178E+02  0.51100000000E-03 0. -1.
         12    1    3    3    0    0 -0.62068400432E+01  0.23292338393E+02 -0.29845540185E+01  0.24289204471E+02  0.00000000000E+00 0. -1.
</event>
<event>
 7    1  0.3189267E-013  0.7246155E+02  0.7816164E-02  0.1226708E+00
        -11   -1    0    0    0    0  0.00000000000E+00  0.00000000000E+00  0.45593999997E+02  0.45594000000E+02  0.51100000000E-03 0.  1.
         11   -1    0    0    0    0 -0.00000000000E+00 -0.00000000000E+00 -0.45593999997E+02  0.45594000000E+02  0.51100000000E-03 0. -1.
    9900012    2    1    2    0    0  0.16293120606E+02  0.31824425151E+01  0.86652236743E+01  0.72461552906E+02  0.69999977348E+02 0.  0.
         12    1    1    2    0    0 -0.16293120606E+02 -0.31824425151E+01 -0.86652236743E+01  0.18726447094E+02  0.00000000000E+00 0. -1.
         11    1    3    3    0    0 -0.26617272758E+01  0.72270099188E+00  0.72502363054E+01  0.77571267593E+01  0.51100000000E-03 0. -1.
        -11    1    3    3    0    0 -0.71581448648E+01  0.14755200483E+02 -0.22068521982E+02  0.27494993033E+02  0.51100000000E-03 0.  1.
         12    1    3    3    0    0  0.26112992747E+02 -0.12295458959E+02  0.23483509350E+02  0.37209433113E+02  0.00000000000E+00 0. -1.
</event>
<event>
 7    1  0.3189267E-013  0.7246161E+02  0.7816164E-02  0.1226708E+00
        -11   -1    0    0    0    0  0.00000000000E+00  0.00000000000E+00  0.45593999997E+02  0.45594000000E+02  0.51100000000E-03 0.  1.
         11   -1    0    0    0    0 -0.00000000000E+00 -0.00000000000E+00 -0.45593999997E+02  0.45594000000E+02  0.51100000000E-03 0. -1.
    9900012    2    1    2    0    0  0.18386713394E+02  0.33550124717E+01  0.11621089364E+01  0.72461605919E+02  0.70000046407E+02 0.  0.
         12    1    1    2    0    0 -0.18386713394E+02 -0.33550124717E+01 -0.11621089364E+01  0.18726394081E+02  0.00000000000E+00 0. -1.
         11    1    3    3    0    0  0.19740255944E+02  0.23898144981E+01 -0.37388251862E+01  0.20232837964E+02  0.51100000000E-03 0. -1.
        -11    1    3    3    0    0 -0.67743710124E+01  0.14692129484E+02 -0.18491339570E+02  0.24569908643E+02  0.51100000000E-03 0.  1.
        -12    1    3    3    0    0  0.54208284626E+01 -0.13726931510E+02  0.23392273693E+02  0.27658859311E+02  0.00000000000E+00 0.  1.
</event>
<event>
 7    1  0.3189267E-013  0.7246164E+02  0.7816164E-02  0.1226708E+00
        -11   -1    0    0    0    0  0.00000000000E+00  0.00000000000E+00  0.45593999997E+02  0.45594000000E+02  0.51100000000E-03 0.  1.
         11   -1    0    0    0    0 -0.00000000000E+00 -0.00000000000E+00 -0.45593999997E+02  0.45594000000E+02  0.51100000000E-03 0. -1.
    9900012    2    1    2    0    0 -0.79792505308E+01  0.16865143505E+02  0.16047495612E+01  0.72461635547E+02  0.70000085004E+02 0.  0.
         12    1    1    2    0    0  0.79792505308E+01 -0.16865143505E+02 -0.16047495612E+01  0.18726364453E+02  0.00000000000E+00 0. -1.
         11    1    3    3    0    0  0.20857567726E+01  0.10147876724E+02  0.63141905138E+01  0.12132550657E+02  0.51100000000E-03 0. -1.
        -11    1    3    3    0    0  0.21070927968E+02 -0.53785627133E+01 -0.13744308759E+02  0.25725842374E+02  0.51100000000E-03 0.  1.
         12    1    3    3    0    0 -0.31135935272E+02  0.12095829494E+02  0.90348678069E+01  0.34603242517E+02  0.00000000000E+00 0. -1.
</event>
<event>
 7    1  0.3189267E-013  0.7246109E+02  0.7816164E-02  0.1226709E+00
        -11   -1    0    0    0    0  0.00000000000E+00  0.00000000000E+00  0.45593999997E+02  0.45594000000E+02  0.51100000000E-03 0. -1.
         11   -1    0    0    0    0 -0.00000000000E+00 -0.00000000000E+00 -0.45593999997E+02  0.45594000000E+02  0.51100000000E-03 0.  1.
    9900012    2    1    2    0    0  0.12754084548E+02 -0.13132790613E+02 -0.39446444622E+01  0.72461092037E+02  0.69999376978E+02 0.  0.
         12    1    1    2    0    0 -0.12754084548E+02  0.13132790613E+02  0.39446444622E+01  0.18726907963E+02  0.00000000000E+00 0. -1.
         11    1    3    3    0    0  0.84758779486E+01  0.85488568876E+01  0.57874405128E+00  0.12052319529E+02  0.51100000000E-03 0. -1.
        -11    1    3    3    0    0  0.26690429363E+02 -0.26168152186E+02 -0.31372025403E+01  0.37509908670E+02  0.51100000000E-03 0.  1.
        -12    1    3    3    0    0 -0.22412222764E+02  0.44865046852E+01 -0.13861859732E+01  0.22898863838E+02  0.00000000000E+00 0.  1.
</event>
<event>
 7    1  0.3189267E-013  0.7246152E+02  0.7816164E-02  0.1226708E+00
        -11   -1    0    0    0    0  0.00000000000E+00  0.00000000000E+00  0.45593999997E+02  0.45594000000E+02  0.51100000000E-03 0.  1.
         11   -1    0    0    0    0 -0.00000000000E+00 -0.00000000000E+00 -0.45593999997E+02  0.45594000000E+02  0.51100000000E-03 0. -1.
    9900012    2    1    2    0    0  0.10793566066E+02  0.65426662878E+01  0.13833786033E+02  0.72461516439E+02  0.69999929843E+02 0.  0.
         12    1    1    2    0    0 -0.10793566066E+02 -0.65426662878E+01 -0.13833786033E+02  0.18726483561E+02  0.00000000000E+00 0. -1.
         11    1    3    3    0    0  0.22298434110E+02  0.10017302978E+02  0.78966319486E+01  0.25688972714E+02  0.51100000000E-03 0. -1.
        -11    1    3    3    0    0 -0.13309921190E+02  0.88348564242E+01 -0.15325384355E+02  0.22137662388E+02  0.51100000000E-03 0.  1.
         12    1    3    3    0    0  0.18050531459E+01 -0.12309493114E+02  0.21262538440E+02  0.24634881337E+02  0.00000000000E+00 0. -1.
</event>
<event>
 7    1  0.3189267E-013  0.7246160E+02  0.7816164E-02  0.1226708E+00
        -11   -1    0    0    0    0  0.00000000000E+00  0.00000000000E+00  0.45593999997E+02  0.45594000000E+02  0.51100000000E-03 0. -1.
         11   -1    0    0    0    0 -0.00000000000E+00 -0.00000000000E+00 -0.45593999997E+02  0.45594000000E+02  0.51100000000E-03 0.  1.
    9900012    2    1    2    0    0 -0.83621011743E+01  0.16221367943E+02 -0.41977004162E+01  0.72461596107E+02  0.70000033626E+02 0.  0.
         12    1    1    2    0    0  0.83621011743E+01 -0.16221367943E+02  0.41977004162E+01  0.18726403893E+02  0.00000000000E+00 0. -1.
         11    1    3    3    0    0 -0.12348202579E+02  0.64187642823E+01 -0.48332522062E+00  0.13925237713E+02  0.51100000000E-03 0. -1.
        -11    1    3    3    0    0  0.48317627499E+01  0.10511259301E+01  0.26557291911E+02  0.27013710425E+02  0.51100000000E-03 0.  1.
        -12    1    3    3    0    0 -0.84566134519E+00  0.87514777303E+01 -0.30271667107E+02  0.31522647969E+02  0.00000000000E+00 0.  1.
</event>
<event>
 7    1  0.3189267E-013  0.7246156E+02  0.7816164E-02  0.1226708E+00
        -11   -1    0    0    0    0  0.00000000000E+00  0.00000000000E+00  0.45593999997E+02  0.45594000000E+02  0.51100000000E-03 0.  1.
         11   -1    0    0    0    0 -0.00000000000E+00 -0.00000000000E+00 -0.45593999997E+02  0.45594000000E+02  0.51100000000E-03 0. -1.
    9900012    2    1    2    0    0 -0.90552601762E+01 -0.16143006073E+02  0.28434223482E+01  0.72461563271E+02  0.69999990850E+02 0.  0.
         12    1    1    2    0    0  0.90552601762E+01  0.16143006073E+02 -0.28434223482E+01  0.18726436729E+02  0.00000000000E+00 0. -1.
         11    1    3    3    0    0  0.25246910153E+01  0.92238049899E+01 -0.15345988550E+01  0.96854342763E+01  0.51100000000E-03 0. -1.
        -11    1    3    3    0    0  0.22054748380E+02 -0.97038304538E+01  0.82579354727E+01  0.25470958956E+02  0.51100000000E-03 0.  1.
         12    1    3    3    0    0 -0.33634699572E+02 -0.15662980609E+02 -0.38799142695E+01  0.37305170038E+02  0.00000000000E+00 0. -1.
</event>
<event>
 7    1  0.3189267E-013  0.7246158E+02  0.7816164E-02  0.1226708E+00
        -11   -1    0    0    0    0  0.00000000000E+00  0.00000000000E+00  0.45593999997E+02  0.45594000000E+02  0.51100000000E-03 0. -1.
         11   -1    0    0    0    0 -0.00000000000E+00 -0.00000000000E+00 -0.45593999997E+02  0.45594000000E+02  0.51100000000E-03 0.  1.
    9900012    2    1    2    0    0  0.40093568298E+01  0.80312443620E+01  0.16434812632E+02  0.72461577639E+02  0.70000009568E+02 0.  0.
         12    1    1    2    0    0 -0.40093568298E+01 -0.80312443620E+01 -0.16434812632E+02  0.18726422361E+02  0.00000000000E+00 0. -1.
         11    1    3    3    0    0  0.12958574009E+02  0.18498717775E+02  0.20440004712E+02  0.30461795623E+02  0.51100000000E-03 0. -1.
        -11    1    3    3    0    0 -0.17082422550E+02  0.43519895480E+01  0.98047868689E+01  0.20171336569E+02  0.51100000000E-03 0.  1.
        -12    1    3    3    0    0  0.81332053700E+01 -0.14819462961E+02 -0.13809978949E+02  0.21828445447E+02  0.00000000000E+00 0.  1.
</event>
<event>
 7    1  0.3189267E-013  0.7246157E+02  0.7816164E-02  0.1226708E+00
        -11   -1    0    0    0    0  0.00000000000E+00  0.00000000000E+00  0.45593999997E+02  0.45594000000E+02  0.51100000000E-03 0.  1.
         11   -1    0    0    0    0 -0.00000000000E+00 -0.00000000000E+00 -0.45593999997E+02  0.45594000000E+02  0.51100000000E-03 0. -1.
    9900012    2    1    2    0    0  0.67955391704E+01 -0.56693395020E+01  0.16503290533E+02  0.72461565170E+02  0.69999993325E+02 0.  0.
         12    1    1    2    0    0 -0.67955391704E+01  0.56693395020E+01 -0.16503290533E+02  0.18726434830E+02  0.00000000000E+00 0. -1.
         11    1    3    3    0    0  0.26699305688E+02 -0.95811563344E+01  0.52163250949E+01  0.28842009789E+02  0.51100000000E-03 0. -1.
        -11    1    3    3    0    0  0.93817555124E+01  0.33459206192E+01 -0.38130575771E+01  0.10665454966E+02  0.51100000000E-03 0.  1.
        -12    1    3    3    0    0 -0.29285522030E+02  0.56589621316E+00  0.15100023015E+02  0.32954100415E+02  0.00000000000E+00 0.  1.
</event>
<event>
 7    1  0.3189267E-013  0.7246155E+02  0.7816164E-02  0.1226708E+00
        -11   -1    0    0    0    0  0.00000000000E+00  0.00000000000E+00  0.45593999997E+02  0.45594000000E+02  0.51100000000E-03 0. -1.
         11   -1    0    0    0    0 -0.00000000000E+00 -0.00000000000E+00 -0.45593999997E+02  0.45594000000E+02  0.51100000000E-03 0.  1.
    9900012    2    1    2    0    0 -0.15375288822E+02  0.29105919347E+01  0.10286342458E+02  0.72461550979E+02  0.69999974839E+02 0.  0.
         12    1    1    2    0    0  0.15375288822E+02 -0.29105919347E+01 -0.10286342458E+02  0.18726449021E+02  0.00000000000E+00 0. -1.
         11    1    3    3    0    0 -0.31030479563E+02 -0.12313667654E+02  0.17549970004E+02  0.37716289855E+02  0.51100000000E-03 0. -1.
        -11    1    3    3    0    0 -0.32769768940E+01 -0.32570620689E+01 -0.68773039607E+01  0.82851880433E+01  0.51100000000E-03 0.  1.
        -12    1    3    3    0    0  0.18932167635E+02  0.18481321657E+02 -0.38632358590E+00  0.26460073081E+02  0.00000000000E+00 0.  1.
</event>
<event>
 7    1  0.3189267E-013  0.7246204E+02  0.7816164E-02  0.1226707E+00
        -11   -1    0    0    0    0  0.00000000000E+00  0.00000000000E+00  0.45593999997E+02  0.45594000000E+02  0.51100000000E-03 0.  1.
         11   -1    0    0    0    0 -0.00000000000E+00 -0.00000000000E+00 -0.45593999997E+02  0.45594000000E+02  0.51100000000E-03 0. -1.
    9900012    2    1    2    0    0 -0.30999805876E+01 -0.53682370167E+01  0.17670133450E+02  0.72462043030E+02  0.70000615823E+02 0.  0.
         12    1    1    2    0    0  0.30999805876E+01  0.53682370167E+01 -0.17670133450E+02  0.18725956970E+02  0.00000000000E+00 0. -1.
         11    1    3    3    0    0 -0.18809071074E+02  0.84118625627E+00  0.18955397185E+01  0.18923049968E+02  0.51100000000E-03 0. -1.
        -11    1    3    3    0    0 -0.10078980161E+02 -0.14342329022E+02  0.19525528197E+02  0.26239940825E+02  0.51100000000E-03 0.  1.
        -12    1    3    3    0    0  0.25788070648E+02  0.81329057494E+01 -0.37509344658E+01  0.27299052237E+02  0.00000000000E+00 0.  1.
</event>
<event>
 7    1  0.3189267E-013  0.7246158E+02  0.7816164E-02  0.1226708E+00
        -11   -1    0    0    0    0  0.00000000000E+00  0.00000000000E+00  0.45593999997E+02  0.45594000000E+02  0.51100000000E-03 0.  1.
         11   -1    0    0    0    0 -0.00000000000E+00 -0.00000000000E+00 -0.45593999997E+02  0.45594000000E+02  0.51100000000E-03 0. -1.
    9900012    2    1    2    0    0 -0.66516340466E+01 -0.14452078607E+02  0.98778473662E+01  0.72461583361E+02  0.70000017022E+02 0.  0.
         12    1    1    2    0    0  0.66516340466E+01  0.14452078607E+02 -0.98778473662E+01  0.18726416639E+02  0.00000000000E+00 0. -1.
         11    1    3    3    0    0  0.13908103868E+02  0.91852081987E+01  0.52290044856E+01  0.17468425545E+02  0.51100000000E-03 0. -1.
        -11    1    3    3    0    0  0.12589160244E+02 -0.12057643487E+02  0.89882716251E+01  0.19612821041E+02  0.51100000000E-03 0.  1.
         12    1    3    3    0    0 -0.33148898158E+02 -0.11579643318E+02 -0.43394287445E+01  0.35380336775E+02  0.00000000000E+00 0. -1.
</event>
<event>
 7    1  0.3189267E-013  0.7246160E+02  0.7816164E-02  0.1226708E+00
        -11   -1    0    0    0    0  0.00000000000E+00  0.00000000000E+00  0.45593999997E+02  0.45594000000E+02  0.51100000000E-03 0.  1.
         11   -1    0    0    0    0 -0.00000000000E+00 -0.00000000000E+00 -0.45593999997E+02  0.45594000000E+02  0.51100000000E-03 0. -1.
    9900012    2    1    2    0    0 -0.14263005174E+02  0.57072269799E+01  0.10708513466E+02  0.72461601065E+02  0.70000040085E+02 0.  0.
         12    1    1    2    0    0  0.14263005174E+02 -0.57072269799E+01 -0.10708513466E+02  0.18726398935E+02  0.00000000000E+00 0. -1.
         11    1    3    3    0    0  0.38624784052E+01  0.54593653084E+01  0.24082008629E+02  0.24993330088E+02  0.51100000000E-03 0. -1.
        -11    1    3    3    0    0 -0.47499200891E+01 -0.70337262487E+01  0.13867903907E+02  0.16258960755E+02  0.51100000000E-03 0.  1.
         12    1    3    3    0    0 -0.13375563490E+02  0.72815879203E+01 -0.27241399070E+02  0.31209310223E+02  0.00000000000E+00 0. -1.
</event>
<event>
 7    1  0.3189267E-013  0.7246153E+02  0.7816164E-02  0.1226708E+00
        -11   -1    0    0    0    0  0.00000000000E+00  0.00000000000E+00  0.45593999997E+02  0.45594000000E+02  0.51100000000E-03 0.  1.
         11   -1    0    0    0    0 -0.00000000000E+00 -0.00000000000E+00 -0.45593999997E+02  0.45594000000E+02  0.51100000000E-03 0. -1.
    9900012    2    1    2    0    0 -0.14626660013E+02  0.12365833920E+01  0.11628084012E+02  0.72461530514E+02  0.69999948179E+02 0.  0.
         12    1    1    2    0    0  0.14626660013E+02 -0.12365833920E+01 -0.11628084012E+02  0.18726469486E+02  0.00000000000E+00 0. -1.
         11    1    3    3    0    0  0.92471411889E+01  0.68991661210E+01 -0.17925819637E+02  0.21317671619E+02  0.51100000000E-03 0. -1.
        -11    1    3    3    0    0  0.55291001927E+01 -0.35298257908E+00 -0.35266604241E+01  0.65675626872E+01  0.51100000000E-03 0.  1.
        -12    1    3    3    0    0 -0.29402901395E+02 -0.53096001499E+01  0.33080564073E+02  0.44576296208E+02  0.00000000000E+00 0.  1.
</event>
<event>
 7    1  0.3189267E-013  0.7246163E+02  0.7816164E-02  0.1226708E+00
        -11   -1    0    0    0    0  0.00000000000E+00  0.00000000000E+00  0.45593999997E+02  0.45594000000E+02  0.51100000000E-03 0. -1.
         11   -1    0    0    0    0 -0.00000000000E+00 -0.00000000000E+00 -0.45593999997E+02  0.45594000000E+02  0.51100000000E-03 0.  1.
    9900012    2    1    2    0    0 -0.10784143221E+02 -0.25737255268E+01 -0.15091554003E+02  0.72461633285E+02  0.70000082057E+02 0.  0.
         12    1    1    2    0    0  0.10784143221E+02  0.25737255268E+01  0.15091554003E+02  0.18726366715E+02  0.00000000000E+00 0. -1.
         11    1    3    3    0    0 -0.93157480084E+01  0.39717330743E+00  0.10652089148E+01  0.93848589699E+01  0.51100000000E-03 0. -1.
        -11    1    3    3    0    0 -0.91867687546E+01 -0.68794299671E+01 -0.37940218032E+02  0.39638156130E+02  0.51100000000E-03 0.  1.
         12    1    3    3    0    0  0.77183735416E+01  0.39085311329E+01  0.21783455114E+02  0.23438618185E+02  0.00000000000E+00 0. -1.
</event>
<event>
 7    1  0.3189267E-013  0.7246159E+02  0.7816164E-02  0.1226708E+00
        -11   -1    0    0    0    0  0.00000000000E+00  0.00000000000E+00  0.45593999997E+02  0.45594000000E+02  0.51100000000E-03 0.  1.
         11   -1    0    0    0    0 -0.00000000000E+00 -0.00000000000E+00 -0.45593999997E+02  0.45594000000E+02  0.51100000000E-03 0. -1.
    9900012    2    1    2    0    0  0.13180057121E+02 -0.84766592461E+01  0.10252353021E+02  0.72461590836E+02  0.70000026760E+02 0.  0.
         12    1    1    2    0    0 -0.13180057121E+02  0.84766592461E+01 -0.10252353021E+02  0.18726409164E+02  0.00000000000E+00 0. -1.
         11    1    3    3    0    0  0.10801839622E+02 -0.24688417420E+00 -0.44893055397E+00  0.10813983074E+02  0.51100000000E-03 0. -1.
        -11    1    3    3    0    0  0.11534354884E+02  0.22368568445E+02  0.15188064948E+02  0.29395093366E+02  0.51100000000E-03 0.  1.
         12    1    3    3    0    0 -0.91561373854E+01 -0.30598343517E+02 -0.44867813728E+01  0.32252514396E+02  0.00000000000E+00 0. -1.
</event>
<event>
 7    1  0.3189267E-013  0.7246158E+02  0.7816164E-02  0.1226708E+00
        -11   -1    0    0    0    0  0.00000000000E+00  0.00000000000E+00  0.45593999997E+02  0.45594000000E+02  0.51100000000E-03 0.  1.
         11   -1    0    0    0    0 -0.00000000000E+00 -0.00000000000E+00 -0.45593999997E+02  0.45594000000E+02  0.51100000000E-03 0. -1.
    9900012    2    1    2    0    0  0.22724476313E+01  0.18563390637E+02  0.95663294888E+00  0.72461584518E+02  0.70000018529E+02 0.  0.
         12    1    1    2    0    0 -0.22724476313E+01 -0.18563390637E+02 -0.95663294888E+00  0.18726415482E+02  0.00000000000E+00 0. -1.
         11    1    3    3    0    0  0.23074462215E+02  0.31781262912E+02  0.23281785085E+01  0.39343358959E+02  0.51100000000E-03 0. -1.
        -11    1    3    3    0    0 -0.50085860678E+01  0.46970717449E+01  0.48884636240E+01  0.84288489273E+01  0.51100000000E-03 0.  1.
        -12    1    3    3    0    0 -0.15793428515E+02 -0.17914944019E+02 -0.62600091837E+01  0.24689376632E+02  0.00000000000E+00 0.  1.
</event>
<event>
 7    1  0.3189267E-013  0.7246165E+02  0.7816164E-02  0.1226708E+00
        -11   -1    0    0    0    0  0.00000000000E+00  0.00000000000E+00  0.45593999997E+02  0.45594000000E+02  0.51100000000E-03 0.  1.
         11   -1    0    0    0    0 -0.00000000000E+00 -0.00000000000E+00 -0.45593999997E+02  0.45594000000E+02  0.51100000000E-03 0. -1.
    9900012    2    1    2    0    0 -0.11866342567E+02 -0.49966562332E+01 -0.13597772829E+02  0.72461652643E+02  0.70000107274E+02 0.  0.
         12    1    1    2    0    0  0.11866342567E+02  0.49966562332E+01  0.13597772829E+02  0.18726347357E+02  0.00000000000E+00 0. -1.
         11    1    3    3    0    0 -0.12470761932E+01 -0.14608049644E+02 -0.16869452006E+02  0.22350139254E+02  0.51100000000E-03 0. -1.
        -11    1    3    3    0    0  0.66841583164E+01  0.17233120808E+02 -0.15010053286E+02  0.23810924491E+02  0.51100000000E-03 0.  1.
         12    1    3    3    0    0 -0.17303424690E+02 -0.76217273976E+01  0.18281732463E+02  0.26300588898E+02  0.00000000000E+00 0. -1.
</event>
<event>
 7    1  0.3189267E-013  0.7246153E+02  0.7816164E-02  0.1226708E+00
        -11   -1    0    0    0    0  0.00000000000E+00  0.00000000000E+00  0.45593999997E+02  0.45594000000E+02  0.51100000000E-03 0.  1.
         11   -1    0    0    0    0 -0.00000000000E+00 -0.00000000000E+00 -0.45593999997E+02  0.45594000000E+02  0.51100000000E-03 0. -1.
    9900012    2    1    2    0    0 -0.28476283879E+01 -0.13283400521E+01  0.18460967361E+02  0.72461527010E+02  0.69999943614E+02 0.  0.
         12    1    1    2    0    0  0.28476283879E+01  0.13283400521E+01 -0.18460967361E+02  0.18726472990E+02  0.00000000000E+00 0. -1.
         11    1    3    3    0    0 -0.24714129757E+02  0.89009076270E+01 -0.70945286276E+01  0.27209312798E+02  0.51100000000E-03 0. -1.
        -11    1    3    3    0    0  0.13637196926E+02  0.60183641951E+01  0.13599916761E+01  0.14968080211E+02  0.51100000000E-03 0.  1.
        -12    1    3    3    0    0  0.82293044428E+01 -0.16247611874E+02  0.24195504313E+02  0.30284134001E+02  0.00000000000E+00 0.  1.
</event>
<event>
 7    1  0.3189267E-013  0.7246155E+02  0.7816164E-02  0.1226708E+00
        -11   -1    0    0    0    0  0.00000000000E+00  0.00000000000E+00  0.45593999997E+02  0.45594000000E+02  0.51100000000E-03 0.  1.
         11   -1    0    0    0    0 -0.00000000000E+00 -0.00000000000E+00 -0.45593999997E+02  0.45594000000E+02  0.51100000000E-03 0. -1.
    9900012    2    1    2    0    0 -0.71486367832E+01  0.12171741663E+02  0.12305509255E+02  0.72461551831E+02  0.69999975949E+02 0.  0.
         12    1    1    2    0    0  0.71486367832E+01 -0.12171741663E+02 -0.12305509255E+02  0.18726448169E+02  0.00000000000E+00 0. -1.
         11    1    3    3    0    0  0.28197611169E+00  0.58855539139E+01 -0.82896398240E+01  0.10170417104E+02  0.51100000000E-03 0. -1.
        -11    1    3    3    0    0  0.41506004011E+01  0.18034155639E+02 -0.14501586130E+02  0.23510726358E+02  0.51100000000E-03 0.  1.
        -12    1    3    3    0    0 -0.11581213296E+02 -0.11747967889E+02  0.35096735210E+02  0.38780408370E+02  0.00000000000E+00 0.  1.
</event>
<event>
 7    1  0.3189267E-013  0.7246157E+02  0.7816164E-02  0.1226708E+00
        -11   -1    0    0    0    0  0.00000000000E+00  0.00000000000E+00  0.45593999997E+02  0.45594000000E+02  0.51100000000E-03 0.  1.
         11   -1    0    0    0    0 -0.00000000000E+00 -0.00000000000E+00 -0.45593999997E+02  0.45594000000E+02  0.51100000000E-03 0. -1.
    9900012    2    1    2    0    0 -0.11272048706E+02  0.13801783232E+02  0.57559412959E+01  0.72461570479E+02  0.70000000240E+02 0.  0.
         12    1    1    2    0    0  0.11272048706E+02 -0.13801783232E+02 -0.57559412959E+01  0.18726429521E+02  0.00000000000E+00 0. -1.
         11    1    3    3    0    0 -0.36556208196E+01  0.33626139558E+02  0.67101463324E+01  0.34483429197E+02  0.51100000000E-03 0. -1.
        -11    1    3    3    0    0 -0.10640207562E+02 -0.73048690354E+00  0.10941500757E+02  0.15279530986E+02  0.51100000000E-03 0.  1.
        -12    1    3    3    0    0  0.30237796753E+01 -0.19093869422E+02 -0.11895705794E+02  0.22698610296E+02  0.00000000000E+00 0.  1.
</event>
<event>
 7    1  0.3189267E-013  0.7246150E+02  0.7816164E-02  0.1226708E+00
        -11   -1    0    0    0    0  0.00000000000E+00  0.00000000000E+00  0.45593999997E+02  0.45594000000E+02  0.51100000000E-03 0.  1.
         11   -1    0    0    0    0 -0.00000000000E+00 -0.00000000000E+00 -0.45593999997E+02  0.45594000000E+02  0.51100000000E-03 0. -1.
    9900012    2    1    2    0    0  0.12448971534E+02 -0.93193894009E+01  0.10433300656E+02  0.72461503434E+02  0.69999912902E+02 0.  0.
         12    1    1    2    0    0 -0.12448971534E+02  0.93193894009E+01 -0.10433300656E+02  0.18726496566E+02  0.00000000000E+00 0. -1.
         11    1    3    3    0    0 -0.12052822210E+02 -0.30173676457E+01  0.24671402963E+01  0.12667352219E+02  0.51100000000E-03 0. -1.
        -11    1    3    3    0    0 -0.15409333268E+02 -0.11194576936E+02  0.29167409267E+01  0.19268458227E+02  0.51100000000E-03 0.  1.
         12    1    3    3    0    0  0.39911127012E+02  0.48925551807E+01  0.50494194334E+01  0.40525692988E+02  0.00000000000E+00 0. -1.
</event>
<event>
 7    1  0.3189267E-013  0.7246155E+02  0.7816164E-02  0.1226708E+00
        -11   -1    0    0    0    0  0.00000000000E+00  0.00000000000E+00  0.45593999997E+02  0.45594000000E+02  0.51100000000E-03 0.  1.
         11   -1    0    0    0    0 -0.00000000000E+00 -0.00000000000E+00 -0.45593999997E+02  0.45594000000E+02  0.51100000000E-03 0. -1.
    9900012    2    1    2    0    0 -0.14100754722E+02  0.24139019651E+01  0.12083939887E+02  0.72461553204E+02  0.69999977736E+02 0.  0.
         12    1    1    2    0    0  0.14100754722E+02 -0.24139019651E+01 -0.12083939887E+02  0.18726446796E+02  0.00000000000E+00 0. -1.
         11    1    3    3    0    0 -0.94703281160E+01 -0.25045169670E+01  0.56703675687E+01  0.11318691995E+02  0.51100000000E-03 0. -1.
        -11    1    3    3    0    0 -0.27342306644E+01 -0.21733514058E+02  0.21302580792E+02  0.30555222128E+02  0.51100000000E-03 0.  1.
        -12    1    3    3    0    0 -0.18961959414E+01  0.26651932990E+02 -0.14889008474E+02  0.30587639080E+02  0.00000000000E+00 0.  1.
</event>
<event>
 7    1  0.3189267E-013  0.7246158E+02  0.7816164E-02  0.1226708E+00
        -11   -1    0    0    0    0  0.00000000000E+00  0.00000000000E+00  0.45593999997E+02  0.45594000000E+02  0.51100000000E-03 0.  1.
         11   -1    0    0    0    0 -0.00000000000E+00 -0.00000000000E+00 -0.45593999997E+02  0.45594000000E+02  0.51100000000E-03 0. -1.
    9900012    2    1    2    0    0  0.10720710288E+02  0.72966158374E+01  0.13509427785E+02  0.72461578270E+02  0.70000010390E+02 0.  0.
         12    1    1    2    0    0 -0.10720710288E+02 -0.72966158374E+01 -0.13509427785E+02  0.18726421730E+02  0.00000000000E+00 0. -1.
         11    1    3    3    0    0  0.12547675907E+02  0.32291551956E+02  0.23028691710E+02  0.41599388703E+02  0.51100000000E-03 0. -1.
        -11    1    3    3    0    0  0.36700010478E+01 -0.23235346828E+01 -0.57891912660E+01  0.72375725826E+01  0.51100000000E-03 0.  1.
        -12    1    3    3    0    0 -0.54969666668E+01 -0.22671401436E+02 -0.37300726594E+01  0.23624616984E+02  0.00000000000E+00 0.  1.
</event>
<event>
 7    1  0.3189267E-013  0.7246153E+02  0.7816164E-02  0.1226708E+00
        -11   -1    0    0    0    0  0.00000000000E+00  0.00000000000E+00  0.45593999997E+02  0.45594000000E+02  0.51100000000E-03 0. -1.
         11   -1    0    0    0    0 -0.00000000000E+00 -0.00000000000E+00 -0.45593999997E+02  0.45594000000E+02  0.51100000000E-03 0.  1.
    9900012    2    1    2    0    0  0.11322745292E+02  0.74586216381E+01 -0.12916846425E+02  0.72461534257E+02  0.69999953054E+02 0.  0.
         12    1    1    2    0    0 -0.11322745292E+02 -0.74586216381E+01  0.12916846425E+02  0.18726465743E+02  0.00000000000E+00 0. -1.
         11    1    3    3    0    0 -0.82318682866E+01  0.16236693520E+02  0.31760356521E+00  0.18206997123E+02  0.51100000000E-03 0. -1.
        -11    1    3    3    0    0 -0.82520870943E+01 -0.12365115081E+02  0.99372852733E+01  0.17881349257E+02  0.51100000000E-03 0.  1.
        -12    1    3    3    0    0  0.27806700673E+02  0.35870431998E+01 -0.23171735263E+02  0.36373187877E+02  0.00000000000E+00 0.  1.
</event>
<event>
 7    1  0.3189267E-013  0.7246103E+02  0.7816164E-02  0.1226709E+00
        -11   -1    0    0    0    0  0.00000000000E+00  0.00000000000E+00  0.45593999997E+02  0.45594000000E+02  0.51100000000E-03 0.  1.
         11   -1    0    0    0    0 -0.00000000000E+00 -0.00000000000E+00 -0.45593999997E+02  0.45594000000E+02  0.51100000000E-03 0. -1.
    9900012    2    1    2    0    0 -0.17706843193E+02 -0.37111305381E+01  0.48367805608E+01  0.72461034631E+02  0.69999302196E+02 0.  0.
         12    1    1    2    0    0  0.17706843193E+02  0.37111305381E+01 -0.48367805608E+01  0.18726965369E+02  0.00000000000E+00 0. -1.
         11    1    3    3    0    0  0.76479735549E+01 -0.12490763347E+02 -0.11152294520E+02  0.18408811526E+02  0.51100000000E-03 0. -1.
        -11    1    3    3    0    0 -0.13136960411E+02 -0.14480486652E+02 -0.52762400568E+01  0.20250998294E+02  0.51100000000E-03 0.  1.
        -12    1    3    3    0    0 -0.12217856337E+02  0.23260119461E+02  0.21265315137E+02  0.33801224811E+02  0.00000000000E+00 0.  1.
</event>
<event>
 7    1  0.3189267E-013  0.7246088E+02  0.7816164E-02  0.1226710E+00
        -11   -1    0    0    0    0  0.00000000000E+00  0.00000000000E+00  0.45593999997E+02  0.45594000000E+02  0.51100000000E-03 0. -1.
         11   -1    0    0    0    0 -0.00000000000E+00 -0.00000000000E+00 -0.45593999997E+02  0.45594000000E+02  0.51100000000E-03 0.  1.
    9900012    2    1    2    0    0 -0.14290517300E+02 -0.10797065081E+02 -0.54689723271E+01  0.72460876425E+02  0.69999096100E+02 0.  0.
         12    1    1    2    0    0  0.14290517300E+02  0.10797065081E+02  0.54689723271E+01  0.18727123575E+02  0.00000000000E+00 0. -1.
         11    1    3    3    0    0 -0.16626099424E+02  0.79720093012E+01  0.71548931365E+01  0.19778084093E+02  0.51100000000E-03 0. -1.
        -11    1    3    3    0    0  0.82471819965E+00  0.67430291696E+01 -0.23828331022E+02  0.24777771531E+02  0.51100000000E-03 0.  1.
         12    1    3    3    0    0  0.15108639237E+01 -0.25512103552E+02  0.11204465558E+02  0.27905020801E+02  0.00000000000E+00 0. -1.
</event>
<event>
 7    1  0.3189267E-013  0.7246145E+02  0.7816164E-02  0.1226708E+00
        -11   -1    0    0    0    0  0.00000000000E+00  0.00000000000E+00  0.45593999997E+02  0.45594000000E+02  0.51100000000E-03 0.  1.
         11   -1    0    0    0    0 -0.00000000000E+00 -0.00000000000E+00 -0.45593999997E+02  0.45594000000E+02  0.51100000000E-03 0. -1.
    9900012    2    1    2    0    0  0.70593060397E+01  0.13498185397E+02  0.10892598912E+02  0.72461454087E+02  0.69999848618E+02 0.  0.
         12    1    1    2    0    0 -0.70593060397E+01 -0.13498185397E+02 -0.10892598912E+02  0.18726545913E+02  0.00000000000E+00 0. -1.
         11    1    3    3    0    0 -0.17447910568E+01 -0.93609410911E+01  0.50017665321E+01  0.10755890602E+02  0.51100000000E-03 0.  1.
        -11    1    3    3    0    0 -0.10198160494E+02 -0.10850940577E+02  0.15849762488E+02  0.21747651828E+02  0.51100000000E-03 0. -1.
         12    1    3    3    0    0  0.19002257590E+02  0.33710067065E+02 -0.99589301075E+01  0.39957911656E+02  0.00000000000E+00 0. -1.
</event>
<event>
 7    1  0.3189267E-013  0.7246151E+02  0.7816164E-02  0.1226708E+00
        -11   -1    0    0    0    0  0.00000000000E+00  0.00000000000E+00  0.45593999997E+02  0.45594000000E+02  0.51100000000E-03 0.  1.
         11   -1    0    0    0    0 -0.00000000000E+00 -0.00000000000E+00 -0.45593999997E+02  0.45594000000E+02  0.51100000000E-03 0. -1.
    9900012    2    1    2    0    0  0.11678003473E+02 -0.14638960227E+02  0.81310590414E-01  0.72461507187E+02  0.69999917792E+02 0.  0.
         12    1    1    2    0    0 -0.11678003473E+02  0.14638960227E+02 -0.81310590414E-01  0.18726492813E+02  0.00000000000E+00 0. -1.
         11    1    3    3    0    0 -0.11084352367E+02  0.11582339234E+00  0.72844147247E+01  0.13264199207E+02  0.51100000000E-03 0. -1.
        -11    1    3    3    0    0 -0.20634862249E+01  0.81160986296E+01  0.16122065879E+02  0.18167279401E+02  0.51100000000E-03 0.  1.
         12    1    3    3    0    0  0.24825842065E+02 -0.22870882249E+02 -0.23325170013E+02  0.41030028580E+02  0.00000000000E+00 0. -1.
</event>
<event>
 7    1  0.3189267E-013  0.7246166E+02  0.7816164E-02  0.1226708E+00
        -11   -1    0    0    0    0  0.00000000000E+00  0.00000000000E+00  0.45593999997E+02  0.45594000000E+02  0.51100000000E-03 0. -1.
         11   -1    0    0    0    0 -0.00000000000E+00 -0.00000000000E+00 -0.45593999997E+02  0.45594000000E+02  0.51100000000E-03 0.  1.
    9900012    2    1    2    0    0 -0.16886423395E+02  0.62551437699E+01  0.51378840542E+01  0.72461655690E+02  0.70000111244E+02 0.  0.
         12    1    1    2    0    0  0.16886423395E+02 -0.62551437699E+01 -0.51378840542E+01  0.18726344310E+02  0.00000000000E+00 0. -1.
         11    1    3    3    0    0 -0.54390004300E-02 -0.11656056774E+02  0.23751971865E+02  0.26457888367E+02  0.51100000000E-03 0. -1.
        -11    1    3    3    0    0  0.39091972480E+01  0.18212044744E+02 -0.83341940215E+00  0.18645508442E+02  0.51100000000E-03 0.  1.
        -12    1    3    3    0    0 -0.20790181643E+02 -0.30084419987E+00 -0.17780668409E+02  0.27358258881E+02  0.00000000000E+00 0.  1.
</event>
<event>
 7    1  0.3189267E-013  0.7246162E+02  0.7816164E-02  0.1226708E+00
        -11   -1    0    0    0    0  0.00000000000E+00  0.00000000000E+00  0.45593999997E+02  0.45594000000E+02  0.51100000000E-03 0.  1.
         11   -1    0    0    0    0 -0.00000000000E+00 -0.00000000000E+00 -0.45593999997E+02  0.45594000000E+02  0.51100000000E-03 0. -1.
    9900012    2    1    2    0    0 -0.10924775899E+02  0.11349145390E+01  0.15167025906E+02  0.72461616626E+02  0.70000060355E+02 0.  0.
         12    1    1    2    0    0  0.10924775899E+02 -0.11349145390E+01 -0.15167025906E+02  0.18726383374E+02  0.00000000000E+00 0. -1.
         11    1    3    3    0    0 -0.19489650609E+02  0.29493260272E+02  0.62713708067E+01  0.35903049653E+02  0.51100000000E-03 0.  1.
        -11    1    3    3    0    0 -0.10466374684E+01 -0.53217799746E+01 -0.55158555719E+01  0.77357258896E+01  0.51100000000E-03 0. -1.
        -12    1    3    3    0    0  0.96115121781E+01 -0.23036565758E+02  0.14411510671E+02  0.28822841083E+02  0.00000000000E+00 0.  1.
</event>
<event>
 7    1  0.3189267E-013  0.7246155E+02  0.7816164E-02  0.1226708E+00
        -11   -1    0    0    0    0  0.00000000000E+00  0.00000000000E+00  0.45593999997E+02  0.45594000000E+02  0.51100000000E-03 0.  1.
         11   -1    0    0    0    0 -0.00000000000E+00 -0.00000000000E+00 -0.45593999997E+02  0.45594000000E+02  0.51100000000E-03 0. -1.
    9900012    2    1    2    0    0  0.10204621914E+02 -0.44403824214E+01 -0.15060830495E+02  0.72461550265E+02  0.69999973909E+02 0.  0.
         12    1    1    2    0    0 -0.10204621914E+02  0.44403824214E+01  0.15060830495E+02  0.18726449735E+02  0.00000000000E+00 0. -1.
         11    1    3    3    0    0  0.70700492725E+01  0.84013795032E+01 -0.10905865370E+02  0.15476003166E+02  0.51100000000E-03 0. -1.
        -11    1    3    3    0    0  0.25547662844E+01  0.19074880608E+02 -0.13750338056E+02  0.23652689021E+02  0.51100000000E-03 0.  1.
        -12    1    3    3    0    0  0.57980635736E+00 -0.31916642533E+02  0.95953729313E+01  0.33332858078E+02  0.00000000000E+00 0.  1.
</event>
<event>
 7    1  0.3189267E-013  0.7246161E+02  0.7816164E-02  0.1226708E+00
        -11   -1    0    0    0    0  0.00000000000E+00  0.00000000000E+00  0.45593999997E+02  0.45594000000E+02  0.51100000000E-03 0.  1.
         11   -1    0    0    0    0 -0.00000000000E+00 -0.00000000000E+00 -0.45593999997E+02  0.45594000000E+02  0.51100000000E-03 0. -1.
    9900012    2    1    2    0    0  0.16108351586E+02 -0.19443576775E+01  0.93497605747E+01  0.72461613793E+02  0.70000056664E+02 0.  0.
         12    1    1    2    0    0 -0.16108351586E+02  0.19443576775E+01 -0.93497605747E+01  0.18726386207E+02  0.00000000000E+00 0. -1.
         11    1    3    3    0    0 -0.17311583731E+02 -0.60176347595E+01 -0.87550584618E+01  0.20311423099E+02  0.51100000000E-03 0. -1.
        -11    1    3    3    0    0 -0.53106741922E+00  0.13517931133E+02  0.67993433010E+01  0.15140923496E+02  0.51100000000E-03 0.  1.
        -12    1    3    3    0    0  0.33951002736E+02 -0.94446540509E+01  0.11305475735E+02  0.37009267198E+02  0.00000000000E+00 0.  1.
</event>
<event>
 7    1  0.3189267E-013  0.7246156E+02  0.7816164E-02  0.1226708E+00
        -11   -1    0    0    0    0  0.00000000000E+00  0.00000000000E+00  0.45593999997E+02  0.45594000000E+02  0.51100000000E-03 0.  1.
         11   -1    0    0    0    0 -0.00000000000E+00 -0.00000000000E+00 -0.45593999997E+02  0.45594000000E+02  0.51100000000E-03 0. -1.
    9900012    2    1    2    0    0 -0.40283067241E+01 -0.16753620069E+02  0.73327006017E+01  0.72461560440E+02  0.69999987163E+02 0.  0.
         12    1    1    2    0    0  0.40283067241E+01  0.16753620069E+02 -0.73327006017E+01  0.18726439560E+02  0.00000000000E+00 0. -1.
         11    1    3    3    0    0  0.58901396510E+01  0.16408556076E+02  0.15009435071E+02  0.23004729927E+02  0.51100000000E-03 0. -1.
        -11    1    3    3    0    0  0.16014319463E+01 -0.10077945083E+02  0.12906303551E+02  0.16453031119E+02  0.51100000000E-03 0.  1.
         12    1    3    3    0    0 -0.11519878321E+02 -0.23084231062E+02 -0.20583038021E+02  0.33003799394E+02  0.00000000000E+00 0. -1.
</event>
<event>
 7    1  0.3189267E-013  0.7246156E+02  0.7816164E-02  0.1226708E+00
        -11   -1    0    0    0    0  0.00000000000E+00  0.00000000000E+00  0.45593999997E+02  0.45594000000E+02  0.51100000000E-03 0.  1.
         11   -1    0    0    0    0 -0.00000000000E+00 -0.00000000000E+00 -0.45593999997E+02  0.45594000000E+02  0.51100000000E-03 0. -1.
    9900012    2    1    2    0    0  0.13189926952E+02  0.10042139226E+02  0.87098049733E+01  0.72461563182E+02  0.69999990735E+02 0.  0.
         12    1    1    2    0    0 -0.13189926952E+02 -0.10042139226E+02 -0.87098049733E+01  0.18726436818E+02  0.00000000000E+00 0. -1.
         11    1    3    3    0    0 -0.14247916784E+01 -0.20038649533E+02 -0.83392878731E+01  0.21751350048E+02  0.51100000000E-03 0. -1.
        -11    1    3    3    0    0  0.11953734814E+02 -0.32313594399E+01  0.11373571164E+02  0.16813434543E+02  0.51100000000E-03 0.  1.
         12    1    3    3    0    0  0.26609838161E+01  0.33312148199E+02  0.56755216825E+01  0.33896778591E+02  0.00000000000E+00 0. -1.
</event>
<event>
 7    1  0.3189267E-013  0.7246157E+02  0.7816164E-02  0.1226708E+00
        -11   -1    0    0    0    0  0.00000000000E+00  0.00000000000E+00  0.45593999997E+02  0.45594000000E+02  0.51100000000E-03 0.  1.
         11   -1    0    0    0    0 -0.00000000000E+00 -0.00000000000E+00 -0.45593999997E+02  0.45594000000E+02  0.51100000000E-03 0. -1.
    9900012    2    1    2    0    0 -0.28244160842E+01  0.11922212916E+02  0.14162013392E+02  0.72461571874E+02  0.70000002058E+02 0.  0.
         12    1    1    2    0    0  0.28244160842E+01 -0.11922212916E+02 -0.14162013392E+02  0.18726428126E+02  0.00000000000E+00 0. -1.
         11    1    3    3    0    0 -0.19453107150E+02  0.21210670502E+02 -0.52105651510E+01  0.29248348849E+02  0.51100000000E-03 0. -1.
        -11    1    3    3    0    0 -0.10259011686E+02 -0.48022639063E+01  0.47912075177E+01  0.12298972686E+02  0.51100000000E-03 0.  1.
        -12    1    3    3    0    0  0.26887702752E+02 -0.44861936790E+01  0.14581371026E+02  0.30914250339E+02  0.00000000000E+00 0.  1.
</event>
<event>
 7    1  0.3189267E-013  0.7246157E+02  0.7816164E-02  0.1226708E+00
        -11   -1    0    0    0    0  0.00000000000E+00  0.00000000000E+00  0.45593999997E+02  0.45594000000E+02  0.51100000000E-03 0.  1.
         11   -1    0    0    0    0 -0.00000000000E+00 -0.00000000000E+00 -0.45593999997E+02  0.45594000000E+02  0.51100000000E-03 0. -1.
    9900012    2    1    2    0    0  0.24124251264E+01  0.16897025487E+02 -0.77038817321E+01  0.72461573245E+02  0.70000003843E+02 0.  0.
         12    1    1    2    0    0 -0.24124251264E+01 -0.16897025487E+02  0.77038817321E+01  0.18726426755E+02  0.00000000000E+00 0. -1.
         11    1    3    3    0    0 -0.12546069450E+01  0.44155318100E+01  0.15644305662E+02  0.16303841868E+02  0.51100000000E-03 0. -1.
        -11    1    3    3    0    0  0.15348435231E+02  0.13408289363E+02  0.86058871791E+01  0.22122793270E+02  0.51100000000E-03 0.  1.
         12    1    3    3    0    0 -0.11681403159E+02 -0.92679568665E+00 -0.31954074574E+02  0.34034938106E+02  0.00000000000E+00 0. -1.
</event>
<event>
 7    1  0.3189267E-013  0.7246206E+02  0.7816164E-02  0.1226707E+00
        -11   -1    0    0    0    0  0.00000000000E+00  0.00000000000E+00  0.45593999997E+02  0.45594000000E+02  0.51100000000E-03 0.  1.
         11   -1    0    0    0    0 -0.00000000000E+00 -0.00000000000E+00 -0.45593999997E+02  0.45594000000E+02  0.51100000000E-03 0. -1.
    9900012    2    1    2    0    0  0.11895428536E+02  0.12251703094E+02  0.76847388021E+01  0.72462064530E+02  0.70000643831E+02 0.  0.
         12    1    1    2    0    0 -0.11895428536E+02 -0.12251703094E+02 -0.76847388021E+01  0.18725935470E+02  0.00000000000E+00 0. -1.
         11    1    3    3    0    0 -0.45234415419E+01 -0.59426613047E+01  0.41514344032E+01  0.85446564957E+01  0.51100000000E-03 0. -1.
        -11    1    3    3    0    0 -0.10663654140E+02  0.13685080466E+02  0.24041780447E+02  0.29647970492E+02  0.51100000000E-03 0.  1.
         12    1    3    3    0    0  0.27082524219E+02  0.45092839326E+01 -0.20508476048E+02  0.34269437542E+02  0.00000000000E+00 0. -1.
</event>
<event>
 7    1  0.3189267E-013  0.7246153E+02  0.7816164E-02  0.1226708E+00
        -11   -1    0    0    0    0  0.00000000000E+00  0.00000000000E+00  0.45593999997E+02  0.45594000000E+02  0.51100000000E-03 0.  1.
         11   -1    0    0    0    0 -0.00000000000E+00 -0.00000000000E+00 -0.45593999997E+02  0.45594000000E+02  0.51100000000E-03 0. -1.
    9900012    2    1    2    0    0  0.11118958499E+02  0.14628196123E+02 -0.36146185951E+01  0.72461526026E+02  0.69999942333E+02 0.  0.
         12    1    1    2    0    0 -0.11118958499E+02 -0.14628196123E+02  0.36146185951E+01  0.18726473974E+02  0.00000000000E+00 0. -1.
         11    1    3    3    0    0 -0.56221451369E+01  0.16183777523E+01  0.36957955165E+01  0.69200120846E+01  0.51100000000E-03 0. -1.
        -11    1    3    3    0    0  0.80134600842E+01  0.31181737468E+02  0.14961050041E+02  0.35501398742E+02  0.51100000000E-03 0.  1.
         12    1    3    3    0    0  0.87276435514E+01 -0.18171919098E+02 -0.22271464153E+02  0.30040115199E+02  0.00000000000E+00 0. -1.
</event>
<event>
 7    1  0.3189267E-013  0.7246155E+02  0.7816164E-02  0.1226708E+00
        -11   -1    0    0    0    0  0.00000000000E+00  0.00000000000E+00  0.45593999997E+02  0.45594000000E+02  0.51100000000E-03 0. -1.
         11   -1    0    0    0    0 -0.00000000000E+00 -0.00000000000E+00 -0.45593999997E+02  0.45594000000E+02  0.51100000000E-03 0.  1.
    9900012    2    1    2    0    0 -0.47530139572E+00  0.39186555208E+01 -0.18305690066E+02  0.72461546484E+02  0.69999968982E+02 0.  0.
         12    1    1    2    0    0  0.47530139572E+00 -0.39186555208E+01  0.18305690066E+02  0.18726453516E+02  0.00000000000E+00 0. -1.
         11    1    3    3    0    0  0.10245223698E+02  0.25830758426E+02 -0.14294257252E+02  0.31249295674E+02  0.51100000000E-03 0. -1.
        -11    1    3    3    0    0 -0.78090587978E+01  0.55407203411E+01 -0.90203382697E+01  0.13154751384E+02  0.51100000000E-03 0.  1.
        -12    1    3    3    0    0 -0.29114662956E+01 -0.27452823246E+02  0.50089054555E+01  0.28057499426E+02  0.00000000000E+00 0.  1.
</event>
<event>
 7    1  0.3189267E-013  0.7246157E+02  0.7816164E-02  0.1226708E+00
        -11   -1    0    0    0    0  0.00000000000E+00  0.00000000000E+00  0.45593999997E+02  0.45594000000E+02  0.51100000000E-03 0.  1.
         11   -1    0    0    0    0 -0.00000000000E+00 -0.00000000000E+00 -0.45593999997E+02  0.45594000000E+02  0.51100000000E-03 0. -1.
    9900012    2    1    2    0    0  0.16802031887E+02 -0.79683270384E+01  0.22082867686E+01  0.72461573705E+02  0.70000004443E+02 0.  0.
         12    1    1    2    0    0 -0.16802031887E+02  0.79683270384E+01 -0.22082867686E+01  0.18726426295E+02  0.00000000000E+00 0. -1.
         11    1    3    3    0    0 -0.61485646725E+01  0.15846338596E+02  0.13032651741E+02  0.21418713922E+02  0.51100000000E-03 0. -1.
        -11    1    3    3    0    0 -0.50981893559E+01 -0.15554157601E+02  0.58504561584E+01  0.17382496682E+02  0.51100000000E-03 0.  1.
        -12    1    3    3    0    0  0.28048785916E+02 -0.82605080333E+01 -0.16674821131E+02  0.33660363101E+02  0.00000000000E+00 0.  1.
</event>
<event>
 7    1  0.3189267E-013  0.7246155E+02  0.7816164E-02  0.1226708E+00
        -11   -1    0    0    0    0  0.00000000000E+00  0.00000000000E+00  0.45593999997E+02  0.45594000000E+02  0.51100000000E-03 0.  1.
         11   -1    0    0    0    0 -0.00000000000E+00 -0.00000000000E+00 -0.45593999997E+02  0.45594000000E+02  0.51100000000E-03 0. -1.
    9900012    2    1    2    0    0 -0.53855320074E+01 -0.17168981377E+02  0.51867040082E+01  0.72461554128E+02  0.69999978940E+02 0.  0.
         12    1    1    2    0    0  0.53855320074E+01  0.17168981377E+02 -0.51867040082E+01  0.18726445872E+02  0.00000000000E+00 0. -1.
         11    1    3    3    0    0 -0.14627142256E+02  0.15245405656E+01  0.23742677108E+02  0.27928341000E+02  0.51100000000E-03 0. -1.
        -11    1    3    3    0    0 -0.45408453572E+01  0.50252389607E+01  0.49649345456E+01  0.83977900946E+01  0.51100000000E-03 0.  1.
         12    1    3    3    0    0  0.13782455606E+02 -0.23718760904E+02 -0.23520907645E+02  0.36135423033E+02  0.00000000000E+00 0. -1.
</event>
<event>
 7    1  0.3189267E-013  0.7246155E+02  0.7816164E-02  0.1226708E+00
        -11   -1    0    0    0    0  0.00000000000E+00  0.00000000000E+00  0.45593999997E+02  0.45594000000E+02  0.51100000000E-03 0.  1.
         11   -1    0    0    0    0 -0.00000000000E+00 -0.00000000000E+00 -0.45593999997E+02  0.45594000000E+02  0.51100000000E-03 0. -1.
    9900012    2    1    2    0    0  0.83462057461E+01 -0.11334792675E+02  0.12350847264E+02  0.72461545357E+02  0.69999967515E+02 0.  0.
         12    1    1    2    0    0 -0.83462057461E+01  0.11334792675E+02 -0.12350847264E+02  0.18726454643E+02  0.00000000000E+00 0. -1.
         11    1    3    3    0    0  0.36273744907E+01 -0.99980718808E+01  0.54390387239E+01  0.11945812217E+02  0.51100000000E-03 0. -1.
        -11    1    3    3    0    0 -0.13086502128E+02 -0.26158262878E+02  0.65145721754E+01  0.29965828966E+02  0.51100000000E-03 0.  1.
         12    1    3    3    0    0  0.17805333384E+02  0.24821542083E+02  0.39723636482E+00  0.30549904174E+02  0.00000000000E+00 0. -1.
</event>
<event>
 7    1  0.4938967E-013  0.7246155E+02  0.7816164E-02  0.1226708E+00
        -11   -1    0    0    0    0  0.00000000000E+00  0.00000000000E+00  0.45593999997E+02  0.45594000000E+02  0.51100000000E-03 0. -1.
         11   -1    0    0    0    0 -0.00000000000E+00 -0.00000000000E+00 -0.45593999997E+02  0.45594000000E+02  0.51100000000E-03 0.  1.
    9900012    2    1    2    0    0 -0.21701595261E+01  0.42169843592E+01 -0.18115937729E+02  0.72461554815E+02  0.69999979836E+02 0.  0.
         12    1    1    2    0    0  0.21701595261E+01 -0.42169843592E+01  0.18115937729E+02  0.18726445185E+02  0.00000000000E+00 0. -1.
         11    1    3    3    0    0 -0.13905732728E+02  0.15296477064E+02  0.15359524412E+02  0.25753962874E+02  0.51100000000E-03 0. -1.
        -11    1    3    3    0    0 -0.51296039467E+01  0.53126701861E+01 -0.15282992562E+02  0.16973719777E+02  0.51100000000E-03 0.  1.
        -12    1    3    3    0    0  0.16865177148E+02 -0.16392162891E+02 -0.18192469579E+02  0.29733872165E+02  0.00000000000E+00 0.  1.
</event>
<event>
 7    1  0.3189267E-013  0.7246149E+02  0.7816164E-02  0.1226708E+00
        -11   -1    0    0    0    0  0.00000000000E+00  0.00000000000E+00  0.45593999997E+02  0.45594000000E+02  0.51100000000E-03 0.  1.
         11   -1    0    0    0    0 -0.00000000000E+00 -0.00000000000E+00 -0.45593999997E+02  0.45594000000E+02  0.51100000000E-03 0. -1.
    9900012    2    1    2    0    0  0.37512352952E+00  0.18632053911E+02 -0.18406536110E+01  0.72461490546E+02  0.69999896113E+02 0.  0.
         12    1    1    2    0    0 -0.37512352952E+00 -0.18632053911E+02  0.18406536110E+01  0.18726509454E+02  0.00000000000E+00 0. -1.
         11    1    3    3    0    0 -0.22274161402E+02  0.19040856526E+02  0.14352921150E+01  0.29338584614E+02  0.51100000000E-03 0. -1.
        -11    1    3    3    0    0 -0.66644838990E+01  0.46935520756E+01  0.78878945702E+01  0.11343000385E+02  0.51100000000E-03 0.  1.
        -12    1    3    3    0    0  0.29313768831E+02 -0.51023546905E+01 -0.11163840296E+02  0.31779905547E+02  0.00000000000E+00 0.  1.
</event>
<event>
 7    1  0.3189267E-013  0.7246144E+02  0.7816164E-02  0.1226708E+00
        -11   -1    0    0    0    0  0.00000000000E+00  0.00000000000E+00  0.45593999997E+02  0.45594000000E+02  0.51100000000E-03 0.  1.
         11   -1    0    0    0    0 -0.00000000000E+00 -0.00000000000E+00 -0.45593999997E+02  0.45594000000E+02  0.51100000000E-03 0. -1.
    9900012    2    1    2    0    0 -0.97713552587E+01 -0.11467812382E+01  0.15933914040E+02  0.72461438451E+02  0.69999828249E+02 0.  0.
         12    1    1    2    0    0  0.97713552587E+01  0.11467812382E+01 -0.15933914040E+02  0.18726561549E+02  0.00000000000E+00 0. -1.
         11    1    3    3    0    0 -0.23325325764E+02 -0.89532089532E+01 -0.10370447523E+02  0.27051376206E+02  0.51100000000E-03 0. -1.
        -11    1    3    3    0    0 -0.29742683530E+01  0.92149653046E+01  0.27125109682E+02  0.28801622060E+02  0.51100000000E-03 0.  1.
        -12    1    3    3    0    0  0.16528238858E+02 -0.14085375896E+01 -0.82074811771E+00  0.16608440185E+02  0.00000000000E+00 0.  1.
</event>
<event>
 7    1  0.3189267E-013  0.7246155E+02  0.7816164E-02  0.1226708E+00
        -11   -1    0    0    0    0  0.00000000000E+00  0.00000000000E+00  0.45593999997E+02  0.45594000000E+02  0.51100000000E-03 0. -1.
         11   -1    0    0    0    0 -0.00000000000E+00 -0.00000000000E+00 -0.45593999997E+02  0.45594000000E+02  0.51100000000E-03 0.  1.
    9900012    2    1    2    0    0 -0.17408427528E+02  0.23520161985E+01 -0.64880313957E+01  0.72461551309E+02  0.69999975268E+02 0.  0.
         12    1    1    2    0    0  0.17408427528E+02 -0.23520161985E+01  0.64880313957E+01  0.18726448691E+02  0.00000000000E+00 0. -1.
         11    1    3    3    0    0  0.12581444377E+02  0.16456898962E+02 -0.21491188223E+01  0.20826449002E+02  0.51100000000E-03 0. -1.
        -11    1    3    3    0    0 -0.99679247055E+01  0.93985443254E+01 -0.13697029664E+02  0.19372681287E+02  0.51100000000E-03 0.  1.
        -12    1    3    3    0    0 -0.20021947199E+02 -0.23503427089E+02  0.93581170910E+01  0.32262421020E+02  0.00000000000E+00 0.  1.
</event>
<event>
 7    1  0.3189267E-013  0.7246159E+02  0.7816164E-02  0.1226708E+00
        -11   -1    0    0    0    0  0.00000000000E+00  0.00000000000E+00  0.45593999997E+02  0.45594000000E+02  0.51100000000E-03 0. -1.
         11   -1    0    0    0    0 -0.00000000000E+00 -0.00000000000E+00 -0.45593999997E+02  0.45594000000E+02  0.51100000000E-03 0.  1.
    9900012    2    1    2    0    0 -0.21851872543E+01  0.14441292984E+01 -0.18542328291E+02  0.72461588405E+02  0.70000023592E+02 0.  0.
         12    1    1    2    0    0  0.21851872543E+01 -0.14441292984E+01  0.18542328291E+02  0.18726411595E+02  0.00000000000E+00 0. -1.
         11    1    3    3    0    0  0.10627792290E+02 -0.42111508682E+01  0.14607957313E+02  0.18549290490E+02  0.51100000000E-03 0. -1.
        -11    1    3    3    0    0 -0.14820762279E+02 -0.14467971596E+02 -0.94766621312E+01  0.22776837402E+02  0.51100000000E-03 0.  1.
        -12    1    3    3    0    0  0.20077827351E+01  0.20123251762E+02 -0.23673623473E+02  0.31135460512E+02  0.00000000000E+00 0.  1.
</event>
<event>
 7    1  0.3189267E-013  0.7246164E+02  0.7816164E-02  0.1226708E+00
        -11   -1    0    0    0    0  0.00000000000E+00  0.00000000000E+00  0.45593999997E+02  0.45594000000E+02  0.51100000000E-03 0.  1.
         11   -1    0    0    0    0 -0.00000000000E+00 -0.00000000000E+00 -0.45593999997E+02  0.45594000000E+02  0.51100000000E-03 0. -1.
    9900012    2    1    2    0    0 -0.53657756587E+01 -0.62470838469E+01  0.16818407503E+02  0.72461643282E+02  0.70000095079E+02 0.  0.
         12    1    1    2    0    0  0.53657756587E+01  0.62470838469E+01 -0.16818407503E+02  0.18726356718E+02  0.00000000000E+00 0. -1.
         11    1    3    3    0    0  0.11978660750E+02 -0.44331641296E+01 -0.14941389039E+02  0.19656712956E+02  0.51100000000E-03 0. -1.
        -11    1    3    3    0    0  0.89694444205E+01  0.12037343125E+01 -0.26052031799E+01  0.94173772027E+01  0.51100000000E-03 0.  1.
        -12    1    3    3    0    0 -0.26313880829E+02 -0.30176540299E+01  0.34364999721E+02  0.43387553123E+02  0.00000000000E+00 0.  1.
</event>
<event>
 7    1  0.3189267E-013  0.7246158E+02  0.7816164E-02  0.1226708E+00
        -11   -1    0    0    0    0  0.00000000000E+00  0.00000000000E+00  0.45593999997E+02  0.45594000000E+02  0.51100000000E-03 0.  1.
         11   -1    0    0    0    0 -0.00000000000E+00 -0.00000000000E+00 -0.45593999997E+02  0.45594000000E+02  0.51100000000E-03 0. -1.
    9900012    2    1    2    0    0  0.11301225801E+02 -0.71845160296E+01  0.13089835909E+02  0.72461580713E+02  0.70000013572E+02 0.  0.
         12    1    1    2    0    0 -0.11301225801E+02  0.71845160296E+01 -0.13089835909E+02  0.18726419287E+02  0.00000000000E+00 0. -1.
         11    1    3    3    0    0  0.73047398733E+01  0.28230905118E+01  0.20570716351E+02  0.22010984442E+02  0.51100000000E-03 0.  1.
        -11    1    3    3    0    0 -0.65806531082E+01 -0.28017261836E+02 -0.67038210723E+01  0.29550180598E+02  0.51100000000E-03 0. -1.
         12    1    3    3    0    0  0.10577139036E+02  0.18009655295E+02 -0.77705936993E+00  0.20900415673E+02  0.00000000000E+00 0. -1.
</event>
<event>
 7    1  0.3189267E-013  0.7246157E+02  0.7816164E-02  0.1226708E+00
        -11   -1    0    0    0    0  0.00000000000E+00  0.00000000000E+00  0.45593999997E+02  0.45594000000E+02  0.51100000000E-03 0.  1.
         11   -1    0    0    0    0 -0.00000000000E+00 -0.00000000000E+00 -0.45593999997E+02  0.45594000000E+02  0.51100000000E-03 0. -1.
    9900012    2    1    2    0    0 -0.37454543644E+01 -0.46335904855E+01  0.17753322537E+02  0.72461573478E+02  0.70000004147E+02 0.  0.
         12    1    1    2    0    0  0.37454543644E+01  0.46335904855E+01 -0.17753322537E+02  0.18726426522E+02  0.00000000000E+00 0. -1.
         11    1    3    3    0    0 -0.17277461864E+02  0.96818798869E+01  0.36793650804E+01  0.20144160798E+02  0.51100000000E-03 0. -1.
        -11    1    3    3    0    0  0.69613647982E+01 -0.15126901321E+02 -0.15053188191E+02  0.22447320962E+02  0.51100000000E-03 0.  1.
        -12    1    3    3    0    0  0.65706427012E+01  0.81143094824E+00  0.29127145647E+02  0.29870091718E+02  0.00000000000E+00 0.  1.
</event>
<event>
 7    1  0.3189267E-013  0.7246156E+02  0.7816164E-02  0.1226708E+00
        -11   -1    0    0    0    0  0.00000000000E+00  0.00000000000E+00  0.45593999997E+02  0.45594000000E+02  0.51100000000E-03 0. -1.
         11   -1    0    0    0    0 -0.00000000000E+00 -0.00000000000E+00 -0.45593999997E+02  0.45594000000E+02  0.51100000000E-03 0.  1.
    9900012    2    1    2    0    0 -0.76869538972E+01  0.19466452080E+01 -0.16964691861E+02  0.72461562599E+02  0.69999989976E+02 0.  0.
         12    1    1    2    0    0  0.76869538972E+01 -0.19466452080E+01  0.16964691861E+02  0.18726437401E+02  0.00000000000E+00 0. -1.
         11    1    3    3    0    0  0.11010497657E+02 -0.12263499324E+02  0.18193819388E+02  0.24548717655E+02  0.51100000000E-03 0. -1.
        -11    1    3    3    0    0  0.39604896285E+01 -0.86276951304E+00 -0.88425034767E+00  0.41487044084E+01  0.51100000000E-03 0.  1.
        -12    1    3    3    0    0 -0.22657941183E+02  0.15072914046E+02 -0.34274260901E+02  0.43764140535E+02  0.00000000000E+00 0.  1.
</event>
<event>
 7    1  0.3189267E-013  0.7246157E+02  0.7816164E-02  0.1226708E+00
        -11   -1    0    0    0    0  0.00000000000E+00  0.00000000000E+00  0.45593999997E+02  0.45594000000E+02  0.51100000000E-03 0. -1.
         11   -1    0    0    0    0 -0.00000000000E+00 -0.00000000000E+00 -0.45593999997E+02  0.45594000000E+02  0.51100000000E-03 0.  1.
    9900012    2    1    2    0    0  0.15709548397E+02 -0.78695863969E+01  0.64775748290E+01  0.72461567436E+02  0.69999996277E+02 0.  0.
         12    1    1    2    0    0 -0.15709548397E+02  0.78695863969E+01 -0.64775748290E+01  0.18726432564E+02  0.00000000000E+00 0. -1.
         11    1    3    3    0    0  0.50596287268E+01 -0.22346600591E+01 -0.58177450482E+01  0.80274345927E+01  0.51100000000E-03 0. -1.
        -11    1    3    3    0    0  0.22209727194E+02  0.13836901926E+02 -0.14044751284E+02  0.29698263851E+02  0.51100000000E-03 0.  1.
         12    1    3    3    0    0 -0.11559807523E+02 -0.19471828263E+02  0.26340071161E+02  0.34735868992E+02  0.00000000000E+00 0. -1.
</event>
<event>
 7    1  0.3189267E-013  0.7246159E+02  0.7816164E-02  0.1226708E+00
        -11   -1    0    0    0    0  0.00000000000E+00  0.00000000000E+00  0.45593999997E+02  0.45594000000E+02  0.51100000000E-03 0. -1.
         11   -1    0    0    0    0 -0.00000000000E+00 -0.00000000000E+00 -0.45593999997E+02  0.45594000000E+02  0.51100000000E-03 0.  1.
    9900012    2    1    2    0    0 -0.17110783173E+02 -0.75009376933E+01 -0.12788773700E+01  0.72461588320E+02  0.70000023482E+02 0.  0.
         12    1    1    2    0    0  0.17110783173E+02  0.75009376933E+01  0.12788773700E+01  0.18726411680E+02  0.00000000000E+00 0. -1.
         11    1    3    3    0    0  0.65675641812E+01  0.71529356625E+01  0.13031216453E+02  0.16251461176E+02  0.51100000000E-03 0. -1.
        -11    1    3    3    0    0  0.13491680492E+02 -0.87828116226E+01 -0.44012712675E+00  0.16104562541E+02  0.51100000000E-03 0.  1.
        -12    1    3    3    0    0 -0.37170027846E+02 -0.58710617332E+01 -0.13869966696E+02  0.40105564603E+02  0.00000000000E+00 0.  1.
</event>
<event>
 7    1  0.3189267E-013  0.7246146E+02  0.7816164E-02  0.1226708E+00
        -11   -1    0    0    0    0  0.00000000000E+00  0.00000000000E+00  0.45593999997E+02  0.45594000000E+02  0.51100000000E-03 0. -1.
         11   -1    0    0    0    0 -0.00000000000E+00 -0.00000000000E+00 -0.45593999997E+02  0.45594000000E+02  0.51100000000E-03 0.  1.
    9900012    2    1    2    0    0  0.10997687018E+02  0.13903243340E+02  0.60360657219E+01  0.72461457754E+02  0.69999853395E+02 0.  0.
         12    1    1    2    0    0 -0.10997687018E+02 -0.13903243340E+02 -0.60360657219E+01  0.18726542246E+02  0.00000000000E+00 0. -1.
         11    1    3    3    0    0  0.13922847897E+02  0.31167431733E+02  0.70101781692E+01  0.34848200709E+02  0.51100000000E-03 0. -1.
        -11    1    3    3    0    0  0.12742981639E+02 -0.22028822908E+01  0.67004655409E+01  0.14564769486E+02  0.51100000000E-03 0.  1.
        -12    1    3    3    0    0 -0.15668142518E+02 -0.15061306103E+02 -0.76745779883E+01  0.23048487560E+02  0.00000000000E+00 0.  1.
</event>
<event>
 7    1  0.3189267E-013  0.7246159E+02  0.7816164E-02  0.1226708E+00
        -11   -1    0    0    0    0  0.00000000000E+00  0.00000000000E+00  0.45593999997E+02  0.45594000000E+02  0.51100000000E-03 0. -1.
         11   -1    0    0    0    0 -0.00000000000E+00 -0.00000000000E+00 -0.45593999997E+02  0.45594000000E+02  0.51100000000E-03 0.  1.
    9900012    2    1    2    0    0 -0.12212690809E+02 -0.73894467548E+01 -0.12121253389E+02  0.72461587534E+02  0.70000022458E+02 0.  0.
         12    1    1    2    0    0  0.12212690809E+02  0.73894467548E+01  0.12121253389E+02  0.18726412466E+02  0.00000000000E+00 0. -1.
         11    1    3    3    0    0 -0.20434065523E+02  0.12641052269E+02 -0.40708810902E+01  0.24370459770E+02  0.51100000000E-03 0. -1.
        -11    1    3    3    0    0 -0.85335873100E+00  0.43744623167E+01  0.13547523276E+02  0.14261820671E+02  0.51100000000E-03 0.  1.
        -12    1    3    3    0    0  0.90747334451E+01 -0.24404961341E+02 -0.21597895575E+02  0.33829307093E+02  0.00000000000E+00 0.  1.
</event>
<event>
 7    1  0.3189267E-013  0.7246153E+02  0.7816164E-02  0.1226708E+00
        -11   -1    0    0    0    0  0.00000000000E+00  0.00000000000E+00  0.45593999997E+02  0.45594000000E+02  0.51100000000E-03 0.  1.
         11   -1    0    0    0    0 -0.00000000000E+00 -0.00000000000E+00 -0.45593999997E+02  0.45594000000E+02  0.51100000000E-03 0. -1.
    9900012    2    1    2    0    0 -0.14481823272E+02 -0.11810608246E+02 -0.12111632485E+01  0.72461532398E+02  0.69999950633E+02 0.  0.
         12    1    1    2    0    0  0.14481823272E+02  0.11810608246E+02  0.12111632485E+01  0.18726467602E+02  0.00000000000E+00 0. -1.
         11    1    3    3    0    0 -0.32926659036E+01  0.21138568294E+02  0.18803874818E+00  0.21394300108E+02  0.51100000000E-03 0. -1.
        -11    1    3    3    0    0 -0.92155266062E+01 -0.20516031984E+02 -0.18990217711E+02  0.29435724350E+02  0.51100000000E-03 0.  1.
        -12    1    3    3    0    0 -0.19736307625E+01 -0.12433144556E+02  0.17591015714E+02  0.21631507941E+02  0.00000000000E+00 0.  1.
</event>
<event>
 7    1  0.3189267E-013  0.7246166E+02  0.7816164E-02  0.1226708E+00
        -11   -1    0    0    0    0  0.00000000000E+00  0.00000000000E+00  0.45593999997E+02  0.45594000000E+02  0.51100000000E-03 0.  1.
         11   -1    0    0    0    0 -0.00000000000E+00 -0.00000000000E+00 -0.45593999997E+02  0.45594000000E+02  0.51100000000E-03 0. -1.
    9900012    2    1    2    0    0  0.39222568573E+01 -0.14336372084E+02  0.11391224836E+02  0.72461663822E+02  0.70000121837E+02 0.  0.
         12    1    1    2    0    0 -0.39222568573E+01  0.14336372084E+02 -0.11391224836E+02  0.18726336178E+02  0.00000000000E+00 0. -1.
         11    1    3    3    0    0 -0.12887629341E+02 -0.55392806480E+01  0.59504237614E+01  0.15237524843E+02  0.51100000000E-03 0. -1.
        -11    1    3    3    0    0  0.11966783218E+01  0.18829611181E+02  0.14976471327E+02  0.24089022186E+02  0.51100000000E-03 0.  1.
         12    1    3    3    0    0  0.15613207877E+02 -0.27626702617E+02 -0.95356702528E+01  0.33135116793E+02  0.00000000000E+00 0. -1.
</event>
<event>
 7    1  0.3189267E-013  0.7246156E+02  0.7816164E-02  0.1226708E+00
        -11   -1    0    0    0    0  0.00000000000E+00  0.00000000000E+00  0.45593999997E+02  0.45594000000E+02  0.51100000000E-03 0. -1.
         11   -1    0    0    0    0 -0.00000000000E+00 -0.00000000000E+00 -0.45593999997E+02  0.45594000000E+02  0.51100000000E-03 0.  1.
    9900012    2    1    2    0    0  0.20986460801E+01 -0.16312396253E+02 -0.89543784093E+01  0.72461562015E+02  0.69999989215E+02 0.  0.
         12    1    1    2    0    0 -0.20986460801E+01  0.16312396253E+02  0.89543784093E+01  0.18726437985E+02  0.00000000000E+00 0. -1.
         11    1    3    3    0    0 -0.20023923434E+02  0.25574140734E+00 -0.23458637848E+01  0.20162489690E+02  0.51100000000E-03 0. -1.
        -11    1    3    3    0    0 -0.43855363234E+01 -0.87693732691E+01 -0.19486321167E+02  0.21814021850E+02  0.51100000000E-03 0.  1.
         12    1    3    3    0    0  0.26508105838E+02 -0.77987643916E+01  0.12877806542E+02  0.30485050475E+02  0.00000000000E+00 0. -1.
</event>
<event>
 7    1  0.3189267E-013  0.7246157E+02  0.7816164E-02  0.1226708E+00
        -11   -1    0    0    0    0  0.00000000000E+00  0.00000000000E+00  0.45593999997E+02  0.45594000000E+02  0.51100000000E-03 0.  1.
         11   -1    0    0    0    0 -0.00000000000E+00 -0.00000000000E+00 -0.45593999997E+02  0.45594000000E+02  0.51100000000E-03 0. -1.
    9900012    2    1    2    0    0 -0.83106914021E+01 -0.17544540755E+01  0.16689318549E+02  0.72461573371E+02  0.70000004008E+02 0.  0.
         12    1    1    2    0    0  0.83106914021E+01  0.17544540755E+01 -0.16689318549E+02  0.18726426629E+02  0.00000000000E+00 0. -1.
         11    1    3    3    0    0 -0.62648545051E+01  0.19986784550E+02  0.64634270530E+01  0.21920215513E+02  0.51100000000E-03 0. -1.
        -11    1    3    3    0    0 -0.15449423900E+02 -0.30503540581E+00  0.18346983864E+02  0.23987279183E+02  0.51100000000E-03 0.  1.
        -12    1    3    3    0    0  0.13403587003E+02 -0.21436203220E+02 -0.81210923682E+01  0.26554078675E+02  0.00000000000E+00 0.  1.
</event>
<event>
 7    1  0.3189267E-013  0.7246160E+02  0.7816164E-02  0.1226708E+00
        -11   -1    0    0    0    0  0.00000000000E+00  0.00000000000E+00  0.45593999997E+02  0.45594000000E+02  0.51100000000E-03 0. -1.
         11   -1    0    0    0    0 -0.00000000000E+00 -0.00000000000E+00 -0.45593999997E+02  0.45594000000E+02  0.51100000000E-03 0.  1.
    9900012    2    1    2    0    0 -0.12511332625E+02 -0.13613673962E+02 -0.29686132935E+01  0.72461595441E+02  0.70000032758E+02 0.  0.
         12    1    1    2    0    0  0.12511332625E+02  0.13613673962E+02  0.29686132935E+01  0.18726404559E+02  0.00000000000E+00 0. -1.
         11    1    3    3    0    0 -0.39531097976E+00  0.45701245925E+01 -0.39230035665E+01  0.60359147448E+01  0.51100000000E-03 0. -1.
        -11    1    3    3    0    0  0.68724659095E+01 -0.17731464100E+02 -0.26759024757E+02  0.32828052227E+02  0.51100000000E-03 0.  1.
         12    1    3    3    0    0 -0.18988487555E+02 -0.45233445508E+00  0.27713415030E+02  0.33597628469E+02  0.00000000000E+00 0. -1.
</event>
<event>
 7    1  0.3189267E-013  0.7246152E+02  0.7816164E-02  0.1226708E+00
        -11   -1    0    0    0    0  0.00000000000E+00  0.00000000000E+00  0.45593999997E+02  0.45594000000E+02  0.51100000000E-03 0.  1.
         11   -1    0    0    0    0 -0.00000000000E+00 -0.00000000000E+00 -0.45593999997E+02  0.45594000000E+02  0.51100000000E-03 0. -1.
    9900012    2    1    2    0    0  0.86092054522E+01  0.16203021790E+02 -0.37449567117E+01  0.72461520501E+02  0.69999935135E+02 0.  0.
         12    1    1    2    0    0 -0.86092054522E+01 -0.16203021790E+02  0.37449567117E+01  0.18726479499E+02  0.00000000000E+00 0. -1.
         11    1    3    3    0    0 -0.11519733422E+02  0.92966176456E+01 -0.12024836767E+01  0.14851845845E+02  0.51100000000E-03 0. -1.
        -11    1    3    3    0    0  0.73511143990E+00 -0.98216660095E+01 -0.22877176957E+02  0.24907242678E+02  0.51100000000E-03 0.  1.
        -12    1    3    3    0    0  0.19393827434E+02  0.16728070154E+02  0.20334703922E+02  0.32702431977E+02  0.00000000000E+00 0.  1.
</event>
<event>
 7    1  0.3189267E-013  0.7246118E+02  0.7816164E-02  0.1226709E+00
        -11   -1    0    0    0    0  0.00000000000E+00  0.00000000000E+00  0.45593999997E+02  0.45594000000E+02  0.51100000000E-03 0. -1.
         11   -1    0    0    0    0 -0.00000000000E+00 -0.00000000000E+00 -0.45593999997E+02  0.45594000000E+02  0.51100000000E-03 0.  1.
    9900012    2    1    2    0    0  0.87853161931E+01  0.16535175424E+02  0.31639710440E+00  0.72461176617E+02  0.69999487160E+02 0.  0.
         12    1    1    2    0    0 -0.87853161931E+01 -0.16535175424E+02 -0.31639710440E+00  0.18726823383E+02  0.00000000000E+00 0. -1.
         11    1    3    3    0    0  0.16463280790E+02  0.33620235362E+01 -0.80850271302E+01  0.18646996557E+02  0.51100000000E-03 0. -1.
        -11    1    3    3    0    0  0.41640644603E+01  0.45655061814E+00 -0.20046260277E+02  0.20479268118E+02  0.51100000000E-03 0.  1.
        -12    1    3    3    0    0 -0.11842029058E+02  0.12716601269E+02  0.28447684512E+02  0.33334911941E+02  0.00000000000E+00 0.  1.
</event>
<event>
 7    1  0.3189267E-013  0.7246159E+02  0.7816164E-02  0.1226708E+00
        -11   -1    0    0    0    0  0.00000000000E+00  0.00000000000E+00  0.45593999997E+02  0.45594000000E+02  0.51100000000E-03 0.  1.
         11   -1    0    0    0    0 -0.00000000000E+00 -0.00000000000E+00 -0.45593999997E+02  0.45594000000E+02  0.51100000000E-03 0. -1.
    9900012    2    1    2    0    0 -0.10076640449E+02  0.62703600720E+01  0.14485239011E+02  0.72461594916E+02  0.70000032074E+02 0.  0.
         12    1    1    2    0    0  0.10076640449E+02 -0.62703600720E+01 -0.14485239011E+02  0.18726405084E+02  0.00000000000E+00 0. -1.
         11    1    3    3    0    0 -0.48989583228E+01 -0.25778816850E+02  0.15284672633E+02  0.30367225896E+02  0.51100000000E-03 0. -1.
        -11    1    3    3    0    0 -0.19354831200E+01  0.85289315755E+01  0.12211597985E+02  0.15020382630E+02  0.51100000000E-03 0.  1.
        -12    1    3    3    0    0 -0.32421990058E+01  0.23520245347E+02 -0.13011031608E+02  0.27073986390E+02  0.00000000000E+00 0.  1.
</event>
<event>
 7    1  0.3189267E-013  0.7246156E+02  0.7816164E-02  0.1226708E+00
        -11   -1    0    0    0    0  0.00000000000E+00  0.00000000000E+00  0.45593999997E+02  0.45594000000E+02  0.51100000000E-03 0. -1.
         11   -1    0    0    0    0 -0.00000000000E+00 -0.00000000000E+00 -0.45593999997E+02  0.45594000000E+02  0.51100000000E-03 0.  1.
    9900012    2    1    2    0    0  0.15949921107E+02  0.67978798614E+01  0.70759112963E+01  0.72461556809E+02  0.69999982433E+02 0.  0.
         12    1    1    2    0    0 -0.15949921107E+02 -0.67978798614E+01 -0.70759112963E+01  0.18726443191E+02  0.00000000000E+00 0. -1.
         11    1    3    3    0    0  0.89183522857E+01  0.30172550975E+01  0.29378828146E+01  0.98626564124E+01  0.51100000000E-03 0. -1.
        -11    1    3    3    0    0  0.22224004330E+02  0.20964674886E+02  0.18327710204E+02  0.35627642683E+02  0.51100000000E-03 0.  1.
         12    1    3    3    0    0 -0.15192435509E+02 -0.17184050122E+02 -0.14189681723E+02  0.26971257714E+02  0.00000000000E+00 0. -1.
</event>
<event>
 7    1  0.3189267E-013  0.7246157E+02  0.7816164E-02  0.1226708E+00
        -11   -1    0    0    0    0  0.00000000000E+00  0.00000000000E+00  0.45593999997E+02  0.45594000000E+02  0.51100000000E-03 0. -1.
         11   -1    0    0    0    0 -0.00000000000E+00 -0.00000000000E+00 -0.45593999997E+02  0.45594000000E+02  0.51100000000E-03 0.  1.
    9900012    2    1    2    0    0 -0.13774200632E+02 -0.25362438386E+01  0.12430523763E+02  0.72461573301E+02  0.70000003917E+02 0.  0.
         12    1    1    2    0    0  0.13774200632E+02  0.25362438386E+01 -0.12430523763E+02  0.18726426699E+02  0.00000000000E+00 0. -1.
         11    1    3    3    0    0  0.36149765625E+01  0.11058253346E+02  0.30767611115E+02  0.32893751939E+02  0.51100000000E-03 0. -1.
        -11    1    3    3    0    0 -0.15219216948E+02  0.51280429481E+01 -0.65935076020E+01  0.17360752626E+02  0.51100000000E-03 0.  1.
        -12    1    3    3    0    0 -0.21699602468E+01 -0.18722540133E+02 -0.11743579750E+02  0.22207068736E+02  0.00000000000E+00 0.  1.
</event>
<event>
 7    1  0.3189267E-013  0.7246153E+02  0.7816164E-02  0.1226708E+00
        -11   -1    0    0    0    0  0.00000000000E+00  0.00000000000E+00  0.45593999997E+02  0.45594000000E+02  0.51100000000E-03 0. -1.
         11   -1    0    0    0    0 -0.00000000000E+00 -0.00000000000E+00 -0.45593999997E+02  0.45594000000E+02  0.51100000000E-03 0.  1.
    9900012    2    1    2    0    0  0.59266449521E+01  0.12851752395E+02 -0.12263276144E+02  0.72461532052E+02  0.69999950182E+02 0.  0.
         12    1    1    2    0    0 -0.59266449521E+01 -0.12851752395E+02  0.12263276144E+02  0.18726467948E+02  0.00000000000E+00 0. -1.
         11    1    3    3    0    0  0.77024494566E+01 -0.37557301769E+01 -0.30483873677E+01  0.90953780899E+01  0.51100000000E-03 0. -1.
        -11    1    3    3    0    0  0.51313800838E+01  0.81599840793E+01 -0.34503011079E+02  0.35824212141E+02  0.51100000000E-03 0.  1.
         12    1    3    3    0    0 -0.69071845883E+01  0.84474984930E+01  0.25288122302E+02  0.27541941822E+02  0.00000000000E+00 0. -1.
</event>
<event>
 7    1  0.3189267E-013  0.7246165E+02  0.7816164E-02  0.1226708E+00
        -11   -1    0    0    0    0  0.00000000000E+00  0.00000000000E+00  0.45593999997E+02  0.45594000000E+02  0.51100000000E-03 0.  1.
         11   -1    0    0    0    0 -0.00000000000E+00 -0.00000000000E+00 -0.45593999997E+02  0.45594000000E+02  0.51100000000E-03 0. -1.
    9900012    2    1    2    0    0  0.20364485863E+01  0.17741111297E+02 -0.56375660875E+01  0.72461646797E+02  0.70000099658E+02 0.  0.
         12    1    1    2    0    0 -0.20364485863E+01 -0.17741111297E+02  0.56375660875E+01  0.18726353203E+02  0.00000000000E+00 0. -1.
         11    1    3    3    0    0  0.21209664980E+02 -0.91941185818E+00  0.11275057855E+01  0.21259503199E+02  0.51100000000E-03 0. -1.
        -11    1    3    3    0    0  0.10281022050E+02 -0.52045946328E+01  0.32870806686E+01  0.11982992917E+02  0.51100000000E-03 0.  1.
         12    1    3    3    0    0 -0.29454238443E+02  0.23865117788E+02 -0.10052152542E+02  0.39219150680E+02  0.00000000000E+00 0. -1.
</event>
<event>
 7    1  0.3189267E-013  0.7246151E+02  0.7816164E-02  0.1226708E+00
        -11   -1    0    0    0    0  0.00000000000E+00  0.00000000000E+00  0.45593999997E+02  0.45594000000E+02  0.51100000000E-03 0.  1.
         11   -1    0    0    0    0 -0.00000000000E+00 -0.00000000000E+00 -0.45593999997E+02  0.45594000000E+02  0.51100000000E-03 0. -1.
    9900012    2    1    2    0    0  0.16876859901E+02  0.32687598533E+00  0.81084015566E+01  0.72461510104E+02  0.69999921591E+02 0.  0.
         12    1    1    2    0    0 -0.16876859901E+02 -0.32687598533E+00 -0.81084015566E+01  0.18726489896E+02  0.00000000000E+00 0. -1.
         11    1    3    3    0    0  0.17054161327E+02 -0.61383109093E+01 -0.59139522473E+01  0.19065626421E+02  0.51100000000E-03 0. -1.
        -11    1    3    3    0    0  0.16690301151E+02 -0.16183749521E+02  0.53716052379E+01  0.23860721787E+02  0.51100000000E-03 0.  1.
         12    1    3    3    0    0 -0.16867602577E+02  0.22648936416E+02  0.86507485661E+01  0.29535161896E+02  0.00000000000E+00 0. -1.
</event>
<event>
 7    1  0.3189267E-013  0.7246158E+02  0.7816164E-02  0.1226708E+00
        -11   -1    0    0    0    0  0.00000000000E+00  0.00000000000E+00  0.45593999997E+02  0.45594000000E+02  0.51100000000E-03 0.  1.
         11   -1    0    0    0    0 -0.00000000000E+00 -0.00000000000E+00 -0.45593999997E+02  0.45594000000E+02  0.51100000000E-03 0. -1.
    9900012    2    1    2    0    0  0.12029142959E+02  0.91002347646E+01  0.11097933732E+02  0.72461583199E+02  0.70000016810E+02 0.  0.
         12    1    1    2    0    0 -0.12029142959E+02 -0.91002347646E+01 -0.11097933732E+02  0.18726416801E+02  0.00000000000E+00 0. -1.
         11    1    3    3    0    0  0.30505367422E+00  0.23654924601E+00  0.80595202517E+01  0.80687595229E+01  0.51100000000E-03 0. -1.
        -11    1    3    3    0    0  0.83524072450E+00  0.87061373985E+01  0.32146128291E+02  0.33314681746E+02  0.51100000000E-03 0.  1.
         12    1    3    3    0    0  0.10888848560E+02  0.15754812007E+00 -0.29107714810E+02  0.31078141930E+02  0.00000000000E+00 0. -1.
</event>
<event>
 7    1  0.3189267E-013  0.7246155E+02  0.7816164E-02  0.1226708E+00
        -11   -1    0    0    0    0  0.00000000000E+00  0.00000000000E+00  0.45593999997E+02  0.45594000000E+02  0.51100000000E-03 0.  1.
         11   -1    0    0    0    0 -0.00000000000E+00 -0.00000000000E+00 -0.45593999997E+02  0.45594000000E+02  0.51100000000E-03 0. -1.
    9900012    2    1    2    0    0  0.80103887668E+01 -0.16329202557E+02 -0.44576726999E+01  0.72461547313E+02  0.69999970062E+02 0.  0.
         12    1    1    2    0    0 -0.80103887668E+01  0.16329202557E+02  0.44576726999E+01  0.18726452687E+02  0.00000000000E+00 0. -1.
         11    1    3    3    0    0  0.49082127166E+01  0.23558990476E+01 -0.19913305870E+02  0.20644141138E+02  0.51100000000E-03 0. -1.
        -11    1    3    3    0    0 -0.20525251118E+02 -0.81856979030E+01  0.83164470587E+00  0.22112964903E+02  0.51100000000E-03 0.  1.
        -12    1    3    3    0    0  0.23627427168E+02 -0.10499403702E+02  0.14623988464E+02  0.29704441272E+02  0.00000000000E+00 0.  1.
</event>
<event>
 7    1  0.3189267E-013  0.7246157E+02  0.7816164E-02  0.1226708E+00
        -11   -1    0    0    0    0  0.00000000000E+00  0.00000000000E+00  0.45593999997E+02  0.45594000000E+02  0.51100000000E-03 0.  1.
         11   -1    0    0    0    0 -0.00000000000E+00 -0.00000000000E+00 -0.45593999997E+02  0.45594000000E+02  0.51100000000E-03 0. -1.
    9900012    2    1    2    0    0  0.28879298429E+01 -0.15513056571E+02  0.10083850760E+02  0.72461571908E+02  0.70000002102E+02 0.  0.
         12    1    1    2    0    0 -0.28879298429E+01  0.15513056571E+02 -0.10083850760E+02  0.18726428092E+02  0.00000000000E+00 0. -1.
         11    1    3    3    0    0  0.17808401437E+02 -0.24021834806E+01 -0.19139055108E+02  0.26252867994E+02  0.51100000000E-03 0. -1.
        -11    1    3    3    0    0  0.55468235074E+01 -0.37834171950E+01 -0.26332805137E+01  0.72121885180E+01  0.51100000000E-03 0.  1.
        -12    1    3    3    0    0 -0.20467295101E+02 -0.93274558950E+01  0.31856186382E+02  0.38996515396E+02  0.00000000000E+00 0.  1.
</event>
<event>
 7    1  0.3189267E-013  0.7246156E+02  0.7816164E-02  0.1226708E+00
        -11   -1    0    0    0    0  0.00000000000E+00  0.00000000000E+00  0.45593999997E+02  0.45594000000E+02  0.51100000000E-03 0.  1.
         11   -1    0    0    0    0 -0.00000000000E+00 -0.00000000000E+00 -0.45593999997E+02  0.45594000000E+02  0.51100000000E-03 0. -1.
    9900012    2    1    2    0    0  0.30384604068E+01 -0.83257232123E-01  0.18478104285E+02  0.72461561166E+02  0.69999988109E+02 0.  0.
         12    1    1    2    0    0 -0.30384604068E+01  0.83257232123E-01 -0.18478104285E+02  0.18726438834E+02  0.00000000000E+00 0. -1.
         11    1    3    3    0    0  0.22280493050E+01 -0.85029619982E+01 -0.14547810074E+02  0.16997156958E+02  0.51100000000E-03 0. -1.
        -11    1    3    3    0    0 -0.18853732812E+01 -0.76113007093E+01 -0.80808949305E+01  0.11259990854E+02  0.51100000000E-03 0.  1.
        -12    1    3    3    0    0  0.26957843830E+01  0.16031005475E+02  0.41106809290E+02  0.44204413354E+02  0.00000000000E+00 0.  1.
</event>
<event>
 7    1  0.3189267E-013  0.7246159E+02  0.7816164E-02  0.1226708E+00
        -11   -1    0    0    0    0  0.00000000000E+00  0.00000000000E+00  0.45593999997E+02  0.45594000000E+02  0.51100000000E-03 0.  1.
         11   -1    0    0    0    0 -0.00000000000E+00 -0.00000000000E+00 -0.45593999997E+02  0.45594000000E+02  0.51100000000E-03 0. -1.
    9900012    2    1    2    0    0  0.85146814209E+01  0.93136610933E-01  0.16678428790E+02  0.72461589211E+02  0.70000024643E+02 0.  0.
         12    1    1    2    0    0 -0.85146814209E+01 -0.93136610933E-01 -0.16678428790E+02  0.18726410789E+02  0.00000000000E+00 0. -1.
         11    1    3    3    0    0  0.17688485051E+01  0.25370116093E+01 -0.25261645798E+01  0.39933395405E+01  0.51100000000E-03 0. -1.
        -11    1    3    3    0    0 -0.91788032413E+01  0.15846891652E+02 -0.16936553705E+02  0.24944363203E+02  0.51100000000E-03 0.  1.
         12    1    3    3    0    0  0.15924636157E+02 -0.18290766650E+02  0.36141147074E+02  0.43523886468E+02  0.00000000000E+00 0. -1.
</event>
<event>
 7    1  0.3189267E-013  0.7246160E+02  0.7816164E-02  0.1226708E+00
        -11   -1    0    0    0    0  0.00000000000E+00  0.00000000000E+00  0.45593999997E+02  0.45594000000E+02  0.51100000000E-03 0. -1.
         11   -1    0    0    0    0 -0.00000000000E+00 -0.00000000000E+00 -0.45593999997E+02  0.45594000000E+02  0.51100000000E-03 0.  1.
    9900012    2    1    2    0    0  0.14320361630E+02 -0.29869285101E+01 -0.11691181811E+02  0.72461595346E+02  0.70000032634E+02 0.  0.
         12    1    1    2    0    0 -0.14320361630E+02  0.29869285101E+01  0.11691181811E+02  0.18726404654E+02  0.00000000000E+00 0. -1.
         11    1    3    3    0    0  0.15695908142E+02  0.11953751263E+02  0.22628708820E+02  0.30021861448E+02  0.51100000000E-03 0. -1.
        -11    1    3    3    0    0  0.38605679547E+01  0.32053813198E+01 -0.13122478350E+02  0.14049124266E+02  0.51100000000E-03 0.  1.
        -12    1    3    3    0    0 -0.52361144667E+01 -0.18146061093E+02 -0.21197412281E+02  0.28390609632E+02  0.00000000000E+00 0.  1.
</event>
<event>
 7    1  0.3189267E-013  0.7246158E+02  0.7816164E-02  0.1226708E+00
        -11   -1    0    0    0    0  0.00000000000E+00  0.00000000000E+00  0.45593999997E+02  0.45594000000E+02  0.51100000000E-03 0.  1.
         11   -1    0    0    0    0 -0.00000000000E+00 -0.00000000000E+00 -0.45593999997E+02  0.45594000000E+02  0.51100000000E-03 0. -1.
    9900012    2    1    2    0    0 -0.29253413965E+01  0.18062478005E+02  0.39834937235E+01  0.72461575990E+02  0.70000007419E+02 0.  0.
         12    1    1    2    0    0  0.29253413965E+01 -0.18062478005E+02 -0.39834937235E+01  0.18726424010E+02  0.00000000000E+00 0. -1.
         11    1    3    3    0    0  0.19987208570E+02  0.11685369130E+02 -0.19103252957E+02  0.30016172839E+02  0.51100000000E-03 0. -1.
        -11    1    3    3    0    0  0.47815331252E+01 -0.37617429699E+01  0.47431091576E+01  0.77143278347E+01  0.51100000000E-03 0.  1.
         12    1    3    3    0    0 -0.27694083091E+02  0.10138851845E+02  0.18343637523E+02  0.34731075316E+02  0.00000000000E+00 0. -1.
</event>
<event>
 7    1  0.3189267E-013  0.7246163E+02  0.7816164E-02  0.1226708E+00
        -11   -1    0    0    0    0  0.00000000000E+00  0.00000000000E+00  0.45593999997E+02  0.45594000000E+02  0.51100000000E-03 0.  1.
         11   -1    0    0    0    0 -0.00000000000E+00 -0.00000000000E+00 -0.45593999997E+02  0.45594000000E+02  0.51100000000E-03 0. -1.
    9900012    2    1    2    0    0  0.14001328557E+02  0.10552466619E+02  0.65791362512E+01  0.72461633910E+02  0.70000082872E+02 0.  0.
         12    1    1    2    0    0 -0.14001328557E+02 -0.10552466619E+02 -0.65791362512E+01  0.18726366090E+02  0.00000000000E+00 0. -1.
         11    1    3    3    0    0  0.34240740337E+02  0.57949454778E+01  0.12256265532E+02  0.36826970238E+02  0.51100000000E-03 0. -1.
        -11    1    3    3    0    0  0.54160547942E+01  0.26746256643E+00  0.51032505465E+01  0.74463650300E+01  0.51100000000E-03 0.  1.
         12    1    3    3    0    0 -0.25655466574E+02  0.44900585749E+01 -0.10780379827E+02  0.28188298642E+02  0.00000000000E+00 0. -1.
</event>
<event>
 7    1  0.3189267E-013  0.7246156E+02  0.7816164E-02  0.1226708E+00
        -11   -1    0    0    0    0  0.00000000000E+00  0.00000000000E+00  0.45593999997E+02  0.45594000000E+02  0.51100000000E-03 0.  1.
         11   -1    0    0    0    0 -0.00000000000E+00 -0.00000000000E+00 -0.45593999997E+02  0.45594000000E+02  0.51100000000E-03 0. -1.
    9900012    2    1    2    0    0  0.14961511208E+02  0.71667878117E+01  0.86873380936E+01  0.72461561249E+02  0.69999988217E+02 0.  0.
         12    1    1    2    0    0 -0.14961511208E+02 -0.71667878117E+01 -0.86873380936E+01  0.18726438751E+02  0.00000000000E+00 0. -1.
         11    1    3    3    0    0  0.12029508656E+02  0.20489280208E+01 -0.12722753447E+02  0.17628829799E+02  0.51100000000E-03 0. -1.
        -11    1    3    3    0    0  0.21292756011E+02 -0.11084967378E+02  0.29908477935E+01  0.24190972099E+02  0.51100000000E-03 0.  1.
        -12    1    3    3    0    0 -0.18360753460E+02  0.16202827169E+02  0.18419243747E+02  0.30641759351E+02  0.00000000000E+00 0.  1.
</event>
<event>
 7    1  0.3189267E-013  0.7246219E+02  0.7816164E-02  0.1226706E+00
        -11   -1    0    0    0    0  0.00000000000E+00  0.00000000000E+00  0.45593999997E+02  0.45594000000E+02  0.51100000000E-03 0.  1.
         11   -1    0    0    0    0 -0.00000000000E+00 -0.00000000000E+00 -0.45593999997E+02  0.45594000000E+02  0.51100000000E-03 0. -1.
    9900012    2    1    2    0    0 -0.87704265499E+00  0.11270667879E+02  0.14928461123E+02  0.72462186005E+02  0.70000802073E+02 0.  0.
         12    1    1    2    0    0  0.87704265499E+00 -0.11270667879E+02 -0.14928461123E+02  0.18725813995E+02  0.00000000000E+00 0. -1.
         11    1    3    3    0    0  0.12230444077E+02 -0.55339805609E+01  0.12436959412E+02  0.18299908821E+02  0.51100000000E-03 0. -1.
        -11    1    3    3    0    0  0.49749892867E+00  0.20671421320E+02  0.21918063512E+02  0.30132319408E+02  0.51100000000E-03 0.  1.
         12    1    3    3    0    0 -0.13604985661E+02 -0.38667728801E+01 -0.19426561800E+02  0.24029957776E+02  0.00000000000E+00 0. -1.
</event>
<event>
 7    1  0.3627993E-013  0.7246159E+02  0.7816164E-02  0.1226708E+00
        -11   -1    0    0    0    0  0.00000000000E+00  0.00000000000E+00  0.45593999997E+02  0.45594000000E+02  0.51100000000E-03 0. -1.
         11   -1    0    0    0    0 -0.00000000000E+00 -0.00000000000E+00 -0.45593999997E+02  0.45594000000E+02  0.51100000000E-03 0.  1.
    9900012    2    1    2    0    0 -0.79187003121E+01 -0.80079525901E+01 -0.14961460629E+02  0.72461590214E+02  0.70000025949E+02 0.  0.
         12    1    1    2    0    0  0.79187003121E+01  0.80079525901E+01  0.14961460629E+02  0.18726409786E+02  0.00000000000E+00 0. -1.
         11    1    3    3    0    0 -0.32393128433E+01  0.95756443791E+01 -0.24764478038E+01  0.10407636954E+02  0.51100000000E-03 0. -1.
        -11    1    3    3    0    0  0.55696258858E+01  0.28556845056E+01 -0.31623138878E+02  0.32236603097E+02  0.51100000000E-03 0.  1.
         12    1    3    3    0    0 -0.10249013355E+02 -0.20439281475E+02  0.19138126053E+02  0.29817350163E+02  0.00000000000E+00 0. -1.
</event>
<event>
 7    1  0.4120109E-013  0.7246153E+02  0.7816164E-02  0.1226708E+00
        -11   -1    0    0    0    0  0.00000000000E+00  0.00000000000E+00  0.45593999997E+02  0.45594000000E+02  0.51100000000E-03 0. -1.
         11   -1    0    0    0    0 -0.00000000000E+00 -0.00000000000E+00 -0.45593999997E+02  0.45594000000E+02  0.51100000000E-03 0.  1.
    9900012    2    1    2    0    0  0.55422145994E+01  0.61173426063E+01 -0.16809007064E+02  0.72461528317E+02  0.69999945317E+02 0.  0.
         12    1    1    2    0    0 -0.55422145994E+01 -0.61173426063E+01  0.16809007064E+02  0.18726471683E+02  0.00000000000E+00 0. -1.
         11    1    3    3    0    0 -0.12866486672E+02  0.13307013092E+01  0.19876216120E+02  0.23714578064E+02  0.51100000000E-03 0. -1.
        -11    1    3    3    0    0  0.17856095863E+02  0.84548462344E+01 -0.10641339624E+02  0.22440202619E+02  0.51100000000E-03 0.  1.
        -12    1    3    3    0    0  0.55260540874E+00 -0.36682049372E+01 -0.26043883560E+02  0.26306747634E+02  0.00000000000E+00 0.  1.
</event>
<event>
 7    1  0.3189267E-013  0.7246154E+02  0.7816164E-02  0.1226708E+00
        -11   -1    0    0    0    0  0.00000000000E+00  0.00000000000E+00  0.45593999997E+02  0.45594000000E+02  0.51100000000E-03 0.  1.
         11   -1    0    0    0    0 -0.00000000000E+00 -0.00000000000E+00 -0.45593999997E+02  0.45594000000E+02  0.51100000000E-03 0. -1.
    9900012    2    1    2    0    0  0.13497693258E+02  0.10114727201E+02  0.81354028767E+01  0.72461542524E+02  0.69999963824E+02 0.  0.
         12    1    1    2    0    0 -0.13497693258E+02 -0.10114727201E+02 -0.81354028767E+01  0.18726457476E+02  0.00000000000E+00 0. -1.
         11    1    3    3    0    0  0.67214431066E+01  0.21038825630E+01  0.14253463641E+02  0.15898595702E+02  0.51100000000E-03 0. -1.
        -11    1    3    3    0    0 -0.14539156650E+01 -0.73349625787E+00  0.24043627409E+02  0.24098711724E+02  0.51100000000E-03 0.  1.
         12    1    3    3    0    0  0.82301658163E+01  0.87443408958E+01 -0.30161688173E+02  0.32464235098E+02  0.00000000000E+00 0. -1.
</event>
<event>
 7    1  0.3189267E-013  0.7246180E+02  0.7816164E-02  0.1226707E+00
        -11   -1    0    0    0    0  0.00000000000E+00  0.00000000000E+00  0.45593999997E+02  0.45594000000E+02  0.51100000000E-03 0.  1.
         11   -1    0    0    0    0 -0.00000000000E+00 -0.00000000000E+00 -0.45593999997E+02  0.45594000000E+02  0.51100000000E-03 0. -1.
    9900012    2    1    2    0    0  0.49144581655E+01 -0.16701431321E+02  0.68978989505E+01  0.72461795976E+02  0.70000293992E+02 0.  0.
         12    1    1    2    0    0 -0.49144581655E+01  0.16701431321E+02 -0.68978989505E+01  0.18726204024E+02  0.00000000000E+00 0. -1.
         11    1    3    3    0    0 -0.33834103240E+01  0.10323500887E+02  0.15710724227E+02  0.19101020705E+02  0.51100000000E-03 0. -1.
        -11    1    3    3    0    0 -0.96689086229E+01  0.30353527497E+01  0.94569464816E+01  0.13861276900E+02  0.51100000000E-03 0.  1.
        -12    1    3    3    0    0  0.17966777113E+02 -0.30060284957E+02 -0.18269771758E+02  0.39499498371E+02  0.00000000000E+00 0.  1.
</event>
<event>
 7    1  0.3189267E-013  0.7246158E+02  0.7816164E-02  0.1226708E+00
        -11   -1    0    0    0    0  0.00000000000E+00  0.00000000000E+00  0.45593999997E+02  0.45594000000E+02  0.51100000000E-03 0.  1.
         11   -1    0    0    0    0 -0.00000000000E+00 -0.00000000000E+00 -0.45593999997E+02  0.45594000000E+02  0.51100000000E-03 0. -1.
    9900012    2    1    2    0    0  0.18439760221E+02  0.16014635482E+01  0.28441540981E+01  0.72461584031E+02  0.70000017895E+02 0.  0.
         12    1    1    2    0    0 -0.18439760221E+02 -0.16014635482E+01 -0.28441540981E+01  0.18726415969E+02  0.00000000000E+00 0. -1.
         11    1    3    3    0    0  0.30795601814E+01  0.72017854582E+01 -0.12818990589E+02  0.15022513926E+02  0.51100000000E-03 0. -1.
        -11    1    3    3    0    0 -0.78967600272E+01  0.29595393065E+01  0.28364499658E+02  0.29591595647E+02  0.51100000000E-03 0.  1.
         12    1    3    3    0    0  0.23256960067E+02 -0.85598612166E+01 -0.12701354971E+02  0.27847474458E+02  0.00000000000E+00 0. -1.
</event>
<event>
 7    1  0.3189267E-013  0.7246155E+02  0.7816164E-02  0.1226708E+00
        -11   -1    0    0    0    0  0.00000000000E+00  0.00000000000E+00  0.45593999997E+02  0.45594000000E+02  0.51100000000E-03 0. -1.
         11   -1    0    0    0    0 -0.00000000000E+00 -0.00000000000E+00 -0.45593999997E+02  0.45594000000E+02  0.51100000000E-03 0.  1.
    9900012    2    1    2    0    0 -0.17390825537E+02 -0.31987088186E+01 -0.61650206475E+01  0.72461547305E+02  0.69999970052E+02 0.  0.
         12    1    1    2    0    0  0.17390825537E+02  0.31987088186E+01  0.61650206475E+01  0.18726452695E+02  0.00000000000E+00 0. -1.
         11    1    3    3    0    0 -0.40642631695E+01 -0.19611399199E+01  0.76830253744E+01  0.89102852963E+01  0.51100000000E-03 0. -1.
        -11    1    3    3    0    0  0.19493595354E+02 -0.16362475086E+02 -0.20346020845E+01  0.25531753889E+02  0.51100000000E-03 0.  1.
         12    1    3    3    0    0 -0.32820157721E+02  0.15124906187E+02 -0.11813443937E+02  0.38019508120E+02  0.00000000000E+00 0. -1.
</event>
<event>
 7    1  0.3189267E-013  0.7246156E+02  0.7816164E-02  0.1226708E+00
        -11   -1    0    0    0    0  0.00000000000E+00  0.00000000000E+00  0.45593999997E+02  0.45594000000E+02  0.51100000000E-03 0.  1.
         11   -1    0    0    0    0 -0.00000000000E+00 -0.00000000000E+00 -0.45593999997E+02  0.45594000000E+02  0.51100000000E-03 0. -1.
    9900012    2    1    2    0    0  0.15934501505E+02 -0.49934779259E+01 -0.84756277231E+01  0.72461563465E+02  0.69999991103E+02 0.  0.
         12    1    1    2    0    0 -0.15934501505E+02  0.49934779259E+01  0.84756277231E+01  0.18726436535E+02  0.00000000000E+00 0. -1.
         11    1    3    3    0    0  0.19890850568E+01  0.71092544278E+01 -0.25029394358E+02  0.26095373920E+02  0.51100000000E-03 0. -1.
        -11    1    3    3    0    0  0.14527916659E+02  0.46822414334E+01 -0.75177076452E+01  0.17014690000E+02  0.51100000000E-03 0.  1.
        -12    1    3    3    0    0 -0.58250021075E+00 -0.16784973787E+02  0.24071474280E+02  0.29351499545E+02  0.00000000000E+00 0.  1.
</event>
<event>
 7    1  0.3189267E-013  0.7246160E+02  0.7816164E-02  0.1226708E+00
        -11   -1    0    0    0    0  0.00000000000E+00  0.00000000000E+00  0.45593999997E+02  0.45594000000E+02  0.51100000000E-03 0.  1.
         11   -1    0    0    0    0 -0.00000000000E+00 -0.00000000000E+00 -0.45593999997E+02  0.45594000000E+02  0.51100000000E-03 0. -1.
    9900012    2    1    2    0    0  0.12371075972E+02  0.14027132715E+02 -0.93496405572E+00  0.72461598031E+02  0.70000036132E+02 0.  0.
         12    1    1    2    0    0 -0.12371075972E+02 -0.14027132715E+02  0.93496405572E+00  0.18726401969E+02  0.00000000000E+00 0. -1.
         11    1    3    3    0    0 -0.10479803236E+02  0.98710063251E+01 -0.43275383349E+01  0.15032984735E+02  0.51100000000E-03 0. -1.
        -11    1    3    3    0    0 -0.23188946364E+01  0.90322709955E+01  0.23217318218E+02  0.25020053101E+02  0.51100000000E-03 0.  1.
        -12    1    3    3    0    0  0.25169773845E+02 -0.48761446056E+01 -0.19824743939E+02  0.32408560195E+02  0.00000000000E+00 0.  1.
</event>
<event>
 7    1  0.3189267E-013  0.7246206E+02  0.7816164E-02  0.1226707E+00
        -11   -1    0    0    0    0  0.00000000000E+00  0.00000000000E+00  0.45593999997E+02  0.45594000000E+02  0.51100000000E-03 0.  1.
         11   -1    0    0    0    0 -0.00000000000E+00 -0.00000000000E+00 -0.45593999997E+02  0.45594000000E+02  0.51100000000E-03 0. -1.
    9900012    2    1    2    0    0 -0.53671829128E+00 -0.62450312992E+01  0.17645749664E+02  0.72462056402E+02  0.70000633242E+02 0.  0.
         12    1    1    2    0    0  0.53671829128E+00  0.62450312992E+01 -0.17645749664E+02  0.18725943598E+02  0.00000000000E+00 0. -1.
         11    1    3    3    0    0 -0.36373975223E+01 -0.10726743028E+02 -0.17521805729E+02  0.20864020537E+02  0.51100000000E-03 0. -1.
        -11    1    3    3    0    0  0.16526692820E+02 -0.66692742086E+01  0.85440852250E+01  0.19763911218E+02  0.51100000000E-03 0.  1.
        -12    1    3    3    0    0 -0.13426013589E+02  0.11150985937E+02  0.26623470168E+02  0.31834124647E+02  0.00000000000E+00 0.  1.
</event>
<event>
 7    1  0.3189267E-013  0.7246154E+02  0.7816164E-02  0.1226708E+00
        -11   -1    0    0    0    0  0.00000000000E+00  0.00000000000E+00  0.45593999997E+02  0.45594000000E+02  0.51100000000E-03 0.  1.
         11   -1    0    0    0    0 -0.00000000000E+00 -0.00000000000E+00 -0.45593999997E+02  0.45594000000E+02  0.51100000000E-03 0. -1.
    9900012    2    1    2    0    0  0.10983392059E+02 -0.63211279208E+01  0.13787268129E+02  0.72461539529E+02  0.69999959922E+02 0.  0.
         12    1    1    2    0    0 -0.10983392059E+02  0.63211279208E+01 -0.13787268129E+02  0.18726460471E+02  0.00000000000E+00 0. -1.
         11    1    3    3    0    0  0.87138240104E+01  0.12761812353E+01  0.35948948032E+01  0.95122361376E+01  0.51100000000E-03 0. -1.
        -11    1    3    3    0    0 -0.11649776502E+02 -0.15759404968E+02  0.30965111016E+02  0.36645794274E+02  0.51100000000E-03 0.  1.
         12    1    3    3    0    0  0.13919344551E+02  0.81620958118E+01 -0.20772737689E+02  0.26303509117E+02  0.00000000000E+00 0. -1.
</event>
<event>
 7    1  0.3189267E-013  0.7246155E+02  0.7816164E-02  0.1226708E+00
        -11   -1    0    0    0    0  0.00000000000E+00  0.00000000000E+00  0.45593999997E+02  0.45594000000E+02  0.51100000000E-03 0.  1.
         11   -1    0    0    0    0 -0.00000000000E+00 -0.00000000000E+00 -0.45593999997E+02  0.45594000000E+02  0.51100000000E-03 0. -1.
    9900012    2    1    2    0    0  0.27244591709E+01 -0.33218047476E+01  0.18226982410E+02  0.72461549393E+02  0.69999972772E+02 0.  0.
         12    1    1    2    0    0 -0.27244591709E+01  0.33218047476E+01 -0.18226982410E+02  0.18726450607E+02  0.00000000000E+00 0. -1.
         11    1    3    3    0    0 -0.85059842168E+01 -0.12777040583E+02  0.93873757437E+01  0.17992424994E+02  0.51100000000E-03 0. -1.
        -11    1    3    3    0    0  0.46857722526E+01  0.13769593041E+02  0.29216316268E+02  0.32636655630E+02  0.51100000000E-03 0.  1.
         12    1    3    3    0    0  0.65446711352E+01 -0.43143572063E+01 -0.20376709602E+02  0.21832468770E+02  0.00000000000E+00 0. -1.
</event>
<event>
 7    1  0.3189267E-013  0.7246165E+02  0.7816164E-02  0.1226708E+00
        -11   -1    0    0    0    0  0.00000000000E+00  0.00000000000E+00  0.45593999997E+02  0.45594000000E+02  0.51100000000E-03 0. -1.
         11   -1    0    0    0    0 -0.00000000000E+00 -0.00000000000E+00 -0.45593999997E+02  0.45594000000E+02  0.51100000000E-03 0.  1.
    9900012    2    1    2    0    0  0.12170672285E+02 -0.14201843172E+02 -0.92652752562E+00  0.72461653143E+02  0.70000107926E+02 0.  0.
         12    1    1    2    0    0 -0.12170672285E+02  0.14201843172E+02  0.92652752562E+00  0.18726346857E+02  0.00000000000E+00 0. -1.
         11    1    3    3    0    0 -0.12291182739E+02  0.36359093264E+01  0.58558264045E+00  0.12831052843E+02  0.51100000000E-03 0. -1.
        -11    1    3    3    0    0 -0.10498699252E+02  0.78873376103E+01  0.77504088857E+01  0.15248003762E+02  0.51100000000E-03 0.  1.
        -12    1    3    3    0    0  0.34960554276E+02 -0.25725090109E+02 -0.92625190517E+01  0.44382596539E+02  0.00000000000E+00 0.  1.
</event>
<event>
 7    1  0.3189267E-013  0.7246157E+02  0.7816164E-02  0.1226708E+00
        -11   -1    0    0    0    0  0.00000000000E+00  0.00000000000E+00  0.45593999997E+02  0.45594000000E+02  0.51100000000E-03 0.  1.
         11   -1    0    0    0    0 -0.00000000000E+00 -0.00000000000E+00 -0.45593999997E+02  0.45594000000E+02  0.51100000000E-03 0. -1.
    9900012    2    1    2    0    0  0.10485417702E+02 -0.14540142424E+02  0.54147579998E+01  0.72461566002E+02  0.69999994409E+02 0.  0.
         12    1    1    2    0    0 -0.10485417702E+02  0.14540142424E+02 -0.54147579998E+01  0.18726433998E+02  0.00000000000E+00 0. -1.
         11    1    3    3    0    0 -0.24865216000E+02  0.71201857505E+01  0.13049097562E+02  0.28969897468E+02  0.51100000000E-03 0. -1.
        -11    1    3    3    0    0  0.95893695697E+01 -0.34322337284E+01 -0.61520272782E+01  0.11898893940E+02  0.51100000000E-03 0.  1.
        -12    1    3    3    0    0  0.25761264132E+02 -0.18228094446E+02 -0.14823122845E+01  0.31592774594E+02  0.00000000000E+00 0.  1.
</event>
<event>
 7    1  0.3189267E-013  0.7246156E+02  0.7816164E-02  0.1226708E+00
        -11   -1    0    0    0    0  0.00000000000E+00  0.00000000000E+00  0.45593999997E+02  0.45594000000E+02  0.51100000000E-03 0. -1.
         11   -1    0    0    0    0 -0.00000000000E+00 -0.00000000000E+00 -0.45593999997E+02  0.45594000000E+02  0.51100000000E-03 0.  1.
    9900012    2    1    2    0    0 -0.13931672943E+02  0.59205392791E+00 -0.12499499909E+02  0.72461560488E+02  0.69999987225E+02 0.  0.
         12    1    1    2    0    0  0.13931672943E+02 -0.59205392791E+00  0.12499499909E+02  0.18726439512E+02  0.00000000000E+00 0. -1.
         11    1    3    3    0    0  0.12551827328E+02 -0.20628445145E+01 -0.16890155033E+02  0.21144290815E+02  0.51100000000E-03 0. -1.
        -11    1    3    3    0    0 -0.22926051514E+02 -0.15528789870E+02 -0.82436045696E+01  0.28891247281E+02  0.51100000000E-03 0.  1.
        -12    1    3    3    0    0 -0.35574487571E+01  0.18183688313E+02  0.12634259694E+02  0.22426022392E+02  0.00000000000E+00 0.  1.
</event>
<event>
 7    1  0.3189267E-013  0.7246133E+02  0.7816164E-02  0.1226709E+00
        -11   -1    0    0    0    0  0.00000000000E+00  0.00000000000E+00  0.45593999997E+02  0.45594000000E+02  0.51100000000E-03 0.  1.
         11   -1    0    0    0    0 -0.00000000000E+00 -0.00000000000E+00 -0.45593999997E+02  0.45594000000E+02  0.51100000000E-03 0. -1.
    9900012    2    1    2    0    0 -0.18600374972E+02 -0.13714150070E+01 -0.16832478388E+01  0.72461333145E+02  0.69999691068E+02 0.  0.
         12    1    1    2    0    0  0.18600374972E+02  0.13714150070E+01  0.16832478388E+01  0.18726666855E+02  0.00000000000E+00 0. -1.
         11    1    3    3    0    0 -0.20813784542E+01 -0.34696317424E+01 -0.23714961104E+01  0.46898267303E+01  0.51100000000E-03 0. -1.
        -11    1    3    3    0    0 -0.28163021323E+02 -0.23784676131E+02 -0.87037549283E+01  0.37876403456E+02  0.51100000000E-03 0.  1.
         12    1    3    3    0    0  0.11644024805E+02  0.25882892866E+02  0.93920031999E+01  0.29895102958E+02  0.00000000000E+00 0. -1.
</event>
<event>
 7    1  0.3189267E-013  0.7246146E+02  0.7816164E-02  0.1226708E+00
        -11   -1    0    0    0    0  0.00000000000E+00  0.00000000000E+00  0.45593999997E+02  0.45594000000E+02  0.51100000000E-03 0.  1.
         11   -1    0    0    0    0 -0.00000000000E+00 -0.00000000000E+00 -0.45593999997E+02  0.45594000000E+02  0.51100000000E-03 0. -1.
    9900012    2    1    2    0    0  0.35616363319E+01 -0.17317302415E+02 -0.61732653638E+01  0.72461456765E+02  0.69999852107E+02 0.  0.
         12    1    1    2    0    0 -0.35616363319E+01  0.17317302415E+02  0.61732653638E+01  0.18726543235E+02  0.00000000000E+00 0. -1.
         11    1    3    3    0    0 -0.29259762203E+01 -0.21023388055E+00  0.15136053603E+02  0.15417705863E+02  0.51100000000E-03 0. -1.
        -11    1    3    3    0    0  0.29717797321E+01  0.83023546950E+01  0.12069002919E+02  0.14947287379E+02  0.51100000000E-03 0.  1.
         12    1    3    3    0    0  0.35158328201E+01 -0.25409423229E+02 -0.33378321886E+02  0.42096463524E+02  0.00000000000E+00 0. -1.
</event>
<event>
 7    1  0.3189267E-013  0.7246157E+02  0.7816164E-02  0.1226708E+00
        -11   -1    0    0    0    0  0.00000000000E+00  0.00000000000E+00  0.45593999997E+02  0.45594000000E+02  0.51100000000E-03 0. -1.
         11   -1    0    0    0    0 -0.00000000000E+00 -0.00000000000E+00 -0.45593999997E+02  0.45594000000E+02  0.51100000000E-03 0.  1.
    9900012    2    1    2    0    0  0.14854035497E+02  0.10885919651E+02  0.33961007665E+01  0.72461571680E+02  0.70000001805E+02 0.  0.
         12    1    1    2    0    0 -0.14854035497E+02 -0.10885919651E+02 -0.33961007665E+01  0.18726428320E+02  0.00000000000E+00 0. -1.
         11    1    3    3    0    0  0.27261972945E+01 -0.74418225676E+01 -0.38729497704E+01  0.88211459007E+01  0.51100000000E-03 0. -1.
        -11    1    3    3    0    0  0.13870988714E+02 -0.12940401586E+02 -0.15845525772E+02  0.24717180429E+02  0.51100000000E-03 0.  1.
         12    1    3    3    0    0 -0.17431505113E+01  0.31268143805E+02  0.23114576309E+02  0.38923245351E+02  0.00000000000E+00 0. -1.
</event>
<event>
 7    1  0.3189267E-013  0.7246158E+02  0.7816164E-02  0.1226708E+00
        -11   -1    0    0    0    0  0.00000000000E+00  0.00000000000E+00  0.45593999997E+02  0.45594000000E+02  0.51100000000E-03 0. -1.
         11   -1    0    0    0    0 -0.00000000000E+00 -0.00000000000E+00 -0.45593999997E+02  0.45594000000E+02  0.51100000000E-03 0.  1.
    9900012    2    1    2    0    0 -0.32630904239E+00  0.13503364711E+02 -0.12970400885E+02  0.72461584560E+02  0.70000018584E+02 0.  0.
         12    1    1    2    0    0  0.32630904239E+00 -0.13503364711E+02  0.12970400885E+02  0.18726415440E+02  0.00000000000E+00 0. -1.
         11    1    3    3    0    0 -0.21057363312E+01  0.15654169947E+02 -0.21933180456E+02  0.27028717457E+02  0.51100000000E-03 0. -1.
        -11    1    3    3    0    0 -0.16505181928E+02  0.24605790002E+01  0.17979958573E+02  0.24530682625E+02  0.51100000000E-03 0.  1.
         12    1    3    3    0    0  0.18284609216E+02 -0.46113842365E+01 -0.90171790027E+01  0.20902184478E+02  0.00000000000E+00 0. -1.
</event>
<event>
 7    1  0.3189267E-013  0.7246153E+02  0.7816164E-02  0.1226708E+00
        -11   -1    0    0    0    0  0.00000000000E+00  0.00000000000E+00  0.45593999997E+02  0.45594000000E+02  0.51100000000E-03 0. -1.
         11   -1    0    0    0    0 -0.00000000000E+00 -0.00000000000E+00 -0.45593999997E+02  0.45594000000E+02  0.51100000000E-03 0.  1.
    9900012    2    1    2    0    0 -0.69316508172E+01  0.14720275775E+02 -0.92707221169E+01  0.72461532354E+02  0.69999950575E+02 0.  0.
         12    1    1    2    0    0  0.69316508172E+01 -0.14720275775E+02  0.92707221169E+01  0.18726467646E+02  0.00000000000E+00 0. -1.
         11    1    3    3    0    0  0.47679886661E+01 -0.12653802571E+02  0.21545239415E+02  0.25437173136E+02  0.51100000000E-03 0. -1.
        -11    1    3    3    0    0 -0.63722203087E+01  0.19382422409E+02 -0.73801084501E+01  0.21696762226E+02  0.51100000000E-03 0.  1.
        -12    1    3    3    0    0 -0.53274191746E+01  0.79916559363E+01 -0.23435853082E+02  0.25327596991E+02  0.00000000000E+00 0.  1.
</event>
<event>
 7    1  0.3189267E-013  0.7246110E+02  0.7816164E-02  0.1226709E+00
        -11   -1    0    0    0    0  0.00000000000E+00  0.00000000000E+00  0.45593999997E+02  0.45594000000E+02  0.51100000000E-03 0. -1.
         11   -1    0    0    0    0 -0.00000000000E+00 -0.00000000000E+00 -0.45593999997E+02  0.45594000000E+02  0.51100000000E-03 0.  1.
    9900012    2    1    2    0    0  0.13356641413E+01 -0.11076403779E+02 -0.15040817721E+02  0.72461096436E+02  0.69999382709E+02 0.  0.
         12    1    1    2    0    0 -0.13356641413E+01  0.11076403779E+02  0.15040817721E+02  0.18726903564E+02  0.00000000000E+00 0. -1.
         11    1    3    3    0    0  0.37144442334E+01 -0.12792364846E+01  0.26778651977E+00  0.39376708633E+01  0.51100000000E-03 0. -1.
        -11    1    3    3    0    0 -0.26562794078E+02 -0.17989442004E+02  0.89469084903E+01  0.33305393327E+02  0.51100000000E-03 0.  1.
         12    1    3    3    0    0  0.24184013986E+02  0.81922747094E+01 -0.24255512731E+02  0.35218032246E+02  0.00000000000E+00 0. -1.
</event>
<event>
 7    1  0.3189267E-013  0.7246157E+02  0.7816164E-02  0.1226708E+00
        -11   -1    0    0    0    0  0.00000000000E+00  0.00000000000E+00  0.45593999997E+02  0.45594000000E+02  0.51100000000E-03 0.  1.
         11   -1    0    0    0    0 -0.00000000000E+00 -0.00000000000E+00 -0.45593999997E+02  0.45594000000E+02  0.51100000000E-03 0. -1.
    9900012    2    1    2    0    0 -0.17653436503E+02  0.18841393238E+01 -0.59569743071E+01  0.72461565629E+02  0.69999993923E+02 0.  0.
         12    1    1    2    0    0  0.17653436503E+02 -0.18841393238E+01  0.59569743071E+01  0.18726434371E+02  0.00000000000E+00 0. -1.
         11    1    3    3    0    0  0.13061594127E+02 -0.14828516934E+02 -0.43747682496E+01  0.20239287367E+02  0.51100000000E-03 0. -1.
        -11    1    3    3    0    0 -0.21731726743E+01 -0.61462243839E+01  0.11637277360E+02  0.13338852210E+02  0.51100000000E-03 0.  1.
         12    1    3    3    0    0 -0.28541857956E+02  0.22858880642E+02 -0.13219483418E+02  0.38883426053E+02  0.00000000000E+00 0. -1.
</event>
<event>
 7    1  0.3189267E-013  0.7246160E+02  0.7816164E-02  0.1226708E+00
        -11   -1    0    0    0    0  0.00000000000E+00  0.00000000000E+00  0.45593999997E+02  0.45594000000E+02  0.51100000000E-03 0. -1.
         11   -1    0    0    0    0 -0.00000000000E+00 -0.00000000000E+00 -0.45593999997E+02  0.45594000000E+02  0.51100000000E-03 0.  1.
    9900012    2    1    2    0    0 -0.75760306949E+01  0.14961081680E+02  0.83335444285E+01  0.72461597012E+02  0.70000034805E+02 0.  0.
         12    1    1    2    0    0  0.75760306949E+01 -0.14961081680E+02 -0.83335444285E+01  0.18726402988E+02  0.00000000000E+00 0. -1.
         11    1    3    3    0    0  0.17203825684E+02 -0.41881857078E+01  0.22202700635E+02  0.28398458293E+02  0.51100000000E-03 0. -1.
        -11    1    3    3    0    0  0.30490834733E+01  0.12092522704E+02 -0.73755849941E+00  0.12492798253E+02  0.51100000000E-03 0.  1.
         12    1    3    3    0    0 -0.27828939852E+02  0.70567446834E+01 -0.13131597707E+02  0.31570340466E+02  0.00000000000E+00 0. -1.
</event>
<event>
 7    1  0.3189267E-013  0.7246160E+02  0.7816164E-02  0.1226708E+00
        -11   -1    0    0    0    0  0.00000000000E+00  0.00000000000E+00  0.45593999997E+02  0.45594000000E+02  0.51100000000E-03 0.  1.
         11   -1    0    0    0    0 -0.00000000000E+00 -0.00000000000E+00 -0.45593999997E+02  0.45594000000E+02  0.51100000000E-03 0. -1.
    9900012    2    1    2    0    0 -0.11996745427E+02 -0.12929879972E+02 -0.62908217246E+01  0.72461597919E+02  0.70000035986E+02 0.  0.
         12    1    1    2    0    0  0.11996745427E+02  0.12929879972E+02  0.62908217246E+01  0.18726402081E+02  0.00000000000E+00 0. -1.
         11    1    3    3    0    0  0.70929947179E+01 -0.84840498775E+01  0.76848248433E+01  0.13466484676E+02  0.51100000000E-03 0. -1.
        -11    1    3    3    0    0  0.62807620937E+01  0.18488273746E+02  0.46220241438E+01  0.20065576145E+02  0.51100000000E-03 0.  1.
         12    1    3    3    0    0 -0.25370502239E+02 -0.22934103840E+02 -0.18597670712E+02  0.38929537098E+02  0.00000000000E+00 0. -1.
</event>
<event>
 7    1  0.3189267E-013  0.7246181E+02  0.7816164E-02  0.1226707E+00
        -11   -1    0    0    0    0  0.00000000000E+00  0.00000000000E+00  0.45593999997E+02  0.45594000000E+02  0.51100000000E-03 0.  1.
         11   -1    0    0    0    0 -0.00000000000E+00 -0.00000000000E+00 -0.45593999997E+02  0.45594000000E+02  0.51100000000E-03 0. -1.
    9900012    2    1    2    0    0  0.38214700120E+01 -0.17252564485E+02 -0.61980221935E+01  0.72461812628E+02  0.70000315684E+02 0.  0.
         12    1    1    2    0    0 -0.38214700120E+01  0.17252564485E+02  0.61980221935E+01  0.18726187372E+02  0.00000000000E+00 0. -1.
         11    1    3    3    0    0 -0.85858274961E+00 -0.16893935354E+02  0.18856147104E+02  0.25331729115E+02  0.51100000000E-03 0. -1.
        -11    1    3    3    0    0 -0.12102052641E+02 -0.79751745225E+01  0.17527467585E+01  0.14599150943E+02  0.51100000000E-03 0.  1.
         12    1    3    3    0    0  0.16782105403E+02  0.76165453912E+01 -0.26806916056E+02  0.32530932570E+02  0.00000000000E+00 0. -1.
</event>
<event>
 7    1  0.3189267E-013  0.7246152E+02  0.7816164E-02  0.1226708E+00
        -11   -1    0    0    0    0  0.00000000000E+00  0.00000000000E+00  0.45593999997E+02  0.45594000000E+02  0.51100000000E-03 0.  1.
         11   -1    0    0    0    0 -0.00000000000E+00 -0.00000000000E+00 -0.45593999997E+02  0.45594000000E+02  0.51100000000E-03 0. -1.
    9900012    2    1    2    0    0  0.73479954308E+01 -0.11057224546E+02  0.13207039416E+02  0.72461517638E+02  0.69999931406E+02 0.  0.
         12    1    1    2    0    0 -0.73479954308E+01  0.11057224546E+02 -0.13207039416E+02  0.18726482362E+02  0.00000000000E+00 0. -1.
         11    1    3    3    0    0 -0.14543973576E+02  0.12180771559E+02 -0.78460922764E+01  0.20529479473E+02  0.51100000000E-03 0. -1.
        -11    1    3    3    0    0  0.18068300493E+01  0.85964796594E+01 -0.38866649811E-01  0.87843957242E+01  0.51100000000E-03 0.  1.
        -12    1    3    3    0    0  0.20085138958E+02 -0.31834475765E+02  0.21091998342E+02  0.43147642441E+02  0.00000000000E+00 0.  1.
</event>
<event>
 7    1  0.3189267E-013  0.7246151E+02  0.7816164E-02  0.1226708E+00
        -11   -1    0    0    0    0  0.00000000000E+00  0.00000000000E+00  0.45593999997E+02  0.45594000000E+02  0.51100000000E-03 0. -1.
         11   -1    0    0    0    0 -0.00000000000E+00 -0.00000000000E+00 -0.45593999997E+02  0.45594000000E+02  0.51100000000E-03 0.  1.
    9900012    2    1    2    0    0 -0.22789608889E+01 -0.17683004400E+02 -0.57270604161E+01  0.72461507313E+02  0.69999917955E+02 0.  0.
         12    1    1    2    0    0  0.22789608889E+01  0.17683004400E+02  0.57270604161E+01  0.18726492687E+02  0.00000000000E+00 0. -1.
         11    1    3    3    0    0  0.34586781021E+01  0.32086553516E+01 -0.22665952369E+01  0.52340593814E+01  0.51100000000E-03 0. -1.
        -11    1    3    3    0    0  0.13971180279E+02  0.16282277060E+02  0.91183202003E+01  0.23312018106E+02  0.51100000000E-03 0.  1.
         12    1    3    3    0    0 -0.19708819270E+02 -0.37173936812E+02 -0.12578785379E+02  0.43915429825E+02  0.00000000000E+00 0. -1.
</event>
<event>
 7    1  0.3189267E-013  0.7246155E+02  0.7816164E-02  0.1226708E+00
        -11   -1    0    0    0    0  0.00000000000E+00  0.00000000000E+00  0.45593999997E+02  0.45594000000E+02  0.51100000000E-03 0. -1.
         11   -1    0    0    0    0 -0.00000000000E+00 -0.00000000000E+00 -0.45593999997E+02  0.45594000000E+02  0.51100000000E-03 0.  1.
    9900012    2    1    2    0    0  0.68972149508E+01 -0.16304136938E+02 -0.61060123020E+01  0.72461552349E+02  0.69999976623E+02 0.  0.
         12    1    1    2    0    0 -0.68972149508E+01  0.16304136938E+02  0.61060123020E+01  0.18726447651E+02  0.00000000000E+00 0. -1.
         11    1    3    3    0    0 -0.14841133169E+02  0.12359771823E+01 -0.71992236839E+01  0.16541332934E+02  0.51100000000E-03 0. -1.
        -11    1    3    3    0    0 -0.10247961822E+01 -0.29298872685E+02 -0.45971573747E+01  0.29675040085E+02  0.51100000000E-03 0.  1.
         12    1    3    3    0    0  0.22763144302E+02  0.11758758565E+02  0.56903687565E+01  0.26245179330E+02  0.00000000000E+00 0. -1.
</event>
<event>
 7    1  0.3189267E-013  0.7246200E+02  0.7816164E-02  0.1226707E+00
        -11   -1    0    0    0    0  0.00000000000E+00  0.00000000000E+00  0.45593999997E+02  0.45594000000E+02  0.51100000000E-03 0. -1.
         11   -1    0    0    0    0 -0.00000000000E+00 -0.00000000000E+00 -0.45593999997E+02  0.45594000000E+02  0.51100000000E-03 0.  1.
    9900012    2    1    2    0    0  0.12843129796E+02 -0.13155617113E+02  0.35562135482E+01  0.72462004716E+02  0.70000565913E+02 0.  0.
         12    1    1    2    0    0 -0.12843129796E+02  0.13155617113E+02 -0.35562135482E+01  0.18725995284E+02  0.00000000000E+00 0. -1.
         11    1    3    3    0    0  0.29457173082E+02 -0.98305998832E+01  0.18338737740E+02  0.36064872691E+02  0.51100000000E-03 0. -1.
        -11    1    3    3    0    0  0.73938591979E+01 -0.20794888311E+01  0.84027530781E+00  0.77265445376E+01  0.51100000000E-03 0.  1.
        -12    1    3    3    0    0 -0.24007902484E+02 -0.12455283986E+01 -0.15622799500E+02  0.28670587488E+02  0.00000000000E+00 0.  1.
</event>
<event>
 7    1  0.3189267E-013  0.7246155E+02  0.7816164E-02  0.1226708E+00
        -11   -1    0    0    0    0  0.00000000000E+00  0.00000000000E+00  0.45593999997E+02  0.45594000000E+02  0.51100000000E-03 0.  1.
         11   -1    0    0    0    0 -0.00000000000E+00 -0.00000000000E+00 -0.45593999997E+02  0.45594000000E+02  0.51100000000E-03 0. -1.
    9900012    2    1    2    0    0  0.63367821375E+01  0.15822169300E+02  0.77578453977E+01  0.72461547735E+02  0.69999970612E+02 0.  0.
         12    1    1    2    0    0 -0.63367821375E+01 -0.15822169300E+02 -0.77578453977E+01  0.18726452265E+02  0.00000000000E+00 0. -1.
         11    1    3    3    0    0  0.13782653216E+02  0.94217017181E+01  0.45557459791E+01  0.17305629565E+02  0.51100000000E-03 0. -1.
        -11    1    3    3    0    0  0.70856789547E+01  0.28022277060E+02 -0.35351867552E-01  0.28904257608E+02  0.51100000000E-03 0.  1.
         12    1    3    3    0    0 -0.14531550033E+02 -0.21621809477E+02  0.32374512861E+01  0.26251660562E+02  0.00000000000E+00 0. -1.
</event>
<event>
 7    1  0.3189267E-013  0.7246159E+02  0.7816164E-02  0.1226708E+00
        -11   -1    0    0    0    0  0.00000000000E+00  0.00000000000E+00  0.45593999997E+02  0.45594000000E+02  0.51100000000E-03 0.  1.
         11   -1    0    0    0    0 -0.00000000000E+00 -0.00000000000E+00 -0.45593999997E+02  0.45594000000E+02  0.51100000000E-03 0. -1.
    9900012    2    1    2    0    0 -0.14024894679E+02 -0.10964842728E+02  0.58097399680E+01  0.72461587495E+02  0.70000022407E+02 0.  0.
         12    1    1    2    0    0  0.14024894679E+02  0.10964842728E+02 -0.58097399680E+01  0.18726412505E+02  0.00000000000E+00 0. -1.
         11    1    3    3    0    0 -0.38474499690E+01  0.19646774974E+01 -0.12272581466E+02  0.13010729612E+02  0.51100000000E-03 0. -1.
        -11    1    3    3    0    0  0.98026593219E+01  0.17368878648E+02  0.30863197187E+01  0.20181562004E+02  0.51100000000E-03 0.  1.
        -12    1    3    3    0    0 -0.19980104032E+02 -0.30298398874E+02  0.14996001715E+02  0.39269295879E+02  0.00000000000E+00 0.  1.
</event>
<event>
 7    1  0.3189267E-013  0.7246152E+02  0.7816164E-02  0.1226708E+00
        -11   -1    0    0    0    0  0.00000000000E+00  0.00000000000E+00  0.45593999997E+02  0.45594000000E+02  0.51100000000E-03 0.  1.
         11   -1    0    0    0    0 -0.00000000000E+00 -0.00000000000E+00 -0.45593999997E+02  0.45594000000E+02  0.51100000000E-03 0. -1.
    9900012    2    1    2    0    0 -0.15183236974E+02  0.55286655815E+01  0.94648917067E+01  0.72461521336E+02  0.69999936223E+02 0.  0.
         12    1    1    2    0    0  0.15183236974E+02 -0.55286655815E+01 -0.94648917067E+01  0.18726478664E+02  0.00000000000E+00 0. -1.
         11    1    3    3    0    0  0.78225309391E+01  0.98991042261E+00  0.10972512156E+02  0.13511770284E+02  0.51100000000E-03 0.  1.
        -11    1    3    3    0    0  0.12477397328E+02 -0.12495972310E+02  0.64372821046E+01  0.18795567808E+02  0.51100000000E-03 0. -1.
         12    1    3    3    0    0 -0.35483165241E+02  0.17034727469E+02 -0.79449025534E+01  0.40154183245E+02  0.00000000000E+00 0. -1.
</event>
<event>
 7    1  0.3189267E-013  0.7246158E+02  0.7816164E-02  0.1226708E+00
        -11   -1    0    0    0    0  0.00000000000E+00  0.00000000000E+00  0.45593999997E+02  0.45594000000E+02  0.51100000000E-03 0. -1.
         11   -1    0    0    0    0 -0.00000000000E+00 -0.00000000000E+00 -0.45593999997E+02  0.45594000000E+02  0.51100000000E-03 0.  1.
    9900012    2    1    2    0    0 -0.18281831646E+02 -0.40270383476E+01  0.48611796836E+00  0.72461582380E+02  0.70000015744E+02 0.  0.
         12    1    1    2    0    0  0.18281831646E+02  0.40270383476E+01 -0.48611796836E+00  0.18726417620E+02  0.00000000000E+00 0. -1.
         11    1    3    3    0    0 -0.89845239366E+01  0.21680061568E+02  0.85735173039E+01  0.24985034305E+02  0.51100000000E-03 0. -1.
        -11    1    3    3    0    0 -0.21132474468E+02 -0.21395838117E+02 -0.14450770014E+02  0.33364473923E+02  0.51100000000E-03 0.  1.
         12    1    3    3    0    0  0.11835166759E+02 -0.43112617992E+01  0.63633706781E+01  0.14112074153E+02  0.00000000000E+00 0. -1.
</event>
<event>
 7    1  0.3189267E-013  0.7246155E+02  0.7816164E-02  0.1226708E+00
        -11   -1    0    0    0    0  0.00000000000E+00  0.00000000000E+00  0.45593999997E+02  0.45594000000E+02  0.51100000000E-03 0. -1.
         11   -1    0    0    0    0 -0.00000000000E+00 -0.00000000000E+00 -0.45593999997E+02  0.45594000000E+02  0.51100000000E-03 0.  1.
    9900012    2    1    2    0    0  0.60012169306E+01  0.16497252463E+02 -0.65196568104E+01  0.72461551634E+02  0.69999975691E+02 0.  0.
         12    1    1    2    0    0 -0.60012169306E+01 -0.16497252463E+02  0.65196568104E+01  0.18726448366E+02  0.00000000000E+00 0. -1.
         11    1    3    3    0    0 -0.14073603057E+02  0.67853781572E+01 -0.77248372895E+01  0.17429307822E+02  0.51100000000E-03 0. -1.
        -11    1    3    3    0    0 -0.97991163743E+01 -0.12982946602E+02 -0.49753332812E+01  0.17009806751E+02  0.51100000000E-03 0.  1.
         12    1    3    3    0    0  0.29873936361E+02  0.22694820908E+02  0.61805137603E+01  0.38022437062E+02  0.00000000000E+00 0. -1.
</event>
<event>
 7    1  0.3189267E-013  0.7246160E+02  0.7816164E-02  0.1226708E+00
        -11   -1    0    0    0    0  0.00000000000E+00  0.00000000000E+00  0.45593999997E+02  0.45594000000E+02  0.51100000000E-03 0.  1.
         11   -1    0    0    0    0 -0.00000000000E+00 -0.00000000000E+00 -0.45593999997E+02  0.45594000000E+02  0.51100000000E-03 0. -1.
    9900012    2    1    2    0    0  0.11679211884E+02  0.13938196790E+02  0.44722038257E+01  0.72461603468E+02  0.70000043215E+02 0.  0.
         12    1    1    2    0    0 -0.11679211884E+02 -0.13938196790E+02 -0.44722038257E+01  0.18726396532E+02  0.00000000000E+00 0. -1.
         11    1    3    3    0    0 -0.15963029894E+02 -0.26924879884E+01  0.17118294648E+01  0.16278764552E+02  0.51100000000E-03 0. -1.
        -11    1    3    3    0    0 -0.88876737379E+01 -0.39268671436E+01  0.96603462423E+01  0.13701580924E+02  0.51100000000E-03 0.  1.
         12    1    3    3    0    0  0.36529915516E+02  0.20557551922E+02 -0.68999718814E+01  0.42481257992E+02  0.00000000000E+00 0. -1.
</event>
<event>
 7    1  0.3189267E-013  0.7246171E+02  0.7816164E-02  0.1226708E+00
        -11   -1    0    0    0    0  0.00000000000E+00  0.00000000000E+00  0.45593999997E+02  0.45594000000E+02  0.51100000000E-03 0.  1.
         11   -1    0    0    0    0 -0.00000000000E+00 -0.00000000000E+00 -0.45593999997E+02  0.45594000000E+02  0.51100000000E-03 0. -1.
    9900012    2    1    2    0    0  0.12771512329E+02  0.19879983719E+01  0.13550290120E+02  0.72461707600E+02  0.70000178866E+02 0.  0.
         12    1    1    2    0    0 -0.12771512329E+02 -0.19879983719E+01 -0.13550290120E+02  0.18726292400E+02  0.00000000000E+00 0. -1.
         11    1    3    3    0    0 -0.71887378652E+01  0.80183616170E+00  0.34270857484E+01  0.80041120877E+01  0.51100000000E-03 0. -1.
        -11    1    3    3    0    0 -0.13868509279E+02  0.16483456953E+02  0.16046551668E+02  0.26861342547E+02  0.51100000000E-03 0.  1.
         12    1    3    3    0    0  0.33828759472E+02 -0.15297294743E+02 -0.59233472957E+01  0.37596252966E+02  0.00000000000E+00 0. -1.
</event>
<event>
 7    1  0.3189267E-013  0.7246136E+02  0.7816164E-02  0.1226709E+00
        -11   -1    0    0    0    0  0.00000000000E+00  0.00000000000E+00  0.45593999997E+02  0.45594000000E+02  0.51100000000E-03 0. -1.
         11   -1    0    0    0    0 -0.00000000000E+00 -0.00000000000E+00 -0.45593999997E+02  0.45594000000E+02  0.51100000000E-03 0.  1.
    9900012    2    1    2    0    0 -0.13675759370E+02  0.11170120204E+02 -0.62360968949E+01  0.72461364312E+02  0.69999731669E+02 0.  0.
         12    1    1    2    0    0  0.13675759370E+02 -0.11170120204E+02  0.62360968949E+01  0.18726635688E+02  0.00000000000E+00 0. -1.
         11    1    3    3    0    0  0.20517477518E+01 -0.12539029348E+01  0.10242908871E+02  0.10521365112E+02  0.51100000000E-03 0. -1.
        -11    1    3    3    0    0 -0.52135603669E+01  0.33661421574E+02 -0.17349261304E+02  0.38226553365E+02  0.51100000000E-03 0.  1.
         12    1    3    3    0    0 -0.10513946755E+02 -0.21237398436E+02  0.87025553740E+00  0.23713445835E+02  0.00000000000E+00 0. -1.
</event>
<event>
 7    1  0.3189267E-013  0.7246156E+02  0.7816164E-02  0.1226708E+00
        -11   -1    0    0    0    0  0.00000000000E+00  0.00000000000E+00  0.45593999997E+02  0.45594000000E+02  0.51100000000E-03 0.  1.
         11   -1    0    0    0    0 -0.00000000000E+00 -0.00000000000E+00 -0.45593999997E+02  0.45594000000E+02  0.51100000000E-03 0. -1.
    9900012    2    1    2    0    0  0.11222410627E+02  0.83996295730E+01  0.12417052868E+02  0.72461562026E+02  0.69999989229E+02 0.  0.
         12    1    1    2    0    0 -0.11222410627E+02 -0.83996295730E+01 -0.12417052868E+02  0.18726437974E+02  0.00000000000E+00 0. -1.
         11    1    3    3    0    0 -0.12275273692E+02  0.22085952765E+02  0.47890519942E+01  0.25717827922E+02  0.51100000000E-03 0. -1.
        -11    1    3    3    0    0 -0.18313455517E+01  0.45613391562E+00  0.16344193220E+02  0.16452797238E+02  0.51100000000E-03 0.  1.
         12    1    3    3    0    0  0.25329029871E+02 -0.14142457107E+02 -0.87161923464E+01  0.30290936867E+02  0.00000000000E+00 0. -1.
</event>
<event>
 7    1  0.3189267E-013  0.7246153E+02  0.7816164E-02  0.1226708E+00
        -11   -1    0    0    0    0  0.00000000000E+00  0.00000000000E+00  0.45593999997E+02  0.45594000000E+02  0.51100000000E-03 0. -1.
         11   -1    0    0    0    0 -0.00000000000E+00 -0.00000000000E+00 -0.45593999997E+02  0.45594000000E+02  0.51100000000E-03 0.  1.
    9900012    2    1    2    0    0  0.10956833771E+02  0.11322056741E+02 -0.10121233405E+02  0.72461533681E+02  0.69999952305E+02 0.  0.
         12    1    1    2    0    0 -0.10956833771E+02 -0.11322056741E+02  0.10121233405E+02  0.18726466319E+02  0.00000000000E+00 0. -1.
         11    1    3    3    0    0  0.23406206886E+02 -0.98581965674E+01 -0.26732512493E+02  0.36873591970E+02  0.51100000000E-03 0. -1.
        -11    1    3    3    0    0 -0.32821743087E+01 -0.18391166130E+01 -0.23073935764E+01  0.44135114689E+01  0.51100000000E-03 0.  1.
        -12    1    3    3    0    0 -0.91671988056E+01  0.23019369922E+02  0.18918672664E+02  0.31174430242E+02  0.00000000000E+00 0.  1.
</event>
<event>
 7    1  0.3746241E-013  0.7246154E+02  0.7816164E-02  0.1226708E+00
        -11   -1    0    0    0    0  0.00000000000E+00  0.00000000000E+00  0.45593999997E+02  0.45594000000E+02  0.51100000000E-03 0. -1.
         11   -1    0    0    0    0 -0.00000000000E+00 -0.00000000000E+00 -0.45593999997E+02  0.45594000000E+02  0.51100000000E-03 0.  1.
    9900012    2    1    2    0    0 -0.82585307057E+00 -0.16357830481E+02 -0.90785211607E+01  0.72461542839E+02  0.69999964234E+02 0.  0.
         12    1    1    2    0    0  0.82585307057E+00  0.16357830481E+02  0.90785211607E+01  0.18726457161E+02  0.00000000000E+00 0. -1.
         11    1    3    3    0    0  0.29744770386E+01  0.66581111688E+01  0.13117326432E+02  0.15008071528E+02  0.51100000000E-03 0. -1.
        -11    1    3    3    0    0 -0.62148853309E+01  0.17287774859E+01 -0.30551186922E+02  0.31224805746E+02  0.51100000000E-03 0.  1.
         12    1    3    3    0    0  0.24145552218E+01 -0.24744719136E+02  0.83553393290E+01  0.26228665565E+02  0.00000000000E+00 0. -1.
</event>
<event>
 7    1  0.3189267E-013  0.7246154E+02  0.7816164E-02  0.1226708E+00
        -11   -1    0    0    0    0  0.00000000000E+00  0.00000000000E+00  0.45593999997E+02  0.45594000000E+02  0.51100000000E-03 0.  1.
         11   -1    0    0    0    0 -0.00000000000E+00 -0.00000000000E+00 -0.45593999997E+02  0.45594000000E+02  0.51100000000E-03 0. -1.
    9900012    2    1    2    0    0  0.16464424953E+02 -0.41774484589E+01  0.78836491678E+01  0.72461540408E+02  0.69999961067E+02 0.  0.
         12    1    1    2    0    0 -0.16464424953E+02  0.41774484589E+01 -0.78836491678E+01  0.18726459592E+02  0.00000000000E+00 0. -1.
         11    1    3    3    0    0  0.27383594065E+02  0.15049077516E+02  0.63320237518E+01  0.31881506913E+02  0.51100000000E-03 0. -1.
        -11    1    3    3    0    0  0.89991720027E+01 -0.50725525661E+01 -0.92476458566E+01  0.13864877945E+02  0.51100000000E-03 0.  1.
        -12    1    3    3    0    0 -0.19918341115E+02 -0.14153973409E+02  0.10799271273E+02  0.26715155550E+02  0.00000000000E+00 0.  1.
</event>
<event>
 7    1  0.3189267E-013  0.7246163E+02  0.7816164E-02  0.1226708E+00
        -11   -1    0    0    0    0  0.00000000000E+00  0.00000000000E+00  0.45593999997E+02  0.45594000000E+02  0.51100000000E-03 0.  1.
         11   -1    0    0    0    0 -0.00000000000E+00 -0.00000000000E+00 -0.45593999997E+02  0.45594000000E+02  0.51100000000E-03 0. -1.
    9900012    2    1    2    0    0 -0.16028037208E+02  0.84542734527E+01  0.47227289887E+01  0.72461631279E+02  0.70000079444E+02 0.  0.
         12    1    1    2    0    0  0.16028037208E+02 -0.84542734527E+01 -0.47227289887E+01  0.18726368721E+02  0.00000000000E+00 0. -1.
         11    1    3    3    0    0 -0.22047032859E+02  0.33846797852E+02  0.13398379878E+02  0.42558124563E+02  0.51100000000E-03 0. -1.
        -11    1    3    3    0    0  0.44641630087E+01 -0.25113382813E+01  0.61562716263E+00  0.51589309353E+01  0.51100000000E-03 0.  1.
        -12    1    3    3    0    0  0.15548326421E+01 -0.22881186118E+02 -0.92912780517E+01  0.24744575781E+02  0.00000000000E+00 0.  1.
</event>
<event>
 7    1  0.3189267E-013  0.7246144E+02  0.7816164E-02  0.1226708E+00
        -11   -1    0    0    0    0  0.00000000000E+00  0.00000000000E+00  0.45593999997E+02  0.45594000000E+02  0.51100000000E-03 0. -1.
         11   -1    0    0    0    0 -0.00000000000E+00 -0.00000000000E+00 -0.45593999997E+02  0.45594000000E+02  0.51100000000E-03 0.  1.
    9900012    2    1    2    0    0 -0.53168254755E+00  0.15137428308E+02  0.11011800049E+02  0.72461436983E+02  0.69999826337E+02 0.  0.
         12    1    1    2    0    0  0.53168254755E+00 -0.15137428308E+02 -0.11011800049E+02  0.18726563017E+02  0.00000000000E+00 0. -1.
         11    1    3    3    0    0  0.15809897507E+01 -0.23271888855E+02 -0.10253775213E+02  0.25479800742E+02  0.51100000000E-03 0. -1.
        -11    1    3    3    0    0 -0.72826159704E+01  0.72752255516E+01  0.43677824475E+01  0.11182259430E+02  0.51100000000E-03 0.  1.
        -12    1    3    3    0    0  0.51699436722E+01  0.31134091611E+02  0.16897792814E+02  0.35799376811E+02  0.00000000000E+00 0.  1.
</event>
<event>
 7    1  0.3189267E-013  0.7246139E+02  0.7816164E-02  0.1226708E+00
        -11   -1    0    0    0    0  0.00000000000E+00  0.00000000000E+00  0.45593999997E+02  0.45594000000E+02  0.51100000000E-03 0. -1.
         11   -1    0    0    0    0 -0.00000000000E+00 -0.00000000000E+00 -0.45593999997E+02  0.45594000000E+02  0.51100000000E-03 0.  1.
    9900012    2    1    2    0    0  0.57485120950E+00 -0.84726891397E+01  0.16690384498E+02  0.72461391928E+02  0.69999767645E+02 0.  0.
         12    1    1    2    0    0 -0.57485120950E+00  0.84726891397E+01 -0.16690384498E+02  0.18726608072E+02  0.00000000000E+00 0. -1.
         11    1    3    3    0    0  0.12846428302E+02 -0.14445779500E+02  0.27316275096E+01  0.19523653721E+02  0.51100000000E-03 0. -1.
        -11    1    3    3    0    0  0.13500804868E+02 -0.13244479279E+02  0.54491000715E+01  0.19681988093E+02  0.51100000000E-03 0.  1.
        -12    1    3    3    0    0 -0.25772381961E+02  0.19217569639E+02  0.85096569171E+01  0.33255750114E+02  0.00000000000E+00 0.  1.
</event>
<event>
 7    1  0.3189267E-013  0.7246171E+02  0.7816164E-02  0.1226708E+00
        -11   -1    0    0    0    0  0.00000000000E+00  0.00000000000E+00  0.45593999997E+02  0.45594000000E+02  0.51100000000E-03 0.  1.
         11   -1    0    0    0    0 -0.00000000000E+00 -0.00000000000E+00 -0.45593999997E+02  0.45594000000E+02  0.51100000000E-03 0. -1.
    9900012    2    1    2    0    0  0.12876971398E+02  0.36738012316E+01  0.13090488957E+02  0.72461705412E+02  0.70000176015E+02 0.  0.
         12    1    1    2    0    0 -0.12876971398E+02 -0.36738012316E+01 -0.13090488957E+02  0.18726294588E+02  0.00000000000E+00 0. -1.
         11    1    3    3    0    0 -0.68948065675E+01 -0.13512452531E+02 -0.41323396572E+01  0.15722625809E+02  0.51100000000E-03 0. -1.
        -11    1    3    3    0    0 -0.71248946458E+01 -0.33343254477E-01  0.23181169962E+02  0.24251430402E+02  0.51100000000E-03 0.  1.
         12    1    3    3    0    0  0.26896672611E+02  0.17219597018E+02 -0.59583413476E+01  0.32487649201E+02  0.00000000000E+00 0. -1.
</event>
<event>
 7    1  0.3189267E-013  0.7246144E+02  0.7816164E-02  0.1226708E+00
        -11   -1    0    0    0    0  0.00000000000E+00  0.00000000000E+00  0.45593999997E+02  0.45594000000E+02  0.51100000000E-03 0.  1.
         11   -1    0    0    0    0 -0.00000000000E+00 -0.00000000000E+00 -0.45593999997E+02  0.45594000000E+02  0.51100000000E-03 0. -1.
    9900012    2    1    2    0    0 -0.85991741196E+01  0.13820795671E+02  0.92587090767E+01  0.72461444463E+02  0.69999836081E+02 0.  0.
         12    1    1    2    0    0  0.85991741196E+01 -0.13820795671E+02 -0.92587090767E+01  0.18726555537E+02  0.00000000000E+00 0. -1.
         11    1    3    3    0    0  0.48273166683E+01  0.10941605702E+02 -0.13892479597E+02  0.18330922267E+02  0.51100000000E-03 0. -1.
        -11    1    3    3    0    0  0.95079163208E+01  0.18375952980E+02  0.58972392029E+01  0.21514031495E+02  0.51100000000E-03 0.  1.
        -12    1    3    3    0    0 -0.22934407109E+02 -0.15496763011E+02  0.17253949471E+02  0.32616490700E+02  0.00000000000E+00 0.  1.
</event>
<event>
 7    1  0.3189267E-013  0.7246151E+02  0.7816164E-02  0.1226708E+00
        -11   -1    0    0    0    0  0.00000000000E+00  0.00000000000E+00  0.45593999997E+02  0.45594000000E+02  0.51100000000E-03 0.  1.
         11   -1    0    0    0    0 -0.00000000000E+00 -0.00000000000E+00 -0.45593999997E+02  0.45594000000E+02  0.51100000000E-03 0. -1.
    9900012    2    1    2    0    0 -0.31548933267E+00  0.76172378939E+01  0.17104375178E+02  0.72461508154E+02  0.69999919050E+02 0.  0.
         12    1    1    2    0    0  0.31548933267E+00 -0.76172378939E+01 -0.17104375178E+02  0.18726491846E+02  0.00000000000E+00 0. -1.
         11    1    3    3    0    0 -0.14896955010E+02  0.14572112401E+02  0.15373370140E+01  0.20895672608E+02  0.51100000000E-03 0. -1.
        -11    1    3    3    0    0 -0.12638771036E+02  0.10292702266E+02  0.92051294622E+01  0.18719312539E+02  0.51100000000E-03 0.  1.
         12    1    3    3    0    0  0.27220236714E+02 -0.17247576773E+02  0.63619087015E+01  0.32846523007E+02  0.00000000000E+00 0. -1.
</event>
<event>
 7    1  0.3189267E-013  0.7246157E+02  0.7816164E-02  0.1226708E+00
        -11   -1    0    0    0    0  0.00000000000E+00  0.00000000000E+00  0.45593999997E+02  0.45594000000E+02  0.51100000000E-03 0.  1.
         11   -1    0    0    0    0 -0.00000000000E+00 -0.00000000000E+00 -0.45593999997E+02  0.45594000000E+02  0.51100000000E-03 0. -1.
    9900012    2    1    2    0    0 -0.17209148644E+02  0.63054112114E+01  0.38426957794E+01  0.72461566318E+02  0.69999994820E+02 0.  0.
         12    1    1    2    0    0  0.17209148644E+02 -0.63054112114E+01 -0.38426957794E+01  0.18726433682E+02  0.00000000000E+00 0. -1.
         11    1    3    3    0    0  0.83007560936E+01 -0.10631322106E+02  0.11145529510E+02  0.17497153762E+02  0.51100000000E-03 0. -1.
        -11    1    3    3    0    0  0.12289356744E+02  0.11675941758E+01 -0.66075424214E+01  0.14001827825E+02  0.51100000000E-03 0.  1.
        -12    1    3    3    0    0 -0.37799261481E+02  0.15769139141E+02 -0.69529130952E+00  0.40962584731E+02  0.00000000000E+00 0.  1.
</event>
<event>
 7    1  0.3189267E-013  0.7246160E+02  0.7816164E-02  0.1226708E+00
        -11   -1    0    0    0    0  0.00000000000E+00  0.00000000000E+00  0.45593999997E+02  0.45594000000E+02  0.51100000000E-03 0. -1.
         11   -1    0    0    0    0 -0.00000000000E+00 -0.00000000000E+00 -0.45593999997E+02  0.45594000000E+02  0.51100000000E-03 0.  1.
    9900012    2    1    2    0    0  0.34943827072E+01  0.54273016380E+01 -0.17578726669E+02  0.72461602993E+02  0.70000042596E+02 0.  0.
         12    1    1    2    0    0 -0.34943827072E+01 -0.54273016380E+01  0.17578726669E+02  0.18726397007E+02  0.00000000000E+00 0. -1.
         11    1    3    3    0    0  0.14371479951E+02 -0.13036257034E+01  0.11321650488E+02  0.18341718731E+02  0.51100000000E-03 0. -1.
        -11    1    3    3    0    0 -0.65728997799E+01 -0.15306281833E+02  0.10459039124E+01  0.16690691727E+02  0.51100000000E-03 0.  1.
         12    1    3    3    0    0 -0.43041974641E+01  0.22037209175E+02 -0.29946281069E+02  0.37429192536E+02  0.00000000000E+00 0. -1.
</event>
<event>
 7    1  0.3189267E-013  0.7246158E+02  0.7816164E-02  0.1226708E+00
        -11   -1    0    0    0    0  0.00000000000E+00  0.00000000000E+00  0.45593999997E+02  0.45594000000E+02  0.51100000000E-03 0.  1.
         11   -1    0    0    0    0 -0.00000000000E+00 -0.00000000000E+00 -0.45593999997E+02  0.45594000000E+02  0.51100000000E-03 0. -1.
    9900012    2    1    2    0    0 -0.37724108152E+01  0.10515642835E+02  0.15028933734E+02  0.72461583451E+02  0.70000017139E+02 0.  0.
         12    1    1    2    0    0  0.37724108152E+01 -0.10515642835E+02 -0.15028933734E+02  0.18726416549E+02  0.00000000000E+00 0. -1.
         11    1    3    3    0    0  0.62305427810E+01  0.29187373595E+01  0.25655091839E+02  0.26561672173E+02  0.51100000000E-03 0. -1.
        -11    1    3    3    0    0 -0.24045858215E+01  0.19030351221E+02  0.96039920263E+01  0.21451642447E+02  0.51100000000E-03 0.  1.
        -12    1    3    3    0    0 -0.75983677748E+01 -0.11433445746E+02 -0.20230150132E+02  0.24448268831E+02  0.00000000000E+00 0.  1.
</event>
<event>
 7    1  0.3189267E-013  0.7246170E+02  0.7816164E-02  0.1226708E+00
        -11   -1    0    0    0    0  0.00000000000E+00  0.00000000000E+00  0.45593999997E+02  0.45594000000E+02  0.51100000000E-03 0. -1.
         11   -1    0    0    0    0 -0.00000000000E+00 -0.00000000000E+00 -0.45593999997E+02  0.45594000000E+02  0.51100000000E-03 0.  1.
    9900012    2    1    2    0    0  0.80974836358E+01 -0.15235187384E+02 -0.72797116873E+01  0.72461698226E+02  0.70000166655E+02 0.  0.
         12    1    1    2    0    0 -0.80974836358E+01  0.15235187384E+02  0.72797116873E+01  0.18726301774E+02  0.00000000000E+00 0. -1.
         11    1    3    3    0    0  0.21867370744E+01  0.13822296995E+02 -0.64579670752E+01  0.15412431744E+02  0.51100000000E-03 0. -1.
        -11    1    3    3    0    0  0.25067969218E+02 -0.40071825558E+01  0.14806449440E+01  0.25429370863E+02  0.51100000000E-03 0.  1.
         12    1    3    3    0    0 -0.19157222657E+02 -0.25050301823E+02 -0.23023895560E+01  0.31619895620E+02  0.00000000000E+00 0. -1.
</event>
<event>
 7    1  0.3189267E-013  0.7246171E+02  0.7816164E-02  0.1226708E+00
        -11   -1    0    0    0    0  0.00000000000E+00  0.00000000000E+00  0.45593999997E+02  0.45594000000E+02  0.51100000000E-03 0.  1.
         11   -1    0    0    0    0 -0.00000000000E+00 -0.00000000000E+00 -0.45593999997E+02  0.45594000000E+02  0.51100000000E-03 0. -1.
    9900012    2    1    2    0    0  0.27538600691E+01  0.24595452735E+01  0.18358674587E+02  0.72461707233E+02  0.70000178387E+02 0.  0.
         12    1    1    2    0    0 -0.27538600691E+01 -0.24595452735E+01 -0.18358674587E+02  0.18726292767E+02  0.00000000000E+00 0. -1.
         11    1    3    3    0    0 -0.54773409794E+01  0.67730984589E+01 -0.13316879267E+02  0.15912743340E+02  0.51100000000E-03 0. -1.
        -11    1    3    3    0    0  0.11682616958E+02 -0.24087611085E+02  0.18255640788E+02  0.32403162926E+02  0.51100000000E-03 0.  1.
         12    1    3    3    0    0 -0.34514159092E+01  0.19774057900E+02  0.13419913065E+02  0.24145800966E+02  0.00000000000E+00 0. -1.
</event>
<event>
 7    1  0.3189267E-013  0.7246157E+02  0.7816164E-02  0.1226708E+00
        -11   -1    0    0    0    0  0.00000000000E+00  0.00000000000E+00  0.45593999997E+02  0.45594000000E+02  0.51100000000E-03 0.  1.
         11   -1    0    0    0    0 -0.00000000000E+00 -0.00000000000E+00 -0.45593999997E+02  0.45594000000E+02  0.51100000000E-03 0. -1.
    9900012    2    1    2    0    0  0.93836945716E+00  0.29229618546E+01  0.18473088420E+02  0.72461568439E+02  0.69999997583E+02 0.  0.
         12    1    1    2    0    0 -0.93836945716E+00 -0.29229618546E+01 -0.18473088420E+02  0.18726431561E+02  0.00000000000E+00 0. -1.
         11    1    3    3    0    0 -0.23919220318E+02  0.60720323244E+01 -0.10391370991E+01  0.24699766869E+02  0.51100000000E-03 0. -1.
        -11    1    3    3    0    0 -0.11439374482E+01  0.12302000573E+02  0.12211978723E+01  0.12415278309E+02  0.51100000000E-03 0.  1.
        -12    1    3    3    0    0  0.26001527224E+02 -0.15451071043E+02  0.18291027647E+02  0.35346523262E+02  0.00000000000E+00 0.  1.
</event>
<event>
 7    1  0.6204241E-013  0.7246158E+02  0.7816164E-02  0.1226708E+00
        -11   -1    0    0    0    0  0.00000000000E+00  0.00000000000E+00  0.45593999997E+02  0.45594000000E+02  0.51100000000E-03 0. -1.
         11   -1    0    0    0    0 -0.00000000000E+00 -0.00000000000E+00 -0.45593999997E+02  0.45594000000E+02  0.51100000000E-03 0.  1.
    9900012    2    1    2    0    0  0.51728360670E+01  0.13207422638E+02 -0.12226388406E+02  0.72461579649E+02  0.70000012186E+02 0.  0.
         12    1    1    2    0    0 -0.51728360670E+01 -0.13207422638E+02  0.12226388406E+02  0.18726420351E+02  0.00000000000E+00 0. -1.
         11    1    3    3    0    0  0.55436969644E+01  0.90201715876E+01 -0.69526693521E+01  0.12666320811E+02  0.51100000000E-03 0. -1.
        -11    1    3    3    0    0 -0.72194728490E+00 -0.40744960066E+01 -0.31770125603E+02  0.32038470729E+02  0.51100000000E-03 0.  1.
         12    1    3    3    0    0  0.35108638758E+00  0.82617470571E+01  0.26496406549E+02  0.27756788109E+02  0.00000000000E+00 0. -1.
</event>
<event>
 7    1  0.3189267E-013  0.7246159E+02  0.7816164E-02  0.1226708E+00
        -11   -1    0    0    0    0  0.00000000000E+00  0.00000000000E+00  0.45593999997E+02  0.45594000000E+02  0.51100000000E-03 0. -1.
         11   -1    0    0    0    0 -0.00000000000E+00 -0.00000000000E+00 -0.45593999997E+02  0.45594000000E+02  0.51100000000E-03 0.  1.
    9900012    2    1    2    0    0  0.60282638047E+01  0.20996993153E+01 -0.17604826203E+02  0.72461585304E+02  0.70000019553E+02 0.  0.
         12    1    1    2    0    0 -0.60282638047E+01 -0.20996993153E+01  0.17604826203E+02  0.18726414696E+02  0.00000000000E+00 0. -1.
         11    1    3    3    0    0  0.75615512510E+01  0.16324870086E+02 -0.37695920775E+01  0.18381737277E+02  0.51100000000E-03 0. -1.
        -11    1    3    3    0    0 -0.15496984134E+02  0.11987341513E+02  0.31840516859E+01  0.19849208025E+02  0.51100000000E-03 0.  1.
         12    1    3    3    0    0  0.13963696688E+02 -0.26212512284E+02 -0.17019285812E+02  0.34230640002E+02  0.00000000000E+00 0. -1.
</event>
<event>
 7    1  0.3189267E-013  0.7246154E+02  0.7816164E-02  0.1226708E+00
        -11   -1    0    0    0    0  0.00000000000E+00  0.00000000000E+00  0.45593999997E+02  0.45594000000E+02  0.51100000000E-03 0. -1.
         11   -1    0    0    0    0 -0.00000000000E+00 -0.00000000000E+00 -0.45593999997E+02  0.45594000000E+02  0.51100000000E-03 0.  1.
    9900012    2    1    2    0    0 -0.20132345982E+01 -0.13713956873E+02 -0.12591840192E+02  0.72461543686E+02  0.69999965337E+02 0.  0.
         12    1    1    2    0    0  0.20132345982E+01  0.13713956873E+02  0.12591840192E+02  0.18726456314E+02  0.00000000000E+00 0. -1.
         11    1    3    3    0    0  0.13290494289E+02 -0.75215077453E+01 -0.90152096714E+00  0.15297812181E+02  0.51100000000E-03 0. -1.
        -11    1    3    3    0    0  0.18399001148E+02 -0.59183282343E+00 -0.13689008121E+02  0.22940410915E+02  0.51100000000E-03 0.  1.
         12    1    3    3    0    0 -0.33702730036E+02 -0.56006163046E+01  0.19986888964E+01  0.34223320589E+02  0.00000000000E+00 0. -1.
</event>
<event>
 7    1  0.3189267E-013  0.7246150E+02  0.7816164E-02  0.1226708E+00
        -11   -1    0    0    0    0  0.00000000000E+00  0.00000000000E+00  0.45593999997E+02  0.45594000000E+02  0.51100000000E-03 0. -1.
         11   -1    0    0    0    0 -0.00000000000E+00 -0.00000000000E+00 -0.45593999997E+02  0.45594000000E+02  0.51100000000E-03 0.  1.
    9900012    2    1    2    0    0  0.18265546616E+02 -0.40056126882E+01  0.10032645767E+01  0.72461503638E+02  0.69999913167E+02 0.  0.
         12    1    1    2    0    0 -0.18265546616E+02  0.40056126882E+01 -0.10032645767E+01  0.18726496362E+02  0.00000000000E+00 0. -1.
         11    1    3    3    0    0  0.34923378043E+01 -0.14382331841E+02 -0.92997939460E+01  0.17479532609E+02  0.51100000000E-03 0. -1.
        -11    1    3    3    0    0  0.23096181620E+02 -0.10079656621E+02 -0.78498123101E+01  0.26394178081E+02  0.51100000000E-03 0.  1.
         12    1    3    3    0    0 -0.83229728083E+01  0.20456375773E+02  0.18152870833E+02  0.28587792948E+02  0.00000000000E+00 0. -1.
</event>
<event>
 7    1  0.3189267E-013  0.7246179E+02  0.7816164E-02  0.1226707E+00
        -11   -1    0    0    0    0  0.00000000000E+00  0.00000000000E+00  0.45593999997E+02  0.45594000000E+02  0.51100000000E-03 0.  1.
         11   -1    0    0    0    0 -0.00000000000E+00 -0.00000000000E+00 -0.45593999997E+02  0.45594000000E+02  0.51100000000E-03 0. -1.
    9900012    2    1    2    0    0  0.58582894505E+01 -0.12540730546E+02  0.12612748072E+02  0.72461791312E+02  0.70000287916E+02 0.  0.
         12    1    1    2    0    0 -0.58582894505E+01  0.12540730546E+02 -0.12612748072E+02  0.18726208688E+02  0.00000000000E+00 0. -1.
         11    1    3    3    0    0  0.17535838410E+02 -0.19443771677E+02 -0.55599751892E+01  0.26767129285E+02  0.51100000000E-03 0. -1.
        -11    1    3    3    0    0 -0.69893994564E+01 -0.62104716781E+01 -0.10353529240E+02  0.13950527991E+02  0.51100000000E-03 0.  1.
        -12    1    3    3    0    0 -0.46881495032E+01  0.13113512810E+02  0.28526252501E+02  0.31744134037E+02  0.00000000000E+00 0.  1.
</event>
<event>
 7    1  0.3189267E-013  0.7246146E+02  0.7816164E-02  0.1226708E+00
        -11   -1    0    0    0    0  0.00000000000E+00  0.00000000000E+00  0.45593999997E+02  0.45594000000E+02  0.51100000000E-03 0.  1.
         11   -1    0    0    0    0 -0.00000000000E+00 -0.00000000000E+00 -0.45593999997E+02  0.45594000000E+02  0.51100000000E-03 0. -1.
    9900012    2    1    2    0    0  0.12735221341E+02  0.16250230865E+01  0.13632931269E+02  0.72461457937E+02  0.69999853634E+02 0.  0.
         12    1    1    2    0    0 -0.12735221341E+02 -0.16250230865E+01 -0.13632931269E+02  0.18726542063E+02  0.00000000000E+00 0. -1.
         11    1    3    3    0    0  0.44439006106E+01  0.12303881350E+02 -0.94021886651E+01  0.16110086930E+02  0.51100000000E-03 0. -1.
        -11    1    3    3    0    0 -0.13344604034E+02 -0.15095116291E+01  0.29128622241E+02  0.32075437895E+02  0.51100000000E-03 0.  1.
         12    1    3    3    0    0  0.21635924765E+02 -0.91693466348E+01 -0.60935023071E+01  0.24275933113E+02  0.00000000000E+00 0. -1.
</event>
<event>
 7    1  0.3189267E-013  0.7246156E+02  0.7816164E-02  0.1226708E+00
        -11   -1    0    0    0    0  0.00000000000E+00  0.00000000000E+00  0.45593999997E+02  0.45594000000E+02  0.51100000000E-03 0.  1.
         11   -1    0    0    0    0 -0.00000000000E+00 -0.00000000000E+00 -0.45593999997E+02  0.45594000000E+02  0.51100000000E-03 0. -1.
    9900012    2    1    2    0    0  0.90564635403E+01 -0.14642683053E+02  0.73655818217E+01  0.72461561619E+02  0.69999988699E+02 0.  0.
         12    1    1    2    0    0 -0.90564635403E+01  0.14642683053E+02 -0.73655818217E+01  0.18726438381E+02  0.00000000000E+00 0. -1.
         11    1    3    3    0    0  0.99748766816E+01 -0.76569964811E+01 -0.18070844430E+02  0.22015521311E+02  0.51100000000E-03 0. -1.
        -11    1    3    3    0    0 -0.10916651345E+02 -0.84642104149E+01 -0.76915291481E+01  0.15810621602E+02  0.51100000000E-03 0.  1.
        -12    1    3    3    0    0  0.99982382040E+01  0.14785238429E+01  0.33127955400E+02  0.34635418706E+02  0.00000000000E+00 0.  1.
</event>
<event>
 7    1  0.3189267E-013  0.7246160E+02  0.7816164E-02  0.1226708E+00
        -11   -1    0    0    0    0  0.00000000000E+00  0.00000000000E+00  0.45593999997E+02  0.45594000000E+02  0.51100000000E-03 0.  1.
         11   -1    0    0    0    0 -0.00000000000E+00 -0.00000000000E+00 -0.45593999997E+02  0.45594000000E+02  0.51100000000E-03 0. -1.
    9900012    2    1    2    0    0 -0.31627170102E+01 -0.17993118222E+02  0.41137449373E+01  0.72461602064E+02  0.70000041386E+02 0.  0.
         12    1    1    2    0    0  0.31627170102E+01  0.17993118222E+02 -0.41137449373E+01  0.18726397936E+02  0.00000000000E+00 0. -1.
         11    1    3    3    0    0  0.10369921662E+02 -0.83261485437E+01 -0.79374449016E+01  0.15487512928E+02  0.51100000000E-03 0. -1.
        -11    1    3    3    0    0  0.12688305164E+02 -0.16835942273E+02 -0.86686949532E+01  0.22794479871E+02  0.51100000000E-03 0.  1.
        -12    1    3    3    0    0 -0.26220943836E+02  0.71689725940E+01  0.20719884792E+02  0.34179609265E+02  0.00000000000E+00 0.  1.
</event>
<event>
 7    1  0.3189267E-013  0.7246164E+02  0.7816164E-02  0.1226708E+00
        -11   -1    0    0    0    0  0.00000000000E+00  0.00000000000E+00  0.45593999997E+02  0.45594000000E+02  0.51100000000E-03 0.  1.
         11   -1    0    0    0    0 -0.00000000000E+00 -0.00000000000E+00 -0.45593999997E+02  0.45594000000E+02  0.51100000000E-03 0. -1.
    9900012    2    1    2    0    0 -0.17479197327E+02  0.66805726153E+01 -0.72394905814E+00  0.72461641787E+02  0.70000093133E+02 0.  0.
         12    1    1    2    0    0  0.17479197327E+02 -0.66805726153E+01  0.72394905814E+00  0.18726358213E+02  0.00000000000E+00 0. -1.
         11    1    3    3    0    0 -0.26673091423E+01  0.42381202167E+01  0.13729833046E+02  0.14614531014E+02  0.51100000000E-03 0. -1.
        -11    1    3    3    0    0  0.18657170018E+02  0.10697813959E+02 -0.45811878055E+01  0.21989099540E+02  0.51100000000E-03 0.  1.
         12    1    3    3    0    0 -0.33469058203E+02 -0.82553615605E+01 -0.98725942983E+01  0.35858011234E+02  0.00000000000E+00 0. -1.
</event>
<event>
 7    1  0.3189267E-013  0.7246159E+02  0.7816164E-02  0.1226708E+00
        -11   -1    0    0    0    0  0.00000000000E+00  0.00000000000E+00  0.45593999997E+02  0.45594000000E+02  0.51100000000E-03 0.  1.
         11   -1    0    0    0    0 -0.00000000000E+00 -0.00000000000E+00 -0.45593999997E+02  0.45594000000E+02  0.51100000000E-03 0. -1.
    9900012    2    1    2    0    0  0.10344634599E+02  0.12249061714E+02  0.96761215766E+01  0.72461593334E+02  0.70000030013E+02 0.  0.
         12    1    1    2    0    0 -0.10344634599E+02 -0.12249061714E+02 -0.96761215766E+01  0.18726406666E+02  0.00000000000E+00 0. -1.
         11    1    3    3    0    0  0.29453220336E+02  0.99729829949E+01 -0.47280224123E+01  0.31453247434E+02  0.51100000000E-03 0. -1.
        -11    1    3    3    0    0  0.78269861352E+01  0.39213060978E+01 -0.25752481450E+01  0.91252537905E+01  0.51100000000E-03 0.  1.
        -12    1    3    3    0    0 -0.26935571872E+02 -0.16452273788E+01  0.16979392134E+02  0.31883092109E+02  0.00000000000E+00 0.  1.
</event>
<event>
 7    1  0.3189267E-013  0.7246160E+02  0.7816164E-02  0.1226708E+00
        -11   -1    0    0    0    0  0.00000000000E+00  0.00000000000E+00  0.45593999997E+02  0.45594000000E+02  0.51100000000E-03 0.  1.
         11   -1    0    0    0    0 -0.00000000000E+00 -0.00000000000E+00 -0.45593999997E+02  0.45594000000E+02  0.51100000000E-03 0. -1.
    9900012    2    1    2    0    0 -0.83988474298E+01 -0.81451237867E+01  0.14621710228E+02  0.72461599128E+02  0.70000037561E+02 0.  0.
         12    1    1    2    0    0  0.83988474298E+01  0.81451237867E+01 -0.14621710228E+02  0.18726400872E+02  0.00000000000E+00 0. -1.
         11    1    3    3    0    0  0.70902787576E+01 -0.82807427223E+01  0.34358131350E+01  0.11430116581E+02  0.51100000000E-03 0. -1.
        -11    1    3    3    0    0 -0.11496156296E+02 -0.28452437072E+02  0.94691547018E+01  0.32114913606E+02  0.51100000000E-03 0.  1.
        -12    1    3    3    0    0 -0.39929698913E+01  0.28588056008E+02  0.17167423910E+01  0.28916568940E+02  0.00000000000E+00 0.  1.
</event>
<event>
 7    1  0.3189267E-013  0.7246167E+02  0.7816164E-02  0.1226708E+00
        -11   -1    0    0    0    0  0.00000000000E+00  0.00000000000E+00  0.45593999997E+02  0.45594000000E+02  0.51100000000E-03 0. -1.
         11   -1    0    0    0    0 -0.00000000000E+00 -0.00000000000E+00 -0.45593999997E+02  0.45594000000E+02  0.51100000000E-03 0.  1.
    9900012    2    1    2    0    0 -0.17326109712E+02  0.53415138843E+01 -0.46850189977E+01  0.72461674911E+02  0.70000136282E+02 0.  0.
         12    1    1    2    0    0  0.17326109712E+02 -0.53415138843E+01  0.46850189977E+01  0.18726325089E+02  0.00000000000E+00 0. -1.
         11    1    3    3    0    0 -0.18269900709E+01 -0.25497844122E+01 -0.11065850277E+02  0.11501840543E+02  0.51100000000E-03 0. -1.
        -11    1    3    3    0    0 -0.20372555449E+02  0.27054541663E+02 -0.99674357919E+01  0.35303526972E+02  0.51100000000E-03 0.  1.
         12    1    3    3    0    0  0.48734358080E+01 -0.19163243367E+02  0.16348267071E+02  0.25656307395E+02  0.00000000000E+00 0. -1.
</event>
<event>
 7    1  0.3189267E-013  0.7246159E+02  0.7816164E-02  0.1226708E+00
        -11   -1    0    0    0    0  0.00000000000E+00  0.00000000000E+00  0.45593999997E+02  0.45594000000E+02  0.51100000000E-03 0. -1.
         11   -1    0    0    0    0 -0.00000000000E+00 -0.00000000000E+00 -0.45593999997E+02  0.45594000000E+02  0.51100000000E-03 0.  1.
    9900012    2    1    2    0    0 -0.67706075113E+00 -0.17035842235E+02 -0.77459736977E+01  0.72461589761E+02  0.70000025359E+02 0.  0.
         12    1    1    2    0    0  0.67706075113E+00  0.17035842235E+02  0.77459736977E+01  0.18726410239E+02  0.00000000000E+00 0. -1.
         11    1    3    3    0    0 -0.11894877537E+02 -0.46693478042E+01  0.43226071866E+01  0.13489842611E+02  0.51100000000E-03 0. -1.
        -11    1    3    3    0    0  0.12528374847E+02  0.20831288030E+02 -0.27344761217E+01  0.24461808952E+02  0.51100000000E-03 0.  1.
         12    1    3    3    0    0 -0.13105580610E+01 -0.33197782460E+02 -0.93341047626E+01  0.34509938198E+02  0.00000000000E+00 0. -1.
</event>
<event>
 7    1  0.3189267E-013  0.7246155E+02  0.7816164E-02  0.1226708E+00
        -11   -1    0    0    0    0  0.00000000000E+00  0.00000000000E+00  0.45593999997E+02  0.45594000000E+02  0.51100000000E-03 0.  1.
         11   -1    0    0    0    0 -0.00000000000E+00 -0.00000000000E+00 -0.45593999997E+02  0.45594000000E+02  0.51100000000E-03 0. -1.
    9900012    2    1    2    0    0  0.50902920383E+01 -0.78669431118E+00  0.18004164276E+02  0.72461550997E+02  0.69999974862E+02 0.  0.
         12    1    1    2    0    0 -0.50902920383E+01  0.78669431118E+00 -0.18004164276E+02  0.18726449003E+02  0.00000000000E+00 0. -1.
         11    1    3    3    0    0 -0.73492064171E+00  0.26254684919E+01  0.49171464528E+01  0.56224125294E+01  0.51100000000E-03 0. -1.
        -11    1    3    3    0    0 -0.18631570360E+02  0.16896828531E+02  0.22434292432E+02  0.33703645288E+02  0.51100000000E-03 0.  1.
         12    1    3    3    0    0  0.24456783040E+02 -0.20308991334E+02 -0.93472746086E+01  0.33135493180E+02  0.00000000000E+00 0. -1.
</event>
<event>
 7    1  0.3367595E-013  0.7246142E+02  0.7816164E-02  0.1226708E+00
        -11   -1    0    0    0    0  0.00000000000E+00  0.00000000000E+00  0.45593999997E+02  0.45594000000E+02  0.51100000000E-03 0. -1.
         11   -1    0    0    0    0 -0.00000000000E+00 -0.00000000000E+00 -0.45593999997E+02  0.45594000000E+02  0.51100000000E-03 0.  1.
    9900012    2    1    2    0    0  0.83227586685E+01  0.27130562704E+01 -0.16554630457E+02  0.72461420607E+02  0.69999805005E+02 0.  0.
         12    1    1    2    0    0 -0.83227586685E+01 -0.27130562704E+01  0.16554630457E+02  0.18726579393E+02  0.00000000000E+00 0. -1.
         11    1    3    3    0    0 -0.10165472828E+02  0.14022447826E+02  0.18355454508E+02  0.25236651745E+02  0.51100000000E-03 0. -1.
        -11    1    3    3    0    0  0.18124329778E+02 -0.40948419108E+01 -0.96210282494E+01  0.20924226270E+02  0.51100000000E-03 0.  1.
        -12    1    3    3    0    0  0.36390171883E+00 -0.72145496446E+01 -0.25289056716E+02  0.26300542592E+02  0.00000000000E+00 0.  1.
</event>
<event>
 7    1  0.3189267E-013  0.7246150E+02  0.7816164E-02  0.1226708E+00
        -11   -1    0    0    0    0  0.00000000000E+00  0.00000000000E+00  0.45593999997E+02  0.45594000000E+02  0.51100000000E-03 0. -1.
         11   -1    0    0    0    0 -0.00000000000E+00 -0.00000000000E+00 -0.45593999997E+02  0.45594000000E+02  0.51100000000E-03 0.  1.
    9900012    2    1    2    0    0  0.16321202793E+02 -0.47962139928E+01 -0.78292014092E+01  0.72461502090E+02  0.69999911151E+02 0.  0.
         12    1    1    2    0    0 -0.16321202793E+02  0.47962139928E+01  0.78292014092E+01  0.18726497910E+02  0.00000000000E+00 0. -1.
         11    1    3    3    0    0  0.54462410716E+01 -0.14651532856E+01 -0.87410380500E+01  0.10402594023E+02  0.51100000000E-03 0. -1.
        -11    1    3    3    0    0  0.11378314673E+02 -0.12115478721E+02 -0.27601156653E+02  0.32219166939E+02  0.51100000000E-03 0.  1.
         12    1    3    3    0    0 -0.50335295136E+00  0.87844180134E+01  0.28512993293E+02  0.29839741128E+02  0.00000000000E+00 0. -1.
</event>
<event>
 7    1  0.3189267E-013  0.7246158E+02  0.7816164E-02  0.1226708E+00
        -11   -1    0    0    0    0  0.00000000000E+00  0.00000000000E+00  0.45593999997E+02  0.45594000000E+02  0.51100000000E-03 0.  1.
         11   -1    0    0    0    0 -0.00000000000E+00 -0.00000000000E+00 -0.45593999997E+02  0.45594000000E+02  0.51100000000E-03 0. -1.
    9900012    2    1    2    0    0 -0.49352554015E+01  0.87814647074E+01  0.15786317080E+02  0.72461583491E+02  0.70000017192E+02 0.  0.
         12    1    1    2    0    0  0.49352554015E+01 -0.87814647074E+01 -0.15786317080E+02  0.18726416509E+02  0.00000000000E+00 0. -1.
         11    1    3    3    0    0  0.15596801876E+02 -0.10712222339E+02 -0.56431230702E+01  0.19744791071E+02  0.51100000000E-03 0. -1.
        -11    1    3    3    0    0 -0.22248730094E+01  0.33941663451E+01 -0.11241919580E+02  0.11952036696E+02  0.51100000000E-03 0.  1.
        -12    1    3    3    0    0 -0.18307184268E+02  0.16099520701E+02  0.32671359731E+02  0.40764755724E+02  0.00000000000E+00 0.  1.
</event>
<event>
 7    1  0.3189267E-013  0.7246155E+02  0.7816164E-02  0.1226708E+00
        -11   -1    0    0    0    0  0.00000000000E+00  0.00000000000E+00  0.45593999997E+02  0.45594000000E+02  0.51100000000E-03 0.  1.
         11   -1    0    0    0    0 -0.00000000000E+00 -0.00000000000E+00 -0.45593999997E+02  0.45594000000E+02  0.51100000000E-03 0. -1.
    9900012    2    1    2    0    0 -0.15774819945E+02  0.44543699627E+00  0.10081499499E+02  0.72461548373E+02  0.69999971443E+02 0.  0.
         12    1    1    2    0    0  0.15774819945E+02 -0.44543699627E+00 -0.10081499499E+02  0.18726451627E+02  0.00000000000E+00 0. -1.
         11    1    3    3    0    0 -0.12375977077E+02 -0.10008204245E+02  0.73481836532E+01  0.17530680651E+02  0.51100000000E-03 0. -1.
        -11    1    3    3    0    0  0.78738847161E+01 -0.16563936696E+02  0.14499922552E+02  0.23379688058E+02  0.51100000000E-03 0.  1.
         12    1    3    3    0    0 -0.11272727584E+02  0.27017577938E+02 -0.11766606706E+02  0.31551179664E+02  0.00000000000E+00 0. -1.
</event>
<event>
 7    1  0.3189267E-013  0.7246156E+02  0.7816164E-02  0.1226708E+00
        -11   -1    0    0    0    0  0.00000000000E+00  0.00000000000E+00  0.45593999997E+02  0.45594000000E+02  0.51100000000E-03 0.  1.
         11   -1    0    0    0    0 -0.00000000000E+00 -0.00000000000E+00 -0.45593999997E+02  0.45594000000E+02  0.51100000000E-03 0. -1.
    9900012    2    1    2    0    0  0.10193786458E+02  0.10610860397E+02 -0.11583424856E+02  0.72461564885E+02  0.69999992953E+02 0.  0.
         12    1    1    2    0    0 -0.10193786458E+02 -0.10610860397E+02  0.11583424856E+02  0.18726435115E+02  0.00000000000E+00 0. -1.
         11    1    3    3    0    0 -0.28013231069E+01  0.25067960896E+02 -0.92434777652E+01  0.26864324970E+02  0.51100000000E-03 0. -1.
        -11    1    3    3    0    0  0.22901571168E+02 -0.41885052567E+01  0.11281656847E+02  0.25870858504E+02  0.51100000000E-03 0.  1.
         12    1    3    3    0    0 -0.99064616031E+01 -0.10268595243E+02 -0.13621603938E+02  0.19726381411E+02  0.00000000000E+00 0. -1.
</event>
<event>
 7    1  0.3189267E-013  0.7246172E+02  0.7816164E-02  0.1226708E+00
        -11   -1    0    0    0    0  0.00000000000E+00  0.00000000000E+00  0.45593999997E+02  0.45594000000E+02  0.51100000000E-03 0.  1.
         11   -1    0    0    0    0 -0.00000000000E+00 -0.00000000000E+00 -0.45593999997E+02  0.45594000000E+02  0.51100000000E-03 0. -1.
    9900012    2    1    2    0    0 -0.10196145656E+00  0.48785175702E+00  0.18719641609E+02  0.72461724944E+02  0.70000201460E+02 0.  0.
         12    1    1    2    0    0  0.10196145656E+00 -0.48785175702E+00 -0.18719641609E+02  0.18726275056E+02  0.00000000000E+00 0. -1.
         11    1    3    3    0    0 -0.81165016760E+01  0.23666422837E+01  0.11696640711E+02  0.14432255518E+02  0.51100000000E-03 0. -1.
        -11    1    3    3    0    0  0.13301005769E+02  0.12634628079E+02  0.27083147628E+02  0.32711580011E+02  0.51100000000E-03 0.  1.
        -12    1    3    3    0    0 -0.52864655494E+01 -0.14513418605E+02 -0.20060146729E+02  0.25317889415E+02  0.00000000000E+00 0.  1.
</event>
<event>
 7    1  0.3189267E-013  0.7246159E+02  0.7816164E-02  0.1226708E+00
        -11   -1    0    0    0    0  0.00000000000E+00  0.00000000000E+00  0.45593999997E+02  0.45594000000E+02  0.51100000000E-03 0. -1.
         11   -1    0    0    0    0 -0.00000000000E+00 -0.00000000000E+00 -0.45593999997E+02  0.45594000000E+02  0.51100000000E-03 0.  1.
    9900012    2    1    2    0    0 -0.16288626382E+02 -0.92351408654E+01  0.26663827773E+00  0.72461594253E+02  0.70000031211E+02 0.  0.
         12    1    1    2    0    0  0.16288626382E+02  0.92351408654E+01 -0.26663827773E+00  0.18726405747E+02  0.00000000000E+00 0. -1.
         11    1    3    3    0    0  0.96340940899E+01  0.77073073357E+01  0.90319095641E+01  0.15290315430E+02  0.51100000000E-03 0. -1.
        -11    1    3    3    0    0  0.86709283453E+01 -0.60623571364E+01  0.11501882178E+02  0.15627874658E+02  0.51100000000E-03 0.  1.
        -12    1    3    3    0    0 -0.34593648818E+02 -0.10880091065E+02 -0.20267153465E+02  0.41543404165E+02  0.00000000000E+00 0.  1.
</event>
<event>
 7    1  0.3189267E-013  0.7246163E+02  0.7816164E-02  0.1226708E+00
        -11   -1    0    0    0    0  0.00000000000E+00  0.00000000000E+00  0.45593999997E+02  0.45594000000E+02  0.51100000000E-03 0.  1.
         11   -1    0    0    0    0 -0.00000000000E+00 -0.00000000000E+00 -0.45593999997E+02  0.45594000000E+02  0.51100000000E-03 0. -1.
    9900012    2    1    2    0    0 -0.10278001782E+02 -0.50921270205E+01  0.14802364297E+02  0.72461626432E+02  0.70000073130E+02 0.  0.
         12    1    1    2    0    0  0.10278001782E+02  0.50921270205E+01 -0.14802364297E+02  0.18726373568E+02  0.00000000000E+00 0. -1.
         11    1    3    3    0    0 -0.15222147832E+02  0.15511308120E+02 -0.11561826957E+02  0.24616870375E+02  0.51100000000E-03 0. -1.
        -11    1    3    3    0    0 -0.13856555728E+02 -0.13980529722E+02  0.10132656438E+02  0.22138881514E+02  0.51100000000E-03 0.  1.
        -12    1    3    3    0    0  0.18800701778E+02 -0.66229054188E+01  0.16231534816E+02  0.25705874543E+02  0.00000000000E+00 0.  1.
</event>
<event>
 7    1  0.3189267E-013  0.7246158E+02  0.7816164E-02  0.1226708E+00
        -11   -1    0    0    0    0  0.00000000000E+00  0.00000000000E+00  0.45593999997E+02  0.45594000000E+02  0.51100000000E-03 0.  1.
         11   -1    0    0    0    0 -0.00000000000E+00 -0.00000000000E+00 -0.45593999997E+02  0.45594000000E+02  0.51100000000E-03 0. -1.
    9900012    2    1    2    0    0 -0.99795537538E+01 -0.65132728825E+00  0.15832347509E+02  0.72461576209E+02  0.70000007705E+02 0.  0.
         12    1    1    2    0    0  0.99795537538E+01  0.65132728825E+00 -0.15832347509E+02  0.18726423791E+02  0.00000000000E+00 0. -1.
         11    1    3    3    0    0 -0.20228480702E+02 -0.34448327604E+00  0.15024186083E+01  0.20287123063E+02  0.51100000000E-03 0. -1.
        -11    1    3    3    0    0  0.45952531065E+01  0.17468127057E+02  0.24879928985E+02  0.30745124500E+02  0.51100000000E-03 0.  1.
        -12    1    3    3    0    0  0.56536738420E+01 -0.17774971069E+02 -0.10550000084E+02  0.21429328645E+02  0.00000000000E+00 0.  1.
</event>
<event>
 7    1  0.3189267E-013  0.7246169E+02  0.7816164E-02  0.1226708E+00
        -11   -1    0    0    0    0  0.00000000000E+00  0.00000000000E+00  0.45593999997E+02  0.45594000000E+02  0.51100000000E-03 0.  1.
         11   -1    0    0    0    0 -0.00000000000E+00 -0.00000000000E+00 -0.45593999997E+02  0.45594000000E+02  0.51100000000E-03 0. -1.
    9900012    2    1    2    0    0  0.16062328934E+02  0.20004040600E+01  0.94167299137E+01  0.72461686176E+02  0.70000150957E+02 0.  0.
         12    1    1    2    0    0 -0.16062328934E+02 -0.20004040600E+01 -0.94167299137E+01  0.18726313824E+02  0.00000000000E+00 0. -1.
         11    1    3    3    0    0  0.59165636408E+01  0.18811816408E+02 -0.23662556235E+02  0.30802706533E+02  0.51100000000E-03 0.  1.
        -11    1    3    3    0    0  0.10058380118E+02 -0.11305326214E+02  0.10500890278E+02  0.18418743396E+02  0.51100000000E-03 0. -1.
        -12    1    3    3    0    0  0.87385175244E-01 -0.55060861339E+01  0.22578395872E+02  0.23240236247E+02  0.00000000000E+00 0.  1.
</event>
<event>
 7    1  0.3189267E-013  0.7246156E+02  0.7816164E-02  0.1226708E+00
        -11   -1    0    0    0    0  0.00000000000E+00  0.00000000000E+00  0.45593999997E+02  0.45594000000E+02  0.51100000000E-03 0.  1.
         11   -1    0    0    0    0 -0.00000000000E+00 -0.00000000000E+00 -0.45593999997E+02  0.45594000000E+02  0.51100000000E-03 0. -1.
    9900012    2    1    2    0    0  0.68261319663E+01  0.12541781702E+02  0.12115568978E+02  0.72461564740E+02  0.69999992764E+02 0.  0.
         12    1    1    2    0    0 -0.68261319663E+01 -0.12541781702E+02 -0.12115568978E+02  0.18726435260E+02  0.00000000000E+00 0. -1.
         11    1    3    3    0    0  0.27870702858E+02  0.14946554972E+02 -0.97855685621E+00  0.31640688316E+02  0.51100000000E-03 0. -1.
        -11    1    3    3    0    0  0.80034191238E+01  0.33651448441E+01  0.53920411991E+01  0.10220226321E+02  0.51100000000E-03 0.  1.
        -12    1    3    3    0    0 -0.29047990016E+02 -0.57699181141E+01  0.77020846352E+01  0.30600650103E+02  0.00000000000E+00 0.  1.
</event>
<event>
 7    1  0.3189267E-013  0.7246160E+02  0.7816164E-02  0.1226708E+00
        -11   -1    0    0    0    0  0.00000000000E+00  0.00000000000E+00  0.45593999997E+02  0.45594000000E+02  0.51100000000E-03 0. -1.
         11   -1    0    0    0    0 -0.00000000000E+00 -0.00000000000E+00 -0.45593999997E+02  0.45594000000E+02  0.51100000000E-03 0.  1.
    9900012    2    1    2    0    0  0.55996789354E+01  0.71463641938E+01 -0.16378369252E+02  0.72461604065E+02  0.70000043993E+02 0.  0.
         12    1    1    2    0    0 -0.55996789354E+01 -0.71463641938E+01  0.16378369252E+02  0.18726395935E+02  0.00000000000E+00 0. -1.
         11    1    3    3    0    0  0.48097580436E+00 -0.19765445838E+02 -0.23537495611E+01  0.19910909677E+02  0.51100000000E-03 0. -1.
        -11    1    3    3    0    0  0.71936672465E+00 -0.11028972108E+02 -0.85326802892E+01  0.13962891800E+02  0.51100000000E-03 0.  1.
        -12    1    3    3    0    0  0.43993364063E+01  0.37940782140E+02 -0.54919394014E+01  0.38587802588E+02  0.00000000000E+00 0.  1.
</event>
<event>
 7    1  0.3189267E-013  0.7246159E+02  0.7816164E-02  0.1226708E+00
        -11   -1    0    0    0    0  0.00000000000E+00  0.00000000000E+00  0.45593999997E+02  0.45594000000E+02  0.51100000000E-03 0.  1.
         11   -1    0    0    0    0 -0.00000000000E+00 -0.00000000000E+00 -0.45593999997E+02  0.45594000000E+02  0.51100000000E-03 0. -1.
    9900012    2    1    2    0    0  0.16021205587E+01 -0.12202217143E+02  0.14114445088E+02  0.72461589409E+02  0.70000024900E+02 0.  0.
         12    1    1    2    0    0 -0.16021205587E+01  0.12202217143E+02 -0.14114445088E+02  0.18726410591E+02  0.00000000000E+00 0. -1.
         11    1    3    3    0    0  0.77183122522E+01 -0.25858913132E+02 -0.12815393824E+02  0.29874571989E+02  0.51100000000E-03 0. -1.
        -11    1    3    3    0    0 -0.13237808523E+01 -0.52816569274E+01  0.21687425770E+02  0.22360517267E+02  0.51100000000E-03 0.  1.
        -12    1    3    3    0    0 -0.47924108412E+01  0.18938352917E+02  0.52424131429E+01  0.20226500153E+02  0.00000000000E+00 0.  1.
</event>
<event>
 7    1  0.3189267E-013  0.7246154E+02  0.7816164E-02  0.1226708E+00
        -11   -1    0    0    0    0  0.00000000000E+00  0.00000000000E+00  0.45593999997E+02  0.45594000000E+02  0.51100000000E-03 0. -1.
         11   -1    0    0    0    0 -0.00000000000E+00 -0.00000000000E+00 -0.45593999997E+02  0.45594000000E+02  0.51100000000E-03 0.  1.
    9900012    2    1    2    0    0 -0.17896909219E+02  0.42232145557E+01  0.35419713646E+01  0.72461535787E+02  0.69999955047E+02 0.  0.
         12    1    1    2    0    0  0.17896909219E+02 -0.42232145557E+01 -0.35419713646E+01  0.18726464213E+02  0.00000000000E+00 0. -1.
         11    1    3    3    0    0 -0.46118922127E+01 -0.40677008473E+00  0.27308381894E+02  0.27698063716E+02  0.51100000000E-03 0. -1.
        -11    1    3    3    0    0 -0.85099307212E+01 -0.50514832878E+01  0.70239583860E+01  0.12135583874E+02  0.51100000000E-03 0.  1.
        -12    1    3    3    0    0 -0.47750862852E+01  0.96814679283E+01 -0.30790368915E+02  0.32627888197E+02  0.00000000000E+00 0.  1.
</event>
<event>
 7    1  0.3189267E-013  0.7246164E+02  0.7816164E-02  0.1226708E+00
        -11   -1    0    0    0    0  0.00000000000E+00  0.00000000000E+00  0.45593999997E+02  0.45594000000E+02  0.51100000000E-03 0.  1.
         11   -1    0    0    0    0 -0.00000000000E+00 -0.00000000000E+00 -0.45593999997E+02  0.45594000000E+02  0.51100000000E-03 0. -1.
    9900012    2    1    2    0    0  0.11952938674E+02  0.12885800105E+02 -0.64622022845E+01  0.72461637682E+02  0.70000087785E+02 0.  0.
         12    1    1    2    0    0 -0.11952938674E+02 -0.12885800105E+02  0.64622022845E+01  0.18726362318E+02  0.00000000000E+00 0. -1.
         11    1    3    3    0    0 -0.11303916389E+02 -0.17665138008E+01 -0.20250778878E+02  0.23259259278E+02  0.51100000000E-03 0. -1.
        -11    1    3    3    0    0 -0.60427802232E+01  0.16786587442E+02  0.46631722552E+01  0.18440441603E+02  0.51100000000E-03 0.  1.
        -12    1    3    3    0    0  0.29299635286E+02 -0.21342735356E+01  0.91254043384E+01  0.30761936801E+02  0.00000000000E+00 0.  1.
</event>
<event>
 7    1  0.3189267E-013  0.7246156E+02  0.7816164E-02  0.1226708E+00
        -11   -1    0    0    0    0  0.00000000000E+00  0.00000000000E+00  0.45593999997E+02  0.45594000000E+02  0.51100000000E-03 0. -1.
         11   -1    0    0    0    0 -0.00000000000E+00 -0.00000000000E+00 -0.45593999997E+02  0.45594000000E+02  0.51100000000E-03 0.  1.
    9900012    2    1    2    0    0  0.21689464838E+01 -0.13542497312E+02  0.12750525392E+02  0.72461562536E+02  0.69999989894E+02 0.  0.
         12    1    1    2    0    0 -0.21689464838E+01  0.13542497312E+02 -0.12750525392E+02  0.18726437464E+02  0.00000000000E+00 0. -1.
         11    1    3    3    0    0  0.28370360064E+02 -0.31953283461E+01  0.18729114726E+01  0.28611103632E+02  0.51100000000E-03 0. -1.
        -11    1    3    3    0    0  0.28836648134E+01 -0.20453483829E+01  0.13055256742E+02  0.13525483415E+02  0.51100000000E-03 0.  1.
        -12    1    3    3    0    0 -0.29085078394E+02 -0.83018205833E+01 -0.21776428222E+01  0.30324975489E+02  0.00000000000E+00 0.  1.
</event>
<event>
 7    1  0.3189267E-013  0.7246150E+02  0.7816164E-02  0.1226708E+00
        -11   -1    0    0    0    0  0.00000000000E+00  0.00000000000E+00  0.45593999997E+02  0.45594000000E+02  0.51100000000E-03 0.  1.
         11   -1    0    0    0    0 -0.00000000000E+00 -0.00000000000E+00 -0.45593999997E+02  0.45594000000E+02  0.51100000000E-03 0. -1.
    9900012    2    1    2    0    0  0.17506987482E+02 -0.27018719140E+01 -0.60734634244E+01  0.72461503251E+02  0.69999912664E+02 0.  0.
         12    1    1    2    0    0 -0.17506987482E+02  0.27018719140E+01  0.60734634244E+01  0.18726496749E+02  0.00000000000E+00 0. -1.
         11    1    3    3    0    0  0.12232228166E+02 -0.19818810182E+02  0.31096140135E+01  0.23496432548E+02  0.51100000000E-03 0. -1.
        -11    1    3    3    0    0  0.34907190558E+01  0.16770635787E+01  0.17587962541E+02  0.18009277842E+02  0.51100000000E-03 0.  1.
         12    1    3    3    0    0  0.17840402598E+01  0.15439874689E+02 -0.26771039979E+02  0.30955792861E+02  0.00000000000E+00 0. -1.
</event>
<event>
 7    1  0.3189267E-013  0.7246155E+02  0.7816164E-02  0.1226708E+00
        -11   -1    0    0    0    0  0.00000000000E+00  0.00000000000E+00  0.45593999997E+02  0.45594000000E+02  0.51100000000E-03 0. -1.
         11   -1    0    0    0    0 -0.00000000000E+00 -0.00000000000E+00 -0.45593999997E+02  0.45594000000E+02  0.51100000000E-03 0.  1.
    9900012    2    1    2    0    0  0.40881591361E+01 -0.66711065439E+01 -0.17013621053E+02  0.72461547881E+02  0.69999970802E+02 0.  0.
         12    1    1    2    0    0 -0.40881591361E+01  0.66711065439E+01  0.17013621053E+02  0.18726452119E+02  0.00000000000E+00 0. -1.
         11    1    3    3    0    0 -0.11855735405E+02 -0.31725627223E+01 -0.67678209670E+01  0.14015242314E+02  0.51100000000E-03 0.  1.
        -11    1    3    3    0    0 -0.87081672683E+01  0.12350515473E+02 -0.22149694451E+02  0.26813734805E+02  0.51100000000E-03 0. -1.
         12    1    3    3    0    0  0.24652061809E+02 -0.15849059295E+02  0.11903894365E+02  0.31632570762E+02  0.00000000000E+00 0. -1.
</event>
<event>
 7    1  0.3189267E-013  0.7246157E+02  0.7816164E-02  0.1226708E+00
        -11   -1    0    0    0    0  0.00000000000E+00  0.00000000000E+00  0.45593999997E+02  0.45594000000E+02  0.51100000000E-03 0. -1.
         11   -1    0    0    0    0 -0.00000000000E+00 -0.00000000000E+00 -0.45593999997E+02  0.45594000000E+02  0.51100000000E-03 0.  1.
    9900012    2    1    2    0    0 -0.10490443155E+02  0.13591060009E+02 -0.74774943907E+01  0.72461568623E+02  0.69999997823E+02 0.  0.
         12    1    1    2    0    0  0.10490443155E+02 -0.13591060009E+02  0.74774943907E+01  0.18726431377E+02  0.00000000000E+00 0. -1.
         11    1    3    3    0    0  0.98498621222E+01  0.21253933945E+01 -0.17755982475E+02  0.20415974011E+02  0.51100000000E-03 0. -1.
        -11    1    3    3    0    0 -0.18281647081E+02  0.80024272485E+01 -0.15926596953E+02  0.25532605677E+02  0.51100000000E-03 0.  1.
        -12    1    3    3    0    0 -0.20586581961E+01  0.34632393661E+01  0.26205085037E+02  0.26512988935E+02  0.00000000000E+00 0.  1.
</event>
<event>
 7    1  0.3189267E-013  0.7246155E+02  0.7816164E-02  0.1226708E+00
        -11   -1    0    0    0    0  0.00000000000E+00  0.00000000000E+00  0.45593999997E+02  0.45594000000E+02  0.51100000000E-03 0.  1.
         11   -1    0    0    0    0 -0.00000000000E+00 -0.00000000000E+00 -0.45593999997E+02  0.45594000000E+02  0.51100000000E-03 0. -1.
    9900012    2    1    2    0    0  0.15398140511E+02  0.58876573654E+01  0.88832876200E+01  0.72461547069E+02  0.69999969744E+02 0.  0.
         12    1    1    2    0    0 -0.15398140511E+02 -0.58876573654E+01 -0.88832876200E+01  0.18726452931E+02  0.00000000000E+00 0. -1.
         11    1    3    3    0    0 -0.61575500934E+01  0.18082656596E+02 -0.23566110414E+02  0.30335778432E+02  0.51100000000E-03 0. -1.
        -11    1    3    3    0    0  0.16644651057E+01 -0.56947068177E+01  0.74542101228E+01  0.95270865768E+01  0.51100000000E-03 0.  1.
        -12    1    3    3    0    0  0.19891225499E+02 -0.65002924134E+01  0.24995187912E+02  0.32598682060E+02  0.00000000000E+00 0.  1.
</event>
<event>
 7    1  0.3189267E-013  0.7246154E+02  0.7816164E-02  0.1226708E+00
        -11   -1    0    0    0    0  0.00000000000E+00  0.00000000000E+00  0.45593999997E+02  0.45594000000E+02  0.51100000000E-03 0.  1.
         11   -1    0    0    0    0 -0.00000000000E+00 -0.00000000000E+00 -0.45593999997E+02  0.45594000000E+02  0.51100000000E-03 0. -1.
    9900012    2    1    2    0    0  0.29488452985E+00 -0.91303738250E+00  0.18701864743E+02  0.72461539069E+02  0.69999959323E+02 0.  0.
         12    1    1    2    0    0 -0.29488452985E+00  0.91303738250E+00 -0.18701864743E+02  0.18726460931E+02  0.00000000000E+00 0. -1.
         11    1    3    3    0    0 -0.60140376041E+01  0.13966398717E+02  0.88764191938E+01  0.17607377982E+02  0.51100000000E-03 0. -1.
        -11    1    3    3    0    0 -0.14922790084E+02 -0.20151491058E+02 -0.83326800122E+01  0.26423584394E+02  0.51100000000E-03 0.  1.
         12    1    3    3    0    0  0.21231712218E+02  0.52720549593E+01  0.18158125561E+02  0.28430576693E+02  0.00000000000E+00 0. -1.
</event>
<event>
 7    1  0.3189267E-013  0.7246157E+02  0.7816164E-02  0.1226708E+00
        -11   -1    0    0    0    0  0.00000000000E+00  0.00000000000E+00  0.45593999997E+02  0.45594000000E+02  0.51100000000E-03 0. -1.
         11   -1    0    0    0    0 -0.00000000000E+00 -0.00000000000E+00 -0.45593999997E+02  0.45594000000E+02  0.51100000000E-03 0.  1.
    9900012    2    1    2    0    0  0.16229197417E+02  0.61815828142E+01 -0.70057494782E+01  0.72461565726E+02  0.69999994048E+02 0.  0.
         12    1    1    2    0    0 -0.16229197417E+02 -0.61815828142E+01  0.70057494782E+01  0.18726434274E+02  0.00000000000E+00 0. -1.
         11    1    3    3    0    0 -0.29961987073E+01 -0.21914970828E+02  0.28074125014E+01  0.22296293824E+02  0.51100000000E-03 0. -1.
        -11    1    3    3    0    0  0.16780133498E+02 -0.33535426634E+01  0.57364534480E-01  0.17112054802E+02  0.51100000000E-03 0.  1.
        -12    1    3    3    0    0  0.24452626264E+01  0.31450096306E+02 -0.98705265140E+01  0.33053217099E+02  0.00000000000E+00 0.  1.
</event>
<event>
 7    1  0.3189267E-013  0.7246138E+02  0.7816164E-02  0.1226709E+00
        -11   -1    0    0    0    0  0.00000000000E+00  0.00000000000E+00  0.45593999997E+02  0.45594000000E+02  0.51100000000E-03 0.  1.
         11   -1    0    0    0    0 -0.00000000000E+00 -0.00000000000E+00 -0.45593999997E+02  0.45594000000E+02  0.51100000000E-03 0. -1.
    9900012    2    1    2    0    0  0.38683652931E+01 -0.79216204408E+01  0.16521802450E+02  0.72461380533E+02  0.69999752800E+02 0.  0.
         12    1    1    2    0    0 -0.38683652931E+01  0.79216204408E+01 -0.16521802450E+02  0.18726619467E+02  0.00000000000E+00 0. -1.
         11    1    3    3    0    0  0.11662959542E+02  0.17946830505E+01 -0.71794243140E+01  0.13812662534E+02  0.51100000000E-03 0. -1.
        -11    1    3    3    0    0  0.19762075954E+02 -0.59661904810E+01 -0.20527901148E+01  0.20744855324E+02  0.51100000000E-03 0.  1.
        -12    1    3    3    0    0 -0.27556670204E+02 -0.37501130103E+01  0.25754016879E+02  0.37903862675E+02  0.00000000000E+00 0.  1.
</event>
<event>
 7    1  0.3189267E-013  0.7246157E+02  0.7816164E-02  0.1226708E+00
        -11   -1    0    0    0    0  0.00000000000E+00  0.00000000000E+00  0.45593999997E+02  0.45594000000E+02  0.51100000000E-03 0.  1.
         11   -1    0    0    0    0 -0.00000000000E+00 -0.00000000000E+00 -0.45593999997E+02  0.45594000000E+02  0.51100000000E-03 0. -1.
    9900012    2    1    2    0    0  0.60639208853E+01 -0.16858509772E+02 -0.54496357680E+01  0.72461574333E+02  0.70000005261E+02 0.  0.
         12    1    1    2    0    0 -0.60639208853E+01  0.16858509772E+02  0.54496357680E+01  0.18726425667E+02  0.00000000000E+00 0. -1.
         11    1    3    3    0    0 -0.11441832257E+01  0.11643602338E+02  0.23867795883E+01  0.11940659435E+02  0.51100000000E-03 0. -1.
        -11    1    3    3    0    0 -0.17999579544E+02 -0.29733548732E+02 -0.52380555369E+01  0.35149765434E+02  0.51100000000E-03 0.  1.
         12    1    3    3    0    0  0.25207683655E+02  0.12314366211E+01 -0.25983598193E+01  0.25371149465E+02  0.00000000000E+00 0. -1.
</event>
<event>
 7    1  0.3189267E-013  0.7246157E+02  0.7816164E-02  0.1226708E+00
        -11   -1    0    0    0    0  0.00000000000E+00  0.00000000000E+00  0.45593999997E+02  0.45594000000E+02  0.51100000000E-03 0.  1.
         11   -1    0    0    0    0 -0.00000000000E+00 -0.00000000000E+00 -0.45593999997E+02  0.45594000000E+02  0.51100000000E-03 0. -1.
    9900012    2    1    2    0    0  0.45053049582E+01 -0.31377208365E+01  0.17903520594E+02  0.72461571764E+02  0.70000001914E+02 0.  0.
         12    1    1    2    0    0 -0.45053049582E+01  0.31377208365E+01 -0.17903520594E+02  0.18726428236E+02  0.00000000000E+00 0. -1.
         11    1    3    3    0    0  0.61264272801E+01 -0.12297753795E+02 -0.47840466617E+01  0.14548366312E+02  0.51100000000E-03 0. -1.
        -11    1    3    3    0    0  0.13293324565E+02 -0.17524557402E+02  0.14220846823E+02  0.26192653068E+02  0.51100000000E-03 0.  1.
         12    1    3    3    0    0 -0.14914446887E+02  0.26684590360E+02  0.84667204330E+01  0.31720552384E+02  0.00000000000E+00 0. -1.
</event>
<event>
 7    1  0.3189267E-013  0.7246158E+02  0.7816164E-02  0.1226708E+00
        -11   -1    0    0    0    0  0.00000000000E+00  0.00000000000E+00  0.45593999997E+02  0.45594000000E+02  0.51100000000E-03 0. -1.
         11   -1    0    0    0    0 -0.00000000000E+00 -0.00000000000E+00 -0.45593999997E+02  0.45594000000E+02  0.51100000000E-03 0.  1.
    9900012    2    1    2    0    0 -0.12052771362E+01 -0.31723160195E+01 -0.18416363263E+02  0.72461582357E+02  0.70000015714E+02 0.  0.
         12    1    1    2    0    0  0.12052771362E+01  0.31723160195E+01  0.18416363263E+02  0.18726417643E+02  0.00000000000E+00 0. -1.
         11    1    3    3    0    0  0.71791218619E+00  0.12665718629E+02  0.62158158339E+01  0.14127002266E+02  0.51100000000E-03 0. -1.
        -11    1    3    3    0    0  0.28907277663E+01  0.18221104010E+02 -0.76323304037E+01  0.19965405231E+02  0.51100000000E-03 0.  1.
        -12    1    3    3    0    0 -0.48139170887E+01 -0.34059138658E+02 -0.16999848693E+02  0.38369174860E+02  0.00000000000E+00 0.  1.
</event>
<event>
 7    1  0.3189267E-013  0.7246155E+02  0.7816164E-02  0.1226708E+00
        -11   -1    0    0    0    0  0.00000000000E+00  0.00000000000E+00  0.45593999997E+02  0.45594000000E+02  0.51100000000E-03 0.  1.
         11   -1    0    0    0    0 -0.00000000000E+00 -0.00000000000E+00 -0.45593999997E+02  0.45594000000E+02  0.51100000000E-03 0. -1.
    9900012    2    1    2    0    0 -0.64536643254E+01 -0.61786826673E+01  0.16457643592E+02  0.72461549847E+02  0.69999973364E+02 0.  0.
         12    1    1    2    0    0  0.64536643254E+01  0.61786826673E+01 -0.16457643592E+02  0.18726450153E+02  0.00000000000E+00 0. -1.
         11    1    3    3    0    0  0.21960940559E+02 -0.68329429606E+01  0.16556367093E+01  0.23058906152E+02  0.51100000000E-03 0. -1.
        -11    1    3    3    0    0  0.39609297908E+01 -0.31249566792E+01  0.16008754321E+02  0.16784949635E+02  0.51100000000E-03 0.  1.
        -12    1    3    3    0    0 -0.32375534676E+02  0.37792169724E+01 -0.12067474388E+01  0.32617694061E+02  0.00000000000E+00 0.  1.
</event>
<event>
 7    1  0.3189267E-013  0.7246164E+02  0.7816164E-02  0.1226708E+00
        -11   -1    0    0    0    0  0.00000000000E+00  0.00000000000E+00  0.45593999997E+02  0.45594000000E+02  0.51100000000E-03 0.  1.
         11   -1    0    0    0    0 -0.00000000000E+00 -0.00000000000E+00 -0.45593999997E+02  0.45594000000E+02  0.51100000000E-03 0. -1.
    9900012    2    1    2    0    0 -0.50044107598E+01  0.17825922978E+02  0.28051502495E+01  0.72461640904E+02  0.70000091983E+02 0.  0.
         12    1    1    2    0    0  0.50044107598E+01 -0.17825922978E+02 -0.28051502495E+01  0.18726359096E+02  0.00000000000E+00 0. -1.
         11    1    3    3    0    0 -0.14570894664E+02 -0.71881571935E+01 -0.15682907009E+02  0.22581721539E+02  0.51100000000E-03 0. -1.
        -11    1    3    3    0    0  0.15737451074E+02 -0.39310823559E+01  0.10139419865E+02  0.19129260578E+02  0.51100000000E-03 0.  1.
        -12    1    3    3    0    0 -0.61709671702E+01  0.28945162527E+02  0.83486373939E+01  0.30750658788E+02  0.00000000000E+00 0.  1.
</event>
<event>
 7    1  0.3189267E-013  0.7246157E+02  0.7816164E-02  0.1226708E+00
        -11   -1    0    0    0    0  0.00000000000E+00  0.00000000000E+00  0.45593999997E+02  0.45594000000E+02  0.51100000000E-03 0. -1.
         11   -1    0    0    0    0 -0.00000000000E+00 -0.00000000000E+00 -0.45593999997E+02  0.45594000000E+02  0.51100000000E-03 0.  1.
    9900012    2    1    2    0    0  0.16705333440E+02  0.81960661041E+01  0.21060701971E+01  0.72461569572E+02  0.69999999059E+02 0.  0.
         12    1    1    2    0    0 -0.16705333440E+02 -0.81960661041E+01 -0.21060701971E+01  0.18726430428E+02  0.00000000000E+00 0. -1.
         11    1    3    3    0    0 -0.56710878056E+01 -0.23984081078E+02 -0.11496288815E+02  0.27194889940E+02  0.51100000000E-03 0. -1.
        -11    1    3    3    0    0  0.77093412519E+01  0.99292054365E+01  0.13731078966E+02  0.18616272263E+02  0.51100000000E-03 0.  1.
        -12    1    3    3    0    0  0.14667079993E+02  0.22250941746E+02 -0.12871995378E+00  0.26650407369E+02  0.00000000000E+00 0.  1.
</event>
<event>
 7    1  0.3189267E-013  0.7246178E+02  0.7816164E-02  0.1226707E+00
        -11   -1    0    0    0    0  0.00000000000E+00  0.00000000000E+00  0.45593999997E+02  0.45594000000E+02  0.51100000000E-03 0.  1.
         11   -1    0    0    0    0 -0.00000000000E+00 -0.00000000000E+00 -0.45593999997E+02  0.45594000000E+02  0.51100000000E-03 0. -1.
    9900012    2    1    2    0    0  0.87369466356E+01 -0.45806597330E+01  0.15917113753E+02  0.72461783342E+02  0.70000277533E+02 0.  0.
         12    1    1    2    0    0 -0.87369466356E+01  0.45806597330E+01 -0.15917113753E+02  0.18726216658E+02  0.00000000000E+00 0. -1.
         11    1    3    3    0    0  0.97320922957E+01  0.21107683116E+02  0.51595825181E+01  0.23809015078E+02  0.51100000000E-03 0. -1.
        -11    1    3    3    0    0  0.14008314180E+00  0.54855898411E+01 -0.98434020126E+01  0.11269599932E+02  0.51100000000E-03 0.  1.
        -12    1    3    3    0    0 -0.11352288019E+01 -0.31173932690E+02  0.20600933248E+02  0.37383168331E+02  0.00000000000E+00 0.  1.
</event>
<event>
 7    1  0.3189267E-013  0.7246153E+02  0.7816164E-02  0.1226708E+00
        -11   -1    0    0    0    0  0.00000000000E+00  0.00000000000E+00  0.45593999997E+02  0.45594000000E+02  0.51100000000E-03 0. -1.
         11   -1    0    0    0    0 -0.00000000000E+00 -0.00000000000E+00 -0.45593999997E+02  0.45594000000E+02  0.51100000000E-03 0.  1.
    9900012    2    1    2    0    0 -0.10327270327E+02 -0.11034455907E+02  0.11057521730E+02  0.72461534333E+02  0.69999953153E+02 0.  0.
         12    1    1    2    0    0  0.10327270327E+02  0.11034455907E+02 -0.11057521730E+02  0.18726465667E+02  0.00000000000E+00 0. -1.
         11    1    3    3    0    0  0.95383870482E+01  0.49721257058E+00  0.34264789416E+02  0.35571109651E+02  0.51100000000E-03 0. -1.
        -11    1    3    3    0    0 -0.14319537039E+02  0.10874098625E+01 -0.82989086775E+01  0.16586243900E+02  0.51100000000E-03 0.  1.
        -12    1    3    3    0    0 -0.55461203366E+01 -0.12619078340E+02 -0.14908359008E+02  0.20304180782E+02  0.00000000000E+00 0.  1.
</event>
<event>
 7    1  0.3189267E-013  0.7246132E+02  0.7816164E-02  0.1226709E+00
        -11   -1    0    0    0    0  0.00000000000E+00  0.00000000000E+00  0.45593999997E+02  0.45594000000E+02  0.51100000000E-03 0. -1.
         11   -1    0    0    0    0 -0.00000000000E+00 -0.00000000000E+00 -0.45593999997E+02  0.45594000000E+02  0.51100000000E-03 0.  1.
    9900012    2    1    2    0    0 -0.71020065759E+01 -0.21630455427E+01 -0.17192181510E+02  0.72461324681E+02  0.69999680043E+02 0.  0.
         12    1    1    2    0    0  0.71020065759E+01  0.21630455427E+01  0.17192181510E+02  0.18726675319E+02  0.00000000000E+00 0. -1.
         11    1    3    3    0    0 -0.14562670474E+01  0.94641142074E+01 -0.49026477625E+01  0.10757607856E+02  0.51100000000E-03 0. -1.
        -11    1    3    3    0    0  0.47114315321E+01 -0.13882444148E+01  0.23004441147E+02  0.23522948846E+02  0.51100000000E-03 0.  1.
        -12    1    3    3    0    0 -0.10357171061E+02 -0.10238915335E+02 -0.35293974895E+02  0.38180767979E+02  0.00000000000E+00 0.  1.
</event>
<event>
 7    1  0.3189267E-013  0.7246158E+02  0.7816164E-02  0.1226708E+00
        -11   -1    0    0    0    0  0.00000000000E+00  0.00000000000E+00  0.45593999997E+02  0.45594000000E+02  0.51100000000E-03 0. -1.
         11   -1    0    0    0    0 -0.00000000000E+00 -0.00000000000E+00 -0.45593999997E+02  0.45594000000E+02  0.51100000000E-03 0.  1.
    9900012    2    1    2    0    0 -0.56273816728E+01 -0.17145792339E+02 -0.50033250651E+01  0.72461577995E+02  0.70000010031E+02 0.  0.
         12    1    1    2    0    0  0.56273816728E+01  0.17145792339E+02  0.50033250651E+01  0.18726422005E+02  0.00000000000E+00 0. -1.
         11    1    3    3    0    0  0.41119885390E+00  0.35397463646E+01  0.90260410920E+01  0.97040355976E+01  0.51100000000E-03 0. -1.
        -11    1    3    3    0    0 -0.93661842935E+00 -0.25515382354E+02  0.17175299018E+02  0.30771787199E+02  0.51100000000E-03 0.  1.
        -12    1    3    3    0    0 -0.51019620973E+01  0.48298436512E+01 -0.31204665175E+02  0.31985755199E+02  0.00000000000E+00 0.  1.
</event>
<event>
 7    1  0.3189267E-013  0.7246153E+02  0.7816164E-02  0.1226708E+00
        -11   -1    0    0    0    0  0.00000000000E+00  0.00000000000E+00  0.45593999997E+02  0.45594000000E+02  0.51100000000E-03 0.  1.
         11   -1    0    0    0    0 -0.00000000000E+00 -0.00000000000E+00 -0.45593999997E+02  0.45594000000E+02  0.51100000000E-03 0. -1.
    9900012    2    1    2    0    0  0.11045086459E+02  0.12092426220E+02  0.90807486924E+01  0.72461529335E+02  0.69999946642E+02 0.  0.
         12    1    1    2    0    0 -0.11045086459E+02 -0.12092426220E+02 -0.90807486924E+01  0.18726470665E+02  0.00000000000E+00 0. -1.
         11    1    3    3    0    0 -0.13565473918E+01 -0.11442826069E+02  0.24717663133E+02  0.27271621886E+02  0.51100000000E-03 0. -1.
        -11    1    3    3    0    0  0.13889356960E+02 -0.42561961681E+01 -0.44334523715E+01  0.15188315995E+02  0.51100000000E-03 0.  1.
        -12    1    3    3    0    0 -0.14877231092E+01  0.27791448457E+02 -0.11203462069E+02  0.30001591453E+02  0.00000000000E+00 0.  1.
</event>
<event>
 7    1  0.3189267E-013  0.7246156E+02  0.7816164E-02  0.1226708E+00
        -11   -1    0    0    0    0  0.00000000000E+00  0.00000000000E+00  0.45593999997E+02  0.45594000000E+02  0.51100000000E-03 0. -1.
         11   -1    0    0    0    0 -0.00000000000E+00 -0.00000000000E+00 -0.45593999997E+02  0.45594000000E+02  0.51100000000E-03 0.  1.
    9900012    2    1    2    0    0  0.69894682784E+01  0.48092421982E+01 -0.16694256464E+02  0.72461556766E+02  0.69999982376E+02 0.  0.
         12    1    1    2    0    0 -0.69894682784E+01 -0.48092421982E+01  0.16694256464E+02  0.18726443234E+02  0.00000000000E+00 0. -1.
         11    1    3    3    0    0 -0.26930464720E+01  0.32708969185E+02 -0.23956124318E+01  0.32906961628E+02  0.51100000000E-03 0. -1.
        -11    1    3    3    0    0  0.13180880223E+02 -0.71246383068E+01 -0.18838169852E+01  0.15101153636E+02  0.51100000000E-03 0.  1.
        -12    1    3    3    0    0 -0.34983654725E+01 -0.20775088680E+02 -0.12414827047E+02  0.24453441501E+02  0.00000000000E+00 0.  1.
</event>
<event>
 7    1  0.3189267E-013  0.7246155E+02  0.7816164E-02  0.1226708E+00
        -11   -1    0    0    0    0  0.00000000000E+00  0.00000000000E+00  0.45593999997E+02  0.45594000000E+02  0.51100000000E-03 0.  1.
         11   -1    0    0    0    0 -0.00000000000E+00 -0.00000000000E+00 -0.45593999997E+02  0.45594000000E+02  0.51100000000E-03 0. -1.
    9900012    2    1    2    0    0 -0.96630753386E+01 -0.67752350085E+01  0.14539641448E+02  0.72461547911E+02  0.69999970841E+02 0.  0.
         12    1    1    2    0    0  0.96630753386E+01  0.67752350085E+01 -0.14539641448E+02  0.18726452089E+02  0.00000000000E+00 0. -1.
         11    1    3    3    0    0  0.26762409428E+02 -0.18886281021E+01  0.20448786712E+02  0.33733460432E+02  0.51100000000E-03 0. -1.
        -11    1    3    3    0    0 -0.11383807941E+02  0.30413940391E+01 -0.37831006034E+01  0.12375500449E+02  0.51100000000E-03 0.  1.
        -12    1    3    3    0    0 -0.25041676826E+02 -0.79280009455E+01 -0.21260446611E+01  0.26352587029E+02  0.00000000000E+00 0.  1.
</event>
<event>
 7    1  0.3189267E-013  0.7246162E+02  0.7816164E-02  0.1226708E+00
        -11   -1    0    0    0    0  0.00000000000E+00  0.00000000000E+00  0.45593999997E+02  0.45594000000E+02  0.51100000000E-03 0.  1.
         11   -1    0    0    0    0 -0.00000000000E+00 -0.00000000000E+00 -0.45593999997E+02  0.45594000000E+02  0.51100000000E-03 0. -1.
    9900012    2    1    2    0    0  0.23149443235E+01  0.18573447798E+02 -0.58764091008E+00  0.72461621488E+02  0.70000066690E+02 0.  0.
         12    1    1    2    0    0 -0.23149443235E+01 -0.18573447798E+02  0.58764091008E+00  0.18726378512E+02  0.00000000000E+00 0. -1.
         11    1    3    3    0    0  0.18256319336E+02 -0.60483959953E+01 -0.11523136779E+02  0.22420057344E+02  0.51100000000E-03 0. -1.
        -11    1    3    3    0    0  0.11005383475E+02  0.34619273621E+01  0.10764973595E+02  0.15779355603E+02  0.51100000000E-03 0.  1.
         12    1    3    3    0    0 -0.26946758487E+02  0.21159916431E+02  0.17052227421E+00  0.34262208542E+02  0.00000000000E+00 0. -1.
</event>
<event>
 7    1  0.3189267E-013  0.7246156E+02  0.7816164E-02  0.1226708E+00
        -11   -1    0    0    0    0  0.00000000000E+00  0.00000000000E+00  0.45593999997E+02  0.45594000000E+02  0.51100000000E-03 0. -1.
         11   -1    0    0    0    0 -0.00000000000E+00 -0.00000000000E+00 -0.45593999997E+02  0.45594000000E+02  0.51100000000E-03 0.  1.
    9900012    2    1    2    0    0 -0.15434722679E+02 -0.36042679083E+01 -0.99728731902E+01  0.72461558507E+02  0.69999984645E+02 0.  0.
         12    1    1    2    0    0  0.15434722679E+02  0.36042679083E+01  0.99728731902E+01  0.18726441493E+02  0.00000000000E+00 0. -1.
         11    1    3    3    0    0 -0.40175192990E+01  0.10985501449E+00  0.19349876932E+02  0.19762850680E+02  0.51100000000E-03 0. -1.
        -11    1    3    3    0    0  0.10825282437E+02 -0.16926559745E+01  0.47632415921E+01  0.11947396989E+02  0.51100000000E-03 0.  1.
        -12    1    3    3    0    0 -0.22242485816E+02 -0.20214669483E+01 -0.34085991714E+02  0.40751310839E+02  0.00000000000E+00 0.  1.
</event>
<event>
 7    1  0.3189267E-013  0.7246160E+02  0.7816164E-02  0.1226708E+00
        -11   -1    0    0    0    0  0.00000000000E+00  0.00000000000E+00  0.45593999997E+02  0.45594000000E+02  0.51100000000E-03 0. -1.
         11   -1    0    0    0    0 -0.00000000000E+00 -0.00000000000E+00 -0.45593999997E+02  0.45594000000E+02  0.51100000000E-03 0.  1.
    9900012    2    1    2    0    0 -0.10855222855E+02  0.20480246746E+01 -0.15121101115E+02  0.72461602396E+02  0.70000041818E+02 0.  0.
         12    1    1    2    0    0  0.10855222855E+02 -0.20480246746E+01  0.15121101115E+02  0.18726397604E+02  0.00000000000E+00 0. -1.
         11    1    3    3    0    0  0.10726740139E+01 -0.84094735825E+00  0.95531025776E+01  0.96498492795E+01  0.51100000000E-03 0. -1.
        -11    1    3    3    0    0 -0.22497153179E+02 -0.13819574516E+02  0.52757590306E+01  0.26924638801E+02  0.51100000000E-03 0.  1.
         12    1    3    3    0    0  0.10569256310E+02  0.16708546549E+02 -0.29949962723E+02  0.35887114315E+02  0.00000000000E+00 0. -1.
</event>
<event>
 7    1  0.3189267E-013  0.7246158E+02  0.7816164E-02  0.1226708E+00
        -11   -1    0    0    0    0  0.00000000000E+00  0.00000000000E+00  0.45593999997E+02  0.45594000000E+02  0.51100000000E-03 0.  1.
         11   -1    0    0    0    0 -0.00000000000E+00 -0.00000000000E+00 -0.45593999997E+02  0.45594000000E+02  0.51100000000E-03 0. -1.
    9900012    2    1    2    0    0 -0.16400080967E+02 -0.32519030245E+01 -0.84345328283E+01  0.72461578210E+02  0.70000010312E+02 0.  0.
         12    1    1    2    0    0  0.16400080967E+02  0.32519030245E+01  0.84345328283E+01  0.18726421790E+02  0.00000000000E+00 0. -1.
         11    1    3    3    0    0 -0.95122061432E+01  0.12384230476E+02 -0.26557588876E+02  0.30808387776E+02  0.51100000000E-03 0. -1.
        -11    1    3    3    0    0 -0.86364545940E+00  0.45209616284E+01 -0.73150546089E+01  0.86426270148E+01  0.51100000000E-03 0.  1.
        -12    1    3    3    0    0 -0.60242293648E+01 -0.20157095128E+02  0.25438110657E+02  0.33010563419E+02  0.00000000000E+00 0.  1.
</event>
<event>
 7    1  0.3189267E-013  0.7246154E+02  0.7816164E-02  0.1226708E+00
        -11   -1    0    0    0    0  0.00000000000E+00  0.00000000000E+00  0.45593999997E+02  0.45594000000E+02  0.51100000000E-03 0.  1.
         11   -1    0    0    0    0 -0.00000000000E+00 -0.00000000000E+00 -0.45593999997E+02  0.45594000000E+02  0.51100000000E-03 0. -1.
    9900012    2    1    2    0    0 -0.61318851252E+00  0.85224437006E+01  0.16663500766E+02  0.72461539988E+02  0.69999960521E+02 0.  0.
         12    1    1    2    0    0  0.61318851252E+00 -0.85224437006E+01 -0.16663500766E+02  0.18726460012E+02  0.00000000000E+00 0. -1.
         11    1    3    3    0    0  0.22435449123E+02  0.74836341606E+01  0.24405400599E+02  0.33984963385E+02  0.51100000000E-03 0. -1.
        -11    1    3    3    0    0 -0.98220382351E+01 -0.13881988831E+02  0.21922979074E+00  0.17006766623E+02  0.51100000000E-03 0.  1.
        -12    1    3    3    0    0 -0.13226599401E+02  0.14920798371E+02 -0.79611296232E+01  0.21469809981E+02  0.00000000000E+00 0.  1.
</event>
<event>
 7    1  0.3189267E-013  0.7246158E+02  0.7816164E-02  0.1226708E+00
        -11   -1    0    0    0    0  0.00000000000E+00  0.00000000000E+00  0.45593999997E+02  0.45594000000E+02  0.51100000000E-03 0.  1.
         11   -1    0    0    0    0 -0.00000000000E+00 -0.00000000000E+00 -0.45593999997E+02  0.45594000000E+02  0.51100000000E-03 0. -1.
    9900012    2    1    2    0    0  0.71743092812E+00  0.12077670018E+02  0.14293143220E+02  0.72461581141E+02  0.70000014129E+02 0.  0.
         12    1    1    2    0    0 -0.71743092812E+00 -0.12077670018E+02 -0.14293143220E+02  0.18726418859E+02  0.00000000000E+00 0. -1.
         11    1    3    3    0    0  0.16949416353E+02  0.13572175257E+02 -0.53145718688E+01  0.22354671331E+02  0.51100000000E-03 0. -1.
        -11    1    3    3    0    0  0.13909740985E+02  0.24478518773E+01  0.12563939304E+02  0.18903053832E+02  0.51100000000E-03 0.  1.
        -12    1    3    3    0    0 -0.30141726410E+02 -0.39423571163E+01  0.70437757846E+01  0.31203855978E+02  0.00000000000E+00 0.  1.
</event>
<event>
 7    1  0.3189267E-013  0.7246160E+02  0.7816164E-02  0.1226708E+00
        -11   -1    0    0    0    0  0.00000000000E+00  0.00000000000E+00  0.45593999997E+02  0.45594000000E+02  0.51100000000E-03 0.  1.
         11   -1    0    0    0    0 -0.00000000000E+00 -0.00000000000E+00 -0.45593999997E+02  0.45594000000E+02  0.51100000000E-03 0. -1.
    9900012    2    1    2    0    0  0.16070422556E+02 -0.94350258055E+01  0.18438797083E+01  0.72461599240E+02  0.70000037706E+02 0.  0.
         12    1    1    2    0    0 -0.16070422556E+02  0.94350258055E+01 -0.18438797083E+01  0.18726400760E+02  0.00000000000E+00 0. -1.
         11    1    3    3    0    0 -0.72787979689E+01  0.15355988990E+02 -0.20167545132E+02  0.26372659605E+02  0.51100000000E-03 0. -1.
        -11    1    3    3    0    0 -0.30394569878E+01 -0.46791518699E+01 -0.10564932616E+01  0.56788149535E+01  0.51100000000E-03 0.  1.
        -12    1    3    3    0    0  0.26388677512E+02 -0.20111862925E+02  0.23067918102E+02  0.40410124681E+02  0.00000000000E+00 0.  1.
</event>
<event>
 7    1  0.3189267E-013  0.7246157E+02  0.7816164E-02  0.1226708E+00
        -11   -1    0    0    0    0  0.00000000000E+00  0.00000000000E+00  0.45593999997E+02  0.45594000000E+02  0.51100000000E-03 0. -1.
         11   -1    0    0    0    0 -0.00000000000E+00 -0.00000000000E+00 -0.45593999997E+02  0.45594000000E+02  0.51100000000E-03 0.  1.
    9900012    2    1    2    0    0  0.24212169591E+01  0.45108634537E+01 -0.18013025505E+02  0.72461567651E+02  0.69999996557E+02 0.  0.
         12    1    1    2    0    0 -0.24212169591E+01 -0.45108634537E+01  0.18013025505E+02  0.18726432349E+02  0.00000000000E+00 0. -1.
         11    1    3    3    0    0 -0.29187577930E+02  0.10886066614E+02 -0.11486535838E+02  0.33201832142E+02  0.51100000000E-03 0. -1.
        -11    1    3    3    0    0  0.33438348140E+01  0.63430471971E+01 -0.38787273894E+01  0.81523006219E+01  0.51100000000E-03 0.  1.
        -12    1    3    3    0    0  0.28264960075E+02 -0.12718250357E+02 -0.26477622782E+01  0.31107434888E+02  0.00000000000E+00 0.  1.
</event>
<event>
 7    1  0.3189267E-013  0.7246159E+02  0.7816164E-02  0.1226708E+00
        -11   -1    0    0    0    0  0.00000000000E+00  0.00000000000E+00  0.45593999997E+02  0.45594000000E+02  0.51100000000E-03 0.  1.
         11   -1    0    0    0    0 -0.00000000000E+00 -0.00000000000E+00 -0.45593999997E+02  0.45594000000E+02  0.51100000000E-03 0. -1.
    9900012    2    1    2    0    0 -0.26109892171E+00  0.44614251937E+01  0.18185321744E+02  0.72461590458E+02  0.70000026267E+02 0.  0.
         12    1    1    2    0    0  0.26109892171E+00 -0.44614251937E+01 -0.18185321744E+02  0.18726409542E+02  0.00000000000E+00 0. -1.
         11    1    3    3    0    0 -0.83371942067E+01  0.12108426956E+02  0.13349307420E+01  0.14761600555E+02  0.51100000000E-03 0. -1.
        -11    1    3    3    0    0  0.23169198907E+02  0.10483741013E+02 -0.45667400102E+01  0.25837486685E+02  0.51100000000E-03 0.  1.
         12    1    3    3    0    0 -0.15093103622E+02 -0.18130742776E+02  0.21417131012E+02  0.31862503218E+02  0.00000000000E+00 0. -1.
</event>
<event>
 7    1  0.3189267E-013  0.7246157E+02  0.7816164E-02  0.1226708E+00
        -11   -1    0    0    0    0  0.00000000000E+00  0.00000000000E+00  0.45593999997E+02  0.45594000000E+02  0.51100000000E-03 0.  1.
         11   -1    0    0    0    0 -0.00000000000E+00 -0.00000000000E+00 -0.45593999997E+02  0.45594000000E+02  0.51100000000E-03 0. -1.
    9900012    2    1    2    0    0  0.12582339146E+02 -0.12160011751E+02  0.66706871121E+01  0.72461569195E+02  0.69999998568E+02 0.  0.
         12    1    1    2    0    0 -0.12582339146E+02  0.12160011751E+02 -0.66706871121E+01  0.18726430805E+02  0.00000000000E+00 0. -1.
         11    1    3    3    0    0  0.15785526499E+02 -0.30204386617E+02  0.87984961949E+01  0.35198030532E+02  0.51100000000E-03 0. -1.
        -11    1    3    3    0    0  0.13615670467E+02  0.32300636389E+01  0.29064713786E+01  0.14292213597E+02  0.51100000000E-03 0.  1.
        -12    1    3    3    0    0 -0.16818857820E+02  0.14814311228E+02 -0.50342804614E+01  0.22971325066E+02  0.00000000000E+00 0.  1.
</event>
<event>
 7    1  0.3189267E-013  0.7246158E+02  0.7816164E-02  0.1226708E+00
        -11   -1    0    0    0    0  0.00000000000E+00  0.00000000000E+00  0.45593999997E+02  0.45594000000E+02  0.51100000000E-03 0. -1.
         11   -1    0    0    0    0 -0.00000000000E+00 -0.00000000000E+00 -0.45593999997E+02  0.45594000000E+02  0.51100000000E-03 0.  1.
    9900012    2    1    2    0    0 -0.60972427078E+00  0.18491332404E+02  0.28944373602E+01  0.72461577347E+02  0.70000009187E+02 0.  0.
         12    1    1    2    0    0  0.60972427078E+00 -0.18491332404E+02 -0.28944373602E+01  0.18726422653E+02  0.00000000000E+00 0. -1.
         11    1    3    3    0    0 -0.21022590512E+02  0.20188307893E+02  0.15650638422E+02  0.33082617350E+02  0.51100000000E-03 0. -1.
        -11    1    3    3    0    0  0.53784689687E+01  0.13861353226E+02 -0.91131873212E+01  0.17438899768E+02  0.51100000000E-03 0.  1.
        -12    1    3    3    0    0  0.15034397273E+02 -0.15558328715E+02 -0.36430137409E+01  0.21940060229E+02  0.00000000000E+00 0.  1.
</event>
<event>
 7    1  0.3189267E-013  0.7246161E+02  0.7816164E-02  0.1226708E+00
        -11   -1    0    0    0    0  0.00000000000E+00  0.00000000000E+00  0.45593999997E+02  0.45594000000E+02  0.51100000000E-03 0.  1.
         11   -1    0    0    0    0 -0.00000000000E+00 -0.00000000000E+00 -0.45593999997E+02  0.45594000000E+02  0.51100000000E-03 0. -1.
    9900012    2    1    2    0    0  0.17167404636E+02  0.53062289240E+01  0.52727583231E+01  0.72461606122E+02  0.70000046673E+02 0.  0.
         12    1    1    2    0    0 -0.17167404636E+02 -0.53062289240E+01 -0.52727583231E+01  0.18726393878E+02  0.00000000000E+00 0. -1.
         11    1    3    3    0    0  0.61447598785E+01 -0.39674821350E+01 -0.16629904940E+02  0.18167353331E+02  0.51100000000E-03 0. -1.
        -11    1    3    3    0    0 -0.10419449367E+01  0.20211892662E+02 -0.67520456654E+01  0.21335331616E+02  0.51100000000E-03 0.  1.
        -12    1    3    3    0    0  0.12064589694E+02 -0.10938181603E+02  0.28654708929E+02  0.32958921176E+02  0.00000000000E+00 0.  1.
</event>
<event>
 7    1  0.3189267E-013  0.7246156E+02  0.7816164E-02  0.1226708E+00
        -11   -1    0    0    0    0  0.00000000000E+00  0.00000000000E+00  0.45593999997E+02  0.45594000000E+02  0.51100000000E-03 0.  1.
         11   -1    0    0    0    0 -0.00000000000E+00 -0.00000000000E+00 -0.45593999997E+02  0.45594000000E+02  0.51100000000E-03 0. -1.
    9900012    2    1    2    0    0  0.96756361628E+01  0.81528402761E+01  0.13805539141E+02  0.72461557447E+02  0.69999983264E+02 0.  0.
         12    1    1    2    0    0 -0.96756361628E+01 -0.81528402761E+01 -0.13805539141E+02  0.18726442553E+02  0.00000000000E+00 0. -1.
         11    1    3    3    0    0 -0.32041313895E+01  0.21189833926E+02  0.11524814335E+02  0.24333040613E+02  0.51100000000E-03 0. -1.
        -11    1    3    3    0    0  0.27521209060E+02  0.39795177884E+00  0.52982373641E+01  0.28029388740E+02  0.51100000000E-03 0.  1.
         12    1    3    3    0    0 -0.14641441507E+02 -0.13434945429E+02 -0.30175125583E+01  0.20099128094E+02  0.00000000000E+00 0. -1.
</event>
<event>
 7    1  0.3189267E-013  0.7246155E+02  0.7816164E-02  0.1226708E+00
        -11   -1    0    0    0    0  0.00000000000E+00  0.00000000000E+00  0.45593999997E+02  0.45594000000E+02  0.51100000000E-03 0.  1.
         11   -1    0    0    0    0 -0.00000000000E+00 -0.00000000000E+00 -0.45593999997E+02  0.45594000000E+02  0.51100000000E-03 0. -1.
    9900012    2    1    2    0    0 -0.79001871955E+01 -0.15570879792E+02 -0.67686618992E+01  0.72461547075E+02  0.69999969753E+02 0.  0.
         12    1    1    2    0    0  0.79001871955E+01  0.15570879792E+02  0.67686618992E+01  0.18726452925E+02  0.00000000000E+00 0. -1.
         11    1    3    3    0    0  0.28632564562E+01  0.88913756374E+01  0.55091704925E+01  0.10844618852E+02  0.51100000000E-03 0. -1.
        -11    1    3    3    0    0 -0.18974838964E+02  0.68469578100E+01  0.98093673933E+01  0.22430983792E+02  0.51100000000E-03 0.  1.
         12    1    3    3    0    0  0.82113953123E+01 -0.31309213240E+02 -0.22087199785E+02  0.39185944432E+02  0.00000000000E+00 0. -1.
</event>
<event>
 7    1  0.3189267E-013  0.7246156E+02  0.7816164E-02  0.1226708E+00
        -11   -1    0    0    0    0  0.00000000000E+00  0.00000000000E+00  0.45593999997E+02  0.45594000000E+02  0.51100000000E-03 0. -1.
         11   -1    0    0    0    0 -0.00000000000E+00 -0.00000000000E+00 -0.45593999997E+02  0.45594000000E+02  0.51100000000E-03 0.  1.
    9900012    2    1    2    0    0 -0.16048022830E+02 -0.10164435799E+01 -0.95972635203E+01  0.72461557162E+02  0.69999982892E+02 0.  0.
         12    1    1    2    0    0  0.16048022830E+02  0.10164435799E+01  0.95972635203E+01  0.18726442838E+02  0.00000000000E+00 0. -1.
         11    1    3    3    0    0  0.96913843646E+01 -0.71028527873E+00  0.44716569298E+01  0.10696875807E+02  0.51100000000E-03 0. -1.
        -11    1    3    3    0    0 -0.11750256141E+02  0.26738684506E+02 -0.10806704384E+02  0.31141782678E+02  0.51100000000E-03 0.  1.
         12    1    3    3    0    0 -0.13989151054E+02 -0.27044842807E+02 -0.32622160665E+01  0.30622898676E+02  0.00000000000E+00 0. -1.
</event>
<event>
 7    1  0.3189267E-013  0.7246154E+02  0.7816164E-02  0.1226708E+00
        -11   -1    0    0    0    0  0.00000000000E+00  0.00000000000E+00  0.45593999997E+02  0.45594000000E+02  0.51100000000E-03 0.  1.
         11   -1    0    0    0    0 -0.00000000000E+00 -0.00000000000E+00 -0.45593999997E+02  0.45594000000E+02  0.51100000000E-03 0. -1.
    9900012    2    1    2    0    0 -0.31937574852E+00  0.13592675201E+02 -0.12877016022E+02  0.72461538465E+02  0.69999958536E+02 0.  0.
         12    1    1    2    0    0  0.31937574852E+00 -0.13592675201E+02  0.12877016022E+02  0.18726461535E+02  0.00000000000E+00 0. -1.
         11    1    3    3    0    0  0.19318642431E+01  0.51745767021E+01  0.13336190638E+02  0.14434760978E+02  0.51100000000E-03 0. -1.
        -11    1    3    3    0    0 -0.18761547919E+02 -0.14308111877E+02 -0.10332233151E+02  0.25757965524E+02  0.51100000000E-03 0.  1.
         12    1    3    3    0    0  0.16510307927E+02  0.22726210376E+02 -0.15880973509E+02  0.32268811963E+02  0.00000000000E+00 0. -1.
</event>
<event>
 7    1  0.3189267E-013  0.7246159E+02  0.7816164E-02  0.1226708E+00
        -11   -1    0    0    0    0  0.00000000000E+00  0.00000000000E+00  0.45593999997E+02  0.45594000000E+02  0.51100000000E-03 0. -1.
         11   -1    0    0    0    0 -0.00000000000E+00 -0.00000000000E+00 -0.45593999997E+02  0.45594000000E+02  0.51100000000E-03 0.  1.
    9900012    2    1    2    0    0  0.13901924555E+01 -0.32853288123E+01 -0.18383486322E+02  0.72461585772E+02  0.70000020163E+02 0.  0.
         12    1    1    2    0    0 -0.13901924555E+01  0.32853288123E+01  0.18383486322E+02  0.18726414228E+02  0.00000000000E+00 0. -1.
         11    1    3    3    0    0  0.89402834926E+01  0.12435664861E+02 -0.12267493001E+02  0.19623093901E+02  0.51100000000E-03 0. -1.
        -11    1    3    3    0    0  0.17258873896E+01  0.13704051870E+02 -0.15334717217E+02  0.20638151015E+02  0.51100000000E-03 0.  1.
         12    1    3    3    0    0 -0.92759784267E+01 -0.29425045543E+02  0.92187238960E+01  0.32200340856E+02  0.00000000000E+00 0. -1.
</event>
<event>
 7    1  0.3189267E-013  0.7246171E+02  0.7816164E-02  0.1226708E+00
        -11   -1    0    0    0    0  0.00000000000E+00  0.00000000000E+00  0.45593999997E+02  0.45594000000E+02  0.51100000000E-03 0. -1.
         11   -1    0    0    0    0 -0.00000000000E+00 -0.00000000000E+00 -0.45593999997E+02  0.45594000000E+02  0.51100000000E-03 0.  1.
    9900012    2    1    2    0    0 -0.14176049360E+02 -0.51054749060E+01  0.11119704596E+02  0.72461706192E+02  0.70000177032E+02 0.  0.
         12    1    1    2    0    0  0.14176049360E+02  0.51054749060E+01 -0.11119704596E+02  0.18726293808E+02  0.00000000000E+00 0. -1.
         11    1    3    3    0    0 -0.17541078295E+02  0.16529139475E+02 -0.31493717601E+01  0.24306797862E+02  0.51100000000E-03 0. -1.
        -11    1    3    3    0    0 -0.15624304304E+02 -0.20789667637E+02  0.13078002305E+02  0.29109505492E+02  0.51100000000E-03 0.  1.
        -12    1    3    3    0    0  0.18989333239E+02 -0.84494674390E+00  0.11910740516E+01  0.19045402838E+02  0.00000000000E+00 0.  1.
</event>
<event>
 7    1  0.3189267E-013  0.7246157E+02  0.7816164E-02  0.1226708E+00
        -11   -1    0    0    0    0  0.00000000000E+00  0.00000000000E+00  0.45593999997E+02  0.45594000000E+02  0.51100000000E-03 0.  1.
         11   -1    0    0    0    0 -0.00000000000E+00 -0.00000000000E+00 -0.45593999997E+02  0.45594000000E+02  0.51100000000E-03 0. -1.
    9900012    2    1    2    0    0  0.43398947065E+01 -0.29800365817E+00  0.18214165327E+02  0.72461566522E+02  0.69999995086E+02 0.  0.
         12    1    1    2    0    0 -0.43398947065E+01  0.29800365817E+00 -0.18214165327E+02  0.18726433478E+02  0.00000000000E+00 0. -1.
         11    1    3    3    0    0  0.40825141807E+01 -0.50662947425E+01  0.53685537734E+01  0.84353799163E+01  0.51100000000E-03 0. -1.
        -11    1    3    3    0    0  0.13800642025E+02 -0.10756472634E+02  0.31629413050E+02  0.36146634615E+02  0.51100000000E-03 0.  1.
         12    1    3    3    0    0 -0.13543261499E+02  0.15524763718E+02 -0.18783801497E+02  0.27879551991E+02  0.00000000000E+00 0. -1.
</event>
<event>
 7    1  0.3189267E-013  0.7246157E+02  0.7816164E-02  0.1226708E+00
        -11   -1    0    0    0    0  0.00000000000E+00  0.00000000000E+00  0.45593999997E+02  0.45594000000E+02  0.51100000000E-03 0.  1.
         11   -1    0    0    0    0 -0.00000000000E+00 -0.00000000000E+00 -0.45593999997E+02  0.45594000000E+02  0.51100000000E-03 0. -1.
    9900012    2    1    2    0    0  0.11781516168E+01 -0.78055672304E+01  0.16981291663E+02  0.72461569813E+02  0.69999999373E+02 0.  0.
         12    1    1    2    0    0 -0.11781516168E+01  0.78055672304E+01 -0.16981291663E+02  0.18726430187E+02  0.00000000000E+00 0. -1.
         11    1    3    3    0    0 -0.24867095920E+01 -0.72987731157E+01  0.87502050120E+01  0.11662842775E+02  0.51100000000E-03 0. -1.
        -11    1    3    3    0    0 -0.21676675463E+02  0.44978166380E+01  0.22267985098E+02  0.31400187487E+02  0.51100000000E-03 0.  1.
         12    1    3    3    0    0  0.25341536672E+02 -0.50046107526E+01 -0.14036898447E+02  0.29398539550E+02  0.00000000000E+00 0. -1.
</event>
<event>
 7    1  0.3189267E-013  0.7246150E+02  0.7816164E-02  0.1226708E+00
        -11   -1    0    0    0    0  0.00000000000E+00  0.00000000000E+00  0.45593999997E+02  0.45594000000E+02  0.51100000000E-03 0. -1.
         11   -1    0    0    0    0 -0.00000000000E+00 -0.00000000000E+00 -0.45593999997E+02  0.45594000000E+02  0.51100000000E-03 0.  1.
    9900012    2    1    2    0    0  0.13860635414E+02  0.11769343608E+02  0.44774081739E+01  0.72461498805E+02  0.69999906872E+02 0.  0.
         12    1    1    2    0    0 -0.13860635414E+02 -0.11769343608E+02 -0.44774081739E+01  0.18726501195E+02  0.00000000000E+00 0. -1.
         11    1    3    3    0    0  0.31225872369E+01  0.88721701117E+01 -0.28140637488E+01  0.98175816058E+01  0.51100000000E-03 0. -1.
        -11    1    3    3    0    0 -0.43958329221E+01  0.30058218323E+02 -0.12358383083E+01  0.30403077680E+02  0.51100000000E-03 0.  1.
         12    1    3    3    0    0  0.15133881099E+02 -0.27161044826E+02  0.85273102310E+01  0.32240839520E+02  0.00000000000E+00 0. -1.
</event>
<event>
 7    1  0.3189267E-013  0.7246156E+02  0.7816164E-02  0.1226708E+00
        -11   -1    0    0    0    0  0.00000000000E+00  0.00000000000E+00  0.45593999997E+02  0.45594000000E+02  0.51100000000E-03 0. -1.
         11   -1    0    0    0    0 -0.00000000000E+00 -0.00000000000E+00 -0.45593999997E+02  0.45594000000E+02  0.51100000000E-03 0.  1.
    9900012    2    1    2    0    0  0.51194927319E+01  0.11390681264E+02 -0.13954305804E+02  0.72461562112E+02  0.69999989341E+02 0.  0.
         12    1    1    2    0    0 -0.51194927319E+01 -0.11390681264E+02  0.13954305804E+02  0.18726437888E+02  0.00000000000E+00 0. -1.
         11    1    3    3    0    0 -0.25121312553E+01 -0.17774127925E+01  0.15496658234E+01  0.34454991081E+01  0.51100000000E-03 0. -1.
        -11    1    3    3    0    0  0.33611645754E+02  0.15794357850E+02  0.26204936207E+01  0.37229980624E+02  0.51100000000E-03 0.  1.
         12    1    3    3    0    0 -0.25980021767E+02 -0.26262637930E+01 -0.18124465248E+02  0.31786082380E+02  0.00000000000E+00 0. -1.
</event>
<event>
 7    1  0.3189267E-013  0.7246158E+02  0.7816164E-02  0.1226708E+00
        -11   -1    0    0    0    0  0.00000000000E+00  0.00000000000E+00  0.45593999997E+02  0.45594000000E+02  0.51100000000E-03 0.  1.
         11   -1    0    0    0    0 -0.00000000000E+00 -0.00000000000E+00 -0.45593999997E+02  0.45594000000E+02  0.51100000000E-03 0. -1.
    9900012    2    1    2    0    0  0.16307215311E+02 -0.22589464013E+01  0.89247200900E+01  0.72461581796E+02  0.70000014983E+02 0.  0.
         12    1    1    2    0    0 -0.16307215311E+02  0.22589464013E+01 -0.89247200900E+01  0.18726418204E+02  0.00000000000E+00 0. -1.
         11    1    3    3    0    0 -0.19468477856E+01  0.59843085714E+01  0.60417272666E+01  0.87237969946E+01  0.51100000000E-03 0. -1.
        -11    1    3    3    0    0  0.40230267800E+02 -0.57033539772E+01  0.70123903078E+01  0.41233194297E+02  0.51100000000E-03 0.  1.
         12    1    3    3    0    0 -0.21976204703E+02 -0.25399009955E+01 -0.41293974844E+01  0.22504590505E+02  0.00000000000E+00 0. -1.
</event>
<event>
 7    1  0.3189267E-013  0.7246157E+02  0.7816164E-02  0.1226708E+00
        -11   -1    0    0    0    0  0.00000000000E+00  0.00000000000E+00  0.45593999997E+02  0.45594000000E+02  0.51100000000E-03 0.  1.
         11   -1    0    0    0    0 -0.00000000000E+00 -0.00000000000E+00 -0.45593999997E+02  0.45594000000E+02  0.51100000000E-03 0. -1.
    9900012    2    1    2    0    0  0.56356019644E+01  0.16263832847E+02  0.73761164688E+01  0.72461565141E+02  0.69999993287E+02 0.  0.
         12    1    1    2    0    0 -0.56356019644E+01 -0.16263832847E+02 -0.73761164688E+01  0.18726434859E+02  0.00000000000E+00 0. -1.
         11    1    3    3    0    0  0.12482675262E+02  0.55632456336E+01 -0.38500962670E+01  0.14198243737E+02  0.51100000000E-03 0. -1.
        -11    1    3    3    0    0  0.77247584651E+00  0.11982197907E+02  0.33022705932E+02  0.35137855554E+02  0.51100000000E-03 0.  1.
         12    1    3    3    0    0 -0.76195491442E+01 -0.12816106943E+01 -0.21796493196E+02  0.23125465850E+02  0.00000000000E+00 0. -1.
</event>
<event>
 7    1  0.3189267E-013  0.7246155E+02  0.7816164E-02  0.1226708E+00
        -11   -1    0    0    0    0  0.00000000000E+00  0.00000000000E+00  0.45593999997E+02  0.45594000000E+02  0.51100000000E-03 0. -1.
         11   -1    0    0    0    0 -0.00000000000E+00 -0.00000000000E+00 -0.45593999997E+02  0.45594000000E+02  0.51100000000E-03 0.  1.
    9900012    2    1    2    0    0 -0.81531835541E+00 -0.10534461475E+01 -0.18679012583E+02  0.72461548017E+02  0.69999970979E+02 0.  0.
         12    1    1    2    0    0  0.81531835541E+00  0.10534461475E+01  0.18679012583E+02  0.18726451983E+02  0.00000000000E+00 0. -1.
         11    1    3    3    0    0 -0.17611495206E+02  0.17967785160E+02  0.24256893734E+01  0.25276274175E+02  0.51100000000E-03 0. -1.
        -11    1    3    3    0    0 -0.56792796355E+01  0.89579140397E+00 -0.15637686027E+02  0.16661148938E+02  0.51100000000E-03 0.  1.
         12    1    3    3    0    0  0.22475456486E+02 -0.19917022712E+02 -0.54670159298E+01  0.30524124904E+02  0.00000000000E+00 0. -1.
</event>
<event>
 7    1  0.3189267E-013  0.7246156E+02  0.7816164E-02  0.1226708E+00
        -11   -1    0    0    0    0  0.00000000000E+00  0.00000000000E+00  0.45593999997E+02  0.45594000000E+02  0.51100000000E-03 0.  1.
         11   -1    0    0    0    0 -0.00000000000E+00 -0.00000000000E+00 -0.45593999997E+02  0.45594000000E+02  0.51100000000E-03 0. -1.
    9900012    2    1    2    0    0  0.87516975668E+01 -0.12557776234E+02  0.10788403013E+02  0.72461558966E+02  0.69999985243E+02 0.  0.
         12    1    1    2    0    0 -0.87516975668E+01  0.12557776234E+02 -0.10788403013E+02  0.18726441034E+02  0.00000000000E+00 0. -1.
         11    1    3    3    0    0  0.10891168275E+02  0.14626823339E+02  0.56330300786E+01  0.19086449002E+02  0.51100000000E-03 0. -1.
        -11    1    3    3    0    0 -0.55170965945E+01 -0.44386903981E+01  0.23129144041E+02  0.24188791446E+02  0.51100000000E-03 0.  1.
         12    1    3    3    0    0  0.33776258867E+01 -0.22745909175E+02 -0.17973771107E+02  0.29186318518E+02  0.00000000000E+00 0. -1.
</event>
<event>
 7    1  0.3189267E-013  0.7246157E+02  0.7816164E-02  0.1226708E+00
        -11   -1    0    0    0    0  0.00000000000E+00  0.00000000000E+00  0.45593999997E+02  0.45594000000E+02  0.51100000000E-03 0. -1.
         11   -1    0    0    0    0 -0.00000000000E+00 -0.00000000000E+00 -0.45593999997E+02  0.45594000000E+02  0.51100000000E-03 0.  1.
    9900012    2    1    2    0    0  0.10751099507E+02 -0.15330237872E+02  0.27691014913E+00  0.72461574472E+02  0.70000005442E+02 0.  0.
         12    1    1    2    0    0 -0.10751099507E+02  0.15330237872E+02 -0.27691014913E+00  0.18726425528E+02  0.00000000000E+00 0. -1.
         11    1    3    3    0    0 -0.22568246051E+01 -0.16425232435E+01 -0.75294257762E+01  0.80301552092E+01  0.51100000000E-03 0. -1.
        -11    1    3    3    0    0  0.18894874956E+02 -0.20558262080E+02 -0.20548269958E+02  0.34668282880E+02  0.51100000000E-03 0.  1.
         12    1    3    3    0    0 -0.58869508431E+01  0.68705474508E+01  0.28354605883E+02  0.29763136382E+02  0.00000000000E+00 0. -1.
</event>
<event>
 7    1  0.3189267E-013  0.7246161E+02  0.7816164E-02  0.1226708E+00
        -11   -1    0    0    0    0  0.00000000000E+00  0.00000000000E+00  0.45593999997E+02  0.45594000000E+02  0.51100000000E-03 0. -1.
         11   -1    0    0    0    0 -0.00000000000E+00 -0.00000000000E+00 -0.45593999997E+02  0.45594000000E+02  0.51100000000E-03 0.  1.
    9900012    2    1    2    0    0  0.17870764766E+02 -0.91944774667E+00 -0.55197854951E+01  0.72461610882E+02  0.70000052873E+02 0.  0.
         12    1    1    2    0    0 -0.17870764766E+02  0.91944774667E+00  0.55197854951E+01  0.18726389118E+02  0.00000000000E+00 0. -1.
         11    1    3    3    0    0 -0.45363233343E+01 -0.47917499325E+01  0.20661279079E+02  0.21689341859E+02  0.51100000000E-03 0. -1.
        -11    1    3    3    0    0  0.10172079587E+02  0.18766049409E+02 -0.45978639632E+01  0.21835204758E+02  0.51100000000E-03 0.  1.
         12    1    3    3    0    0  0.12235008513E+02 -0.14893747223E+02 -0.21583200611E+02  0.28937064265E+02  0.00000000000E+00 0. -1.
</event>
<event>
 7    1  0.3189267E-013  0.7246157E+02  0.7816164E-02  0.1226708E+00
        -11   -1    0    0    0    0  0.00000000000E+00  0.00000000000E+00  0.45593999997E+02  0.45594000000E+02  0.51100000000E-03 0. -1.
         11   -1    0    0    0    0 -0.00000000000E+00 -0.00000000000E+00 -0.45593999997E+02  0.45594000000E+02  0.51100000000E-03 0.  1.
    9900012    2    1    2    0    0  0.60092529008E+00  0.87320794350E+01 -0.16555024679E+02  0.72461570426E+02  0.70000000171E+02 0.  0.
         12    1    1    2    0    0 -0.60092529008E+00 -0.87320794350E+01  0.16555024679E+02  0.18726429574E+02  0.00000000000E+00 0. -1.
         11    1    3    3    0    0 -0.19012841761E+02  0.10694408673E+01 -0.16056449829E+02  0.24908661886E+02  0.51100000000E-03 0. -1.
        -11    1    3    3    0    0 -0.66724185803E+01 -0.75752635797E+00 -0.14955669304E+02  0.16394116643E+02  0.51100000000E-03 0.  1.
         12    1    3    3    0    0  0.26286185632E+02  0.84201649257E+01  0.14457094454E+02  0.31158791897E+02  0.00000000000E+00 0. -1.
</event>
<event>
 7    1  0.3189267E-013  0.7246162E+02  0.7816164E-02  0.1226708E+00
        -11   -1    0    0    0    0  0.00000000000E+00  0.00000000000E+00  0.45593999997E+02  0.45594000000E+02  0.51100000000E-03 0.  1.
         11   -1    0    0    0    0 -0.00000000000E+00 -0.00000000000E+00 -0.45593999997E+02  0.45594000000E+02  0.51100000000E-03 0. -1.
    9900012    2    1    2    0    0  0.18242355244E+02  0.17216199041E+01  0.38639282368E+01  0.72461616437E+02  0.70000060109E+02 0.  0.
         12    1    1    2    0    0 -0.18242355244E+02 -0.17216199041E+01 -0.38639282368E+01  0.18726383563E+02  0.00000000000E+00 0. -1.
         11    1    3    3    0    0  0.32531265451E+01  0.79380825671E+01 -0.86636896822E+01  0.12192436439E+02  0.51100000000E-03 0. -1.
        -11    1    3    3    0    0  0.29646301374E+02  0.79861301470E+01 -0.75731737381E+01  0.31623320834E+02  0.51100000000E-03 0.  1.
        -12    1    3    3    0    0 -0.14657072675E+02 -0.14202592810E+02  0.20100791657E+02  0.28645859163E+02  0.00000000000E+00 0.  1.
</event>
<event>
 7    1  0.3189267E-013  0.7246148E+02  0.7816164E-02  0.1226708E+00
        -11   -1    0    0    0    0  0.00000000000E+00  0.00000000000E+00  0.45593999997E+02  0.45594000000E+02  0.51100000000E-03 0. -1.
         11   -1    0    0    0    0 -0.00000000000E+00 -0.00000000000E+00 -0.45593999997E+02  0.45594000000E+02  0.51100000000E-03 0.  1.
    9900012    2    1    2    0    0 -0.61520774302E+01 -0.44536249607E+01 -0.17117231198E+02  0.72461483082E+02  0.69999886390E+02 0.  0.
         12    1    1    2    0    0  0.61520774302E+01  0.44536249607E+01  0.17117231198E+02  0.18726516918E+02  0.00000000000E+00 0. -1.
         11    1    3    3    0    0 -0.23903603024E+02  0.85398113488E+01 -0.47327642346E+01  0.25820721775E+02  0.51100000000E-03 0. -1.
        -11    1    3    3    0    0 -0.61615270429E+01  0.92612421556E+01 -0.79546238648E+01  0.13675198823E+02  0.51100000000E-03 0.  1.
         12    1    3    3    0    0  0.23913052637E+02 -0.22254678465E+02 -0.44298430982E+01  0.32965562484E+02  0.00000000000E+00 0. -1.
</event>
<event>
 7    1  0.3189267E-013  0.7246155E+02  0.7816164E-02  0.1226708E+00
        -11   -1    0    0    0    0  0.00000000000E+00  0.00000000000E+00  0.45593999997E+02  0.45594000000E+02  0.51100000000E-03 0. -1.
         11   -1    0    0    0    0 -0.00000000000E+00 -0.00000000000E+00 -0.45593999997E+02  0.45594000000E+02  0.51100000000E-03 0.  1.
    9900012    2    1    2    0    0  0.19237889574E+01 -0.11375928817E+02 -0.14750154431E+02  0.72461554098E+02  0.69999978901E+02 0.  0.
         12    1    1    2    0    0 -0.19237889574E+01  0.11375928817E+02  0.14750154431E+02  0.18726445902E+02  0.00000000000E+00 0. -1.
         11    1    3    3    0    0 -0.20526302279E+01 -0.13223807499E+01  0.10884800735E+00  0.24441419456E+01  0.51100000000E-03 0. -1.
        -11    1    3    3    0    0 -0.24211068328E+02  0.12482577792E+02 -0.19684084864E+02  0.33607347040E+02  0.51100000000E-03 0.  1.
         12    1    3    3    0    0  0.28187487513E+02 -0.22536125859E+02  0.48250824258E+01  0.36410065112E+02  0.00000000000E+00 0. -1.
</event>
<event>
 7    1  0.3189267E-013  0.7246154E+02  0.7816164E-02  0.1226708E+00
        -11   -1    0    0    0    0  0.00000000000E+00  0.00000000000E+00  0.45593999997E+02  0.45594000000E+02  0.51100000000E-03 0.  1.
         11   -1    0    0    0    0 -0.00000000000E+00 -0.00000000000E+00 -0.45593999997E+02  0.45594000000E+02  0.51100000000E-03 0. -1.
    9900012    2    1    2    0    0 -0.13186143011E+02 -0.33640052998E+01 -0.12864273013E+02  0.72461536924E+02  0.69999956530E+02 0.  0.
         12    1    1    2    0    0  0.13186143011E+02  0.33640052998E+01  0.12864273013E+02  0.18726463076E+02  0.00000000000E+00 0. -1.
         11    1    3    3    0    0 -0.32102886835E+01 -0.11204728234E+02 -0.21673289215E+02  0.24608603250E+02  0.51100000000E-03 0. -1.
        -11    1    3    3    0    0 -0.82989776177E+01 -0.13915053238E+02  0.17962974183E+02  0.24190290984E+02  0.51100000000E-03 0.  1.
         12    1    3    3    0    0 -0.16768767100E+01  0.21755776173E+02 -0.91539579808E+01  0.23662642690E+02  0.00000000000E+00 0. -1.
</event>
<event>
 7    1  0.3189267E-013  0.7246153E+02  0.7816164E-02  0.1226708E+00
        -11   -1    0    0    0    0  0.00000000000E+00  0.00000000000E+00  0.45593999997E+02  0.45594000000E+02  0.51100000000E-03 0.  1.
         11   -1    0    0    0    0 -0.00000000000E+00 -0.00000000000E+00 -0.45593999997E+02  0.45594000000E+02  0.51100000000E-03 0. -1.
    9900012    2    1    2    0    0  0.95188628987E+01 -0.14598144698E+02 -0.68531759057E+01  0.72461532113E+02  0.69999950262E+02 0.  0.
         12    1    1    2    0    0 -0.95188628987E+01  0.14598144698E+02  0.68531759057E+01  0.18726467887E+02  0.00000000000E+00 0. -1.
         11    1    3    3    0    0  0.25524547327E+01  0.68794477607E+01  0.18996329800E+02  0.20364242504E+02  0.51100000000E-03 0. -1.
        -11    1    3    3    0    0  0.93242883909E+01 -0.45832355598E+01  0.87096461408E+01  0.13557519624E+02  0.51100000000E-03 0.  1.
         12    1    3    3    0    0 -0.23578802249E+01 -0.16894356899E+02 -0.34559151846E+02  0.38539769985E+02  0.00000000000E+00 0. -1.
</event>
<event>
 7    1  0.3189267E-013  0.7246158E+02  0.7816164E-02  0.1226708E+00
        -11   -1    0    0    0    0  0.00000000000E+00  0.00000000000E+00  0.45593999997E+02  0.45594000000E+02  0.51100000000E-03 0.  1.
         11   -1    0    0    0    0 -0.00000000000E+00 -0.00000000000E+00 -0.45593999997E+02  0.45594000000E+02  0.51100000000E-03 0. -1.
    9900012    2    1    2    0    0 -0.61395638136E+01  0.16849296752E+02  0.53931149963E+01  0.72461581917E+02  0.70000015141E+02 0.  0.
         12    1    1    2    0    0  0.61395638136E+01 -0.16849296752E+02 -0.53931149963E+01  0.18726418083E+02  0.00000000000E+00 0. -1.
         11    1    3    3    0    0 -0.46682537743E+01  0.34153472374E+02 -0.68465384023E+01  0.35144378738E+02  0.51100000000E-03 0. -1.
        -11    1    3    3    0    0  0.78022741734E-01  0.79380273690E+00 -0.91903025471E+01  0.92248507577E+01  0.51100000000E-03 0.  1.
        -12    1    3    3    0    0 -0.15493327810E+01 -0.18097978359E+02  0.21429955946E+02  0.28092352422E+02  0.00000000000E+00 0.  1.
</event>
<event>
 7    1  0.3189267E-013  0.7246188E+02  0.7816164E-02  0.1226707E+00
        -11   -1    0    0    0    0  0.00000000000E+00  0.00000000000E+00  0.45593999997E+02  0.45594000000E+02  0.51100000000E-03 0. -1.
         11   -1    0    0    0    0 -0.00000000000E+00 -0.00000000000E+00 -0.45593999997E+02  0.45594000000E+02  0.51100000000E-03 0.  1.
    9900012    2    1    2    0    0  0.18120200270E+02 -0.18927487252E+00 -0.47212479515E+01  0.72461877470E+02  0.70000400152E+02 0.  0.
         12    1    1    2    0    0 -0.18120200270E+02  0.18927487252E+00  0.47212479515E+01  0.18726122530E+02  0.00000000000E+00 0. -1.
         11    1    3    3    0    0 -0.39834342494E+00 -0.15676195493E+02 -0.15502072867E+02  0.22050307165E+02  0.51100000000E-03 0. -1.
        -11    1    3    3    0    0  0.20041083710E+02  0.27255100849E+02 -0.78758948285E+00  0.33839412761E+02  0.51100000000E-03 0.  1.
         12    1    3    3    0    0 -0.15225400151E+01 -0.11768180228E+02  0.11568414398E+02  0.16572157544E+02  0.00000000000E+00 0. -1.
</event>
<event>
 7    1  0.3189267E-013  0.7246169E+02  0.7816164E-02  0.1226708E+00
        -11   -1    0    0    0    0  0.00000000000E+00  0.00000000000E+00  0.45593999997E+02  0.45594000000E+02  0.51100000000E-03 0.  1.
         11   -1    0    0    0    0 -0.00000000000E+00 -0.00000000000E+00 -0.45593999997E+02  0.45594000000E+02  0.51100000000E-03 0. -1.
    9900012    2    1    2    0    0  0.52350148891E+01  0.49217303439E+01  0.17292939635E+02  0.72461693058E+02  0.70000159922E+02 0.  0.
         12    1    1    2    0    0 -0.52350148891E+01 -0.49217303439E+01 -0.17292939635E+02  0.18726306942E+02  0.00000000000E+00 0. -1.
         11    1    3    3    0    0  0.15810251594E+01  0.13398325004E+02 -0.22440227214E+02  0.26183554975E+02  0.51100000000E-03 0. -1.
        -11    1    3    3    0    0 -0.33646151841E+01  0.45195799487E+01  0.24185119004E+02  0.24832785179E+02  0.51100000000E-03 0.  1.
        -12    1    3    3    0    0  0.70186049138E+01 -0.12996174609E+02  0.15548047845E+02  0.21445352904E+02  0.00000000000E+00 0.  1.
</event>
<event>
 7    1  0.3189267E-013  0.7246158E+02  0.7816164E-02  0.1226708E+00
        -11   -1    0    0    0    0  0.00000000000E+00  0.00000000000E+00  0.45593999997E+02  0.45594000000E+02  0.51100000000E-03 0. -1.
         11   -1    0    0    0    0 -0.00000000000E+00 -0.00000000000E+00 -0.45593999997E+02  0.45594000000E+02  0.51100000000E-03 0.  1.
    9900012    2    1    2    0    0  0.13154952810E+02  0.12826240565E+02 -0.36212622769E+01  0.72461580937E+02  0.70000013864E+02 0.  0.
         12    1    1    2    0    0 -0.13154952810E+02 -0.12826240565E+02  0.36212622769E+01  0.18726419063E+02  0.00000000000E+00 0. -1.
         11    1    3    3    0    0  0.62760821407E+00  0.81042744343E+01  0.25723155876E+02  0.26976914291E+02  0.51100000000E-03 0. -1.
        -11    1    3    3    0    0  0.17324227380E+01 -0.70490454547E+01  0.41613068648E+01  0.83670069588E+01  0.51100000000E-03 0.  1.
        -12    1    3    3    0    0  0.10794921858E+02  0.11771011585E+02 -0.33505725018E+02  0.37117659687E+02  0.00000000000E+00 0.  1.
</event>
<event>
 7    1  0.3189267E-013  0.7246156E+02  0.7816164E-02  0.1226708E+00
        -11   -1    0    0    0    0  0.00000000000E+00  0.00000000000E+00  0.45593999997E+02  0.45594000000E+02  0.51100000000E-03 0.  1.
         11   -1    0    0    0    0 -0.00000000000E+00 -0.00000000000E+00 -0.45593999997E+02  0.45594000000E+02  0.51100000000E-03 0. -1.
    9900012    2    1    2    0    0  0.69960273348E+01 -0.79502243055E+01 -0.15444385031E+02  0.72461561632E+02  0.69999988715E+02 0.  0.
         12    1    1    2    0    0 -0.69960273348E+01  0.79502243055E+01  0.15444385031E+02  0.18726438368E+02  0.00000000000E+00 0. -1.
         11    1    3    3    0    0  0.47469652855E+01  0.23767842645E+01 -0.21441355946E+02  0.22088787380E+02  0.51100000000E-03 0. -1.
        -11    1    3    3    0    0  0.12610678653E+02  0.88198458497E+01 -0.14005647998E+02  0.20808101139E+02  0.51100000000E-03 0.  1.
        -12    1    3    3    0    0 -0.10361616604E+02 -0.19146854420E+02  0.20002618914E+02  0.29564673112E+02  0.00000000000E+00 0.  1.
</event>
<event>
 7    1  0.3189267E-013  0.7246158E+02  0.7816164E-02  0.1226708E+00
        -11   -1    0    0    0    0  0.00000000000E+00  0.00000000000E+00  0.45593999997E+02  0.45594000000E+02  0.51100000000E-03 0. -1.
         11   -1    0    0    0    0 -0.00000000000E+00 -0.00000000000E+00 -0.45593999997E+02  0.45594000000E+02  0.51100000000E-03 0.  1.
    9900012    2    1    2    0    0 -0.18699350893E+02  0.40299209086E+00 -0.92233562499E+00  0.72461579374E+02  0.70000011828E+02 0.  0.
         12    1    1    2    0    0  0.18699350893E+02 -0.40299209086E+00  0.92233562499E+00  0.18726420626E+02  0.00000000000E+00 0. -1.
         11    1    3    3    0    0 -0.10577401961E+01 -0.85695835308E+01  0.19531555716E+02  0.21355051982E+02  0.51100000000E-03 0. -1.
        -11    1    3    3    0    0 -0.27975018129E+02 -0.42611406481E+01 -0.59436728948E+01  0.28915155312E+02  0.51100000000E-03 0.  1.
        -12    1    3    3    0    0  0.10333407432E+02  0.13233716270E+02 -0.14510218446E+02  0.22191372080E+02  0.00000000000E+00 0.  1.
</event>
<event>
 7    1  0.3189267E-013  0.7246154E+02  0.7816164E-02  0.1226708E+00
        -11   -1    0    0    0    0  0.00000000000E+00  0.00000000000E+00  0.45593999997E+02  0.45594000000E+02  0.51100000000E-03 0. -1.
         11   -1    0    0    0    0 -0.00000000000E+00 -0.00000000000E+00 -0.45593999997E+02  0.45594000000E+02  0.51100000000E-03 0.  1.
    9900012    2    1    2    0    0 -0.13157417064E+01 -0.74781731663E+01 -0.17118007957E+02  0.72461536197E+02  0.69999955582E+02 0.  0.
         12    1    1    2    0    0  0.13157417064E+01  0.74781731663E+01  0.17118007957E+02  0.18726463803E+02  0.00000000000E+00 0. -1.
         11    1    3    3    0    0 -0.37116657591E+01 -0.21602749488E+02 -0.13262983068E+02  0.25619562219E+02  0.51100000000E-03 0. -1.
        -11    1    3    3    0    0  0.94169244614E+01  0.12829491219E+01 -0.21743147009E+02  0.23729493608E+02  0.51100000000E-03 0.  1.
         12    1    3    3    0    0 -0.70210004087E+01  0.12841627200E+02  0.17888122121E+02  0.23112480370E+02  0.00000000000E+00 0. -1.
</event>
<event>
 7    1  0.3189267E-013  0.7246163E+02  0.7816164E-02  0.1226708E+00
        -11   -1    0    0    0    0  0.00000000000E+00  0.00000000000E+00  0.45593999997E+02  0.45594000000E+02  0.51100000000E-03 0. -1.
         11   -1    0    0    0    0 -0.00000000000E+00 -0.00000000000E+00 -0.45593999997E+02  0.45594000000E+02  0.51100000000E-03 0.  1.
    9900012    2    1    2    0    0  0.10817820546E+01  0.62062403075E+01 -0.17634886238E+02  0.72461631324E+02  0.70000079502E+02 0.  0.
         12    1    1    2    0    0 -0.10817820546E+01 -0.62062403075E+01  0.17634886238E+02  0.18726368676E+02  0.00000000000E+00 0. -1.
         11    1    3    3    0    0  0.14916257481E+02  0.25312591385E+02 -0.69953987650E+01  0.30201947354E+02  0.51100000000E-03 0. -1.
        -11    1    3    3    0    0 -0.57392122070E+00 -0.14163446230E+02 -0.20562927256E+02  0.24975319263E+02  0.51100000000E-03 0.  1.
        -12    1    3    3    0    0 -0.13260554205E+02 -0.49429048470E+01  0.99234397833E+01  0.17284364706E+02  0.00000000000E+00 0.  1.
</event>
<event>
 7    1  0.3189267E-013  0.7246160E+02  0.7816164E-02  0.1226708E+00
        -11   -1    0    0    0    0  0.00000000000E+00  0.00000000000E+00  0.45593999997E+02  0.45594000000E+02  0.51100000000E-03 0. -1.
         11   -1    0    0    0    0 -0.00000000000E+00 -0.00000000000E+00 -0.45593999997E+02  0.45594000000E+02  0.51100000000E-03 0.  1.
    9900012    2    1    2    0    0 -0.85123035247E+01 -0.16576117299E+02 -0.18576755199E+01  0.72461603274E+02  0.70000042962E+02 0.  0.
         12    1    1    2    0    0  0.85123035247E+01  0.16576117299E+02  0.18576755199E+01  0.18726396726E+02  0.00000000000E+00 0. -1.
         11    1    3    3    0    0 -0.10622573929E+02 -0.23262661836E+01  0.31771605681E+02  0.33581029154E+02  0.51100000000E-03 0. -1.
        -11    1    3    3    0    0 -0.29834768542E+01 -0.17169694820E+01 -0.17470022541E+02  0.17805920537E+02  0.51100000000E-03 0.  1.
        -12    1    3    3    0    0  0.50937472580E+01 -0.12532881634E+02 -0.16159258661E+02  0.21074653583E+02  0.00000000000E+00 0.  1.
</event>
<event>
 7    1  0.3189267E-013  0.7246164E+02  0.7816164E-02  0.1226708E+00
        -11   -1    0    0    0    0  0.00000000000E+00  0.00000000000E+00  0.45593999997E+02  0.45594000000E+02  0.51100000000E-03 0. -1.
         11   -1    0    0    0    0 -0.00000000000E+00 -0.00000000000E+00 -0.45593999997E+02  0.45594000000E+02  0.51100000000E-03 0.  1.
    9900012    2    1    2    0    0 -0.16041227931E+01 -0.42914036463E+01 -0.18157294809E+02  0.72461635965E+02  0.70000085549E+02 0.  0.
         12    1    1    2    0    0  0.16041227931E+01  0.42914036463E+01  0.18157294809E+02  0.18726364035E+02  0.00000000000E+00 0. -1.
         11    1    3    3    0    0  0.12312158655E+02  0.12147641401E+02  0.10506459921E+02  0.20237098179E+02  0.51100000000E-03 0. -1.
        -11    1    3    3    0    0  0.52700759427E+01  0.72520942598E+01  0.17811666358E+01  0.91399740940E+01  0.51100000000E-03 0.  1.
        -12    1    3    3    0    0 -0.19186357391E+02 -0.23691139307E+02 -0.30444921366E+02  0.43084563692E+02  0.00000000000E+00 0.  1.
</event>
<event>
 7    1  0.3189267E-013  0.7246156E+02  0.7816164E-02  0.1226708E+00
        -11   -1    0    0    0    0  0.00000000000E+00  0.00000000000E+00  0.45593999997E+02  0.45594000000E+02  0.51100000000E-03 0. -1.
         11   -1    0    0    0    0 -0.00000000000E+00 -0.00000000000E+00 -0.45593999997E+02  0.45594000000E+02  0.51100000000E-03 0.  1.
    9900012    2    1    2    0    0  0.11154513401E+02  0.13543119539E+02 -0.65452380915E+01  0.72461564201E+02  0.69999992063E+02 0.  0.
         12    1    1    2    0    0 -0.11154513401E+02 -0.13543119539E+02  0.65452380915E+01  0.18726435799E+02  0.00000000000E+00 0. -1.
         11    1    3    3    0    0  0.15609168591E-01  0.23240513207E+02  0.21099338186E+02  0.31389548737E+02  0.51100000000E-03 0. -1.
        -11    1    3    3    0    0  0.17243275502E+02 -0.70194387923E+01 -0.78847734871E+01  0.20218128603E+02  0.51100000000E-03 0.  1.
        -12    1    3    3    0    0 -0.61043712694E+01 -0.26779548762E+01 -0.19759802790E+02  0.20853886861E+02  0.00000000000E+00 0.  1.
</event>
<event>
 7    1  0.3189267E-013  0.7246157E+02  0.7816164E-02  0.1226708E+00
        -11   -1    0    0    0    0  0.00000000000E+00  0.00000000000E+00  0.45593999997E+02  0.45594000000E+02  0.51100000000E-03 0.  1.
         11   -1    0    0    0    0 -0.00000000000E+00 -0.00000000000E+00 -0.45593999997E+02  0.45594000000E+02  0.51100000000E-03 0. -1.
    9900012    2    1    2    0    0 -0.16290342757E+02 -0.86949660675E+01  0.31147414246E+01  0.72461566378E+02  0.69999994899E+02 0.  0.
         12    1    1    2    0    0  0.16290342757E+02  0.86949660675E+01 -0.31147414246E+01  0.18726433622E+02  0.00000000000E+00 0. -1.
         11    1    3    3    0    0  0.24774275374E+01  0.44678834322E+01  0.44038669313E+01  0.67448998345E+01  0.51100000000E-03 0.  1.
        -11    1    3    3    0    0 -0.30124981702E+02 -0.31015767597E+02  0.52856072527E+01  0.43559499613E+02  0.51100000000E-03 0. -1.
         12    1    3    3    0    0  0.11357211408E+02  0.17852918098E+02 -0.65747327594E+01  0.22157166931E+02  0.00000000000E+00 0. -1.
</event>
<event>
 7    1  0.3189267E-013  0.7246165E+02  0.7816164E-02  0.1226708E+00
        -11   -1    0    0    0    0  0.00000000000E+00  0.00000000000E+00  0.45593999997E+02  0.45594000000E+02  0.51100000000E-03 0. -1.
         11   -1    0    0    0    0 -0.00000000000E+00 -0.00000000000E+00 -0.45593999997E+02  0.45594000000E+02  0.51100000000E-03 0.  1.
    9900012    2    1    2    0    0  0.16233977735E+02 -0.47895940860E+01 -0.80121095438E+01  0.72461651078E+02  0.70000105235E+02 0.  0.
         12    1    1    2    0    0 -0.16233977735E+02  0.47895940860E+01  0.80121095438E+01  0.18726348922E+02  0.00000000000E+00 0. -1.
         11    1    3    3    0    0  0.36733530805E+01  0.10291934172E+01 -0.53143589924E+00  0.38516472216E+01  0.51100000000E-03 0. -1.
        -11    1    3    3    0    0 -0.58947367722E-01 -0.49656320175E+01 -0.36561708486E+02  0.36897418661E+02  0.51100000000E-03 0.  1.
         12    1    3    3    0    0  0.12619572023E+02 -0.85315548570E+00  0.29081034842E+02  0.31712585195E+02  0.00000000000E+00 0. -1.
</event>
<event>
 7    1  0.3189267E-013  0.7246157E+02  0.7816164E-02  0.1226708E+00
        -11   -1    0    0    0    0  0.00000000000E+00  0.00000000000E+00  0.45593999997E+02  0.45594000000E+02  0.51100000000E-03 0. -1.
         11   -1    0    0    0    0 -0.00000000000E+00 -0.00000000000E+00 -0.45593999997E+02  0.45594000000E+02  0.51100000000E-03 0.  1.
    9900012    2    1    2    0    0  0.93513012734E+01  0.31921186183E+01 -0.15907313734E+02  0.72461572498E+02  0.70000002870E+02 0.  0.
         12    1    1    2    0    0 -0.93513012734E+01 -0.31921186183E+01  0.15907313734E+02  0.18726427502E+02  0.00000000000E+00 0. -1.
         11    1    3    3    0    0  0.83571840090E+01 -0.12844064626E+02  0.60784233672E+01  0.16485137293E+02  0.51100000000E-03 0. -1.
        -11    1    3    3    0    0 -0.14086599742E+02 -0.12713250513E+02 -0.70753886112E+01  0.20251423534E+02  0.51100000000E-03 0.  1.
        -12    1    3    3    0    0  0.15080717006E+02  0.28749433757E+02 -0.14910348490E+02  0.35725011671E+02  0.00000000000E+00 0.  1.
</event>
<event>
 7    1  0.3189267E-013  0.7246155E+02  0.7816164E-02  0.1226708E+00
        -11   -1    0    0    0    0  0.00000000000E+00  0.00000000000E+00  0.45593999997E+02  0.45594000000E+02  0.51100000000E-03 0. -1.
         11   -1    0    0    0    0 -0.00000000000E+00 -0.00000000000E+00 -0.45593999997E+02  0.45594000000E+02  0.51100000000E-03 0.  1.
    9900012    2    1    2    0    0  0.15015453236E+02 -0.71883699298E+01 -0.85757413746E+01  0.72461552439E+02  0.69999976740E+02 0.  0.
         12    1    1    2    0    0 -0.15015453236E+02  0.71883699298E+01  0.85757413746E+01  0.18726447561E+02  0.00000000000E+00 0. -1.
         11    1    3    3    0    0 -0.80914709421E+01 -0.99848099048E+01 -0.19957610974E+02  0.23737619234E+02  0.51100000000E-03 0. -1.
        -11    1    3    3    0    0 -0.24516960407E+01 -0.68735870077E+01 -0.11136415891E+02  0.13314532323E+02  0.51100000000E-03 0.  1.
         12    1    3    3    0    0  0.25558620219E+02  0.96700269827E+01  0.22518285491E+02  0.35409400882E+02  0.00000000000E+00 0. -1.
</event>
<event>
 7    1  0.3189267E-013  0.7246156E+02  0.7816164E-02  0.1226708E+00
        -11   -1    0    0    0    0  0.00000000000E+00  0.00000000000E+00  0.45593999997E+02  0.45594000000E+02  0.51100000000E-03 0. -1.
         11   -1    0    0    0    0 -0.00000000000E+00 -0.00000000000E+00 -0.45593999997E+02  0.45594000000E+02  0.51100000000E-03 0.  1.
    9900012    2    1    2    0    0  0.81583173897E+01  0.16485001043E+02 -0.35165715672E+01  0.72461556728E+02  0.69999982328E+02 0.  0.
         12    1    1    2    0    0 -0.81583173897E+01 -0.16485001043E+02  0.35165715672E+01  0.18726443272E+02  0.00000000000E+00 0. -1.
         11    1    3    3    0    0 -0.24739353657E+02  0.14905246134E+02  0.66472529846E+01  0.29637610467E+02  0.51100000000E-03 0. -1.
        -11    1    3    3    0    0  0.48516541724E+01 -0.99196999747E+01 -0.48014277941E+01  0.12041291663E+02  0.51100000000E-03 0.  1.
        -12    1    3    3    0    0  0.28046016874E+02  0.11499454884E+02 -0.53623967576E+01  0.30782654598E+02  0.00000000000E+00 0.  1.
</event>
<event>
 7    1  0.3189267E-013  0.7246165E+02  0.7816164E-02  0.1226708E+00
        -11   -1    0    0    0    0  0.00000000000E+00  0.00000000000E+00  0.45593999997E+02  0.45594000000E+02  0.51100000000E-03 0.  1.
         11   -1    0    0    0    0 -0.00000000000E+00 -0.00000000000E+00 -0.45593999997E+02  0.45594000000E+02  0.51100000000E-03 0. -1.
    9900012    2    1    2    0    0  0.22537323289E+01  0.58420357297E+01  0.17648445101E+02  0.72461646768E+02  0.70000099622E+02 0.  0.
         12    1    1    2    0    0 -0.22537323289E+01 -0.58420357297E+01 -0.17648445101E+02  0.18726353232E+02  0.00000000000E+00 0. -1.
         11    1    3    3    0    0 -0.30367925827E+01 -0.23487617361E+02 -0.90474686133E+01  0.25352454853E+02  0.51100000000E-03 0. -1.
        -11    1    3    3    0    0 -0.36004452372E+01 -0.33666411145E+01  0.35574475092E+01  0.60788906341E+01  0.51100000000E-03 0.  1.
        -12    1    3    3    0    0  0.88909701488E+01  0.32696294205E+02  0.23138466205E+02  0.41030301282E+02  0.00000000000E+00 0.  1.
</event>
<event>
 7    1  0.3189267E-013  0.7246160E+02  0.7816164E-02  0.1226708E+00
        -11   -1    0    0    0    0  0.00000000000E+00  0.00000000000E+00  0.45593999997E+02  0.45594000000E+02  0.51100000000E-03 0. -1.
         11   -1    0    0    0    0 -0.00000000000E+00 -0.00000000000E+00 -0.45593999997E+02  0.45594000000E+02  0.51100000000E-03 0.  1.
    9900012    2    1    2    0    0  0.91209252640E+01 -0.36732777363E+01 -0.15937182276E+02  0.72461600829E+02  0.70000039777E+02 0.  0.
         12    1    1    2    0    0 -0.91209252640E+01  0.36732777363E+01  0.15937182276E+02  0.18726399171E+02  0.00000000000E+00 0. -1.
         11    1    3    3    0    0  0.48176983852E+01  0.10484377920E+02  0.51376049253E+01  0.12630414987E+02  0.51100000000E-03 0. -1.
        -11    1    3    3    0    0  0.28553712231E+02 -0.10163677826E+02 -0.17492457978E+02  0.34994298328E+02  0.51100000000E-03 0.  1.
        -12    1    3    3    0    0 -0.24250485352E+02 -0.39939778309E+01 -0.35823292238E+01  0.24836887514E+02  0.00000000000E+00 0.  1.
</event>
<event>
 7    1  0.3189267E-013  0.7246174E+02  0.7816164E-02  0.1226708E+00
        -11   -1    0    0    0    0  0.00000000000E+00  0.00000000000E+00  0.45593999997E+02  0.45594000000E+02  0.51100000000E-03 0. -1.
         11   -1    0    0    0    0 -0.00000000000E+00 -0.00000000000E+00 -0.45593999997E+02  0.45594000000E+02  0.51100000000E-03 0.  1.
    9900012    2    1    2    0    0  0.12524662165E+02  0.13312832002E+02 -0.40711339824E+01  0.72461740625E+02  0.70000221887E+02 0.  0.
         12    1    1    2    0    0 -0.12524662165E+02 -0.13312832002E+02  0.40711339824E+01  0.18726259375E+02  0.00000000000E+00 0. -1.
         11    1    3    3    0    0  0.42309273479E+01  0.43209966317E+01  0.58920113354E+01  0.84431958376E+01  0.51100000000E-03 0. -1.
        -11    1    3    3    0    0  0.30255368122E+02 -0.54503071044E+01  0.85017221486E+01  0.31896276075E+02  0.51100000000E-03 0.  1.
         12    1    3    3    0    0 -0.21961633304E+02  0.14442142475E+02 -0.18464867466E+02  0.32122268712E+02  0.00000000000E+00 0. -1.
</event>
<event>
 7    1  0.3189267E-013  0.7246158E+02  0.7816164E-02  0.1226708E+00
        -11   -1    0    0    0    0  0.00000000000E+00  0.00000000000E+00  0.45593999997E+02  0.45594000000E+02  0.51100000000E-03 0.  1.
         11   -1    0    0    0    0 -0.00000000000E+00 -0.00000000000E+00 -0.45593999997E+02  0.45594000000E+02  0.51100000000E-03 0. -1.
    9900012    2    1    2    0    0 -0.13541364625E+02 -0.12809040756E+02  0.17996642430E+01  0.72461578228E+02  0.70000010335E+02 0.  0.
         12    1    1    2    0    0  0.13541364625E+02  0.12809040756E+02 -0.17996642430E+01  0.18726421772E+02  0.00000000000E+00 0. -1.
         11    1    3    3    0    0 -0.14460789774E+02 -0.21360626094E+02  0.14419756723E+01  0.25835442364E+02  0.51100000000E-03 0. -1.
        -11    1    3    3    0    0 -0.93292279613E+01  0.20582004504E+02 -0.12880017595E+02  0.26010541272E+02  0.51100000000E-03 0.  1.
         12    1    3    3    0    0  0.10248653110E+02 -0.12030419165E+02  0.13237706166E+02  0.20615594592E+02  0.00000000000E+00 0. -1.
</event>
<event>
 7    1  0.3189267E-013  0.7246154E+02  0.7816164E-02  0.1226708E+00
        -11   -1    0    0    0    0  0.00000000000E+00  0.00000000000E+00  0.45593999997E+02  0.45594000000E+02  0.51100000000E-03 0. -1.
         11   -1    0    0    0    0 -0.00000000000E+00 -0.00000000000E+00 -0.45593999997E+02  0.45594000000E+02  0.51100000000E-03 0.  1.
    9900012    2    1    2    0    0 -0.17556268848E+02  0.64227656929E+01 -0.10980353045E+01  0.72461543406E+02  0.69999964973E+02 0.  0.
         12    1    1    2    0    0  0.17556268848E+02 -0.64227656929E+01  0.10980353045E+01  0.18726456594E+02  0.00000000000E+00 0. -1.
         11    1    3    3    0    0 -0.56509051849E+01 -0.10686965026E+02 -0.27754140341E+02  0.30272698215E+02  0.51100000000E-03 0.  1.
        -11    1    3    3    0    0  0.52480628319E+00  0.18282828771E+02  0.85369968857E+01  0.20184587327E+02  0.51100000000E-03 0. -1.
        -12    1    3    3    0    0 -0.12430169947E+02 -0.11730980514E+01  0.18119108151E+02  0.22004257864E+02  0.00000000000E+00 0.  1.
</event>
<event>
 7    1  0.3189267E-013  0.7246154E+02  0.7816164E-02  0.1226708E+00
        -11   -1    0    0    0    0  0.00000000000E+00  0.00000000000E+00  0.45593999997E+02  0.45594000000E+02  0.51100000000E-03 0. -1.
         11   -1    0    0    0    0 -0.00000000000E+00 -0.00000000000E+00 -0.45593999997E+02  0.45594000000E+02  0.51100000000E-03 0.  1.
    9900012    2    1    2    0    0  0.15743429674E+02 -0.36644529370E+01 -0.94549682845E+01  0.72461542286E+02  0.69999963514E+02 0.  0.
         12    1    1    2    0    0 -0.15743429674E+02  0.36644529370E+01  0.94549682845E+01  0.18726457714E+02  0.00000000000E+00 0. -1.
         11    1    3    3    0    0  0.17051839431E+02  0.16532295906E+02  0.16831239278E+02  0.29109665951E+02  0.51100000000E-03 0. -1.
        -11    1    3    3    0    0  0.31982759071E+00 -0.43977813818E+01  0.59556585078E+01  0.74103062887E+01  0.51100000000E-03 0.  1.
        -12    1    3    3    0    0 -0.16282373470E+01 -0.15798967461E+02 -0.32241866070E+02  0.35941570046E+02  0.00000000000E+00 0.  1.
</event>
<event>
 7    1  0.3189267E-013  0.7246138E+02  0.7816164E-02  0.1226709E+00
        -11   -1    0    0    0    0  0.00000000000E+00  0.00000000000E+00  0.45593999997E+02  0.45594000000E+02  0.51100000000E-03 0.  1.
         11   -1    0    0    0    0 -0.00000000000E+00 -0.00000000000E+00 -0.45593999997E+02  0.45594000000E+02  0.51100000000E-03 0. -1.
    9900012    2    1    2    0    0  0.14639365760E+02 -0.11621990301E+02  0.11421370405E+01  0.72461383503E+02  0.69999756669E+02 0.  0.
         12    1    1    2    0    0 -0.14639365760E+02  0.11621990301E+02 -0.11421370405E+01  0.18726616497E+02  0.00000000000E+00 0. -1.
         11    1    3    3    0    0  0.37955177302E+01 -0.15973624952E+01  0.86182835337E+01  0.95515618152E+01  0.51100000000E-03 0. -1.
        -11    1    3    3    0    0  0.35915289827E+02 -0.62436752117E+01  0.76031393625E-01  0.36454043734E+02  0.51100000000E-03 0.  1.
         12    1    3    3    0    0 -0.25071441797E+02 -0.37809525945E+01 -0.75521778868E+01  0.26455777954E+02  0.00000000000E+00 0. -1.
</event>
<event>
 7    1  0.3189267E-013  0.7246159E+02  0.7816164E-02  0.1226708E+00
        -11   -1    0    0    0    0  0.00000000000E+00  0.00000000000E+00  0.45593999997E+02  0.45594000000E+02  0.51100000000E-03 0. -1.
         11   -1    0    0    0    0 -0.00000000000E+00 -0.00000000000E+00 -0.45593999997E+02  0.45594000000E+02  0.51100000000E-03 0.  1.
    9900012    2    1    2    0    0  0.72263179761E+01  0.92909363458E+01 -0.14564932512E+02  0.72461590073E+02  0.70000025766E+02 0.  0.
         12    1    1    2    0    0 -0.72263179761E+01 -0.92909363458E+01  0.14564932512E+02  0.18726409927E+02  0.00000000000E+00 0. -1.
         11    1    3    3    0    0  0.33725794274E+02 -0.88479059569E+01 -0.14184927070E+02  0.37642088086E+02  0.51100000000E-03 0.  1.
        -11    1    3    3    0    0 -0.30618556478E+01  0.80978320089E+01  0.28577662723E+01  0.91168345154E+01  0.51100000000E-03 0. -1.
        -12    1    3    3    0    0 -0.23437620650E+02  0.10041010294E+02 -0.32377717141E+01  0.25702667471E+02  0.00000000000E+00 0.  1.
</event>
<event>
 7    1  0.3189267E-013  0.7246158E+02  0.7816164E-02  0.1226708E+00
        -11   -1    0    0    0    0  0.00000000000E+00  0.00000000000E+00  0.45593999997E+02  0.45594000000E+02  0.51100000000E-03 0.  1.
         11   -1    0    0    0    0 -0.00000000000E+00 -0.00000000000E+00 -0.45593999997E+02  0.45594000000E+02  0.51100000000E-03 0. -1.
    9900012    2    1    2    0    0 -0.14955034745E+02  0.85939873899E+01  0.72917189708E+01  0.72461578851E+02  0.70000011147E+02 0.  0.
         12    1    1    2    0    0  0.14955034745E+02 -0.85939873899E+01 -0.72917189708E+01  0.18726421149E+02  0.00000000000E+00 0. -1.
         11    1    3    3    0    0  0.95105583042E+01  0.43637312808E+01  0.16092872622E+00  0.10465121512E+02  0.51100000000E-03 0. -1.
        -11    1    3    3    0    0  0.12992772144E+02  0.17490526765E+02  0.12131936753E+01  0.21822064376E+02  0.51100000000E-03 0.  1.
        -12    1    3    3    0    0 -0.37458365193E+02 -0.13260270656E+02  0.59175965693E+01  0.40174392963E+02  0.00000000000E+00 0.  1.
</event>
<event>
 7    1  0.3189267E-013  0.7246160E+02  0.7816164E-02  0.1226708E+00
        -11   -1    0    0    0    0  0.00000000000E+00  0.00000000000E+00  0.45593999997E+02  0.45594000000E+02  0.51100000000E-03 0. -1.
         11   -1    0    0    0    0 -0.00000000000E+00 -0.00000000000E+00 -0.45593999997E+02  0.45594000000E+02  0.51100000000E-03 0.  1.
    9900012    2    1    2    0    0  0.65737386327E+00 -0.20641558723E+01 -0.18600680005E+02  0.72461596808E+02  0.70000034538E+02 0.  0.
         12    1    1    2    0    0 -0.65737386327E+00  0.20641558723E+01  0.18600680005E+02  0.18726403192E+02  0.00000000000E+00 0. -1.
         11    1    3    3    0    0  0.27079226797E+01  0.48447577031E+01  0.39544199035E+01  0.68148337820E+01  0.51100000000E-03 0. -1.
        -11    1    3    3    0    0  0.17370695284E+02 -0.20180290772E+02 -0.30806509700E+02  0.40718868236E+02  0.51100000000E-03 0.  1.
         12    1    3    3    0    0 -0.19421244100E+02  0.13271377197E+02  0.82514097909E+01  0.24927894789E+02  0.00000000000E+00 0. -1.
</event>
<event>
 7    1  0.3189267E-013  0.7246184E+02  0.7816164E-02  0.1226707E+00
        -11   -1    0    0    0    0  0.00000000000E+00  0.00000000000E+00  0.45593999997E+02  0.45594000000E+02  0.51100000000E-03 0. -1.
         11   -1    0    0    0    0 -0.00000000000E+00 -0.00000000000E+00 -0.45593999997E+02  0.45594000000E+02  0.51100000000E-03 0.  1.
    9900012    2    1    2    0    0  0.12136548828E+02 -0.11300287213E+02 -0.86992415905E+01  0.72461838813E+02  0.70000349795E+02 0.  0.
         12    1    1    2    0    0 -0.12136548828E+02  0.11300287213E+02  0.86992415905E+01  0.18726161187E+02  0.00000000000E+00 0. -1.
         11    1    3    3    0    0  0.58023003465E+01  0.33367914253E+01 -0.60636294167E+01  0.90315263545E+01  0.51100000000E-03 0. -1.
        -11    1    3    3    0    0  0.32572424848E+01  0.10718611508E+02 -0.26315331744E+02  0.28600610944E+02  0.51100000000E-03 0.  1.
         12    1    3    3    0    0  0.30770059964E+01 -0.25355690146E+02  0.23679719571E+02  0.34829701515E+02  0.00000000000E+00 0. -1.
</event>
<event>
 7    1  0.3189267E-013  0.7246183E+02  0.7816164E-02  0.1226707E+00
        -11   -1    0    0    0    0  0.00000000000E+00  0.00000000000E+00  0.45593999997E+02  0.45594000000E+02  0.51100000000E-03 0.  1.
         11   -1    0    0    0    0 -0.00000000000E+00 -0.00000000000E+00 -0.45593999997E+02  0.45594000000E+02  0.51100000000E-03 0. -1.
    9900012    2    1    2    0    0 -0.26963780427E+01  0.47399233247E+01  0.17914576970E+02  0.72461831260E+02  0.70000339956E+02 0.  0.
         12    1    1    2    0    0  0.26963780427E+01 -0.47399233247E+01 -0.17914576970E+02  0.18726168740E+02  0.00000000000E+00 0. -1.
         11    1    3    3    0    0  0.14683810164E+01 -0.15640685701E+02  0.23520461860E+02  0.28284259197E+02  0.51100000000E-03 0. -1.
        -11    1    3    3    0    0  0.74974593601E+01 -0.62699362664E+01 -0.10866488117E+02  0.14615216792E+02  0.51100000000E-03 0.  1.
         12    1    3    3    0    0 -0.11662218419E+02  0.26650545292E+02  0.52606032268E+01  0.29562355270E+02  0.00000000000E+00 0. -1.
</event>
<event>
 7    1  0.3189267E-013  0.7246159E+02  0.7816164E-02  0.1226708E+00
        -11   -1    0    0    0    0  0.00000000000E+00  0.00000000000E+00  0.45593999997E+02  0.45594000000E+02  0.51100000000E-03 0.  1.
         11   -1    0    0    0    0 -0.00000000000E+00 -0.00000000000E+00 -0.45593999997E+02  0.45594000000E+02  0.51100000000E-03 0. -1.
    9900012    2    1    2    0    0 -0.18380912157E+02 -0.24388893697E+01 -0.26215011438E+01  0.72461591339E+02  0.70000027415E+02 0.  0.
         12    1    1    2    0    0  0.18380912157E+02  0.24388893697E+01  0.26215011438E+01  0.18726408661E+02  0.00000000000E+00 0. -1.
         11    1    3    3    0    0 -0.75824704908E+01 -0.22131966777E+02 -0.26471454698E+01  0.23544111611E+02  0.51100000000E-03 0. -1.
        -11    1    3    3    0    0 -0.96815072565E+01 -0.12962147058E+02 -0.11735464359E+01  0.16221160581E+02  0.51100000000E-03 0.  1.
        -12    1    3    3    0    0 -0.11169344097E+01  0.32655224464E+02  0.11991907618E+01  0.32696319147E+02  0.00000000000E+00 0.  1.
</event>
<event>
 7    1  0.3189267E-013  0.7246154E+02  0.7816164E-02  0.1226708E+00
        -11   -1    0    0    0    0  0.00000000000E+00  0.00000000000E+00  0.45593999997E+02  0.45594000000E+02  0.51100000000E-03 0. -1.
         11   -1    0    0    0    0 -0.00000000000E+00 -0.00000000000E+00 -0.45593999997E+02  0.45594000000E+02  0.51100000000E-03 0.  1.
    9900012    2    1    2    0    0 -0.70478933425E+01 -0.61372776774E+01 -0.16227800029E+02  0.72461535528E+02  0.69999954710E+02 0.  0.
         12    1    1    2    0    0  0.70478933425E+01  0.61372776774E+01  0.16227800029E+02  0.18726464472E+02  0.00000000000E+00 0. -1.
         11    1    3    3    0    0 -0.17026856032E+01 -0.31792148780E+01 -0.29790812376E+02  0.30008316310E+02  0.51100000000E-03 0. -1.
        -11    1    3    3    0    0 -0.14273456947E+02 -0.60311862557E+01 -0.90523663842E+01  0.17945810606E+02  0.51100000000E-03 0.  1.
         12    1    3    3    0    0  0.89282492082E+01  0.30731234563E+01  0.22615378732E+02  0.24507408612E+02  0.00000000000E+00 0. -1.
</event>
<event>
 7    1  0.3189267E-013  0.7246157E+02  0.7816164E-02  0.1226708E+00
        -11   -1    0    0    0    0  0.00000000000E+00  0.00000000000E+00  0.45593999997E+02  0.45594000000E+02  0.51100000000E-03 0. -1.
         11   -1    0    0    0    0 -0.00000000000E+00 -0.00000000000E+00 -0.45593999997E+02  0.45594000000E+02  0.51100000000E-03 0.  1.
    9900012    2    1    2    0    0  0.11803121913E+02 -0.46767130257E+01 -0.13765673539E+02  0.72461572161E+02  0.70000002431E+02 0.  0.
         12    1    1    2    0    0 -0.11803121913E+02  0.46767130257E+01  0.13765673539E+02  0.18726427839E+02  0.00000000000E+00 0. -1.
         11    1    3    3    0    0 -0.67270853921E+01  0.10621291340E+02 -0.10901668812E+01  0.12619586828E+02  0.51100000000E-03 0. -1.
        -11    1    3    3    0    0 -0.11219462205E+02 -0.38124843006E+01 -0.23373517242E+02  0.26205584848E+02  0.51100000000E-03 0.  1.
         12    1    3    3    0    0  0.29749669510E+02 -0.11485520065E+02  0.10698010584E+02  0.33636400485E+02  0.00000000000E+00 0. -1.
</event>
<event>
 7    1  0.3189267E-013  0.7246162E+02  0.7816164E-02  0.1226708E+00
        -11   -1    0    0    0    0  0.00000000000E+00  0.00000000000E+00  0.45593999997E+02  0.45594000000E+02  0.51100000000E-03 0.  1.
         11   -1    0    0    0    0 -0.00000000000E+00 -0.00000000000E+00 -0.45593999997E+02  0.45594000000E+02  0.51100000000E-03 0. -1.
    9900012    2    1    2    0    0  0.58302283453E+01  0.10758241133E+02  0.14175547689E+02  0.72461615749E+02  0.70000059213E+02 0.  0.
         12    1    1    2    0    0 -0.58302283453E+01 -0.10758241133E+02 -0.14175547689E+02  0.18726384251E+02  0.00000000000E+00 0. -1.
         11    1    3    3    0    0 -0.47735267127E+01  0.90662715728E+01  0.21458659411E+02  0.23779358727E+02  0.51100000000E-03 0. -1.
        -11    1    3    3    0    0  0.18798237808E+02  0.10020083576E+02  0.13229360214E+02  0.25075721157E+02  0.51100000000E-03 0.  1.
         12    1    3    3    0    0 -0.81944827504E+01 -0.83281140165E+01 -0.20512471936E+02  0.23606535865E+02  0.00000000000E+00 0. -1.
</event>
<event>
 7    1  0.3189267E-013  0.7246166E+02  0.7816164E-02  0.1226708E+00
        -11   -1    0    0    0    0  0.00000000000E+00  0.00000000000E+00  0.45593999997E+02  0.45594000000E+02  0.51100000000E-03 0.  1.
         11   -1    0    0    0    0 -0.00000000000E+00 -0.00000000000E+00 -0.45593999997E+02  0.45594000000E+02  0.51100000000E-03 0. -1.
    9900012    2    1    2    0    0 -0.13782485259E+02 -0.76334436034E+01  0.10121734142E+02  0.72461658574E+02  0.70000115001E+02 0.  0.
         12    1    1    2    0    0  0.13782485259E+02  0.76334436034E+01 -0.10121734142E+02  0.18726341426E+02  0.00000000000E+00 0. -1.
         11    1    3    3    0    0 -0.35487270839E+02 -0.90982714009E+01 -0.10635628306E+02  0.38147628023E+02  0.51100000000E-03 0. -1.
        -11    1    3    3    0    0  0.23352345316E+01  0.26398177124E+01 -0.22763886633E+01  0.41957005946E+01  0.51100000000E-03 0.  1.
        -12    1    3    3    0    0  0.19369551048E+02 -0.11749899148E+01  0.23033751111E+02  0.30118329956E+02  0.00000000000E+00 0.  1.
</event>
<event>
 7    1  0.3189267E-013  0.7246158E+02  0.7816164E-02  0.1226708E+00
        -11   -1    0    0    0    0  0.00000000000E+00  0.00000000000E+00  0.45593999997E+02  0.45594000000E+02  0.51100000000E-03 0. -1.
         11   -1    0    0    0    0 -0.00000000000E+00 -0.00000000000E+00 -0.45593999997E+02  0.45594000000E+02  0.51100000000E-03 0.  1.
    9900012    2    1    2    0    0  0.56839238359E+01  0.15716924804E+02 -0.84468992601E+01  0.72461579558E+02  0.70000012068E+02 0.  0.
         12    1    1    2    0    0 -0.56839238359E+01 -0.15716924804E+02  0.84468992601E+01  0.18726420442E+02  0.00000000000E+00 0. -1.
         11    1    3    3    0    0 -0.11159953111E+01 -0.63492885801E+01  0.31197063385E+01  0.71618069583E+01  0.51100000000E-03 0. -1.
        -11    1    3    3    0    0  0.33117424139E+01 -0.91769234591E+01  0.19058996516E+02  0.21410953049E+02  0.51100000000E-03 0.  1.
        -12    1    3    3    0    0  0.34881767331E+01  0.31243136843E+02 -0.30625602115E+02  0.43888819551E+02  0.00000000000E+00 0.  1.
</event>
<event>
 7    1  0.3189267E-013  0.7246155E+02  0.7816164E-02  0.1226708E+00
        -11   -1    0    0    0    0  0.00000000000E+00  0.00000000000E+00  0.45593999997E+02  0.45594000000E+02  0.51100000000E-03 0.  1.
         11   -1    0    0    0    0 -0.00000000000E+00 -0.00000000000E+00 -0.45593999997E+02  0.45594000000E+02  0.51100000000E-03 0. -1.
    9900012    2    1    2    0    0  0.12620320107E+02 -0.58750363793E+01  0.12525626806E+02  0.72461551886E+02  0.69999976020E+02 0.  0.
         12    1    1    2    0    0 -0.12620320107E+02  0.58750363793E+01 -0.12525626806E+02  0.18726448114E+02  0.00000000000E+00 0. -1.
         11    1    3    3    0    0 -0.90848989419E+00  0.28849255222E+00 -0.10241088169E+02  0.10285352157E+02  0.51100000000E-03 0. -1.
        -11    1    3    3    0    0 -0.14785957738E+01 -0.26154625365E+02 -0.28900405232E+01  0.26355322194E+02  0.51100000000E-03 0.  1.
        -12    1    3    3    0    0  0.15007405775E+02  0.19991096433E+02  0.25656755499E+02  0.35820877536E+02  0.00000000000E+00 0.  1.
</event>
<event>
 7    1  0.3189267E-013  0.7246155E+02  0.7816164E-02  0.1226708E+00
        -11   -1    0    0    0    0  0.00000000000E+00  0.00000000000E+00  0.45593999997E+02  0.45594000000E+02  0.51100000000E-03 0.  1.
         11   -1    0    0    0    0 -0.00000000000E+00 -0.00000000000E+00 -0.45593999997E+02  0.45594000000E+02  0.51100000000E-03 0. -1.
    9900012    2    1    2    0    0 -0.67979935102E+01  0.44343116378E+01  0.16876141654E+02  0.72461548319E+02  0.69999971373E+02 0.  0.
         12    1    1    2    0    0  0.67979935102E+01 -0.44343116378E+01 -0.16876141654E+02  0.18726451681E+02  0.00000000000E+00 0. -1.
         11    1    3    3    0    0 -0.15010962785E+02  0.31304181953E+02  0.19529373905E+02  0.39833117589E+02  0.51100000000E-03 0. -1.
        -11    1    3    3    0    0  0.42466584476E+01  0.28151821829E+00  0.21554986683E+01  0.47706954680E+01  0.51100000000E-03 0.  1.
        -12    1    3    3    0    0  0.39663108271E+01 -0.27151388533E+02 -0.48087309196E+01  0.27857735262E+02  0.00000000000E+00 0.  1.
</event>
<event>
 7    1  0.3189267E-013  0.7246162E+02  0.7816164E-02  0.1226708E+00
        -11   -1    0    0    0    0  0.00000000000E+00  0.00000000000E+00  0.45593999997E+02  0.45594000000E+02  0.51100000000E-03 0. -1.
         11   -1    0    0    0    0 -0.00000000000E+00 -0.00000000000E+00 -0.45593999997E+02  0.45594000000E+02  0.51100000000E-03 0.  1.
    9900012    2    1    2    0    0  0.25832276355E+01  0.15512653719E+02 -0.10166697504E+02  0.72461622119E+02  0.70000067511E+02 0.  0.
         12    1    1    2    0    0 -0.25832276355E+01 -0.15512653719E+02  0.10166697504E+02  0.18726377881E+02  0.00000000000E+00 0. -1.
         11    1    3    3    0    0  0.65563482034E+01  0.21731791855E+01  0.13626347711E+01  0.70402544923E+01  0.51100000000E-03 0. -1.
        -11    1    3    3    0    0 -0.15705435834E+02 -0.63036864577E+01 -0.31038932853E+02  0.35352687743E+02  0.51100000000E-03 0.  1.
         12    1    3    3    0    0  0.11732315266E+02  0.19643160991E+02  0.19509600578E+02  0.30068679884E+02  0.00000000000E+00 0. -1.
</event>
<event>
 7    1  0.3189267E-013  0.7246150E+02  0.7816164E-02  0.1226708E+00
        -11   -1    0    0    0    0  0.00000000000E+00  0.00000000000E+00  0.45593999997E+02  0.45594000000E+02  0.51100000000E-03 0. -1.
         11   -1    0    0    0    0 -0.00000000000E+00 -0.00000000000E+00 -0.45593999997E+02  0.45594000000E+02  0.51100000000E-03 0.  1.
    9900012    2    1    2    0    0 -0.50229001141E+01 -0.13392553554E+02 -0.12086837438E+02  0.72461503918E+02  0.69999913533E+02 0.  0.
         12    1    1    2    0    0  0.50229001141E+01  0.13392553554E+02  0.12086837438E+02  0.18726496082E+02  0.00000000000E+00 0. -1.
         11    1    3    3    0    0 -0.66301964758E+01  0.28840933691E+01 -0.36606563206E+01  0.81041905720E+01  0.51100000000E-03 0. -1.
        -11    1    3    3    0    0 -0.49443790698E+01  0.19437390446E+02  0.11314774516E+02  0.23027877765E+02  0.51100000000E-03 0.  1.
        -12    1    3    3    0    0  0.65516754315E+01 -0.35714037369E+02 -0.19740955633E+02  0.41329435581E+02  0.00000000000E+00 0.  1.
</event>
<event>
 7    1  0.3189267E-013  0.7246158E+02  0.7816164E-02  0.1226708E+00
        -11   -1    0    0    0    0  0.00000000000E+00  0.00000000000E+00  0.45593999997E+02  0.45594000000E+02  0.51100000000E-03 0. -1.
         11   -1    0    0    0    0 -0.00000000000E+00 -0.00000000000E+00 -0.45593999997E+02  0.45594000000E+02  0.51100000000E-03 0.  1.
    9900012    2    1    2    0    0 -0.81704163030E+01  0.73407837309E+01 -0.15166937090E+02  0.72461580453E+02  0.70000013234E+02 0.  0.
         12    1    1    2    0    0  0.81704163030E+01 -0.73407837309E+01  0.15166937090E+02  0.18726419547E+02  0.00000000000E+00 0. -1.
         11    1    3    3    0    0  0.24060131810E+02  0.61408717018E+01  0.43430759126E+01  0.25208382666E+02  0.51100000000E-03 0. -1.
        -11    1    3    3    0    0 -0.85545434324E+01  0.69052005612E+01  0.55445450381E+01  0.12312757127E+02  0.51100000000E-03 0.  1.
        -12    1    3    3    0    0 -0.23676004681E+02 -0.57052885322E+01 -0.25054558041E+02  0.34940440660E+02  0.00000000000E+00 0.  1.
</event>
<event>
 7    1  0.3189267E-013  0.7246157E+02  0.7816164E-02  0.1226708E+00
        -11   -1    0    0    0    0  0.00000000000E+00  0.00000000000E+00  0.45593999997E+02  0.45594000000E+02  0.51100000000E-03 0. -1.
         11   -1    0    0    0    0 -0.00000000000E+00 -0.00000000000E+00 -0.45593999997E+02  0.45594000000E+02  0.51100000000E-03 0.  1.
    9900012    2    1    2    0    0 -0.12830369117E+02  0.45481718207E+01 -0.12859825362E+02  0.72461565558E+02  0.69999993830E+02 0.  0.
         12    1    1    2    0    0  0.12830369117E+02 -0.45481718207E+01  0.12859825362E+02  0.18726434442E+02  0.00000000000E+00 0. -1.
         11    1    3    3    0    0 -0.19555730200E+02 -0.70752671382E+01  0.15457050178E+02  0.25911510747E+02  0.51100000000E-03 0. -1.
        -11    1    3    3    0    0 -0.28212915767E+01 -0.37296737122E+01  0.60924039111E+01  0.76803344873E+01  0.51100000000E-03 0.  1.
        -12    1    3    3    0    0  0.95466526600E+01  0.15353112671E+02 -0.34409279451E+02  0.38869720323E+02  0.00000000000E+00 0.  1.
</event>
<event>
 7    1  0.3189267E-013  0.7246158E+02  0.7816164E-02  0.1226708E+00
        -11   -1    0    0    0    0  0.00000000000E+00  0.00000000000E+00  0.45593999997E+02  0.45594000000E+02  0.51100000000E-03 0.  1.
         11   -1    0    0    0    0 -0.00000000000E+00 -0.00000000000E+00 -0.45593999997E+02  0.45594000000E+02  0.51100000000E-03 0. -1.
    9900012    2    1    2    0    0  0.16838844830E+02 -0.59019672636E+01  0.56832144339E+01  0.72461579117E+02  0.70000011493E+02 0.  0.
         12    1    1    2    0    0 -0.16838844830E+02  0.59019672636E+01 -0.56832144339E+01  0.18726420883E+02  0.00000000000E+00 0. -1.
         11    1    3    3    0    0 -0.51886175410E+01  0.75225116822E+01 -0.10350460821E+02  0.13807315940E+02  0.51100000000E-03 0. -1.
        -11    1    3    3    0    0  0.11841597432E+02 -0.32468201805E+02  0.70954876937E+01  0.35281064384E+02  0.51100000000E-03 0.  1.
         12    1    3    3    0    0  0.10185864939E+02  0.19043722859E+02  0.89381875616E+01  0.23373198792E+02  0.00000000000E+00 0. -1.
</event>
<event>
 7    1  0.3189267E-013  0.7246091E+02  0.7816164E-02  0.1226710E+00
        -11   -1    0    0    0    0  0.00000000000E+00  0.00000000000E+00  0.45593999997E+02  0.45594000000E+02  0.51100000000E-03 0.  1.
         11   -1    0    0    0    0 -0.00000000000E+00 -0.00000000000E+00 -0.45593999997E+02  0.45594000000E+02  0.51100000000E-03 0. -1.
    9900012    2    1    2    0    0  0.37241150136E+00 -0.18620212472E+02  0.19628927217E+01  0.72460908644E+02  0.69999138072E+02 0.  0.
         12    1    1    2    0    0 -0.37241150136E+00  0.18620212472E+02 -0.19628927217E+01  0.18727091356E+02  0.00000000000E+00 0. -1.
         11    1    3    3    0    0 -0.56768996021E+01 -0.92263143484E+00  0.90417289528E+01  0.10715936757E+02  0.51100000000E-03 0. -1.
        -11    1    3    3    0    0 -0.21466629438E+02 -0.24810324993E+02 -0.56305839445E+01  0.33287713672E+02  0.51100000000E-03 0.  1.
         12    1    3    3    0    0  0.27515940542E+02  0.71127439558E+01 -0.14482522866E+01  0.28457258216E+02  0.00000000000E+00 0. -1.
</event>
<event>
 7    1  0.3189267E-013  0.7246156E+02  0.7816164E-02  0.1226708E+00
        -11   -1    0    0    0    0  0.00000000000E+00  0.00000000000E+00  0.45593999997E+02  0.45594000000E+02  0.51100000000E-03 0.  1.
         11   -1    0    0    0    0 -0.00000000000E+00 -0.00000000000E+00 -0.45593999997E+02  0.45594000000E+02  0.51100000000E-03 0. -1.
    9900012    2    1    2    0    0 -0.63207572818E+01  0.17580688108E+02 -0.12832946156E+01  0.72461563819E+02  0.69999991565E+02 0.  0.
         12    1    1    2    0    0  0.63207572818E+01 -0.17580688108E+02  0.12832946156E+01  0.18726436181E+02  0.00000000000E+00 0. -1.
         11    1    3    3    0    0  0.18157675819E+02  0.24799260864E+01  0.53087482178E+01  0.19079675900E+02  0.51100000000E-03 0. -1.
        -11    1    3    3    0    0 -0.46393599603E+01 -0.88438937329E+01  0.13177205931E+02  0.16534112423E+02  0.51100000000E-03 0.  1.
         12    1    3    3    0    0 -0.19839073141E+02  0.23944655755E+02 -0.19769248765E+02  0.36847775496E+02  0.00000000000E+00 0. -1.
</event>
<event>
 7    1  0.3189267E-013  0.7246158E+02  0.7816164E-02  0.1226708E+00
        -11   -1    0    0    0    0  0.00000000000E+00  0.00000000000E+00  0.45593999997E+02  0.45594000000E+02  0.51100000000E-03 0. -1.
         11   -1    0    0    0    0 -0.00000000000E+00 -0.00000000000E+00 -0.45593999997E+02  0.45594000000E+02  0.51100000000E-03 0.  1.
    9900012    2    1    2    0    0 -0.18466803580E+02  0.13373274751E+01  0.28049065633E+01  0.72461580692E+02  0.70000013545E+02 0.  0.
         12    1    1    2    0    0  0.18466803580E+02 -0.13373274751E+01 -0.28049065633E+01  0.18726419308E+02  0.00000000000E+00 0. -1.
         11    1    3    3    0    0 -0.18641084883E+02 -0.28809880058E+01  0.19593539687E+02  0.27197370005E+02  0.51100000000E-03 0. -1.
        -11    1    3    3    0    0 -0.17361879886E+02  0.11658568949E+02 -0.15761207158E+02  0.26187263211E+02  0.51100000000E-03 0.  1.
        -12    1    3    3    0    0  0.17536161188E+02 -0.74402534685E+01 -0.10274259657E+01  0.19076947476E+02  0.00000000000E+00 0.  1.
</event>
<event>
 7    1  0.3189267E-013  0.7246172E+02  0.7816164E-02  0.1226708E+00
        -11   -1    0    0    0    0  0.00000000000E+00  0.00000000000E+00  0.45593999997E+02  0.45594000000E+02  0.51100000000E-03 0. -1.
         11   -1    0    0    0    0 -0.00000000000E+00 -0.00000000000E+00 -0.45593999997E+02  0.45594000000E+02  0.51100000000E-03 0.  1.
    9900012    2    1    2    0    0 -0.76900567358E+01 -0.15839918986E+02 -0.63744595999E+01  0.72461715231E+02  0.70000188806E+02 0.  0.
         12    1    1    2    0    0  0.76900567358E+01  0.15839918986E+02  0.63744595999E+01  0.18726284769E+02  0.00000000000E+00 0. -1.
         11    1    3    3    0    0  0.16942560704E+02 -0.14493567669E+02  0.17650811437E+02  0.28437035914E+02  0.51100000000E-03 0. -1.
        -11    1    3    3    0    0 -0.22297520445E+02  0.28947135357E+01 -0.32807807356E+01  0.22722726662E+02  0.51100000000E-03 0.  1.
         12    1    3    3    0    0 -0.23350969945E+01 -0.42410648528E+01 -0.20744490301E+02  0.21301952655E+02  0.00000000000E+00 0. -1.
</event>
<event>
 7    1  0.3189267E-013  0.7246155E+02  0.7816164E-02  0.1226708E+00
        -11   -1    0    0    0    0  0.00000000000E+00  0.00000000000E+00  0.45593999997E+02  0.45594000000E+02  0.51100000000E-03 0.  1.
         11   -1    0    0    0    0 -0.00000000000E+00 -0.00000000000E+00 -0.45593999997E+02  0.45594000000E+02  0.51100000000E-03 0. -1.
    9900012    2    1    2    0    0 -0.33557636024E+01  0.17062398491E+02  0.69493451037E+01  0.72461548414E+02  0.69999971497E+02 0.  0.
         12    1    1    2    0    0  0.33557636024E+01 -0.17062398491E+02 -0.69493451037E+01  0.18726451586E+02  0.00000000000E+00 0. -1.
         11    1    3    3    0    0  0.15946250887E+01 -0.10368541221E+00 -0.71540689277E+01  0.73303671341E+01  0.51100000000E-03 0. -1.
        -11    1    3    3    0    0  0.20255803906E+02  0.28800314417E+02  0.33858193824E+01  0.35372580844E+02  0.51100000000E-03 0.  1.
         12    1    3    3    0    0 -0.25206192597E+02 -0.11634230514E+02  0.10717594649E+02  0.29758600437E+02  0.00000000000E+00 0. -1.
</event>
<event>
 7    1  0.3189267E-013  0.7246158E+02  0.7816164E-02  0.1226708E+00
        -11   -1    0    0    0    0  0.00000000000E+00  0.00000000000E+00  0.45593999997E+02  0.45594000000E+02  0.51100000000E-03 0.  1.
         11   -1    0    0    0    0 -0.00000000000E+00 -0.00000000000E+00 -0.45593999997E+02  0.45594000000E+02  0.51100000000E-03 0. -1.
    9900012    2    1    2    0    0  0.18009401864E+02  0.42972946863E+01  0.28059723486E+01  0.72461580750E+02  0.70000013620E+02 0.  0.
         12    1    1    2    0    0 -0.18009401864E+02 -0.42972946863E+01 -0.28059723486E+01  0.18726419250E+02  0.00000000000E+00 0. -1.
         11    1    3    3    0    0 -0.11672304459E+02  0.47267804494E+01 -0.99236147602E+01  0.16033192913E+02  0.51100000000E-03 0. -1.
        -11    1    3    3    0    0  0.24855501567E+02  0.21195469841E+02  0.55254377387E+01  0.33129659859E+02  0.51100000000E-03 0.  1.
        -12    1    3    3    0    0  0.48262047561E+01 -0.21624955604E+02  0.72041493701E+01  0.23298727978E+02  0.00000000000E+00 0.  1.
</event>
<event>
 7    1  0.3189267E-013  0.7246155E+02  0.7816164E-02  0.1226708E+00
        -11   -1    0    0    0    0  0.00000000000E+00  0.00000000000E+00  0.45593999997E+02  0.45594000000E+02  0.51100000000E-03 0.  1.
         11   -1    0    0    0    0 -0.00000000000E+00 -0.00000000000E+00 -0.45593999997E+02  0.45594000000E+02  0.51100000000E-03 0. -1.
    9900012    2    1    2    0    0 -0.17567543804E+02 -0.59932821319E+01  0.24783034783E+01  0.72461547742E+02  0.69999970622E+02 0.  0.
         12    1    1    2    0    0  0.17567543804E+02  0.59932821319E+01 -0.24783034783E+01  0.18726452258E+02  0.00000000000E+00 0. -1.
         11    1    3    3    0    0 -0.11126319009E+02 -0.16147553028E+02 -0.19214441746E+02  0.27454202144E+02  0.51100000000E-03 0. -1.
        -11    1    3    3    0    0  0.65901763061E+01  0.10173172636E+02 -0.66404705520E+01  0.13820988193E+02  0.51100000000E-03 0.  1.
        -12    1    3    3    0    0 -0.13031401101E+02 -0.18901739863E-01  0.28333215777E+02  0.31186357405E+02  0.00000000000E+00 0.  1.
</event>
<event>
 7    1  0.3656801E-013  0.7246157E+02  0.7816164E-02  0.1226708E+00
        -11   -1    0    0    0    0  0.00000000000E+00  0.00000000000E+00  0.45593999997E+02  0.45594000000E+02  0.51100000000E-03 0. -1.
         11   -1    0    0    0    0 -0.00000000000E+00 -0.00000000000E+00 -0.45593999997E+02  0.45594000000E+02  0.51100000000E-03 0.  1.
    9900012    2    1    2    0    0  0.14317411773E+01 -0.44991015500E+01 -0.18121458908E+02  0.72461572938E+02  0.70000003444E+02 0.  0.
         12    1    1    2    0    0 -0.14317411773E+01  0.44991015500E+01  0.18121458908E+02  0.18726427062E+02  0.00000000000E+00 0. -1.
         11    1    3    3    0    0 -0.11649079660E+02 -0.39584693900E+01  0.15347068279E+02  0.19669851089E+02  0.51100000000E-03 0. -1.
        -11    1    3    3    0    0  0.14235395722E+01  0.10060208898E+02  0.49246914735E+01  0.11291007677E+02  0.51100000000E-03 0.  1.
        -12    1    3    3    0    0  0.11657281265E+02 -0.10600841058E+02 -0.38393218661E+02  0.41500714172E+02  0.00000000000E+00 0.  1.
</event>
<event>
 7    1  0.3189267E-013  0.7246143E+02  0.7816164E-02  0.1226708E+00
        -11   -1    0    0    0    0  0.00000000000E+00  0.00000000000E+00  0.45593999997E+02  0.45594000000E+02  0.51100000000E-03 0.  1.
         11   -1    0    0    0    0 -0.00000000000E+00 -0.00000000000E+00 -0.45593999997E+02  0.45594000000E+02  0.51100000000E-03 0. -1.
    9900012    2    1    2    0    0  0.63609288591E+00  0.88399015753E+01  0.16496548164E+02  0.72461425958E+02  0.69999811975E+02 0.  0.
         12    1    1    2    0    0 -0.63609288591E+00 -0.88399015753E+01 -0.16496548164E+02  0.18726574042E+02  0.00000000000E+00 0. -1.
         11    1    3    3    0    0 -0.86234568319E+01  0.12028952962E+02 -0.15633860711E+02  0.21528523361E+02  0.51100000000E-03 0. -1.
        -11    1    3    3    0    0 -0.14103096339E+02 -0.53295704157E+01  0.18256678366E+02  0.23677160987E+02  0.51100000000E-03 0.  1.
        -12    1    3    3    0    0  0.23362646057E+02  0.21405190286E+01  0.13873730509E+02  0.27255741610E+02  0.00000000000E+00 0.  1.
</event>
<event>
 7    1  0.3189267E-013  0.7246146E+02  0.7816164E-02  0.1226708E+00
        -11   -1    0    0    0    0  0.00000000000E+00  0.00000000000E+00  0.45593999997E+02  0.45594000000E+02  0.51100000000E-03 0. -1.
         11   -1    0    0    0    0 -0.00000000000E+00 -0.00000000000E+00 -0.45593999997E+02  0.45594000000E+02  0.51100000000E-03 0.  1.
    9900012    2    1    2    0    0 -0.11856168545E+02  0.16826198694E+01 -0.14397343593E+02  0.72461456145E+02  0.69999851300E+02 0.  0.
         12    1    1    2    0    0  0.11856168545E+02 -0.16826198694E+01  0.14397343593E+02  0.18726543855E+02  0.00000000000E+00 0. -1.
         11    1    3    3    0    0 -0.14343709870E+02 -0.11647594939E+02 -0.12362800741E+02  0.22231673871E+02  0.51100000000E-03 0. -1.
        -11    1    3    3    0    0 -0.17952091494E+02  0.20459062692E+02  0.45655494189E+01  0.27598823834E+02  0.51100000000E-03 0.  1.
         12    1    3    3    0    0  0.20439632820E+02 -0.71288478830E+01 -0.66000922716E+01  0.22630958440E+02  0.00000000000E+00 0. -1.
</event>
<event>
 7    1  0.3189267E-013  0.7246151E+02  0.7816164E-02  0.1226708E+00
        -11   -1    0    0    0    0  0.00000000000E+00  0.00000000000E+00  0.45593999997E+02  0.45594000000E+02  0.51100000000E-03 0.  1.
         11   -1    0    0    0    0 -0.00000000000E+00 -0.00000000000E+00 -0.45593999997E+02  0.45594000000E+02  0.51100000000E-03 0. -1.
    9900012    2    1    2    0    0  0.14246861456E+02 -0.10883434582E+02 -0.54091654717E+01  0.72461513924E+02  0.69999926567E+02 0.  0.
         12    1    1    2    0    0 -0.14246861456E+02  0.10883434582E+02  0.54091654717E+01  0.18726486076E+02  0.00000000000E+00 0. -1.
         11    1    3    3    0    0 -0.21476948945E+01 -0.79924112955E+01  0.41645871156E+01  0.92647189802E+01  0.51100000000E-03 0. -1.
        -11    1    3    3    0    0  0.85567229925E+00 -0.12765843652E+02  0.22690478553E+02  0.26049121990E+02  0.51100000000E-03 0.  1.
        -12    1    3    3    0    0  0.15538884052E+02  0.98748203646E+01 -0.32264231140E+02  0.37147672954E+02  0.00000000000E+00 0.  1.
</event>
<event>
 7    1  0.3189267E-013  0.7246157E+02  0.7816164E-02  0.1226708E+00
        -11   -1    0    0    0    0  0.00000000000E+00  0.00000000000E+00  0.45593999997E+02  0.45594000000E+02  0.51100000000E-03 0.  1.
         11   -1    0    0    0    0 -0.00000000000E+00 -0.00000000000E+00 -0.45593999997E+02  0.45594000000E+02  0.51100000000E-03 0. -1.
    9900012    2    1    2    0    0 -0.39902965588E+01  0.15938589946E+02  0.89843246631E+01  0.72461569327E+02  0.69999998740E+02 0.  0.
         12    1    1    2    0    0  0.39902965588E+01 -0.15938589946E+02 -0.89843246631E+01  0.18726430673E+02  0.00000000000E+00 0. -1.
         11    1    3    3    0    0  0.66202601080E+01 -0.24472036845E+01 -0.17447335666E+01  0.72705395433E+01  0.51100000000E-03 0. -1.
        -11    1    3    3    0    0  0.65149408075E+00  0.21753742717E+02  0.33277618533E+02  0.39762415196E+02  0.51100000000E-03 0.  1.
         12    1    3    3    0    0 -0.11262050747E+02 -0.33679490865E+01 -0.22548560303E+02  0.25428614588E+02  0.00000000000E+00 0. -1.
</event>
<event>
 7    1  0.3189267E-013  0.7246181E+02  0.7816164E-02  0.1226707E+00
        -11   -1    0    0    0    0  0.00000000000E+00  0.00000000000E+00  0.45593999997E+02  0.45594000000E+02  0.51100000000E-03 0.  1.
         11   -1    0    0    0    0 -0.00000000000E+00 -0.00000000000E+00 -0.45593999997E+02  0.45594000000E+02  0.51100000000E-03 0. -1.
    9900012    2    1    2    0    0  0.17841456288E+01  0.98748737635E+01  0.15810560386E+02  0.72461811728E+02  0.70000314512E+02 0.  0.
         12    1    1    2    0    0 -0.17841456288E+01 -0.98748737635E+01 -0.15810560386E+02  0.18726188272E+02  0.00000000000E+00 0. -1.
         11    1    3    3    0    0  0.13078484128E+02  0.20328791498E+02  0.65469278897E+01  0.25043337954E+02  0.51100000000E-03 0. -1.
        -11    1    3    3    0    0  0.14705187587E+02 -0.95580170434E+01  0.12013676645E+02  0.21258566710E+02  0.51100000000E-03 0.  1.
         12    1    3    3    0    0 -0.25999526087E+02 -0.89590069071E+00 -0.27500441484E+01  0.26159907064E+02  0.00000000000E+00 0. -1.
</event>
<event>
 7    1  0.3189267E-013  0.7246157E+02  0.7816164E-02  0.1226708E+00
        -11   -1    0    0    0    0  0.00000000000E+00  0.00000000000E+00  0.45593999997E+02  0.45594000000E+02  0.51100000000E-03 0.  1.
         11   -1    0    0    0    0 -0.00000000000E+00 -0.00000000000E+00 -0.45593999997E+02  0.45594000000E+02  0.51100000000E-03 0. -1.
    9900012    2    1    2    0    0 -0.44567484852E+01  0.12782483610E+02  0.12939272755E+02  0.72461567512E+02  0.69999996375E+02 0.  0.
         12    1    1    2    0    0  0.44567484852E+01 -0.12782483610E+02 -0.12939272755E+02  0.18726432488E+02  0.00000000000E+00 0. -1.
         11    1    3    3    0    0 -0.31253449380E+01  0.30535384480E+02  0.11197498218E+01  0.30715327220E+02  0.51100000000E-03 0. -1.
        -11    1    3    3    0    0 -0.45380015301E+01  0.10535933671E+02  0.47174826451E+01  0.12403789702E+02  0.51100000000E-03 0.  1.
        -12    1    3    3    0    0  0.32065979829E+01 -0.28288834541E+02  0.71020402883E+01  0.29342450589E+02  0.00000000000E+00 0.  1.
</event>
<event>
 7    1  0.3189267E-013  0.7246158E+02  0.7816164E-02  0.1226708E+00
        -11   -1    0    0    0    0  0.00000000000E+00  0.00000000000E+00  0.45593999997E+02  0.45594000000E+02  0.51100000000E-03 0.  1.
         11   -1    0    0    0    0 -0.00000000000E+00 -0.00000000000E+00 -0.45593999997E+02  0.45594000000E+02  0.51100000000E-03 0. -1.
    9900012    2    1    2    0    0 -0.11352140218E+02 -0.11901814164E+02 -0.89529125431E+01  0.72461577199E+02  0.70000008994E+02 0.  0.
         12    1    1    2    0    0  0.11352140218E+02  0.11901814164E+02  0.89529125431E+01  0.18726422801E+02  0.00000000000E+00 0. -1.
         11    1    3    3    0    0 -0.10078778440E+02 -0.64133779050E+01 -0.94057010495E+01  0.15204617834E+02  0.51100000000E-03 0. -1.
        -11    1    3    3    0    0 -0.21691968019E+02 -0.11009359494E+02  0.17602211686E+02  0.30026410534E+02  0.51100000000E-03 0.  1.
        -12    1    3    3    0    0  0.20418606241E+02  0.55209232352E+01 -0.17149423180E+02  0.27230548831E+02  0.00000000000E+00 0.  1.
</event>
<event>
 7    1  0.3189267E-013  0.7246160E+02  0.7816164E-02  0.1226708E+00
        -11   -1    0    0    0    0  0.00000000000E+00  0.00000000000E+00  0.45593999997E+02  0.45594000000E+02  0.51100000000E-03 0.  1.
         11   -1    0    0    0    0 -0.00000000000E+00 -0.00000000000E+00 -0.45593999997E+02  0.45594000000E+02  0.51100000000E-03 0. -1.
    9900012    2    1    2    0    0 -0.18552061686E+02 -0.24545096388E+01  0.68881634882E+00  0.72461599429E+02  0.70000037953E+02 0.  0.
         12    1    1    2    0    0  0.18552061686E+02  0.24545096388E+01 -0.68881634882E+00  0.18726400571E+02  0.00000000000E+00 0. -1.
         11    1    3    3    0    0 -0.99753869587E+01 -0.18673100738E+01  0.37422511712E+01  0.10816636999E+02  0.51100000000E-03 0.  1.
        -11    1    3    3    0    0 -0.28403621477E+02  0.11663096038E+02  0.13001450810E+02  0.33344133601E+02  0.51100000000E-03 0. -1.
         12    1    3    3    0    0  0.19826946749E+02 -0.12250295603E+02 -0.16054885632E+02  0.28300828829E+02  0.00000000000E+00 0. -1.
</event>
<event>
 7    1  0.3189267E-013  0.7246156E+02  0.7816164E-02  0.1226708E+00
        -11   -1    0    0    0    0  0.00000000000E+00  0.00000000000E+00  0.45593999997E+02  0.45594000000E+02  0.51100000000E-03 0. -1.
         11   -1    0    0    0    0 -0.00000000000E+00 -0.00000000000E+00 -0.45593999997E+02  0.45594000000E+02  0.51100000000E-03 0.  1.
    9900012    2    1    2    0    0  0.59132584725E+01 -0.16076927255E+01 -0.17695425545E+02  0.72461564491E+02  0.69999992440E+02 0.  0.
         12    1    1    2    0    0 -0.59132584725E+01  0.16076927255E+01  0.17695425545E+02  0.18726435509E+02  0.00000000000E+00 0. -1.
         11    1    3    3    0    0  0.24118556053E+01 -0.47468549997E+01  0.20489346493E+01  0.57050690887E+01  0.51100000000E-03 0. -1.
        -11    1    3    3    0    0 -0.27116536935E+02 -0.10505952311E+02 -0.15542012247E+02  0.32973258168E+02  0.51100000000E-03 0.  1.
         12    1    3    3    0    0  0.30617939802E+02  0.13645114585E+02 -0.42023479472E+01  0.33783237234E+02  0.00000000000E+00 0. -1.
</event>
<event>
 7    1  0.3189267E-013  0.7246155E+02  0.7816164E-02  0.1226708E+00
        -11   -1    0    0    0    0  0.00000000000E+00  0.00000000000E+00  0.45593999997E+02  0.45594000000E+02  0.51100000000E-03 0.  1.
         11   -1    0    0    0    0 -0.00000000000E+00 -0.00000000000E+00 -0.45593999997E+02  0.45594000000E+02  0.51100000000E-03 0. -1.
    9900012    2    1    2    0    0  0.12051834318E+02 -0.13858102664E+02  0.36587041788E+01  0.72461552496E+02  0.69999976814E+02 0.  0.
         12    1    1    2    0    0 -0.12051834318E+02  0.13858102664E+02 -0.36587041788E+01  0.18726447504E+02  0.00000000000E+00 0. -1.
         11    1    3    3    0    0  0.98870684872E+01 -0.16535839717E+02  0.27415117560E+01  0.19460318738E+02  0.51100000000E-03 0. -1.
        -11    1    3    3    0    0  0.27454654347E+02  0.25054434642E+01 -0.14039673266E+01  0.27604463711E+02  0.51100000000E-03 0.  1.
         12    1    3    3    0    0 -0.25289888516E+02  0.17229358937E+00  0.23211597494E+01  0.25396770047E+02  0.00000000000E+00 0. -1.
</event>
<event>
 7    1  0.3189267E-013  0.7246158E+02  0.7816164E-02  0.1226708E+00
        -11   -1    0    0    0    0  0.00000000000E+00  0.00000000000E+00  0.45593999997E+02  0.45594000000E+02  0.51100000000E-03 0. -1.
         11   -1    0    0    0    0 -0.00000000000E+00 -0.00000000000E+00 -0.45593999997E+02  0.45594000000E+02  0.51100000000E-03 0.  1.
    9900012    2    1    2    0    0  0.12510985303E+02  0.56109870421E+01 -0.12754246607E+02  0.72461581887E+02  0.70000015102E+02 0.  0.
         12    1    1    2    0    0 -0.12510985303E+02 -0.56109870421E+01  0.12754246607E+02  0.18726418113E+02  0.00000000000E+00 0. -1.
         11    1    3    3    0    0 -0.85631223218E+01 -0.16453697221E+02 -0.64626052039E+01  0.19642211750E+02  0.51100000000E-03 0. -1.
        -11    1    3    3    0    0 -0.32526182558E+01 -0.10798306135E+02 -0.36227049203E+01  0.11845122714E+02  0.51100000000E-03 0.  1.
        -12    1    3    3    0    0  0.24326725880E+02  0.32862990398E+02 -0.26689364825E+01  0.40974247424E+02  0.00000000000E+00 0.  1.
</event>
<event>
 7    1  0.3189267E-013  0.7246155E+02  0.7816164E-02  0.1226708E+00
        -11   -1    0    0    0    0  0.00000000000E+00  0.00000000000E+00  0.45593999997E+02  0.45594000000E+02  0.51100000000E-03 0.  1.
         11   -1    0    0    0    0 -0.00000000000E+00 -0.00000000000E+00 -0.45593999997E+02  0.45594000000E+02  0.51100000000E-03 0. -1.
    9900012    2    1    2    0    0 -0.80418274182E+01  0.14001411827E+02  0.94852283876E+01  0.72461546013E+02  0.69999968369E+02 0.  0.
         12    1    1    2    0    0  0.80418274182E+01 -0.14001411827E+02 -0.94852283876E+01  0.18726453987E+02  0.00000000000E+00 0. -1.
         11    1    3    3    0    0  0.13661763465E+02  0.60524892670E+00  0.52033596437E+01  0.14631645809E+02  0.51100000000E-03 0. -1.
        -11    1    3    3    0    0 -0.25801673982E+02 -0.83303666697E+01 -0.12710739505E+02  0.29944687144E+02  0.51100000000E-03 0.  1.
         12    1    3    3    0    0  0.40980830990E+01  0.21726529570E+02  0.16992608249E+02  0.27885213059E+02  0.00000000000E+00 0. -1.
</event>
<event>
 7    1  0.3189267E-013  0.7246156E+02  0.7816164E-02  0.1226708E+00
        -11   -1    0    0    0    0  0.00000000000E+00  0.00000000000E+00  0.45593999997E+02  0.45594000000E+02  0.51100000000E-03 0.  1.
         11   -1    0    0    0    0 -0.00000000000E+00 -0.00000000000E+00 -0.45593999997E+02  0.45594000000E+02  0.51100000000E-03 0. -1.
    9900012    2    1    2    0    0 -0.13515898146E+02  0.12665127178E+02  0.27558411491E+01  0.72461558545E+02  0.69999984695E+02 0.  0.
         12    1    1    2    0    0  0.13515898146E+02 -0.12665127178E+02 -0.27558411491E+01  0.18726441455E+02  0.00000000000E+00 0. -1.
         11    1    3    3    0    0  0.78253774923E+01 -0.16128015563E+02 -0.98021717566E+01  0.20431152447E+02  0.51100000000E-03 0. -1.
        -11    1    3    3    0    0  0.14330017903E+01 -0.74886406837E+01  0.25489958919E+01  0.80393167458E+01  0.51100000000E-03 0.  1.
         12    1    3    3    0    0 -0.22774277428E+02  0.36281783425E+02  0.10009017014E+02  0.43991089353E+02  0.00000000000E+00 0. -1.
</event>
<event>
 7    1  0.3189267E-013  0.7246160E+02  0.7816164E-02  0.1226708E+00
        -11   -1    0    0    0    0  0.00000000000E+00  0.00000000000E+00  0.45593999997E+02  0.45594000000E+02  0.51100000000E-03 0.  1.
         11   -1    0    0    0    0 -0.00000000000E+00 -0.00000000000E+00 -0.45593999997E+02  0.45594000000E+02  0.51100000000E-03 0. -1.
    9900012    2    1    2    0    0 -0.17413209034E+02 -0.50656844498E+01  0.46687420897E+01  0.72461597235E+02  0.70000035095E+02 0.  0.
         12    1    1    2    0    0  0.17413209034E+02  0.50656844498E+01 -0.46687420897E+01  0.18726402765E+02  0.00000000000E+00 0. -1.
         11    1    3    3    0    0 -0.97284905568E+01  0.10363521402E+01  0.22057254772E+02  0.24129650694E+02  0.51100000000E-03 0.  1.
        -11    1    3    3    0    0  0.89210003182E+00 -0.22388561984E+02 -0.19630221623E+02  0.29789077720E+02  0.51100000000E-03 0. -1.
         12    1    3    3    0    0 -0.85768185092E+01  0.16286525394E+02  0.22417089406E+01  0.18542868821E+02  0.00000000000E+00 0. -1.
</event>
<event>
 7    1  0.3189267E-013  0.7246180E+02  0.7816164E-02  0.1226707E+00
        -11   -1    0    0    0    0  0.00000000000E+00  0.00000000000E+00  0.45593999997E+02  0.45594000000E+02  0.51100000000E-03 0. -1.
         11   -1    0    0    0    0 -0.00000000000E+00 -0.00000000000E+00 -0.45593999997E+02  0.45594000000E+02  0.51100000000E-03 0.  1.
    9900012    2    1    2    0    0  0.76907305449E+01 -0.13030169433E+02 -0.11033490273E+02  0.72461800189E+02  0.70000299480E+02 0.  0.
         12    1    1    2    0    0 -0.76907305449E+01  0.13030169433E+02  0.11033490273E+02  0.18726199811E+02  0.00000000000E+00 0. -1.
         11    1    3    3    0    0  0.37325780128E+01 -0.17579060345E+01 -0.57720168298E+01  0.70949665815E+01  0.51100000000E-03 0. -1.
        -11    1    3    3    0    0  0.23654497108E+02 -0.25733334898E+02 -0.16284390614E+02  0.38560616390E+02  0.51100000000E-03 0.  1.
         12    1    3    3    0    0 -0.19696344576E+02  0.14461071500E+02  0.11022917170E+02  0.26806217218E+02  0.00000000000E+00 0. -1.
</event>
<event>
 7    1  0.3189267E-013  0.7246155E+02  0.7816164E-02  0.1226708E+00
        -11   -1    0    0    0    0  0.00000000000E+00  0.00000000000E+00  0.45593999997E+02  0.45594000000E+02  0.51100000000E-03 0. -1.
         11   -1    0    0    0    0 -0.00000000000E+00 -0.00000000000E+00 -0.45593999997E+02  0.45594000000E+02  0.51100000000E-03 0.  1.
    9900012    2    1    2    0    0 -0.16182206847E+02 -0.48197772416E-01 -0.94241034688E+01  0.72461551654E+02  0.69999975718E+02 0.  0.
         12    1    1    2    0    0  0.16182206847E+02  0.48197772416E-01  0.94241034688E+01  0.18726448346E+02  0.00000000000E+00 0. -1.
         11    1    3    3    0    0  0.11051166473E+01  0.11513262530E+02 -0.35369205473E+00  0.11571585683E+02  0.51100000000E-03 0. -1.
        -11    1    3    3    0    0 -0.12803477507E+01  0.12719686510E+02 -0.24745047205E+02  0.27852236476E+02  0.51100000000E-03 0.  1.
         12    1    3    3    0    0 -0.16006975743E+02 -0.24281146813E+02  0.15674635791E+02  0.33037729495E+02  0.00000000000E+00 0. -1.
</event>
<event>
 7    1  0.3189267E-013  0.7246179E+02  0.7816164E-02  0.1226707E+00
        -11   -1    0    0    0    0  0.00000000000E+00  0.00000000000E+00  0.45593999997E+02  0.45594000000E+02  0.51100000000E-03 0.  1.
         11   -1    0    0    0    0 -0.00000000000E+00 -0.00000000000E+00 -0.45593999997E+02  0.45594000000E+02  0.51100000000E-03 0. -1.
    9900012    2    1    2    0    0  0.99507394064E+01  0.52170800594E+01  0.14981186827E+02  0.72461785811E+02  0.70000280750E+02 0.  0.
         12    1    1    2    0    0 -0.99507394064E+01 -0.52170800594E+01 -0.14981186827E+02  0.18726214189E+02  0.00000000000E+00 0. -1.
         11    1    3    3    0    0  0.21162335541E+02 -0.20096562253E+02 -0.10702752649E+02  0.31084806167E+02  0.51100000000E-03 0. -1.
        -11    1    3    3    0    0  0.29841810539E+01  0.10390162181E+02  0.41521753760E+01  0.11580214477E+02  0.51100000000E-03 0.  1.
        -12    1    3    3    0    0 -0.14195777188E+02  0.14923480131E+02  0.21531764100E+02  0.29796765168E+02  0.00000000000E+00 0.  1.
</event>
<event>
 7    1  0.3189267E-013  0.7246128E+02  0.7816164E-02  0.1226709E+00
        -11   -1    0    0    0    0  0.00000000000E+00  0.00000000000E+00  0.45593999997E+02  0.45594000000E+02  0.51100000000E-03 0.  1.
         11   -1    0    0    0    0 -0.00000000000E+00 -0.00000000000E+00 -0.45593999997E+02  0.45594000000E+02  0.51100000000E-03 0. -1.
    9900012    2    1    2    0    0  0.17171675306E+02 -0.74687798052E+01  0.20255054948E+00  0.72461277614E+02  0.69999618728E+02 0.  0.
         12    1    1    2    0    0 -0.17171675306E+02  0.74687798052E+01 -0.20255054948E+00  0.18726722386E+02  0.00000000000E+00 0. -1.
         11    1    3    3    0    0  0.53370272316E+01  0.10022637484E+02 -0.10801423375E+02  0.15671881476E+02  0.51100000000E-03 0. -1.
        -11    1    3    3    0    0 -0.13799042502E+02 -0.11958649620E+02 -0.12045938688E+02  0.21875271744E+02  0.51100000000E-03 0.  1.
        -12    1    3    3    0    0  0.25633690577E+02 -0.55327676689E+01  0.23049912613E+02  0.34914124394E+02  0.00000000000E+00 0.  1.
</event>
<event>
 7    1  0.3189267E-013  0.7246177E+02  0.7816164E-02  0.1226707E+00
        -11   -1    0    0    0    0  0.00000000000E+00  0.00000000000E+00  0.45593999997E+02  0.45594000000E+02  0.51100000000E-03 0.  1.
         11   -1    0    0    0    0 -0.00000000000E+00 -0.00000000000E+00 -0.45593999997E+02  0.45594000000E+02  0.51100000000E-03 0. -1.
    9900012    2    1    2    0    0  0.21604468161E+01 -0.58600693382E+01  0.17654004027E+02  0.72461767029E+02  0.70000256284E+02 0.  0.
         12    1    1    2    0    0 -0.21604468161E+01  0.58600693382E+01 -0.17654004027E+02  0.18726232971E+02  0.00000000000E+00 0. -1.
         11    1    3    3    0    0  0.48503850715E+01 -0.56064081681E+01  0.35084604636E+00  0.74216670027E+01  0.51100000000E-03 0. -1.
        -11    1    3    3    0    0 -0.66611431333E+01 -0.25312387708E+02 -0.97686008594E+01  0.27937669236E+02  0.51100000000E-03 0.  1.
         12    1    3    3    0    0  0.39712048780E+01  0.25058726538E+02  0.27071758840E+02  0.37102430791E+02  0.00000000000E+00 0. -1.
</event>
<event>
 7    1  0.3189267E-013  0.7246152E+02  0.7816164E-02  0.1226708E+00
        -11   -1    0    0    0    0  0.00000000000E+00  0.00000000000E+00  0.45593999997E+02  0.45594000000E+02  0.51100000000E-03 0. -1.
         11   -1    0    0    0    0 -0.00000000000E+00 -0.00000000000E+00 -0.45593999997E+02  0.45594000000E+02  0.51100000000E-03 0.  1.
    9900012    2    1    2    0    0 -0.32539574357E+01 -0.91816468462E+01 -0.15993438269E+02  0.72461522876E+02  0.69999938229E+02 0.  0.
         12    1    1    2    0    0  0.32539574357E+01  0.91816468462E+01  0.15993438269E+02  0.18726477124E+02  0.00000000000E+00 0. -1.
         11    1    3    3    0    0  0.18382884859E+02 -0.36656664388E+01 -0.81674447953E+01  0.20446875578E+02  0.51100000000E-03 0. -1.
        -11    1    3    3    0    0  0.44264359128E+01  0.10946636140E+02 -0.16222301264E+02  0.20064526813E+02  0.51100000000E-03 0.  1.
         12    1    3    3    0    0 -0.26063278207E+02 -0.16462616547E+02  0.83963077899E+01  0.31950120485E+02  0.00000000000E+00 0. -1.
</event>
<event>
 7    1  0.3189267E-013  0.7246153E+02  0.7816164E-02  0.1226708E+00
        -11   -1    0    0    0    0  0.00000000000E+00  0.00000000000E+00  0.45593999997E+02  0.45594000000E+02  0.51100000000E-03 0. -1.
         11   -1    0    0    0    0 -0.00000000000E+00 -0.00000000000E+00 -0.45593999997E+02  0.45594000000E+02  0.51100000000E-03 0.  1.
    9900012    2    1    2    0    0 -0.20154034884E+01 -0.18300834259E+02  0.34202792858E+01  0.72461529532E+02  0.69999946900E+02 0.  0.
         12    1    1    2    0    0  0.20154034884E+01  0.18300834259E+02 -0.34202792858E+01  0.18726470468E+02  0.00000000000E+00 0. -1.
         11    1    3    3    0    0  0.10073470216E+02 -0.22701559872E+02  0.12477355431E+02  0.27794244397E+02  0.51100000000E-03 0. -1.
        -11    1    3    3    0    0  0.15673820561E+02  0.14551208252E+01 -0.45641337937E+01  0.16389549876E+02  0.51100000000E-03 0.  1.
         12    1    3    3    0    0 -0.27762694265E+02  0.29456047878E+01 -0.44929423517E+01  0.28277735259E+02  0.00000000000E+00 0. -1.
</event>
<event>
 7    1  0.3189267E-013  0.7246154E+02  0.7816164E-02  0.1226708E+00
        -11   -1    0    0    0    0  0.00000000000E+00  0.00000000000E+00  0.45593999997E+02  0.45594000000E+02  0.51100000000E-03 0.  1.
         11   -1    0    0    0    0 -0.00000000000E+00 -0.00000000000E+00 -0.45593999997E+02  0.45594000000E+02  0.51100000000E-03 0. -1.
    9900012    2    1    2    0    0 -0.85201759872E+01 -0.12639229892E+02  0.10878273558E+02  0.72461538329E+02  0.69999958359E+02 0.  0.
         12    1    1    2    0    0  0.85201759872E+01  0.12639229892E+02 -0.10878273558E+02  0.18726461671E+02  0.00000000000E+00 0. -1.
         11    1    3    3    0    0 -0.29027044081E+01  0.10850227005E+02  0.73377464452E+01  0.13416245455E+02  0.51100000000E-03 0. -1.
        -11    1    3    3    0    0 -0.99210493984E+01 -0.19625411551E+02  0.27035037087E+02  0.34849350500E+02  0.51100000000E-03 0.  1.
         12    1    3    3    0    0  0.43035778193E+01 -0.38640453463E+01 -0.23494509974E+02  0.24195942375E+02  0.00000000000E+00 0. -1.
</event>
<event>
 7    1  0.3189267E-013  0.7246161E+02  0.7816164E-02  0.1226708E+00
        -11   -1    0    0    0    0  0.00000000000E+00  0.00000000000E+00  0.45593999997E+02  0.45594000000E+02  0.51100000000E-03 0. -1.
         11   -1    0    0    0    0 -0.00000000000E+00 -0.00000000000E+00 -0.45593999997E+02  0.45594000000E+02  0.51100000000E-03 0.  1.
    9900012    2    1    2    0    0 -0.21598950549E+01 -0.11601957442E+02 -0.14539850863E+02  0.72461606160E+02  0.70000046722E+02 0.  0.
         12    1    1    2    0    0  0.21598950549E+01  0.11601957442E+02  0.14539850863E+02  0.18726393840E+02  0.00000000000E+00 0. -1.
         11    1    3    3    0    0 -0.78274408857E+01  0.55585646360E+01 -0.31641100914E+02  0.33065476542E+02  0.51100000000E-03 0.  1.
        -11    1    3    3    0    0  0.10024444705E+02  0.56120024084E+01  0.18302349801E+01  0.11633306625E+02  0.51100000000E-03 0. -1.
        -12    1    3    3    0    0 -0.43568988747E+01 -0.22772524486E+02  0.15271015071E+02  0.27762822993E+02  0.00000000000E+00 0.  1.
</event>
<event>
 7    1  0.3189267E-013  0.7246165E+02  0.7816164E-02  0.1226708E+00
        -11   -1    0    0    0    0  0.00000000000E+00  0.00000000000E+00  0.45593999997E+02  0.45594000000E+02  0.51100000000E-03 0. -1.
         11   -1    0    0    0    0 -0.00000000000E+00 -0.00000000000E+00 -0.45593999997E+02  0.45594000000E+02  0.51100000000E-03 0.  1.
    9900012    2    1    2    0    0  0.40076631817E+01  0.65109024642E+01 -0.17094534324E+02  0.72461646408E+02  0.70000099153E+02 0.  0.
         12    1    1    2    0    0 -0.40076631817E+01 -0.65109024642E+01  0.17094534324E+02  0.18726353592E+02  0.00000000000E+00 0. -1.
         11    1    3    3    0    0  0.14995678464E+02 -0.18028507361E+02 -0.65238724239E+01  0.24340467578E+02  0.51100000000E-03 0. -1.
        -11    1    3    3    0    0  0.17391785225E+01 -0.95735574975E+01 -0.59853461666E+01  0.11423752189E+02  0.51100000000E-03 0.  1.
         12    1    3    3    0    0 -0.12727193805E+02  0.34112967322E+02 -0.45853157336E+01  0.36697426641E+02  0.00000000000E+00 0. -1.
</event>
<event>
 7    1  0.3189267E-013  0.7246152E+02  0.7816164E-02  0.1226708E+00
        -11   -1    0    0    0    0  0.00000000000E+00  0.00000000000E+00  0.45593999997E+02  0.45594000000E+02  0.51100000000E-03 0.  1.
         11   -1    0    0    0    0 -0.00000000000E+00 -0.00000000000E+00 -0.45593999997E+02  0.45594000000E+02  0.51100000000E-03 0. -1.
    9900012    2    1    2    0    0  0.51515797415E+01  0.41697484551E+01  0.17514433305E+02  0.72461522755E+02  0.69999938071E+02 0.  0.
         12    1    1    2    0    0 -0.51515797415E+01 -0.41697484551E+01 -0.17514433305E+02  0.18726477245E+02  0.00000000000E+00 0. -1.
         11    1    3    3    0    0  0.19363787816E+02  0.24751812883E+02 -0.90897751888E+01  0.32714408642E+02  0.51100000000E-03 0. -1.
        -11    1    3    3    0    0  0.10235776365E+01 -0.27147441612E+01 -0.13831061937E+01  0.32141141926E+01  0.51100000000E-03 0.  1.
        -12    1    3    3    0    0 -0.15235785711E+02 -0.17867320267E+02  0.27987314688E+02  0.36532999920E+02  0.00000000000E+00 0.  1.
</event>
<event>
 7    1  0.3189267E-013  0.7246154E+02  0.7816164E-02  0.1226708E+00
        -11   -1    0    0    0    0  0.00000000000E+00  0.00000000000E+00  0.45593999997E+02  0.45594000000E+02  0.51100000000E-03 0. -1.
         11   -1    0    0    0    0 -0.00000000000E+00 -0.00000000000E+00 -0.45593999997E+02  0.45594000000E+02  0.51100000000E-03 0.  1.
    9900012    2    1    2    0    0  0.28580491315E+01  0.17261259991E+02 -0.66753757597E+01  0.72461543238E+02  0.69999964754E+02 0.  0.
         12    1    1    2    0    0 -0.28580491315E+01 -0.17261259991E+02  0.66753757597E+01  0.18726456762E+02  0.00000000000E+00 0. -1.
         11    1    3    3    0    0 -0.15618184174E+02  0.66886724167E+01  0.21944547334E+02  0.27753002965E+02  0.51100000000E-03 0. -1.
        -11    1    3    3    0    0 -0.99252967674E+00  0.13448693459E+02 -0.60988367543E+01  0.14800279759E+02  0.51100000000E-03 0.  1.
        -12    1    3    3    0    0  0.19468762982E+02 -0.28761058846E+01 -0.22521086340E+02  0.29908260515E+02  0.00000000000E+00 0.  1.
</event>
<event>
 7    1  0.3189267E-013  0.7246157E+02  0.7816164E-02  0.1226708E+00
        -11   -1    0    0    0    0  0.00000000000E+00  0.00000000000E+00  0.45593999997E+02  0.45594000000E+02  0.51100000000E-03 0.  1.
         11   -1    0    0    0    0 -0.00000000000E+00 -0.00000000000E+00 -0.45593999997E+02  0.45594000000E+02  0.51100000000E-03 0. -1.
    9900012    2    1    2    0    0 -0.16533335030E+02 -0.46600441141E+01 -0.74573340992E+01  0.72461574547E+02  0.70000005540E+02 0.  0.
         12    1    1    2    0    0  0.16533335030E+02  0.46600441141E+01  0.74573340992E+01  0.18726425453E+02  0.00000000000E+00 0. -1.
         11    1    3    3    0    0 -0.42595938476E+01  0.19395742573E+02 -0.24562466958E+01  0.20009300783E+02  0.51100000000E-03 0. -1.
        -11    1    3    3    0    0 -0.20308097795E+02 -0.26862647876E+01  0.12222322835E+02  0.23854140737E+02  0.51100000000E-03 0.  1.
         12    1    3    3    0    0  0.80343566127E+01 -0.21369521900E+02 -0.17223410238E+02  0.28598133027E+02  0.00000000000E+00 0. -1.
</event>
<event>
 7    1  0.3189267E-013  0.7246155E+02  0.7816164E-02  0.1226708E+00
        -11   -1    0    0    0    0  0.00000000000E+00  0.00000000000E+00  0.45593999997E+02  0.45594000000E+02  0.51100000000E-03 0.  1.
         11   -1    0    0    0    0 -0.00000000000E+00 -0.00000000000E+00 -0.45593999997E+02  0.45594000000E+02  0.51100000000E-03 0. -1.
    9900012    2    1    2    0    0  0.54878605160E+01 -0.56430421184E+01  0.16991739405E+02  0.72461554918E+02  0.69999979970E+02 0.  0.
         12    1    1    2    0    0 -0.54878605160E+01  0.56430421184E+01 -0.16991739405E+02  0.18726445082E+02  0.00000000000E+00 0. -1.
         11    1    3    3    0    0 -0.29686221948E+02  0.28251495384E+01  0.50989442331E+01  0.30253139936E+02  0.51100000000E-03 0. -1.
        -11    1    3    3    0    0 -0.17631196606E+01 -0.10630246878E+01 -0.11303913127E+01  0.23487011742E+01  0.51100000000E-03 0.  1.
        -12    1    3    3    0    0  0.36937202125E+02 -0.74051669690E+01  0.13023186484E+02  0.39859713808E+02  0.00000000000E+00 0.  1.
</event>
<event>
 7    1  0.3189267E-013  0.7246157E+02  0.7816164E-02  0.1226708E+00
        -11   -1    0    0    0    0  0.00000000000E+00  0.00000000000E+00  0.45593999997E+02  0.45594000000E+02  0.51100000000E-03 0. -1.
         11   -1    0    0    0    0 -0.00000000000E+00 -0.00000000000E+00 -0.45593999997E+02  0.45594000000E+02  0.51100000000E-03 0.  1.
    9900012    2    1    2    0    0  0.63565717891E+01 -0.12569899317E+02 -0.12339810784E+02  0.72461566706E+02  0.69999995325E+02 0.  0.
         12    1    1    2    0    0 -0.63565717891E+01  0.12569899317E+02  0.12339810784E+02  0.18726433294E+02  0.00000000000E+00 0. -1.
         11    1    3    3    0    0 -0.21683287866E+02 -0.11509131083E+02  0.66435660150E+01  0.25431516680E+02  0.51100000000E-03 0. -1.
        -11    1    3    3    0    0  0.58826656602E+01 -0.14205997337E+02 -0.13989173130E+02  0.20787329812E+02  0.51100000000E-03 0.  1.
         12    1    3    3    0    0  0.22157193995E+02  0.13145229103E+02 -0.49942036690E+01  0.26242720213E+02  0.00000000000E+00 0. -1.
</event>
<event>
 7    1  0.3189267E-013  0.7246158E+02  0.7816164E-02  0.1226708E+00
        -11   -1    0    0    0    0  0.00000000000E+00  0.00000000000E+00  0.45593999997E+02  0.45594000000E+02  0.51100000000E-03 0.  1.
         11   -1    0    0    0    0 -0.00000000000E+00 -0.00000000000E+00 -0.45593999997E+02  0.45594000000E+02  0.51100000000E-03 0. -1.
    9900012    2    1    2    0    0  0.10012186322E+02 -0.72107302700E+01  0.14086882500E+02  0.72461581107E+02  0.70000014085E+02 0.  0.
         12    1    1    2    0    0 -0.10012186322E+02  0.72107302700E+01 -0.14086882500E+02  0.18726418893E+02  0.00000000000E+00 0. -1.
         11    1    3    3    0    0  0.19362177801E+02  0.78581165823E+01 -0.13560542553E+02  0.24910484540E+02  0.51100000000E-03 0. -1.
        -11    1    3    3    0    0  0.43481156550E+01  0.60406968018E+01 -0.28872146817E+01  0.79832409759E+01  0.51100000000E-03 0.  1.
        -12    1    3    3    0    0 -0.13698107134E+02 -0.21109543654E+02  0.30534639735E+02  0.39567855591E+02  0.00000000000E+00 0.  1.
</event>
<event>
 7    1  0.3189267E-013  0.7246172E+02  0.7816164E-02  0.1226708E+00
        -11   -1    0    0    0    0  0.00000000000E+00  0.00000000000E+00  0.45593999997E+02  0.45594000000E+02  0.51100000000E-03 0. -1.
         11   -1    0    0    0    0 -0.00000000000E+00 -0.00000000000E+00 -0.45593999997E+02  0.45594000000E+02  0.51100000000E-03 0.  1.
    9900012    2    1    2    0    0 -0.17246398813E+02  0.67689264198E+01  0.27234324147E+01  0.72461715772E+02  0.70000189511E+02 0.  0.
         12    1    1    2    0    0  0.17246398813E+02 -0.67689264198E+01 -0.27234324147E+01  0.18726284228E+02  0.00000000000E+00 0. -1.
         11    1    3    3    0    0  0.56577567445E+01  0.21406060645E+02  0.82045536066E+01  0.23612376921E+02  0.51100000000E-03 0. -1.
        -11    1    3    3    0    0  0.16784943783E+01 -0.61100874071E+00 -0.17866366269E+02  0.17955437031E+02  0.51100000000E-03 0.  1.
        -12    1    3    3    0    0 -0.24582649935E+02 -0.14026125485E+02  0.12385245077E+02  0.30893901819E+02  0.00000000000E+00 0.  1.
</event>
<event>
 7    1  0.3189267E-013  0.7246146E+02  0.7816164E-02  0.1226708E+00
        -11   -1    0    0    0    0  0.00000000000E+00  0.00000000000E+00  0.45593999997E+02  0.45594000000E+02  0.51100000000E-03 0.  1.
         11   -1    0    0    0    0 -0.00000000000E+00 -0.00000000000E+00 -0.45593999997E+02  0.45594000000E+02  0.51100000000E-03 0. -1.
    9900012    2    1    2    0    0 -0.27754789317E+01 -0.99966203256E+01  0.15589981051E+02  0.72461462402E+02  0.69999859450E+02 0.  0.
         12    1    1    2    0    0  0.27754789317E+01  0.99966203256E+01 -0.15589981051E+02  0.18726537598E+02  0.00000000000E+00 0. -1.
         11    1    3    3    0    0  0.11619207680E+02 -0.21545474699E+02  0.29838313324E+02  0.38594538595E+02  0.51100000000E-03 0. -1.
        -11    1    3    3    0    0 -0.11225667340E+02 -0.60308598501E+01 -0.44817136438E+01  0.13508243232E+02  0.51100000000E-03 0.  1.
        -12    1    3    3    0    0 -0.31690192714E+01  0.17579714223E+02 -0.97666186289E+01  0.20358680575E+02  0.00000000000E+00 0.  1.
</event>
<event>
 7    1  0.3189267E-013  0.7246154E+02  0.7816164E-02  0.1226708E+00
        -11   -1    0    0    0    0  0.00000000000E+00  0.00000000000E+00  0.45593999997E+02  0.45594000000E+02  0.51100000000E-03 0.  1.
         11   -1    0    0    0    0 -0.00000000000E+00 -0.00000000000E+00 -0.45593999997E+02  0.45594000000E+02  0.51100000000E-03 0. -1.
    9900012    2    1    2    0    0  0.74205071453E+01 -0.19268342431E+01  0.17085189772E+02  0.72461539415E+02  0.69999959774E+02 0.  0.
         12    1    1    2    0    0 -0.74205071453E+01  0.19268342431E+01 -0.17085189772E+02  0.18726460585E+02  0.00000000000E+00 0. -1.
         11    1    3    3    0    0 -0.10355514414E+02  0.25861629901E+02 -0.32885660384E+01  0.28051296704E+02  0.51100000000E-03 0. -1.
        -11    1    3    3    0    0 -0.46074041616E+01 -0.24935327248E+01  0.52016925741E+01  0.73826475234E+01  0.51100000000E-03 0.  1.
        -12    1    3    3    0    0  0.22383425721E+02 -0.25294931420E+02  0.15172063236E+02  0.37027595188E+02  0.00000000000E+00 0.  1.
</event>
<event>
 7    1  0.3189267E-013  0.7246159E+02  0.7816164E-02  0.1226708E+00
        -11   -1    0    0    0    0  0.00000000000E+00  0.00000000000E+00  0.45593999997E+02  0.45594000000E+02  0.51100000000E-03 0. -1.
         11   -1    0    0    0    0 -0.00000000000E+00 -0.00000000000E+00 -0.45593999997E+02  0.45594000000E+02  0.51100000000E-03 0.  1.
    9900012    2    1    2    0    0 -0.52545814066E+01  0.24818946174E+01 -0.17801914412E+02  0.72461585944E+02  0.70000020387E+02 0.  0.
         12    1    1    2    0    0  0.52545814066E+01 -0.24818946174E+01  0.17801914412E+02  0.18726414056E+02  0.00000000000E+00 0. -1.
         11    1    3    3    0    0 -0.23652560447E+01 -0.10912131104E+02 -0.74965069503E+01  0.13448667521E+02  0.51100000000E-03 0. -1.
        -11    1    3    3    0    0 -0.57911903440E+01 -0.21886989429E+02 -0.53919503495E+01  0.23273403720E+02  0.51100000000E-03 0.  1.
         12    1    3    3    0    0  0.29018649820E+01  0.35281015150E+02 -0.49134571121E+01  0.35739514703E+02  0.00000000000E+00 0. -1.
</event>
<event>
 7    1  0.3189267E-013  0.7246156E+02  0.7816164E-02  0.1226708E+00
        -11   -1    0    0    0    0  0.00000000000E+00  0.00000000000E+00  0.45593999997E+02  0.45594000000E+02  0.51100000000E-03 0. -1.
         11   -1    0    0    0    0 -0.00000000000E+00 -0.00000000000E+00 -0.45593999997E+02  0.45594000000E+02  0.51100000000E-03 0.  1.
    9900012    2    1    2    0    0  0.75998693137E+01  0.59024348642E+01  0.16064949964E+02  0.72461564988E+02  0.69999993088E+02 0.  0.
         12    1    1    2    0    0 -0.75998693137E+01 -0.59024348642E+01 -0.16064949964E+02  0.18726435012E+02  0.00000000000E+00 0. -1.
         11    1    3    3    0    0  0.56674202198E+01 -0.53898181890E+01 -0.74311585109E+01  0.10788508198E+02  0.51100000000E-03 0. -1.
        -11    1    3    3    0    0  0.20579139962E+02 -0.69093377180E+01 -0.57956515594E+01  0.22468411749E+02  0.51100000000E-03 0.  1.
         12    1    3    3    0    0 -0.18646690868E+02  0.18201590771E+02  0.29291760034E+02  0.39204645041E+02  0.00000000000E+00 0. -1.
</event>
<event>
 7    1  0.3189267E-013  0.7246162E+02  0.7816164E-02  0.1226708E+00
        -11   -1    0    0    0    0  0.00000000000E+00  0.00000000000E+00  0.45593999997E+02  0.45594000000E+02  0.51100000000E-03 0.  1.
         11   -1    0    0    0    0 -0.00000000000E+00 -0.00000000000E+00 -0.45593999997E+02  0.45594000000E+02  0.51100000000E-03 0. -1.
    9900012    2    1    2    0    0  0.10987867183E+00 -0.27544433452E+01  0.18522376212E+02  0.72461616153E+02  0.70000059739E+02 0.  0.
         12    1    1    2    0    0 -0.10987867183E+00  0.27544433452E+01 -0.18522376212E+02  0.18726383847E+02  0.00000000000E+00 0. -1.
         11    1    3    3    0    0  0.96013871023E+01  0.12798908266E+02 -0.14389928988E+01  0.16064538210E+02  0.51100000000E-03 0. -1.
        -11    1    3    3    0    0 -0.83037894776E+01 -0.27162091578E+02 -0.50027224390E+01  0.28840238741E+02  0.51100000000E-03 0.  1.
         12    1    3    3    0    0 -0.11877189529E+01  0.11608739967E+02  0.24964091549E+02  0.27556839202E+02  0.00000000000E+00 0. -1.
</event>
<event>
 7    1  0.3189267E-013  0.7246146E+02  0.7816164E-02  0.1226708E+00
        -11   -1    0    0    0    0  0.00000000000E+00  0.00000000000E+00  0.45593999997E+02  0.45594000000E+02  0.51100000000E-03 0.  1.
         11   -1    0    0    0    0 -0.00000000000E+00 -0.00000000000E+00 -0.45593999997E+02  0.45594000000E+02  0.51100000000E-03 0. -1.
    9900012    2    1    2    0    0  0.10900936409E+02 -0.11863665451E+02 -0.95449657026E+01  0.72461458868E+02  0.69999854846E+02 0.  0.
         12    1    1    2    0    0 -0.10900936409E+02  0.11863665451E+02  0.95449657026E+01  0.18726541132E+02  0.00000000000E+00 0. -1.
         11    1    3    3    0    0 -0.71044889396E+00 -0.27483510355E+02 -0.16530872638E+02  0.32079866420E+02  0.51100000000E-03 0. -1.
        -11    1    3    3    0    0  0.10720489630E+02 -0.82504231166E+00 -0.11418702815E+02  0.15684271324E+02  0.51100000000E-03 0.  1.
         12    1    3    3    0    0  0.89089567215E+00  0.16444887216E+02  0.18404609750E+02  0.24697321124E+02  0.00000000000E+00 0. -1.
</event>
<event>
 7    1  0.3189267E-013  0.7246157E+02  0.7816164E-02  0.1226708E+00
        -11   -1    0    0    0    0  0.00000000000E+00  0.00000000000E+00  0.45593999997E+02  0.45594000000E+02  0.51100000000E-03 0. -1.
         11   -1    0    0    0    0 -0.00000000000E+00 -0.00000000000E+00 -0.45593999997E+02  0.45594000000E+02  0.51100000000E-03 0.  1.
    9900012    2    1    2    0    0 -0.47854785432E+01  0.16646283831E+02 -0.71189585513E+01  0.72461571053E+02  0.70000000988E+02 0.  0.
         12    1    1    2    0    0  0.47854785432E+01 -0.16646283831E+02  0.71189585513E+01  0.18726428947E+02  0.00000000000E+00 0. -1.
         11    1    3    3    0    0  0.98556315283E+01  0.68145441026E+01  0.78465291759E+00  0.12007795993E+02  0.51100000000E-03 0. -1.
        -11    1    3    3    0    0  0.27288324194E+01  0.17572381739E+02 -0.27755226560E+02  0.32963430162E+02  0.51100000000E-03 0.  1.
         12    1    3    3    0    0 -0.17369942491E+02 -0.77406420105E+01  0.19851615091E+02  0.27490344898E+02  0.00000000000E+00 0. -1.
</event>
<event>
 7    1  0.3189267E-013  0.7246159E+02  0.7816164E-02  0.1226708E+00
        -11   -1    0    0    0    0  0.00000000000E+00  0.00000000000E+00  0.45593999997E+02  0.45594000000E+02  0.51100000000E-03 0. -1.
         11   -1    0    0    0    0 -0.00000000000E+00 -0.00000000000E+00 -0.45593999997E+02  0.45594000000E+02  0.51100000000E-03 0.  1.
    9900012    2    1    2    0    0  0.98390423353E-01  0.18458633277E+02  0.31540048131E+01  0.72461586315E+02  0.70000020870E+02 0.  0.
         12    1    1    2    0    0 -0.98390423353E-01 -0.18458633277E+02 -0.31540048131E+01  0.18726413685E+02  0.00000000000E+00 0. -1.
         11    1    3    3    0    0  0.55890577944E-02  0.23481013810E+01 -0.18460189670E+01  0.29868708744E+01  0.51100000000E-03 0. -1.
        -11    1    3    3    0    0 -0.20576548225E+02 -0.18119762562E+02 -0.58658692142E+01  0.28037984130E+02  0.51100000000E-03 0.  1.
         12    1    3    3    0    0  0.20669349590E+02  0.34230294458E+02  0.10865892994E+02  0.41436731311E+02  0.00000000000E+00 0. -1.
</event>
<event>
 7    1  0.3189267E-013  0.7246143E+02  0.7816164E-02  0.1226708E+00
        -11   -1    0    0    0    0  0.00000000000E+00  0.00000000000E+00  0.45593999997E+02  0.45594000000E+02  0.51100000000E-03 0.  1.
         11   -1    0    0    0    0 -0.00000000000E+00 -0.00000000000E+00 -0.45593999997E+02  0.45594000000E+02  0.51100000000E-03 0. -1.
    9900012    2    1    2    0    0 -0.13283166098E+02  0.12872309558E+02  0.29232907692E+01  0.72461428400E+02  0.69999815156E+02 0.  0.
         12    1    1    2    0    0  0.13283166098E+02 -0.12872309558E+02 -0.29232907692E+01  0.18726571600E+02  0.00000000000E+00 0. -1.
         11    1    3    3    0    0  0.14965588505E+02  0.27753220703E+02 -0.11033356956E+01  0.31550395380E+02  0.51100000000E-03 0. -1.
        -11    1    3    3    0    0  0.18272269733E+01 -0.50182192150E+01 -0.56877373160E+01  0.78020278478E+01  0.51100000000E-03 0.  1.
        -12    1    3    3    0    0 -0.30075981576E+02 -0.98626919299E+01  0.97143637808E+01  0.33109005173E+02  0.00000000000E+00 0.  1.
</event>
<event>
 7    1  0.3189267E-013  0.7246200E+02  0.7816164E-02  0.1226707E+00
        -11   -1    0    0    0    0  0.00000000000E+00  0.00000000000E+00  0.45593999997E+02  0.45594000000E+02  0.51100000000E-03 0.  1.
         11   -1    0    0    0    0 -0.00000000000E+00 -0.00000000000E+00 -0.45593999997E+02  0.45594000000E+02  0.51100000000E-03 0. -1.
    9900012    2    1    2    0    0 -0.24450836279E+01  0.12313499209E+02  0.13894684169E+02  0.72462003501E+02  0.70000564330E+02 0.  0.
         12    1    1    2    0    0  0.24450836279E+01 -0.12313499209E+02 -0.13894684169E+02  0.18725996499E+02  0.00000000000E+00 0. -1.
         11    1    3    3    0    0  0.95268706376E+00  0.19656677054E+02 -0.21887632737E+01  0.19801092151E+02  0.51100000000E-03 0. -1.
        -11    1    3    3    0    0  0.95360673808E+01  0.16186978302E+02  0.17632808345E+02  0.25765689939E+02  0.51100000000E-03 0.  1.
         12    1    3    3    0    0 -0.12933838072E+02 -0.23530156146E+02 -0.15493609029E+01  0.26895221411E+02  0.00000000000E+00 0. -1.
</event>
<event>
 7    1  0.3189267E-013  0.7246151E+02  0.7816164E-02  0.1226708E+00
        -11   -1    0    0    0    0  0.00000000000E+00  0.00000000000E+00  0.45593999997E+02  0.45594000000E+02  0.51100000000E-03 0.  1.
         11   -1    0    0    0    0 -0.00000000000E+00 -0.00000000000E+00 -0.45593999997E+02  0.45594000000E+02  0.51100000000E-03 0. -1.
    9900012    2    1    2    0    0 -0.14098346785E+02  0.74467579454E+01  0.98216005463E+01  0.72461510119E+02  0.69999921610E+02 0.  0.
         12    1    1    2    0    0  0.14098346785E+02 -0.74467579454E+01 -0.98216005463E+01  0.18726489881E+02  0.00000000000E+00 0. -1.
         11    1    3    3    0    0 -0.15147501492E+02  0.24152437179E+02  0.12894402525E+01  0.28538564778E+02  0.51100000000E-03 0. -1.
        -11    1    3    3    0    0 -0.25732149451E+01  0.12412179066E+02 -0.18240600879E+01  0.12806670910E+02  0.51100000000E-03 0.  1.
        -12    1    3    3    0    0  0.36223696513E+01 -0.29117858300E+02  0.10356220382E+02  0.31116274431E+02  0.00000000000E+00 0.  1.
</event>
<event>
 7    1  0.3189267E-013  0.7246157E+02  0.7816164E-02  0.1226708E+00
        -11   -1    0    0    0    0  0.00000000000E+00  0.00000000000E+00  0.45593999997E+02  0.45594000000E+02  0.51100000000E-03 0. -1.
         11   -1    0    0    0    0 -0.00000000000E+00 -0.00000000000E+00 -0.45593999997E+02  0.45594000000E+02  0.51100000000E-03 0.  1.
    9900012    2    1    2    0    0 -0.12227548240E+02  0.14072845857E+02 -0.17667335335E+01  0.72461567509E+02  0.69999996372E+02 0.  0.
         12    1    1    2    0    0  0.12227548240E+02 -0.14072845857E+02  0.17667335335E+01  0.18726432491E+02  0.00000000000E+00 0. -1.
         11    1    3    3    0    0 -0.16629643152E+02  0.61859208724E+01 -0.16033977698E+02  0.23914411753E+02  0.51100000000E-03 0.  1.
        -11    1    3    3    0    0 -0.52961618054E+01  0.15887112668E+02  0.26277529397E+02  0.31160202668E+02  0.51100000000E-03 0. -1.
         12    1    3    3    0    0  0.96982567178E+01 -0.80001876839E+01 -0.12010285233E+02  0.17386953089E+02  0.00000000000E+00 0. -1.
</event>
<event>
 7    1  0.3189267E-013  0.7246141E+02  0.7816164E-02  0.1226708E+00
        -11   -1    0    0    0    0  0.00000000000E+00  0.00000000000E+00  0.45593999997E+02  0.45594000000E+02  0.51100000000E-03 0.  1.
         11   -1    0    0    0    0 -0.00000000000E+00 -0.00000000000E+00 -0.45593999997E+02  0.45594000000E+02  0.51100000000E-03 0. -1.
    9900012    2    1    2    0    0  0.11812599907E+01 -0.18006274525E+02 -0.50063774674E+01  0.72461411609E+02  0.69999793283E+02 0.  0.
         12    1    1    2    0    0 -0.11812599907E+01  0.18006274525E+02  0.50063774674E+01  0.18726588391E+02  0.00000000000E+00 0. -1.
         11    1    3    3    0    0 -0.14030700552E+02  0.44575234380E+01  0.22361543562E+02  0.26772536374E+02  0.51100000000E-03 0.  1.
        -11    1    3    3    0    0 -0.44056543202E+01 -0.29232192552E+01 -0.13953220257E+02  0.14921372478E+02  0.51100000000E-03 0. -1.
        -12    1    3    3    0    0  0.19617614863E+02 -0.19540578707E+02 -0.13414700772E+02  0.30767502757E+02  0.00000000000E+00 0.  1.
</event>
<event>
 7    1  0.3189267E-013  0.7246158E+02  0.7816164E-02  0.1226708E+00
        -11   -1    0    0    0    0  0.00000000000E+00  0.00000000000E+00  0.45593999997E+02  0.45594000000E+02  0.51100000000E-03 0.  1.
         11   -1    0    0    0    0 -0.00000000000E+00 -0.00000000000E+00 -0.45593999997E+02  0.45594000000E+02  0.51100000000E-03 0. -1.
    9900012    2    1    2    0    0  0.15029829360E+02 -0.43266666385E+01  0.10298697079E+02  0.72461575453E+02  0.70000006720E+02 0.  0.
         12    1    1    2    0    0 -0.15029829360E+02  0.43266666385E+01 -0.10298697079E+02  0.18726424547E+02  0.00000000000E+00 0. -1.
         11    1    3    3    0    0 -0.11562428984E+02 -0.19057010170E+02  0.10610546384E+02  0.24686901293E+02  0.51100000000E-03 0. -1.
        -11    1    3    3    0    0  0.15121913629E+02  0.49448437871E+01  0.18020411270E+02  0.24038697438E+02  0.51100000000E-03 0.  1.
         12    1    3    3    0    0  0.11470344715E+02  0.97854997445E+01 -0.18332260576E+02  0.23735976722E+02  0.00000000000E+00 0. -1.
</event>
<event>
 7    1  0.3189267E-013  0.7246154E+02  0.7816164E-02  0.1226708E+00
        -11   -1    0    0    0    0  0.00000000000E+00  0.00000000000E+00  0.45593999997E+02  0.45594000000E+02  0.51100000000E-03 0. -1.
         11   -1    0    0    0    0 -0.00000000000E+00 -0.00000000000E+00 -0.45593999997E+02  0.45594000000E+02  0.51100000000E-03 0.  1.
    9900012    2    1    2    0    0 -0.36123268874E+01 -0.11840444612E+02 -0.14051163928E+02  0.72461541662E+02  0.69999962701E+02 0.  0.
         12    1    1    2    0    0  0.36123268874E+01  0.11840444612E+02  0.14051163928E+02  0.18726458338E+02  0.00000000000E+00 0. -1.
         11    1    3    3    0    0 -0.24328781254E+02  0.13160980659E+02 -0.31491085770E+01  0.27839143204E+02  0.51100000000E-03 0. -1.
        -11    1    3    3    0    0  0.17456060078E+02 -0.52545193744E+00 -0.95232284809E+01  0.19891757442E+02  0.51100000000E-03 0.  1.
        -12    1    3    3    0    0  0.32603942891E+01 -0.24475973333E+02 -0.13788268703E+01  0.24730641016E+02  0.00000000000E+00 0.  1.
</event>
<event>
 7    1  0.3189267E-013  0.7246157E+02  0.7816164E-02  0.1226708E+00
        -11   -1    0    0    0    0  0.00000000000E+00  0.00000000000E+00  0.45593999997E+02  0.45594000000E+02  0.51100000000E-03 0. -1.
         11   -1    0    0    0    0 -0.00000000000E+00 -0.00000000000E+00 -0.45593999997E+02  0.45594000000E+02  0.51100000000E-03 0.  1.
    9900012    2    1    2    0    0  0.63934419003E+01 -0.18959837598E+00 -0.17600202764E+02  0.72461569902E+02  0.69999999489E+02 0.  0.
         12    1    1    2    0    0 -0.63934419003E+01  0.18959837598E+00  0.17600202764E+02  0.18726430098E+02  0.00000000000E+00 0. -1.
         11    1    3    3    0    0  0.12359983246E+02 -0.32903138558E+01  0.20588771484E+01  0.12955088826E+02  0.51100000000E-03 0. -1.
        -11    1    3    3    0    0  0.12396027513E+02 -0.10371185234E+02 -0.30321154964E+02  0.34359793653E+02  0.51100000000E-03 0.  1.
         12    1    3    3    0    0 -0.18362568859E+02  0.13471900714E+02  0.10662075051E+02  0.25146687423E+02  0.00000000000E+00 0. -1.
</event>
<event>
 7    1  0.3189267E-013  0.7246160E+02  0.7816164E-02  0.1226708E+00
        -11   -1    0    0    0    0  0.00000000000E+00  0.00000000000E+00  0.45593999997E+02  0.45594000000E+02  0.51100000000E-03 0. -1.
         11   -1    0    0    0    0 -0.00000000000E+00 -0.00000000000E+00 -0.45593999997E+02  0.45594000000E+02  0.51100000000E-03 0.  1.
    9900012    2    1    2    0    0  0.68936103251E+01  0.11509362292E+02 -0.13064867096E+02  0.72461600561E+02  0.70000039428E+02 0.  0.
         12    1    1    2    0    0 -0.68936103251E+01 -0.11509362292E+02  0.13064867096E+02  0.18726399439E+02  0.00000000000E+00 0. -1.
         11    1    3    3    0    0 -0.24203379844E+02  0.10977776065E+02 -0.11019501875E+02  0.28770550656E+02  0.51100000000E-03 0. -1.
        -11    1    3    3    0    0  0.52883391335E+01  0.12666254066E+02 -0.58476588144E+01  0.14919639296E+02  0.51100000000E-03 0.  1.
         12    1    3    3    0    0  0.25808651036E+02 -0.12134667839E+02  0.38022935924E+01  0.28771410609E+02  0.00000000000E+00 0. -1.
</event>
<event>
 7    1  0.3189267E-013  0.7246153E+02  0.7816164E-02  0.1226708E+00
        -11   -1    0    0    0    0  0.00000000000E+00  0.00000000000E+00  0.45593999997E+02  0.45594000000E+02  0.51100000000E-03 0.  1.
         11   -1    0    0    0    0 -0.00000000000E+00 -0.00000000000E+00 -0.45593999997E+02  0.45594000000E+02  0.51100000000E-03 0. -1.
    9900012    2    1    2    0    0 -0.47523284826E+01  0.16413142389E+02  0.76619014935E+01  0.72461532004E+02  0.69999950120E+02 0.  0.
         12    1    1    2    0    0  0.47523284826E+01 -0.16413142389E+02 -0.76619014935E+01  0.18726467996E+02  0.00000000000E+00 0. -1.
         11    1    3    3    0    0 -0.76966956959E+01  0.22462823081E+02  0.76164072963E+01  0.24936463377E+02  0.51100000000E-03 0. -1.
        -11    1    3    3    0    0  0.20833810309E+02 -0.21315873708E+01  0.13397238744E+02  0.24861160933E+02  0.51100000000E-03 0.  1.
         12    1    3    3    0    0 -0.17889443095E+02 -0.39180933209E+01 -0.13351744547E+02  0.22663907694E+02  0.00000000000E+00 0. -1.
</event>
<event>
 7    1  0.3189267E-013  0.7246161E+02  0.7816164E-02  0.1226708E+00
        -11   -1    0    0    0    0  0.00000000000E+00  0.00000000000E+00  0.45593999997E+02  0.45594000000E+02  0.51100000000E-03 0.  1.
         11   -1    0    0    0    0 -0.00000000000E+00 -0.00000000000E+00 -0.45593999997E+02  0.45594000000E+02  0.51100000000E-03 0. -1.
    9900012    2    1    2    0    0 -0.15146352760E+02 -0.10195572849E+02  0.41612618070E+01  0.72461606662E+02  0.70000047375E+02 0.  0.
         12    1    1    2    0    0  0.15146352760E+02  0.10195572849E+02 -0.41612618070E+01  0.18726393338E+02  0.00000000000E+00 0. -1.
         11    1    3    3    0    0 -0.66176353599E+01 -0.17669116178E+02  0.25393621310E+02  0.31635846247E+02  0.51100000000E-03 0. -1.
        -11    1    3    3    0    0  0.15479396933E+01 -0.12307332715E+02 -0.52402677012E+01  0.13465770000E+02  0.51100000000E-03 0.  1.
         12    1    3    3    0    0 -0.10076657093E+02  0.19780876044E+02 -0.15992091802E+02  0.27359990414E+02  0.00000000000E+00 0. -1.
</event>
<event>
 7    1  0.3189267E-013  0.7246157E+02  0.7816164E-02  0.1226708E+00
        -11   -1    0    0    0    0  0.00000000000E+00  0.00000000000E+00  0.45593999997E+02  0.45594000000E+02  0.51100000000E-03 0.  1.
         11   -1    0    0    0    0 -0.00000000000E+00 -0.00000000000E+00 -0.45593999997E+02  0.45594000000E+02  0.51100000000E-03 0. -1.
    9900012    2    1    2    0    0 -0.85480889406E+01 -0.11564072816E+02  0.11995064437E+02  0.72461570135E+02  0.69999999793E+02 0.  0.
         12    1    1    2    0    0  0.85480889406E+01  0.11564072816E+02 -0.11995064437E+02  0.18726429865E+02  0.00000000000E+00 0. -1.
         11    1    3    3    0    0 -0.10496817377E+02 -0.15755228597E+02 -0.15132294239E+02  0.24236268945E+02  0.51100000000E-03 0. -1.
        -11    1    3    3    0    0 -0.15212657428E+02 -0.92041320339E+01  0.91770142983E+01  0.20008962597E+02  0.51100000000E-03 0.  1.
        -12    1    3    3    0    0  0.17161385864E+02  0.13395287814E+02  0.17950344377E+02  0.28216338594E+02  0.00000000000E+00 0.  1.
</event>
<event>
 7    1  0.3227778E-013  0.7246152E+02  0.7816164E-02  0.1226708E+00
        -11   -1    0    0    0    0  0.00000000000E+00  0.00000000000E+00  0.45593999997E+02  0.45594000000E+02  0.51100000000E-03 0. -1.
         11   -1    0    0    0    0 -0.00000000000E+00 -0.00000000000E+00 -0.45593999997E+02  0.45594000000E+02  0.51100000000E-03 0.  1.
    9900012    2    1    2    0    0 -0.12072948526E+01 -0.27504480224E+01 -0.18484006242E+02  0.72461521101E+02  0.69999935917E+02 0.  0.
         12    1    1    2    0    0  0.12072948526E+01  0.27504480224E+01  0.18484006242E+02  0.18726478899E+02  0.00000000000E+00 0. -1.
         11    1    3    3    0    0 -0.14897804515E+02  0.29367811166E+01  0.16936003819E+02  0.22746373080E+02  0.51100000000E-03 0. -1.
        -11    1    3    3    0    0  0.45102567961E+01 -0.36613884751E+01  0.53365361915E+01  0.78883965872E+01  0.51100000000E-03 0.  1.
        -12    1    3    3    0    0  0.91802528665E+01 -0.20258406639E+01 -0.40756546252E+02  0.41826751434E+02  0.00000000000E+00 0.  1.
</event>
<event>
 7    1  0.3189267E-013  0.7246160E+02  0.7816164E-02  0.1226708E+00
        -11   -1    0    0    0    0  0.00000000000E+00  0.00000000000E+00  0.45593999997E+02  0.45594000000E+02  0.51100000000E-03 0.  1.
         11   -1    0    0    0    0 -0.00000000000E+00 -0.00000000000E+00 -0.45593999997E+02  0.45594000000E+02  0.51100000000E-03 0. -1.
    9900012    2    1    2    0    0 -0.16760615869E+02  0.25187439499E+01  0.79634113916E+01  0.72461595209E+02  0.70000032456E+02 0.  0.
         12    1    1    2    0    0  0.16760615869E+02 -0.25187439499E+01 -0.79634113916E+01  0.18726404791E+02  0.00000000000E+00 0. -1.
         11    1    3    3    0    0 -0.66357399250E+01 -0.36563415256E+01  0.32211626389E+01  0.82327253514E+01  0.51100000000E-03 0. -1.
        -11    1    3    3    0    0 -0.25413030304E+02  0.11928457370E+02  0.25423746090E+02  0.37874491019E+02  0.51100000000E-03 0.  1.
         12    1    3    3    0    0  0.15288154360E+02 -0.57533718950E+01 -0.20681497337E+02  0.26354378839E+02  0.00000000000E+00 0. -1.
</event>
<event>
 7    1  0.3189267E-013  0.7246154E+02  0.7816164E-02  0.1226708E+00
        -11   -1    0    0    0    0  0.00000000000E+00  0.00000000000E+00  0.45593999997E+02  0.45594000000E+02  0.51100000000E-03 0.  1.
         11   -1    0    0    0    0 -0.00000000000E+00 -0.00000000000E+00 -0.45593999997E+02  0.45594000000E+02  0.51100000000E-03 0. -1.
    9900012    2    1    2    0    0 -0.91880556991E+01 -0.14129199373E+02 -0.81624646055E+01  0.72461535548E+02  0.69999954736E+02 0.  0.
         12    1    1    2    0    0  0.91880556991E+01  0.14129199373E+02  0.81624646055E+01  0.18726464452E+02  0.00000000000E+00 0. -1.
         11    1    3    3    0    0 -0.12957021691E+01  0.19036589604E+01 -0.24611359356E+02  0.24718854569E+02  0.51100000000E-03 0. -1.
        -11    1    3    3    0    0 -0.55648035552E+01 -0.25323016208E+01 -0.13494080095E+02  0.14814512748E+02  0.51100000000E-03 0.  1.
        -12    1    3    3    0    0 -0.23275499747E+01 -0.13500556712E+02  0.29942974846E+02  0.32928168231E+02  0.00000000000E+00 0.  1.
</event>
<event>
 7    1  0.3189267E-013  0.7246148E+02  0.7816164E-02  0.1226708E+00
        -11   -1    0    0    0    0  0.00000000000E+00  0.00000000000E+00  0.45593999997E+02  0.45594000000E+02  0.51100000000E-03 0.  1.
         11   -1    0    0    0    0 -0.00000000000E+00 -0.00000000000E+00 -0.45593999997E+02  0.45594000000E+02  0.51100000000E-03 0. -1.
    9900012    2    1    2    0    0  0.13001342847E+02 -0.76332508505E+01  0.11107712773E+02  0.72461475565E+02  0.69999876597E+02 0.  0.
         12    1    1    2    0    0 -0.13001342847E+02  0.76332508505E+01 -0.11107712773E+02  0.18726524435E+02  0.00000000000E+00 0. -1.
         11    1    3    3    0    0 -0.38173716334E+01  0.10580019590E+01 -0.27344536489E+01  0.48134116125E+01  0.51100000000E-03 0. -1.
        -11    1    3    3    0    0 -0.16026037305E+02 -0.14580530169E+02  0.24417167152E+02  0.32643893514E+02  0.51100000000E-03 0.  1.
        -12    1    3    3    0    0  0.32844751785E+02  0.58892773600E+01 -0.10575000731E+02  0.35004170439E+02  0.00000000000E+00 0.  1.
</event>
<event>
 7    1  0.3189267E-013  0.7246149E+02  0.7816164E-02  0.1226708E+00
        -11   -1    0    0    0    0  0.00000000000E+00  0.00000000000E+00  0.45593999997E+02  0.45594000000E+02  0.51100000000E-03 0.  1.
         11   -1    0    0    0    0 -0.00000000000E+00 -0.00000000000E+00 -0.45593999997E+02  0.45594000000E+02  0.51100000000E-03 0. -1.
    9900012    2    1    2    0    0 -0.42733675296E+01  0.10652452332E+02  0.14796815865E+02  0.72461490168E+02  0.69999895621E+02 0.  0.
         12    1    1    2    0    0  0.42733675296E+01 -0.10652452332E+02 -0.14796815865E+02  0.18726509832E+02  0.00000000000E+00 0. -1.
         11    1    3    3    0    0  0.75766877968E+01  0.10058837697E+02  0.32691313293E+01  0.13010520116E+02  0.51100000000E-03 0. -1.
        -11    1    3    3    0    0  0.18118545835E+02  0.34628609798E+01  0.20941970789E+02  0.27907691595E+02  0.51100000000E-03 0.  1.
         12    1    3    3    0    0 -0.29968601161E+02 -0.28692463449E+01 -0.94142862534E+01  0.31543278457E+02  0.00000000000E+00 0. -1.
</event>
<event>
 7    1  0.3189267E-013  0.7246169E+02  0.7816164E-02  0.1226708E+00
        -11   -1    0    0    0    0  0.00000000000E+00  0.00000000000E+00  0.45593999997E+02  0.45594000000E+02  0.51100000000E-03 0.  1.
         11   -1    0    0    0    0 -0.00000000000E+00 -0.00000000000E+00 -0.45593999997E+02  0.45594000000E+02  0.51100000000E-03 0. -1.
    9900012    2    1    2    0    0  0.11734135586E+02 -0.13448213626E+02  0.56683602806E+01  0.72461689740E+02  0.70000155600E+02 0.  0.
         12    1    1    2    0    0 -0.11734135586E+02  0.13448213626E+02 -0.56683602806E+01  0.18726310260E+02  0.00000000000E+00 0. -1.
         11    1    3    3    0    0  0.21201320317E+02  0.20291384173E+02 -0.62073743490E+01  0.29996128940E+02  0.51100000000E-03 0. -1.
        -11    1    3    3    0    0  0.76377004570E+00  0.26099416595E+01 -0.42132584637E+00  0.27518459039E+01  0.51100000000E-03 0.  1.
        -12    1    3    3    0    0 -0.10230954776E+02 -0.36349539458E+02  0.12297060476E+02  0.39713714896E+02  0.00000000000E+00 0.  1.
</event>
<event>
 7    1  0.3189267E-013  0.7246152E+02  0.7816164E-02  0.1226708E+00
        -11   -1    0    0    0    0  0.00000000000E+00  0.00000000000E+00  0.45593999997E+02  0.45594000000E+02  0.51100000000E-03 0.  1.
         11   -1    0    0    0    0 -0.00000000000E+00 -0.00000000000E+00 -0.45593999997E+02  0.45594000000E+02  0.51100000000E-03 0. -1.
    9900012    2    1    2    0    0  0.17065038845E+02  0.38044794591E+01  0.67075747663E+01  0.72461516775E+02  0.69999930281E+02 0.  0.
         12    1    1    2    0    0 -0.17065038845E+02 -0.38044794591E+01 -0.67075747663E+01  0.18726483225E+02  0.00000000000E+00 0. -1.
         11    1    3    3    0    0 -0.48045539280E+01 -0.46646058447E+01  0.15394477229E+02  0.16787859171E+02  0.51100000000E-03 0. -1.
        -11    1    3    3    0    0  0.27488972674E+02 -0.21716805178E+01  0.13295928977E+02  0.30612767639E+02  0.51100000000E-03 0.  1.
         12    1    3    3    0    0 -0.56193799010E+01  0.10640765822E+02 -0.21982831439E+02  0.25060889965E+02  0.00000000000E+00 0. -1.
</event>
<event>
 7    1  0.3189267E-013  0.7246150E+02  0.7816164E-02  0.1226708E+00
        -11   -1    0    0    0    0  0.00000000000E+00  0.00000000000E+00  0.45593999997E+02  0.45594000000E+02  0.51100000000E-03 0. -1.
         11   -1    0    0    0    0 -0.00000000000E+00 -0.00000000000E+00 -0.45593999997E+02  0.45594000000E+02  0.51100000000E-03 0.  1.
    9900012    2    1    2    0    0  0.28704228314E+01 -0.15423128734E+02 -0.10225933421E+02  0.72461496282E+02  0.69999903585E+02 0.  0.
         12    1    1    2    0    0 -0.28704228314E+01  0.15423128734E+02  0.10225933421E+02  0.18726503718E+02  0.00000000000E+00 0. -1.
         11    1    3    3    0    0 -0.21629427107E+02 -0.43090862021E+01 -0.32354658302E-01  0.22054509470E+02  0.51100000000E-03 0. -1.
        -11    1    3    3    0    0  0.16452219320E+02  0.27991249509E+01  0.13712779677E+02  0.21599790457E+02  0.51100000000E-03 0.  1.
        -12    1    3    3    0    0  0.80476306188E+01 -0.13913167483E+02 -0.23906358440E+02  0.28807196355E+02  0.00000000000E+00 0.  1.
</event>
<event>
 7    1  0.3189267E-013  0.7246156E+02  0.7816164E-02  0.1226708E+00
        -11   -1    0    0    0    0  0.00000000000E+00  0.00000000000E+00  0.45593999997E+02  0.45594000000E+02  0.51100000000E-03 0. -1.
         11   -1    0    0    0    0 -0.00000000000E+00 -0.00000000000E+00 -0.45593999997E+02  0.45594000000E+02  0.51100000000E-03 0.  1.
    9900012    2    1    2    0    0  0.10878229824E+02  0.31131896973E+01 -0.14921515974E+02  0.72461562187E+02  0.69999989438E+02 0.  0.
         12    1    1    2    0    0 -0.10878229824E+02 -0.31131896973E+01  0.14921515974E+02  0.18726437813E+02  0.00000000000E+00 0. -1.
         11    1    3    3    0    0  0.12137214116E+02  0.70624985093E+01 -0.35870921887E+00  0.14047046816E+02  0.51100000000E-03 0. -1.
        -11    1    3    3    0    0  0.11657301420E+02 -0.19024489534E+02 -0.26971192187E+02  0.35003843885E+02  0.51100000000E-03 0.  1.
         12    1    3    3    0    0 -0.12916285712E+02  0.15075180722E+02  0.12408385432E+02  0.23410671486E+02  0.00000000000E+00 0. -1.
</event>
<event>
 7    1  0.3189267E-013  0.7246157E+02  0.7816164E-02  0.1226708E+00
        -11   -1    0    0    0    0  0.00000000000E+00  0.00000000000E+00  0.45593999997E+02  0.45594000000E+02  0.51100000000E-03 0. -1.
         11   -1    0    0    0    0 -0.00000000000E+00 -0.00000000000E+00 -0.45593999997E+02  0.45594000000E+02  0.51100000000E-03 0.  1.
    9900012    2    1    2    0    0  0.48772367985E+01  0.16711820870E+02 -0.68997707264E+01  0.72461568636E+02  0.69999997839E+02 0.  0.
         12    1    1    2    0    0 -0.48772367985E+01 -0.16711820870E+02  0.68997707264E+01  0.18726431364E+02  0.00000000000E+00 0. -1.
         11    1    3    3    0    0  0.39803561345E+01  0.24908950929E+02 -0.39422017749E+01  0.25531157954E+02  0.51100000000E-03 0. -1.
        -11    1    3    3    0    0 -0.13108606705E+01  0.17735071234E+02 -0.94055580389E+01  0.20117545319E+02  0.51100000000E-03 0.  1.
         12    1    3    3    0    0  0.22077413345E+01 -0.25932201293E+02  0.64479890873E+01  0.26812865363E+02  0.00000000000E+00 0. -1.
</event>
<event>
 7    1  0.3189267E-013  0.7246150E+02  0.7816164E-02  0.1226708E+00
        -11   -1    0    0    0    0  0.00000000000E+00  0.00000000000E+00  0.45593999997E+02  0.45594000000E+02  0.51100000000E-03 0.  1.
         11   -1    0    0    0    0 -0.00000000000E+00 -0.00000000000E+00 -0.45593999997E+02  0.45594000000E+02  0.51100000000E-03 0. -1.
    9900012    2    1    2    0    0 -0.16415034839E+02  0.89230931815E+01 -0.12676781712E+01  0.72461495557E+02  0.69999902641E+02 0.  0.
         12    1    1    2    0    0  0.16415034839E+02 -0.89230931815E+01  0.12676781712E+01  0.18726504443E+02  0.00000000000E+00 0. -1.
         11    1    3    3    0    0 -0.75933680678E+01  0.16281862903E+02  0.14956410296E+01  0.18027624373E+02  0.51100000000E-03 0. -1.
        -11    1    3    3    0    0 -0.31045871045E+02 -0.17321361930E+01  0.14348571177E+01  0.31127242409E+02  0.51100000000E-03 0.  1.
        -12    1    3    3    0    0  0.22224204274E+02 -0.56266335283E+01 -0.41981763186E+01  0.23306628775E+02  0.00000000000E+00 0.  1.
</event>
<event>
 7    1  0.3189267E-013  0.7246155E+02  0.7816164E-02  0.1226708E+00
        -11   -1    0    0    0    0  0.00000000000E+00  0.00000000000E+00  0.45593999997E+02  0.45594000000E+02  0.51100000000E-03 0. -1.
         11   -1    0    0    0    0 -0.00000000000E+00 -0.00000000000E+00 -0.45593999997E+02  0.45594000000E+02  0.51100000000E-03 0.  1.
    9900012    2    1    2    0    0 -0.30145737009E+01  0.11385365396E+02 -0.14559037675E+02  0.72461554052E+02  0.69999978842E+02 0.  0.
         12    1    1    2    0    0  0.30145737009E+01 -0.11385365396E+02  0.14559037675E+02  0.18726445948E+02  0.00000000000E+00 0. -1.
         11    1    3    3    0    0 -0.45350301678E+01 -0.46874364570E+01 -0.13482217950E+02  0.14976940952E+02  0.51100000000E-03 0. -1.
        -11    1    3    3    0    0  0.37781059794E+01 -0.17850541537E+02 -0.11925202670E+02  0.21797393811E+02  0.51100000000E-03 0.  1.
         12    1    3    3    0    0 -0.22576495125E+01  0.33923343391E+02  0.10848382945E+02  0.35687219290E+02  0.00000000000E+00 0. -1.
</event>
<event>
 7    1  0.3189267E-013  0.7246154E+02  0.7816164E-02  0.1226708E+00
        -11   -1    0    0    0    0  0.00000000000E+00  0.00000000000E+00  0.45593999997E+02  0.45594000000E+02  0.51100000000E-03 0. -1.
         11   -1    0    0    0    0 -0.00000000000E+00 -0.00000000000E+00 -0.45593999997E+02  0.45594000000E+02  0.51100000000E-03 0.  1.
    9900012    2    1    2    0    0 -0.16404459976E+02 -0.88649079484E+01 -0.17284192356E+01  0.72461539227E+02  0.69999959529E+02 0.  0.
         12    1    1    2    0    0  0.16404459976E+02  0.88649079484E+01  0.17284192356E+01  0.18726460773E+02  0.00000000000E+00 0. -1.
         11    1    3    3    0    0  0.39950371433E+01  0.32663326261E+01  0.96153555748E+01  0.10912575942E+02  0.51100000000E-03 0. -1.
        -11    1    3    3    0    0 -0.10414858485E+02 -0.23042317411E+02  0.16378860077E+02  0.30127806535E+02  0.51100000000E-03 0.  1.
         12    1    3    3    0    0 -0.99846386337E+01  0.10911076836E+02 -0.27722634888E+02  0.31421156750E+02  0.00000000000E+00 0. -1.
</event>
<event>
 7    1  0.3189267E-013  0.7246155E+02  0.7816164E-02  0.1226708E+00
        -11   -1    0    0    0    0  0.00000000000E+00  0.00000000000E+00  0.45593999997E+02  0.45594000000E+02  0.51100000000E-03 0.  1.
         11   -1    0    0    0    0 -0.00000000000E+00 -0.00000000000E+00 -0.45593999997E+02  0.45594000000E+02  0.51100000000E-03 0. -1.
    9900012    2    1    2    0    0  0.42900990296E+00 -0.18509663538E+02 -0.28086195246E+01  0.72461547121E+02  0.69999969813E+02 0.  0.
         12    1    1    2    0    0 -0.42900990296E+00  0.18509663538E+02  0.28086195246E+01  0.18726452879E+02  0.00000000000E+00 0. -1.
         11    1    3    3    0    0  0.10589437250E+02 -0.27608284149E+02 -0.83600147400E+01  0.30728543435E+02  0.51100000000E-03 0. -1.
        -11    1    3    3    0    0  0.80606777077E+01  0.12140024460E+02 -0.99270275038E+01  0.17632373474E+02  0.51100000000E-03 0.  1.
        -12    1    3    3    0    0 -0.18221105055E+02 -0.30414038491E+01  0.15478422719E+02  0.24100630213E+02  0.00000000000E+00 0.  1.
</event>
<event>
 7    1  0.3189267E-013  0.7246166E+02  0.7816164E-02  0.1226708E+00
        -11   -1    0    0    0    0  0.00000000000E+00  0.00000000000E+00  0.45593999997E+02  0.45594000000E+02  0.51100000000E-03 0. -1.
         11   -1    0    0    0    0 -0.00000000000E+00 -0.00000000000E+00 -0.45593999997E+02  0.45594000000E+02  0.51100000000E-03 0.  1.
    9900012    2    1    2    0    0  0.79976228405E+00 -0.45654168655E+01 -0.18143682115E+02  0.72461658885E+02  0.70000115406E+02 0.  0.
         12    1    1    2    0    0 -0.79976228405E+00  0.45654168655E+01  0.18143682115E+02  0.18726341115E+02  0.00000000000E+00 0. -1.
         11    1    3    3    0    0  0.20714543285E+01  0.20779359001E+00  0.96395275998E+00  0.22941897035E+01  0.51100000000E-03 0. -1.
        -11    1    3    3    0    0  0.23228804031E+02  0.21067502727E+02 -0.45092363022E+01  0.31682017299E+02  0.51100000000E-03 0.  1.
         12    1    3    3    0    0 -0.24500496075E+02 -0.25840713182E+02 -0.14598398573E+02  0.38485451882E+02  0.00000000000E+00 0. -1.
</event>
<event>
 7    1  0.3189267E-013  0.7246157E+02  0.7816164E-02  0.1226708E+00
        -11   -1    0    0    0    0  0.00000000000E+00  0.00000000000E+00  0.45593999997E+02  0.45594000000E+02  0.51100000000E-03 0.  1.
         11   -1    0    0    0    0 -0.00000000000E+00 -0.00000000000E+00 -0.45593999997E+02  0.45594000000E+02  0.51100000000E-03 0. -1.
    9900012    2    1    2    0    0 -0.56127989020E+01 -0.27952251452E+01  0.17645466001E+02  0.72461567731E+02  0.69999996661E+02 0.  0.
         12    1    1    2    0    0  0.56127989020E+01  0.27952251452E+01 -0.17645466001E+02  0.18726432269E+02  0.00000000000E+00 0. -1.
         11    1    3    3    0    0  0.24866714965E+02 -0.65921150549E+01 -0.28109718529E+01  0.25878776189E+02  0.51100000000E-03 0. -1.
        -11    1    3    3    0    0  0.12378938829E+01  0.24713850811E+01  0.13894277513E+02  0.14166547686E+02  0.51100000000E-03 0.  1.
        -12    1    3    3    0    0 -0.31717407749E+02  0.13255048285E+01  0.65621603412E+01  0.32416243856E+02  0.00000000000E+00 0.  1.
</event>
<event>
 7    1  0.3189267E-013  0.7246154E+02  0.7816164E-02  0.1226708E+00
        -11   -1    0    0    0    0  0.00000000000E+00  0.00000000000E+00  0.45593999997E+02  0.45594000000E+02  0.51100000000E-03 0.  1.
         11   -1    0    0    0    0 -0.00000000000E+00 -0.00000000000E+00 -0.45593999997E+02  0.45594000000E+02  0.51100000000E-03 0. -1.
    9900012    2    1    2    0    0 -0.10645668211E+02 -0.15095205678E+02  0.30797680006E+01  0.72461535917E+02  0.69999955217E+02 0.  0.
         12    1    1    2    0    0  0.10645668211E+02  0.15095205678E+02 -0.30797680006E+01  0.18726464083E+02  0.00000000000E+00 0. -1.
         11    1    3    3    0    0 -0.19338358075E+02 -0.27706242479E+02 -0.75271675714E+01  0.34615982107E+02  0.51100000000E-03 0. -1.
        -11    1    3    3    0    0  0.10741858483E+02 -0.49029299675E+01  0.15556852773E+02  0.19530537995E+02  0.51100000000E-03 0.  1.
         12    1    3    3    0    0 -0.20491686189E+01  0.17513966768E+02 -0.49499172010E+01  0.18315015814E+02  0.00000000000E+00 0. -1.
</event>
<event>
 7    1  0.3189267E-013  0.7246155E+02  0.7816164E-02  0.1226708E+00
        -11   -1    0    0    0    0  0.00000000000E+00  0.00000000000E+00  0.45593999997E+02  0.45594000000E+02  0.51100000000E-03 0.  1.
         11   -1    0    0    0    0 -0.00000000000E+00 -0.00000000000E+00 -0.45593999997E+02  0.45594000000E+02  0.51100000000E-03 0. -1.
    9900012    2    1    2    0    0 -0.10910388400E+02  0.13965648683E+02 -0.60501114840E+01  0.72461554338E+02  0.69999979214E+02 0.  0.
         12    1    1    2    0    0  0.10910388400E+02 -0.13965648683E+02  0.60501114840E+01  0.18726445662E+02  0.00000000000E+00 0. -1.
         11    1    3    3    0    0  0.24854202268E+01  0.72769096218E+00 -0.80799582839E+01  0.84848437800E+01  0.51100000000E-03 0. -1.
        -11    1    3    3    0    0 -0.16935145585E+02  0.12740202333E+02 -0.27226926185E+02  0.34502426309E+02  0.51100000000E-03 0.  1.
        -12    1    3    3    0    0  0.35393369591E+01  0.49775538749E+00  0.29256772984E+02  0.29474284249E+02  0.00000000000E+00 0.  1.
</event>
<event>
 7    1  0.3189267E-013  0.7246153E+02  0.7816164E-02  0.1226708E+00
        -11   -1    0    0    0    0  0.00000000000E+00  0.00000000000E+00  0.45593999997E+02  0.45594000000E+02  0.51100000000E-03 0.  1.
         11   -1    0    0    0    0 -0.00000000000E+00 -0.00000000000E+00 -0.45593999997E+02  0.45594000000E+02  0.51100000000E-03 0. -1.
    9900012    2    1    2    0    0  0.13124019648E+02  0.33680199341E+01  0.12926606084E+02  0.72461532238E+02  0.69999950424E+02 0.  0.
         12    1    1    2    0    0 -0.13124019648E+02 -0.33680199341E+01 -0.12926606084E+02  0.18726467762E+02  0.00000000000E+00 0. -1.
         11    1    3    3    0    0  0.26931074954E+01 -0.38715073731E+01  0.62987299026E+01  0.78686336786E+01  0.51100000000E-03 0. -1.
        -11    1    3    3    0    0  0.25773455281E+02 -0.15706178682E+02  0.17543624406E+02  0.34910368137E+02  0.51100000000E-03 0.  1.
         12    1    3    3    0    0 -0.15342543128E+02  0.22945705989E+02 -0.10915748224E+02  0.29682530422E+02  0.00000000000E+00 0. -1.
</event>
<event>
 7    1  0.3189267E-013  0.7246159E+02  0.7816164E-02  0.1226708E+00
        -11   -1    0    0    0    0  0.00000000000E+00  0.00000000000E+00  0.45593999997E+02  0.45594000000E+02  0.51100000000E-03 0.  1.
         11   -1    0    0    0    0 -0.00000000000E+00 -0.00000000000E+00 -0.45593999997E+02  0.45594000000E+02  0.51100000000E-03 0. -1.
    9900012    2    1    2    0    0 -0.11677846148E+01 -0.45603926804E+00  0.18684398020E+02  0.72461590251E+02  0.70000025997E+02 0.  0.
         12    1    1    2    0    0  0.11677846148E+01  0.45603926804E+00 -0.18684398020E+02  0.18726409749E+02  0.00000000000E+00 0. -1.
         11    1    3    3    0    0  0.18663628355E+02 -0.10433815870E+02 -0.12203396956E+02  0.24619472669E+02  0.51100000000E-03 0. -1.
        -11    1    3    3    0    0  0.22205876614E+01 -0.55564574191E+01 -0.10096399950E+01  0.60683277592E+01  0.51100000000E-03 0.  1.
        -12    1    3    3    0    0 -0.22052000631E+02  0.15534234021E+02  0.31897434971E+02  0.41773789823E+02  0.00000000000E+00 0.  1.
</event>
<event>
 7    1  0.3189267E-013  0.7246149E+02  0.7816164E-02  0.1226708E+00
        -11   -1    0    0    0    0  0.00000000000E+00  0.00000000000E+00  0.45593999997E+02  0.45594000000E+02  0.51100000000E-03 0.  1.
         11   -1    0    0    0    0 -0.00000000000E+00 -0.00000000000E+00 -0.45593999997E+02  0.45594000000E+02  0.51100000000E-03 0. -1.
    9900012    2    1    2    0    0  0.13318891745E+02  0.71867348013E+01  0.11029064132E+02  0.72461486976E+02  0.69999891462E+02 0.  0.
         12    1    1    2    0    0 -0.13318891745E+02 -0.71867348013E+01 -0.11029064132E+02  0.18726513024E+02  0.00000000000E+00 0. -1.
         11    1    3    3    0    0  0.27411970326E+01 -0.89981154486E+01 -0.92537551557E+01  0.13195159247E+02  0.51100000000E-03 0. -1.
        -11    1    3    3    0    0  0.58605780034E+00 -0.80943883945E+01 -0.13941414890E+02  0.16131510674E+02  0.51100000000E-03 0.  1.
        -12    1    3    3    0    0  0.99916369118E+01  0.24279238644E+02  0.34224234178E+02  0.43134817055E+02  0.00000000000E+00 0.  1.
</event>
<event>
 7    1  0.3189267E-013  0.7246155E+02  0.7816164E-02  0.1226708E+00
        -11   -1    0    0    0    0  0.00000000000E+00  0.00000000000E+00  0.45593999997E+02  0.45594000000E+02  0.51100000000E-03 0.  1.
         11   -1    0    0    0    0 -0.00000000000E+00 -0.00000000000E+00 -0.45593999997E+02  0.45594000000E+02  0.51100000000E-03 0. -1.
    9900012    2    1    2    0    0 -0.48625040674E+01 -0.17688201884E+02 -0.37634246502E+01  0.72461553546E+02  0.69999978182E+02 0.  0.
         12    1    1    2    0    0  0.48625040674E+01  0.17688201884E+02  0.37634246502E+01  0.18726446454E+02  0.00000000000E+00 0. -1.
         11    1    3    3    0    0  0.52889118355E+01 -0.22712303116E+02 -0.48159863469E+01  0.23812077314E+02  0.51100000000E-03 0. -1.
        -11    1    3    3    0    0  0.12782015889E+02 -0.11677613556E+02  0.85437692764E+01  0.19306542473E+02  0.51100000000E-03 0.  1.
         12    1    3    3    0    0 -0.22933431792E+02  0.16701714787E+02 -0.74912075796E+01  0.29342933759E+02  0.00000000000E+00 0. -1.
</event>
<event>
 7    1  0.3189267E-013  0.7246152E+02  0.7816164E-02  0.1226708E+00
        -11   -1    0    0    0    0  0.00000000000E+00  0.00000000000E+00  0.45593999997E+02  0.45594000000E+02  0.51100000000E-03 0.  1.
         11   -1    0    0    0    0 -0.00000000000E+00 -0.00000000000E+00 -0.45593999997E+02  0.45594000000E+02  0.51100000000E-03 0. -1.
    9900012    2    1    2    0    0  0.11447197231E+02  0.96086707398E+01  0.11283443978E+02  0.72461521798E+02  0.69999936825E+02 0.  0.
         12    1    1    2    0    0 -0.11447197231E+02 -0.96086707398E+01 -0.11283443978E+02  0.18726478202E+02  0.00000000000E+00 0. -1.
         11    1    3    3    0    0  0.71407734004E+01 -0.56896826464E+01  0.13035273438E+02  0.15914819736E+02  0.51100000000E-03 0. -1.
        -11    1    3    3    0    0  0.23490920441E+02  0.28493696547E+01  0.15160356426E+02  0.28103000869E+02  0.51100000000E-03 0.  1.
         12    1    3    3    0    0 -0.19184496611E+02  0.12448983732E+02 -0.16912185886E+02  0.28443701194E+02  0.00000000000E+00 0. -1.
</event>
<event>
 7    1  0.3189267E-013  0.7246154E+02  0.7816164E-02  0.1226708E+00
        -11   -1    0    0    0    0  0.00000000000E+00  0.00000000000E+00  0.45593999997E+02  0.45594000000E+02  0.51100000000E-03 0. -1.
         11   -1    0    0    0    0 -0.00000000000E+00 -0.00000000000E+00 -0.45593999997E+02  0.45594000000E+02  0.51100000000E-03 0.  1.
    9900012    2    1    2    0    0  0.32633374387E+01  0.81678225827E+01 -0.16532316993E+02  0.72461542723E+02  0.69999964083E+02 0.  0.
         12    1    1    2    0    0 -0.32633374387E+01 -0.81678225827E+01  0.16532316993E+02  0.18726457277E+02  0.00000000000E+00 0. -1.
         11    1    3    3    0    0  0.45166908801E+01  0.10807857879E+02  0.64150554717E+00  0.11731232589E+02  0.51100000000E-03 0. -1.
        -11    1    3    3    0    0  0.11162174642E+02  0.25291706960E+02 -0.92708358251E+01  0.29158411837E+02  0.51100000000E-03 0.  1.
        -12    1    3    3    0    0 -0.12415528083E+02 -0.27931742256E+02 -0.79029867152E+01  0.31571898297E+02  0.00000000000E+00 0.  1.
</event>
<event>
 7    1  0.3189267E-013  0.7246145E+02  0.7816164E-02  0.1226708E+00
        -11   -1    0    0    0    0  0.00000000000E+00  0.00000000000E+00  0.45593999997E+02  0.45594000000E+02  0.51100000000E-03 0.  1.
         11   -1    0    0    0    0 -0.00000000000E+00 -0.00000000000E+00 -0.45593999997E+02  0.45594000000E+02  0.51100000000E-03 0. -1.
    9900012    2    1    2    0    0 -0.15925935190E+02 -0.98477664854E+01  0.26400059962E+00  0.72461451659E+02  0.69999845456E+02 0.  0.
         12    1    1    2    0    0  0.15925935190E+02  0.98477664854E+01 -0.26400059962E+00  0.18726548341E+02  0.00000000000E+00 0. -1.
         11    1    3    3    0    0  0.36244883510E+01  0.71179739004E+01  0.28868463008E+01  0.84933120795E+01  0.51100000000E-03 0. -1.
        -11    1    3    3    0    0 -0.62276061794E+01  0.20944111954E+02  0.64328022515E+01  0.22777617288E+02  0.51100000000E-03 0.  1.
         12    1    3    3    0    0 -0.13322817362E+02 -0.37909852339E+02 -0.90556479527E+01  0.41190522292E+02  0.00000000000E+00 0. -1.
</event>
<event>
 7    1  0.3189267E-013  0.7246155E+02  0.7816164E-02  0.1226708E+00
        -11   -1    0    0    0    0  0.00000000000E+00  0.00000000000E+00  0.45593999997E+02  0.45594000000E+02  0.51100000000E-03 0.  1.
         11   -1    0    0    0    0 -0.00000000000E+00 -0.00000000000E+00 -0.45593999997E+02  0.45594000000E+02  0.51100000000E-03 0. -1.
    9900012    2    1    2    0    0 -0.20837826485E+01 -0.11070538504E+02  0.14959310845E+02  0.72461549353E+02  0.69999972720E+02 0.  0.
         12    1    1    2    0    0  0.20837826485E+01  0.11070538504E+02 -0.14959310845E+02  0.18726450647E+02  0.00000000000E+00 0. -1.
         11    1    3    3    0    0 -0.48714268556E+01  0.15078150651E+02 -0.50360623307E+01  0.16626585661E+02  0.51100000000E-03 0. -1.
        -11    1    3    3    0    0 -0.10046568075E+02  0.54507189848E+01 -0.60394888056E+01  0.12927462738E+02  0.51100000000E-03 0.  1.
        -12    1    3    3    0    0  0.12834212283E+02 -0.31599408140E+02  0.26034861981E+02  0.42907500954E+02  0.00000000000E+00 0.  1.
</event>
<event>
 7    1  0.3189267E-013  0.7246163E+02  0.7816164E-02  0.1226708E+00
        -11   -1    0    0    0    0  0.00000000000E+00  0.00000000000E+00  0.45593999997E+02  0.45594000000E+02  0.51100000000E-03 0.  1.
         11   -1    0    0    0    0 -0.00000000000E+00 -0.00000000000E+00 -0.45593999997E+02  0.45594000000E+02  0.51100000000E-03 0. -1.
    9900012    2    1    2    0    0  0.41144201939E+01  0.12013653650E+02  0.13763012202E+02  0.72461632695E+02  0.70000081289E+02 0.  0.
         12    1    1    2    0    0 -0.41144201939E+01 -0.12013653650E+02 -0.13763012202E+02  0.18726367305E+02  0.00000000000E+00 0. -1.
         11    1    3    3    0    0 -0.29057509350E+02  0.16966029853E+02  0.11774824808E+01  0.33668553338E+02  0.51100000000E-03 0. -1.
        -11    1    3    3    0    0  0.38031263288E+01  0.43405518208E+01  0.86866989860E+00  0.58359872889E+01  0.51100000000E-03 0.  1.
        -12    1    3    3    0    0  0.29368803215E+02 -0.92929280236E+01  0.11716859822E+02  0.32957092069E+02  0.00000000000E+00 0.  1.
</event>
<event>
 7    1  0.3189267E-013  0.7246166E+02  0.7816164E-02  0.1226708E+00
        -11   -1    0    0    0    0  0.00000000000E+00  0.00000000000E+00  0.45593999997E+02  0.45594000000E+02  0.51100000000E-03 0.  1.
         11   -1    0    0    0    0 -0.00000000000E+00 -0.00000000000E+00 -0.45593999997E+02  0.45594000000E+02  0.51100000000E-03 0. -1.
    9900012    2    1    2    0    0 -0.14287921603E+02 -0.12104458906E+02  0.11542935929E+00  0.72461656174E+02  0.70000111875E+02 0.  0.
         12    1    1    2    0    0  0.14287921603E+02  0.12104458906E+02 -0.11542935929E+00  0.18726343826E+02  0.00000000000E+00 0. -1.
         11    1    3    3    0    0 -0.11672369130E+02  0.20041167401E+02  0.55830613793E+01  0.23855044886E+02  0.51100000000E-03 0. -1.
        -11    1    3    3    0    0  0.37682922133E+01  0.67730325851E+01 -0.48885207056E+01  0.91636036336E+01  0.51100000000E-03 0.  1.
         12    1    3    3    0    0 -0.63838446865E+01 -0.38918658892E+02 -0.57911131438E+00  0.39443007654E+02  0.00000000000E+00 0. -1.
</event>
<event>
 7    1  0.3610688E-013  0.7246155E+02  0.7816164E-02  0.1226708E+00
        -11   -1    0    0    0    0  0.00000000000E+00  0.00000000000E+00  0.45593999997E+02  0.45594000000E+02  0.51100000000E-03 0. -1.
         11   -1    0    0    0    0 -0.00000000000E+00 -0.00000000000E+00 -0.45593999997E+02  0.45594000000E+02  0.51100000000E-03 0.  1.
    9900012    2    1    2    0    0  0.23403945226E+00 -0.89648394554E+01 -0.16439492536E+02  0.72461547166E+02  0.69999969871E+02 0.  0.
         12    1    1    2    0    0 -0.23403945226E+00  0.89648394554E+01  0.16439492536E+02  0.18726452834E+02  0.00000000000E+00 0. -1.
         11    1    3    3    0    0 -0.14348513063E+02 -0.20142667492E+02  0.86874005952E+01  0.26212169124E+02  0.51100000000E-03 0. -1.
        -11    1    3    3    0    0 -0.96410106142E+01  0.33171295058E+01 -0.16433510305E+02  0.19339407825E+02  0.51100000000E-03 0.  1.
        -12    1    3    3    0    0  0.24223563130E+02  0.78606985310E+01 -0.86933828256E+01  0.26909970216E+02  0.00000000000E+00 0.  1.
</event>
<event>
 7    1  0.3189267E-013  0.7246159E+02  0.7816164E-02  0.1226708E+00
        -11   -1    0    0    0    0  0.00000000000E+00  0.00000000000E+00  0.45593999997E+02  0.45594000000E+02  0.51100000000E-03 0.  1.
         11   -1    0    0    0    0 -0.00000000000E+00 -0.00000000000E+00 -0.45593999997E+02  0.45594000000E+02  0.51100000000E-03 0. -1.
    9900012    2    1    2    0    0  0.15152019551E+02  0.95220065901E-01 -0.11003885653E+02  0.72461594504E+02  0.70000031537E+02 0.  0.
         12    1    1    2    0    0 -0.15152019551E+02 -0.95220065901E-01  0.11003885653E+02  0.18726405496E+02  0.00000000000E+00 0. -1.
         11    1    3    3    0    0  0.77023368535E+01 -0.22321649610E+02 -0.15061720957E+02  0.28007810924E+02  0.51100000000E-03 0. -1.
        -11    1    3    3    0    0 -0.13397427807E+02  0.59011644667E+01  0.93026394303E+01  0.17345140949E+02  0.51100000000E-03 0.  1.
         12    1    3    3    0    0  0.20847110504E+02  0.16515705209E+02 -0.52448041264E+01  0.27108642631E+02  0.00000000000E+00 0. -1.
</event>
<event>
 7    1  0.3189267E-013  0.7246156E+02  0.7816164E-02  0.1226708E+00
        -11   -1    0    0    0    0  0.00000000000E+00  0.00000000000E+00  0.45593999997E+02  0.45594000000E+02  0.51100000000E-03 0. -1.
         11   -1    0    0    0    0 -0.00000000000E+00 -0.00000000000E+00 -0.45593999997E+02  0.45594000000E+02  0.51100000000E-03 0.  1.
    9900012    2    1    2    0    0 -0.14483259209E+02  0.14014505499E+01 -0.11787730645E+02  0.72461562680E+02  0.69999990081E+02 0.  0.
         12    1    1    2    0    0  0.14483259209E+02 -0.14014505499E+01  0.11787730645E+02  0.18726437320E+02  0.00000000000E+00 0. -1.
         11    1    3    3    0    0 -0.89456383512E+01 -0.66497937992E+01 -0.23173019879E+02  0.25714452233E+02  0.51100000000E-03 0. -1.
        -11    1    3    3    0    0 -0.20222207878E+02  0.13879170318E+02 -0.38168112632E+01  0.24822109271E+02  0.51100000000E-03 0.  1.
         12    1    3    3    0    0  0.14684587020E+02 -0.58279259685E+01  0.15202100497E+02  0.21925001176E+02  0.00000000000E+00 0. -1.
</event>
<event>
 7    1  0.3189267E-013  0.7246156E+02  0.7816164E-02  0.1226708E+00
        -11   -1    0    0    0    0  0.00000000000E+00  0.00000000000E+00  0.45593999997E+02  0.45594000000E+02  0.51100000000E-03 0. -1.
         11   -1    0    0    0    0 -0.00000000000E+00 -0.00000000000E+00 -0.45593999997E+02  0.45594000000E+02  0.51100000000E-03 0.  1.
    9900012    2    1    2    0    0  0.82713019850E+01  0.11777833202E+02 -0.11981134257E+02  0.72461564953E+02  0.69999993043E+02 0.  0.
         12    1    1    2    0    0 -0.82713019850E+01 -0.11777833202E+02  0.11981134257E+02  0.18726435047E+02  0.00000000000E+00 0. -1.
         11    1    3    3    0    0  0.57690288267E+00  0.12693902813E+01 -0.88263116528E+01  0.89357678057E+01  0.51100000000E-03 0. -1.
        -11    1    3    3    0    0 -0.25618087616E+02 -0.59337252681E+01 -0.15472578444E+01  0.26341782699E+02  0.51100000000E-03 0.  1.
         12    1    3    3    0    0  0.33312486718E+02  0.16442168189E+02 -0.16075647595E+01  0.37184014449E+02  0.00000000000E+00 0. -1.
</event>
<event>
 7    1  0.3262815E-013  0.7246164E+02  0.7816164E-02  0.1226708E+00
        -11   -1    0    0    0    0  0.00000000000E+00  0.00000000000E+00  0.45593999997E+02  0.45594000000E+02  0.51100000000E-03 0. -1.
         11   -1    0    0    0    0 -0.00000000000E+00 -0.00000000000E+00 -0.45593999997E+02  0.45594000000E+02  0.51100000000E-03 0.  1.
    9900012    2    1    2    0    0 -0.12864850530E+02  0.56756586831E+01 -0.12367659661E+02  0.72461641941E+02  0.70000093333E+02 0.  0.
         12    1    1    2    0    0  0.12864850530E+02 -0.56756586831E+01  0.12367659661E+02  0.18726358059E+02  0.00000000000E+00 0. -1.
         11    1    3    3    0    0 -0.12674764721E+02 -0.16033025509E+02  0.10755108387E+02  0.23095019471E+02  0.51100000000E-03 0. -1.
        -11    1    3    3    0    0  0.10403862978E+02 -0.28836224708E+01  0.37514898799E+01  0.11429318440E+02  0.51100000000E-03 0.  1.
        -12    1    3    3    0    0 -0.10593948787E+02  0.24592306663E+02 -0.26874257928E+02  0.37937304030E+02  0.00000000000E+00 0.  1.
</event>
<event>
 7    1  0.3189267E-013  0.7246116E+02  0.7816164E-02  0.1226709E+00
        -11   -1    0    0    0    0  0.00000000000E+00  0.00000000000E+00  0.45593999997E+02  0.45594000000E+02  0.51100000000E-03 0.  1.
         11   -1    0    0    0    0 -0.00000000000E+00 -0.00000000000E+00 -0.45593999997E+02  0.45594000000E+02  0.51100000000E-03 0. -1.
    9900012    2    1    2    0    0 -0.15026482665E+02 -0.10077518323E+02  0.48314647763E+01  0.72461158069E+02  0.69999462998E+02 0.  0.
         12    1    1    2    0    0  0.15026482665E+02  0.10077518323E+02 -0.48314647763E+01  0.18726841931E+02  0.00000000000E+00 0. -1.
         11    1    3    3    0    0 -0.16396686559E+02 -0.82512526687E-01  0.20881150094E+02  0.26549586964E+02  0.51100000000E-03 0. -1.
        -11    1    3    3    0    0  0.47748738142E+00 -0.26403491738E+02 -0.11886537145E+02  0.28959663944E+02  0.51100000000E-03 0.  1.
        -12    1    3    3    0    0  0.89271651275E+00  0.16408485942E+02 -0.41631481729E+01  0.16951907161E+02  0.00000000000E+00 0.  1.
</event>
<event>
 7    1  0.3189267E-013  0.7246156E+02  0.7816164E-02  0.1226708E+00
        -11   -1    0    0    0    0  0.00000000000E+00  0.00000000000E+00  0.45593999997E+02  0.45594000000E+02  0.51100000000E-03 0.  1.
         11   -1    0    0    0    0 -0.00000000000E+00 -0.00000000000E+00 -0.45593999997E+02  0.45594000000E+02  0.51100000000E-03 0. -1.
    9900012    2    1    2    0    0  0.11597267150E+02  0.42896205224E+01 -0.14063500419E+02  0.72461561641E+02  0.69999988727E+02 0.  0.
         12    1    1    2    0    0 -0.11597267150E+02 -0.42896205224E+01  0.14063500419E+02  0.18726438359E+02  0.00000000000E+00 0. -1.
         11    1    3    3    0    0  0.68529229604E+01 -0.12713284298E+01  0.89673818425E+01  0.11357498248E+02  0.51100000000E-03 0. -1.
        -11    1    3    3    0    0  0.16253101469E+02 -0.18331437901E+02  0.20733650284E+01  0.24586658287E+02  0.51100000000E-03 0.  1.
         12    1    3    3    0    0 -0.11508757280E+02  0.23892386853E+02 -0.25104247290E+02  0.36517405106E+02  0.00000000000E+00 0. -1.
</event>
<event>
 7    1  0.3189267E-013  0.7246157E+02  0.7816164E-02  0.1226708E+00
        -11   -1    0    0    0    0  0.00000000000E+00  0.00000000000E+00  0.45593999997E+02  0.45594000000E+02  0.51100000000E-03 0. -1.
         11   -1    0    0    0    0 -0.00000000000E+00 -0.00000000000E+00 -0.45593999997E+02  0.45594000000E+02  0.51100000000E-03 0.  1.
    9900012    2    1    2    0    0 -0.96983521182E+00 -0.10427622937E+02 -0.15524282106E+02  0.72461568536E+02  0.69999997710E+02 0.  0.
         12    1    1    2    0    0  0.96983521182E+00  0.10427622937E+02  0.15524282106E+02  0.18726431464E+02  0.00000000000E+00 0. -1.
         11    1    3    3    0    0  0.35493812078E+01  0.10261010132E+02  0.30317696905E+01  0.11272890650E+02  0.51100000000E-03 0. -1.
        -11    1    3    3    0    0 -0.24182647430E+01 -0.70215680457E+01  0.19410411186E+02  0.20782552414E+02  0.51100000000E-03 0.  1.
        -12    1    3    3    0    0 -0.21009516766E+01 -0.13667065023E+02 -0.37966462982E+02  0.40406125472E+02  0.00000000000E+00 0.  1.
</event>
<event>
 7    1  0.3189267E-013  0.7246164E+02  0.7816164E-02  0.1226708E+00
        -11   -1    0    0    0    0  0.00000000000E+00  0.00000000000E+00  0.45593999997E+02  0.45594000000E+02  0.51100000000E-03 0. -1.
         11   -1    0    0    0    0 -0.00000000000E+00 -0.00000000000E+00 -0.45593999997E+02  0.45594000000E+02  0.51100000000E-03 0.  1.
    9900012    2    1    2    0    0  0.23216510464E+01 -0.84571633482E+01 -0.16545776063E+02  0.72461644748E+02  0.70000096990E+02 0.  0.
         12    1    1    2    0    0 -0.23216510464E+01  0.84571633482E+01  0.16545776063E+02  0.18726355252E+02  0.00000000000E+00 0. -1.
         11    1    3    3    0    0 -0.15684780089E+01 -0.21436652175E+01  0.79012177121E+01  0.83357462428E+01  0.51100000000E-03 0. -1.
        -11    1    3    3    0    0  0.36572288169E+01 -0.26463239299E+01  0.19504997095E+02  0.20020571043E+02  0.51100000000E-03 0.  1.
        -12    1    3    3    0    0  0.23290023847E+00 -0.36671742008E+01 -0.43951990870E+02  0.44105327463E+02  0.00000000000E+00 0.  1.
</event>
<event>
 7    1  0.3189267E-013  0.7246153E+02  0.7816164E-02  0.1226708E+00
        -11   -1    0    0    0    0  0.00000000000E+00  0.00000000000E+00  0.45593999997E+02  0.45594000000E+02  0.51100000000E-03 0.  1.
         11   -1    0    0    0    0 -0.00000000000E+00 -0.00000000000E+00 -0.45593999997E+02  0.45594000000E+02  0.51100000000E-03 0. -1.
    9900012    2    1    2    0    0  0.32891891815E+01 -0.16243583496E+02 -0.87182595046E+01  0.72461526252E+02  0.69999942627E+02 0.  0.
         12    1    1    2    0    0 -0.32891891815E+01  0.16243583496E+02  0.87182595046E+01  0.18726473748E+02  0.00000000000E+00 0. -1.
         11    1    3    3    0    0 -0.24140736481E+02  0.47204239935E+01 -0.12264260597E+01  0.24628472986E+02  0.51100000000E-03 0. -1.
        -11    1    3    3    0    0  0.88854257729E+01  0.85195207641E+01 -0.33458520491E+01  0.12756478801E+02  0.51100000000E-03 0.  1.
        -12    1    3    3    0    0  0.18544499889E+02 -0.29483528253E+02 -0.41459813958E+01  0.35076574464E+02  0.00000000000E+00 0.  1.
</event>
<event>
 7    1  0.3189267E-013  0.7246156E+02  0.7816164E-02  0.1226708E+00
        -11   -1    0    0    0    0  0.00000000000E+00  0.00000000000E+00  0.45593999997E+02  0.45594000000E+02  0.51100000000E-03 0.  1.
         11   -1    0    0    0    0 -0.00000000000E+00 -0.00000000000E+00 -0.45593999997E+02  0.45594000000E+02  0.51100000000E-03 0. -1.
    9900012    2    1    2    0    0 -0.15004350252E+02 -0.89733204395E+01  0.67103362516E+01  0.72461558298E+02  0.69999984373E+02 0.  0.
         12    1    1    2    0    0  0.15004350252E+02  0.89733204395E+01 -0.67103362516E+01  0.18726441702E+02  0.00000000000E+00 0. -1.
         11    1    3    3    0    0 -0.29990081820E+02 -0.33552336375E+01 -0.23900493459E+01  0.30271685392E+02  0.51100000000E-03 0. -1.
        -11    1    3    3    0    0 -0.25883261993E+01 -0.15027763328E+02  0.15010706309E+02  0.21397532739E+02  0.51100000000E-03 0.  1.
         12    1    3    3    0    0  0.17574057767E+02  0.94096765256E+01 -0.59103207115E+01  0.20792340167E+02  0.00000000000E+00 0. -1.
</event>
<event>
 7    1  0.3189267E-013  0.7246150E+02  0.7816164E-02  0.1226708E+00
        -11   -1    0    0    0    0  0.00000000000E+00  0.00000000000E+00  0.45593999997E+02  0.45594000000E+02  0.51100000000E-03 0. -1.
         11   -1    0    0    0    0 -0.00000000000E+00 -0.00000000000E+00 -0.45593999997E+02  0.45594000000E+02  0.51100000000E-03 0.  1.
    9900012    2    1    2    0    0  0.18460432846E+02  0.29513145821E+01 -0.10881076671E+01  0.72461499608E+02  0.69999907918E+02 0.  0.
         12    1    1    2    0    0 -0.18460432846E+02 -0.29513145821E+01  0.10881076671E+01  0.18726500392E+02  0.00000000000E+00 0. -1.
         11    1    3    3    0    0  0.10922232797E+02  0.47420946311E+01  0.19620679514E+02  0.22951115346E+02  0.51100000000E-03 0. -1.
        -11    1    3    3    0    0 -0.29852379169E+01  0.20149907644E+02 -0.67606994483E+01  0.21462466791E+02  0.51100000000E-03 0.  1.
        -12    1    3    3    0    0  0.10523437966E+02 -0.21940687693E+02 -0.13948087733E+02  0.28047917471E+02  0.00000000000E+00 0.  1.
</event>
<event>
 7    1  0.3189267E-013  0.7246157E+02  0.7816164E-02  0.1226708E+00
        -11   -1    0    0    0    0  0.00000000000E+00  0.00000000000E+00  0.45593999997E+02  0.45594000000E+02  0.51100000000E-03 0.  1.
         11   -1    0    0    0    0 -0.00000000000E+00 -0.00000000000E+00 -0.45593999997E+02  0.45594000000E+02  0.51100000000E-03 0. -1.
    9900012    2    1    2    0    0 -0.84828227456E+01  0.14240041255E+02  0.87144795467E+01  0.72461569202E+02  0.69999998577E+02 0.  0.
         12    1    1    2    0    0  0.84828227456E+01 -0.14240041255E+02 -0.87144795467E+01  0.18726430798E+02  0.00000000000E+00 0. -1.
         11    1    3    3    0    0 -0.31443692430E+01  0.11326307435E+02 -0.13374199513E+02  0.17805659519E+02  0.51100000000E-03 0. -1.
        -11    1    3    3    0    0  0.81124675760E+01  0.22013464409E+02  0.20644349747E+02  0.31250502751E+02  0.51100000000E-03 0.  1.
        -12    1    3    3    0    0 -0.13450921079E+02 -0.19099730590E+02  0.14443293126E+01  0.23405406931E+02  0.00000000000E+00 0.  1.
</event>
<event>
 7    1  0.3189267E-013  0.7246158E+02  0.7816164E-02  0.1226708E+00
        -11   -1    0    0    0    0  0.00000000000E+00  0.00000000000E+00  0.45593999997E+02  0.45594000000E+02  0.51100000000E-03 0. -1.
         11   -1    0    0    0    0 -0.00000000000E+00 -0.00000000000E+00 -0.45593999997E+02  0.45594000000E+02  0.51100000000E-03 0.  1.
    9900012    2    1    2    0    0  0.59653299894E+01  0.14287624738E+01 -0.17693279228E+02  0.72461584061E+02  0.70000017934E+02 0.  0.
         12    1    1    2    0    0 -0.59653299894E+01 -0.14287624738E+01  0.17693279228E+02  0.18726415939E+02  0.00000000000E+00 0. -1.
         11    1    3    3    0    0 -0.22796035266E+01  0.10155199012E+02 -0.98069401152E+01  0.14300375306E+02  0.51100000000E-03 0. -1.
        -11    1    3    3    0    0  0.21992185714E+02  0.24586519440E+01 -0.25095010924E+02  0.33458343883E+02  0.51100000000E-03 0.  1.
         12    1    3    3    0    0 -0.13747252198E+02 -0.11185088482E+02  0.17208671812E+02  0.24702864872E+02  0.00000000000E+00 0. -1.
</event>
<event>
 7    1  0.3189267E-013  0.7246159E+02  0.7816164E-02  0.1226708E+00
        -11   -1    0    0    0    0  0.00000000000E+00  0.00000000000E+00  0.45593999997E+02  0.45594000000E+02  0.51100000000E-03 0.  1.
         11   -1    0    0    0    0 -0.00000000000E+00 -0.00000000000E+00 -0.45593999997E+02  0.45594000000E+02  0.51100000000E-03 0. -1.
    9900012    2    1    2    0    0  0.20671188797E+01  0.82101461714E+01  0.16703260242E+02  0.72461591286E+02  0.70000027345E+02 0.  0.
         12    1    1    2    0    0 -0.20671188797E+01 -0.82101461714E+01 -0.16703260242E+02  0.18726408714E+02  0.00000000000E+00 0. -1.
         11    1    3    3    0    0 -0.14246109483E+02 -0.20067605728E+02 -0.42726611873E+01  0.24978311971E+02  0.51100000000E-03 0. -1.
        -11    1    3    3    0    0  0.13348134219E+01 -0.40395829364E+00 -0.55003234200E+01  0.56743693183E+01  0.51100000000E-03 0.  1.
        -12    1    3    3    0    0  0.14978414941E+02  0.28681710193E+02  0.26476244849E+02  0.41808909996E+02  0.00000000000E+00 0.  1.
</event>
<event>
 7    1  0.3189267E-013  0.7246162E+02  0.7816164E-02  0.1226708E+00
        -11   -1    0    0    0    0  0.00000000000E+00  0.00000000000E+00  0.45593999997E+02  0.45594000000E+02  0.51100000000E-03 0. -1.
         11   -1    0    0    0    0 -0.00000000000E+00 -0.00000000000E+00 -0.45593999997E+02  0.45594000000E+02  0.51100000000E-03 0.  1.
    9900012    2    1    2    0    0 -0.12040141395E+02  0.11002215927E+02 -0.92012742268E+01  0.72461622680E+02  0.70000068242E+02 0.  0.
         12    1    1    2    0    0  0.12040141395E+02 -0.11002215927E+02  0.92012742268E+01  0.18726377320E+02  0.00000000000E+00 0. -1.
         11    1    3    3    0    0  0.10537663542E+02  0.83181933094E+01  0.12404535975E+02  0.18278599670E+02  0.51100000000E-03 0. -1.
        -11    1    3    3    0    0 -0.23576721243E+02  0.98770155772E+01  0.54780926719E+01  0.26142431426E+02  0.51100000000E-03 0.  1.
        -12    1    3    3    0    0  0.99891630622E+00 -0.71929929596E+01 -0.27083902874E+02  0.28040591584E+02  0.00000000000E+00 0.  1.
</event>
<event>
 7    1  0.3189267E-013  0.7246116E+02  0.7816164E-02  0.1226709E+00
        -11   -1    0    0    0    0  0.00000000000E+00  0.00000000000E+00  0.45593999997E+02  0.45594000000E+02  0.51100000000E-03 0. -1.
         11   -1    0    0    0    0 -0.00000000000E+00 -0.00000000000E+00 -0.45593999997E+02  0.45594000000E+02  0.51100000000E-03 0.  1.
    9900012    2    1    2    0    0 -0.13846213651E+02 -0.68466220655E+01 -0.10587764468E+02  0.72461157699E+02  0.69999462515E+02 0.  0.
         12    1    1    2    0    0  0.13846213651E+02  0.68466220655E+01  0.10587764468E+02  0.18726842301E+02  0.00000000000E+00 0. -1.
         11    1    3    3    0    0 -0.14731266575E+02  0.84271858783E+01 -0.49126399577E+00  0.16978486897E+02  0.51100000000E-03 0. -1.
        -11    1    3    3    0    0  0.74207176183E+01 -0.21399946372E+02 -0.27669691451E+02  0.35758028189E+02  0.51100000000E-03 0.  1.
         12    1    3    3    0    0 -0.65356646943E+01  0.61261384286E+01  0.17573190979E+02  0.19724642613E+02  0.00000000000E+00 0. -1.
</event>
<event>
 7    1  0.3189267E-013  0.7246157E+02  0.7816164E-02  0.1226708E+00
        -11   -1    0    0    0    0  0.00000000000E+00  0.00000000000E+00  0.45593999997E+02  0.45594000000E+02  0.51100000000E-03 0. -1.
         11   -1    0    0    0    0 -0.00000000000E+00 -0.00000000000E+00 -0.45593999997E+02  0.45594000000E+02  0.51100000000E-03 0.  1.
    9900012    2    1    2    0    0 -0.16265697550E+02 -0.19646256755E+01  0.90689784937E+01  0.72461573706E+02  0.70000004444E+02 0.  0.
         12    1    1    2    0    0  0.16265697550E+02  0.19646256755E+01 -0.90689784937E+01  0.18726426294E+02  0.00000000000E+00 0. -1.
         11    1    3    3    0    0  0.14425060932E+01 -0.10026657830E+02  0.26328446915E+02  0.28209959381E+02  0.51100000000E-03 0. -1.
        -11    1    3    3    0    0  0.67604937441E+01  0.10081468619E+02  0.29042891164E+01  0.12480992778E+02  0.51100000000E-03 0.  1.
        -12    1    3    3    0    0 -0.24468697387E+02 -0.20194364644E+01 -0.20163757538E+02  0.31770621547E+02  0.00000000000E+00 0.  1.
</event>
<event>
 7    1  0.3189267E-013  0.7246153E+02  0.7816164E-02  0.1226708E+00
        -11   -1    0    0    0    0  0.00000000000E+00  0.00000000000E+00  0.45593999997E+02  0.45594000000E+02  0.51100000000E-03 0.  1.
         11   -1    0    0    0    0 -0.00000000000E+00 -0.00000000000E+00 -0.45593999997E+02  0.45594000000E+02  0.51100000000E-03 0. -1.
    9900012    2    1    2    0    0 -0.37813069608E+01 -0.18326530080E+02 -0.72151550497E+00  0.72461532856E+02  0.69999951229E+02 0.  0.
         12    1    1    2    0    0  0.37813069608E+01  0.18326530080E+02  0.72151550497E+00  0.18726467144E+02  0.00000000000E+00 0. -1.
         11    1    3    3    0    0  0.76079010591E+01 -0.55547638252E+01 -0.24402133323E+02  0.26157210682E+02  0.51100000000E-03 0. -1.
        -11    1    3    3    0    0  0.10947016069E+02 -0.15041654710E+01  0.17229901622E+02  0.20468736765E+02  0.51100000000E-03 0.  1.
         12    1    3    3    0    0 -0.22336224089E+02 -0.11267600783E+02  0.64507161954E+01  0.25835585409E+02  0.00000000000E+00 0. -1.
</event>
<event>
 7    1  0.3189267E-013  0.7246153E+02  0.7816164E-02  0.1226708E+00
        -11   -1    0    0    0    0  0.00000000000E+00  0.00000000000E+00  0.45593999997E+02  0.45594000000E+02  0.51100000000E-03 0.  1.
         11   -1    0    0    0    0 -0.00000000000E+00 -0.00000000000E+00 -0.45593999997E+02  0.45594000000E+02  0.51100000000E-03 0. -1.
    9900012    2    1    2    0    0 -0.88899841765E+01  0.12358502094E+02  0.10904868523E+02  0.72461533431E+02  0.69999951979E+02 0.  0.
         12    1    1    2    0    0  0.88899841765E+01 -0.12358502094E+02 -0.10904868523E+02  0.18726466569E+02  0.00000000000E+00 0. -1.
         11    1    3    3    0    0 -0.83343835763E+01 -0.67982087051E+01 -0.79076221903E+00  0.10784382057E+02  0.51100000000E-03 0. -1.
        -11    1    3    3    0    0  0.27403609169E+02  0.17049858528E+02  0.34912101661E+01  0.32462963821E+02  0.51100000000E-03 0.  1.
         12    1    3    3    0    0 -0.27959209770E+02  0.21068522708E+01  0.82044205759E+01  0.29214187554E+02  0.00000000000E+00 0. -1.
</event>
<event>
 7    1  0.3189267E-013  0.7246155E+02  0.7816164E-02  0.1226708E+00
        -11   -1    0    0    0    0  0.00000000000E+00  0.00000000000E+00  0.45593999997E+02  0.45594000000E+02  0.51100000000E-03 0. -1.
         11   -1    0    0    0    0 -0.00000000000E+00 -0.00000000000E+00 -0.45593999997E+02  0.45594000000E+02  0.51100000000E-03 0.  1.
    9900012    2    1    2    0    0  0.12928996304E+02 -0.11615535503E+02  0.69714061967E+01  0.72461545055E+02  0.69999967121E+02 0.  0.
         12    1    1    2    0    0 -0.12928996304E+02  0.11615535503E+02 -0.69714061967E+01  0.18726454945E+02  0.00000000000E+00 0. -1.
         11    1    3    3    0    0  0.11633949277E+02 -0.24353341963E+01  0.34786680443E+01  0.12384698626E+02  0.51100000000E-03 0. -1.
        -11    1    3    3    0    0  0.27544818038E+02  0.74132687648E+01  0.51144572610E+01  0.28979841750E+02  0.51100000000E-03 0.  1.
         12    1    3    3    0    0 -0.26249771011E+02 -0.16593470071E+02 -0.16217191086E+01  0.31097004679E+02  0.00000000000E+00 0. -1.
</event>
<event>
 7    1  0.3189267E-013  0.7246158E+02  0.7816164E-02  0.1226708E+00
        -11   -1    0    0    0    0  0.00000000000E+00  0.00000000000E+00  0.45593999997E+02  0.45594000000E+02  0.51100000000E-03 0. -1.
         11   -1    0    0    0    0 -0.00000000000E+00 -0.00000000000E+00 -0.45593999997E+02  0.45594000000E+02  0.51100000000E-03 0.  1.
    9900012    2    1    2    0    0 -0.69587983916E+01  0.49514742336E+01 -0.16665437524E+02  0.72461580694E+02  0.70000013548E+02 0.  0.
         12    1    1    2    0    0  0.69587983916E+01 -0.49514742336E+01  0.16665437524E+02  0.18726419306E+02  0.00000000000E+00 0. -1.
         11    1    3    3    0    0  0.22018136010E+02  0.38873923319E+01 -0.14678865966E+02  0.26746574338E+02  0.51100000000E-03 0. -1.
        -11    1    3    3    0    0 -0.11620432315E+02  0.17053774019E+02  0.47441566915E+01  0.21174812359E+02  0.51100000000E-03 0.  1.
        -12    1    3    3    0    0 -0.17356502087E+02 -0.15989692117E+02 -0.67307282492E+01  0.24540193998E+02  0.00000000000E+00 0.  1.
</event>
<event>
 7    1  0.3189267E-013  0.7246155E+02  0.7816164E-02  0.1226708E+00
        -11   -1    0    0    0    0  0.00000000000E+00  0.00000000000E+00  0.45593999997E+02  0.45594000000E+02  0.51100000000E-03 0. -1.
         11   -1    0    0    0    0 -0.00000000000E+00 -0.00000000000E+00 -0.45593999997E+02  0.45594000000E+02  0.51100000000E-03 0.  1.
    9900012    2    1    2    0    0  0.10748696613E+02 -0.60744569550E+00 -0.15322418518E+02  0.72461548697E+02  0.69999971866E+02 0.  0.
         12    1    1    2    0    0 -0.10748696613E+02  0.60744569550E+00  0.15322418518E+02  0.18726451303E+02  0.00000000000E+00 0. -1.
         11    1    3    3    0    0  0.76977564147E+01 -0.18576659575E+02 -0.23284261214E+02  0.30765314159E+02  0.51100000000E-03 0. -1.
        -11    1    3    3    0    0  0.27745749054E+01 -0.81296800024E+01 -0.74625440050E+01  0.11378907071E+02  0.51100000000E-03 0.  1.
         12    1    3    3    0    0  0.27636529302E+00  0.26098893881E+02  0.15424386701E+02  0.30317327467E+02  0.00000000000E+00 0. -1.
</event>
<event>
 7    1  0.3189267E-013  0.7246160E+02  0.7816164E-02  0.1226708E+00
        -11   -1    0    0    0    0  0.00000000000E+00  0.00000000000E+00  0.45593999997E+02  0.45594000000E+02  0.51100000000E-03 0.  1.
         11   -1    0    0    0    0 -0.00000000000E+00 -0.00000000000E+00 -0.45593999997E+02  0.45594000000E+02  0.51100000000E-03 0. -1.
    9900012    2    1    2    0    0 -0.62023242562E+01 -0.15105868179E+02  0.91663545301E+01  0.72461597917E+02  0.70000035983E+02 0.  0.
         12    1    1    2    0    0  0.62023242562E+01  0.15105868179E+02 -0.91663545301E+01  0.18726402083E+02  0.00000000000E+00 0. -1.
         11    1    3    3    0    0 -0.28746222612E+01 -0.13175668200E+00  0.11290818088E+02  0.11651754646E+02  0.51100000000E-03 0. -1.
        -11    1    3    3    0    0 -0.82269765172E+01 -0.29614857406E+02  0.17866083390E+02  0.35551650563E+02  0.51100000000E-03 0.  1.
         12    1    3    3    0    0  0.48992745222E+01  0.14640745909E+02 -0.19990546948E+02  0.25258192708E+02  0.00000000000E+00 0. -1.
</event>
<event>
 7    1  0.3189267E-013  0.7246171E+02  0.7816164E-02  0.1226708E+00
        -11   -1    0    0    0    0  0.00000000000E+00  0.00000000000E+00  0.45593999997E+02  0.45594000000E+02  0.51100000000E-03 0.  1.
         11   -1    0    0    0    0 -0.00000000000E+00 -0.00000000000E+00 -0.45593999997E+02  0.45594000000E+02  0.51100000000E-03 0. -1.
    9900012    2    1    2    0    0 -0.13113959056E+02  0.11263880352E+02 -0.71988308947E+01  0.72461705947E+02  0.70000176712E+02 0.  0.
         12    1    1    2    0    0  0.13113959056E+02 -0.11263880352E+02  0.71988308947E+01  0.18726294053E+02  0.00000000000E+00 0. -1.
         11    1    3    3    0    0 -0.62910516488E+01  0.23005133506E+02 -0.59963209610E+01  0.24592058958E+02  0.51100000000E-03 0. -1.
        -11    1    3    3    0    0  0.11259409235E+01  0.59279289900E+00  0.21118865665E+02  0.21157165066E+02  0.51100000000E-03 0.  1.
        -12    1    3    3    0    0 -0.79488483308E+01 -0.12334046053E+02 -0.22321375599E+02  0.26712481922E+02  0.00000000000E+00 0.  1.
</event>
<event>
 7    1  0.3189267E-013  0.7246158E+02  0.7816164E-02  0.1226708E+00
        -11   -1    0    0    0    0  0.00000000000E+00  0.00000000000E+00  0.45593999997E+02  0.45594000000E+02  0.51100000000E-03 0. -1.
         11   -1    0    0    0    0 -0.00000000000E+00 -0.00000000000E+00 -0.45593999997E+02  0.45594000000E+02  0.51100000000E-03 0.  1.
    9900012    2    1    2    0    0  0.86788034636E+01 -0.57132353348E+00 -0.16584051111E+02  0.72461580390E+02  0.70000013152E+02 0.  0.
         12    1    1    2    0    0 -0.86788034636E+01  0.57132353348E+00  0.16584051111E+02  0.18726419610E+02  0.00000000000E+00 0. -1.
         11    1    3    3    0    0 -0.16058688194E+02  0.16852808717E+02 -0.14405551865E+02  0.27375510095E+02  0.51100000000E-03 0. -1.
        -11    1    3    3    0    0  0.21416588087E+02  0.45977442408E+01 -0.54598908063E+01  0.22574762574E+02  0.51100000000E-03 0.  1.
         12    1    3    3    0    0  0.33209035709E+01 -0.22021876492E+02  0.32813915598E+01  0.22511307721E+02  0.00000000000E+00 0. -1.
</event>
<event>
 7    1  0.3189267E-013  0.7246161E+02  0.7816164E-02  0.1226708E+00
        -11   -1    0    0    0    0  0.00000000000E+00  0.00000000000E+00  0.45593999997E+02  0.45594000000E+02  0.51100000000E-03 0. -1.
         11   -1    0    0    0    0 -0.00000000000E+00 -0.00000000000E+00 -0.45593999997E+02  0.45594000000E+02  0.51100000000E-03 0.  1.
    9900012    2    1    2    0    0 -0.14616016784E+02  0.11403543753E+02  0.26474262071E+01  0.72461611606E+02  0.70000053816E+02 0.  0.
         12    1    1    2    0    0  0.14616016784E+02 -0.11403543753E+02 -0.26474262071E+01  0.18726388394E+02  0.00000000000E+00 0. -1.
         11    1    3    3    0    0 -0.59396363398E+01 -0.10816905735E+02  0.20616703313E+02  0.24027758640E+02  0.51100000000E-03 0. -1.
        -11    1    3    3    0    0 -0.16952735074E+02  0.53361813422E+01 -0.22906621514E+02  0.28992815787E+02  0.51100000000E-03 0.  1.
         12    1    3    3    0    0  0.82763546295E+01  0.16884268146E+02  0.49373444083E+01  0.19441037179E+02  0.00000000000E+00 0. -1.
</event>
<event>
 7    1  0.3189267E-013  0.7246148E+02  0.7816164E-02  0.1226708E+00
        -11   -1    0    0    0    0  0.00000000000E+00  0.00000000000E+00  0.45593999997E+02  0.45594000000E+02  0.51100000000E-03 0. -1.
         11   -1    0    0    0    0 -0.00000000000E+00 -0.00000000000E+00 -0.45593999997E+02  0.45594000000E+02  0.51100000000E-03 0.  1.
    9900012    2    1    2    0    0  0.12037456470E+02 -0.10307872519E+02  0.99764724465E+01  0.72461478790E+02  0.69999880799E+02 0.  0.
         12    1    1    2    0    0 -0.12037456470E+02  0.10307872519E+02 -0.99764724465E+01  0.18726521210E+02  0.00000000000E+00 0. -1.
         11    1    3    3    0    0  0.98113623875E+01 -0.98165282473E+01  0.27344053148E+02  0.30664707753E+02  0.51100000000E-03 0. -1.
        -11    1    3    3    0    0  0.16780598188E+02 -0.49161456619E+01  0.15119709349E+01  0.17551154381E+02  0.51100000000E-03 0.  1.
         12    1    3    3    0    0 -0.14554504105E+02  0.44248013904E+01 -0.18879551636E+02  0.24245616657E+02  0.00000000000E+00 0. -1.
</event>
<event>
 7    1  0.3189267E-013  0.7246149E+02  0.7816164E-02  0.1226708E+00
        -11   -1    0    0    0    0  0.00000000000E+00  0.00000000000E+00  0.45593999997E+02  0.45594000000E+02  0.51100000000E-03 0.  1.
         11   -1    0    0    0    0 -0.00000000000E+00 -0.00000000000E+00 -0.45593999997E+02  0.45594000000E+02  0.51100000000E-03 0. -1.
    9900012    2    1    2    0    0  0.98848157559E+01  0.15106974993E+02  0.49751146952E+01  0.72461493593E+02  0.69999900082E+02 0.  0.
         12    1    1    2    0    0 -0.98848157559E+01 -0.15106974993E+02 -0.49751146952E+01  0.18726506407E+02  0.00000000000E+00 0. -1.
         11    1    3    3    0    0  0.70408737807E+01 -0.27479734966E+02  0.84681895379E+00  0.28380042988E+02  0.51100000000E-03 0. -1.
        -11    1    3    3    0    0  0.11042722540E+01  0.36400490246E+01 -0.24785230840E+01  0.45400937271E+01  0.51100000000E-03 0.  1.
        -12    1    3    3    0    0  0.17396697211E+01  0.38946660935E+02  0.66068188254E+01  0.39541356878E+02  0.00000000000E+00 0.  1.
</event>
<event>
 7    1  0.3189267E-013  0.7246142E+02  0.7816164E-02  0.1226708E+00
        -11   -1    0    0    0    0  0.00000000000E+00  0.00000000000E+00  0.45593999997E+02  0.45594000000E+02  0.51100000000E-03 0. -1.
         11   -1    0    0    0    0 -0.00000000000E+00 -0.00000000000E+00 -0.45593999997E+02  0.45594000000E+02  0.51100000000E-03 0.  1.
    9900012    2    1    2    0    0  0.57577410369E+01 -0.10520273741E+02 -0.14382521080E+02  0.72461423857E+02  0.69999809238E+02 0.  0.
         12    1    1    2    0    0 -0.57577410369E+01  0.10520273741E+02  0.14382521080E+02  0.18726576143E+02  0.00000000000E+00 0. -1.
         11    1    3    3    0    0 -0.11862561679E+02  0.11987712963E+02  0.54717455765E+01  0.17730359037E+02  0.51100000000E-03 0. -1.
        -11    1    3    3    0    0  0.21875201123E+02  0.41707954325E+01 -0.16045991415E+02  0.27448019955E+02  0.51100000000E-03 0.  1.
        -12    1    3    3    0    0 -0.42548984069E+01 -0.26678782137E+02 -0.38082752412E+01  0.27283044864E+02  0.00000000000E+00 0.  1.
</event>
<event>
 7    1  0.3189267E-013  0.7246157E+02  0.7816164E-02  0.1226708E+00
        -11   -1    0    0    0    0  0.00000000000E+00  0.00000000000E+00  0.45593999997E+02  0.45594000000E+02  0.51100000000E-03 0.  1.
         11   -1    0    0    0    0 -0.00000000000E+00 -0.00000000000E+00 -0.45593999997E+02  0.45594000000E+02  0.51100000000E-03 0. -1.
    9900012    2    1    2    0    0 -0.10752127980E+02  0.60558187933E+01 -0.14085381047E+02  0.72461570640E+02  0.70000000450E+02 0.  0.
         12    1    1    2    0    0  0.10752127980E+02 -0.60558187933E+01  0.14085381047E+02  0.18726429360E+02  0.00000000000E+00 0. -1.
         11    1    3    3    0    0 -0.85328526494E+01  0.25064885028E+02 -0.18298706277E+01  0.26540656785E+02  0.51100000000E-03 0. -1.
        -11    1    3    3    0    0 -0.13555600897E+02 -0.17941922695E+02  0.69994374336E+01  0.23551200189E+02  0.51100000000E-03 0.  1.
         12    1    3    3    0    0  0.11336325567E+02 -0.10671435395E+01 -0.19254947853E+02  0.22369713666E+02  0.00000000000E+00 0. -1.
</event>
<event>
 7    1  0.3189267E-013  0.7246159E+02  0.7816164E-02  0.1226708E+00
        -11   -1    0    0    0    0  0.00000000000E+00  0.00000000000E+00  0.45593999997E+02  0.45594000000E+02  0.51100000000E-03 0.  1.
         11   -1    0    0    0    0 -0.00000000000E+00 -0.00000000000E+00 -0.45593999997E+02  0.45594000000E+02  0.51100000000E-03 0. -1.
    9900012    2    1    2    0    0 -0.16749499220E+02  0.82303430757E+01 -0.15472967533E+01  0.72461590881E+02  0.70000026817E+02 0.  0.
         12    1    1    2    0    0  0.16749499220E+02 -0.82303430757E+01  0.15472967533E+01  0.18726409119E+02  0.00000000000E+00 0. -1.
         11    1    3    3    0    0  0.78880989269E+01  0.46970149330E+00 -0.47535481632E+01  0.92216562815E+01  0.51100000000E-03 0. -1.
        -11    1    3    3    0    0 -0.12194519905E+02 -0.19108002115E+02 -0.16178457066E+02  0.27848959295E+02  0.51100000000E-03 0.  1.
        -12    1    3    3    0    0 -0.12443078242E+02  0.26868643697E+02  0.19384708476E+02  0.35390975304E+02  0.00000000000E+00 0.  1.
</event>
<event>
 7    1  0.3189267E-013  0.7246160E+02  0.7816164E-02  0.1226708E+00
        -11   -1    0    0    0    0  0.00000000000E+00  0.00000000000E+00  0.45593999997E+02  0.45594000000E+02  0.51100000000E-03 0.  1.
         11   -1    0    0    0    0 -0.00000000000E+00 -0.00000000000E+00 -0.45593999997E+02  0.45594000000E+02  0.51100000000E-03 0. -1.
    9900012    2    1    2    0    0 -0.12050078142E+02 -0.97495990091E+01  0.10508046022E+02  0.72461598977E+02  0.70000037365E+02 0.  0.
         12    1    1    2    0    0  0.12050078142E+02  0.97495990091E+01 -0.10508046022E+02  0.18726401023E+02  0.00000000000E+00 0. -1.
         11    1    3    3    0    0  0.11584084374E+02  0.18355129813E+02 -0.45415697731E+01  0.22174933089E+02  0.51100000000E-03 0. -1.
        -11    1    3    3    0    0  0.70913008224E+01 -0.10139546190E+02  0.33085425030E+01  0.12807942772E+02  0.51100000000E-03 0.  1.
        -12    1    3    3    0    0 -0.30725463338E+02 -0.17965182633E+02  0.11741073292E+02  0.37478723116E+02  0.00000000000E+00 0.  1.
</event>
<event>
 7    1  0.3189267E-013  0.7246162E+02  0.7816164E-02  0.1226708E+00
        -11   -1    0    0    0    0  0.00000000000E+00  0.00000000000E+00  0.45593999997E+02  0.45594000000E+02  0.51100000000E-03 0.  1.
         11   -1    0    0    0    0 -0.00000000000E+00 -0.00000000000E+00 -0.45593999997E+02  0.45594000000E+02  0.51100000000E-03 0. -1.
    9900012    2    1    2    0    0  0.17404584192E+02  0.63914760811E+01  0.26280640650E+01  0.72461621863E+02  0.70000067178E+02 0.  0.
         12    1    1    2    0    0 -0.17404584192E+02 -0.63914760811E+01 -0.26280640650E+01  0.18726378137E+02  0.00000000000E+00 0. -1.
         11    1    3    3    0    0 -0.25167409330E+01  0.20493052594E+01  0.31194314546E+01  0.45016096933E+01  0.51100000000E-03 0. -1.
        -11    1    3    3    0    0 -0.18883459767E+02  0.95453237203E+01  0.14913330836E+02  0.25886399799E+02  0.51100000000E-03 0.  1.
         12    1    3    3    0    0  0.38804784891E+02 -0.52031528986E+01 -0.15404698225E+02  0.42073612371E+02  0.00000000000E+00 0. -1.
</event>
<event>
 7    1  0.3189267E-013  0.7246151E+02  0.7816164E-02  0.1226708E+00
        -11   -1    0    0    0    0  0.00000000000E+00  0.00000000000E+00  0.45593999997E+02  0.45594000000E+02  0.51100000000E-03 0.  1.
         11   -1    0    0    0    0 -0.00000000000E+00 -0.00000000000E+00 -0.45593999997E+02  0.45594000000E+02  0.51100000000E-03 0. -1.
    9900012    2    1    2    0    0 -0.15845871545E+02  0.22459631867E+01 -0.97234517337E+01  0.72461507822E+02  0.69999918618E+02 0.  0.
         12    1    1    2    0    0  0.15845871545E+02 -0.22459631867E+01  0.97234517337E+01  0.18726492178E+02  0.00000000000E+00 0. -1.
         11    1    3    3    0    0 -0.24901817446E+02 -0.88612406346E+01  0.17615059228E+02  0.31763381583E+02  0.51100000000E-03 0. -1.
        -11    1    3    3    0    0  0.25519436123E+01 -0.94076358708E+00  0.49381545554E+01  0.56376256528E+01  0.51100000000E-03 0.  1.
         12    1    3    3    0    0  0.65040022882E+01  0.12047967408E+02 -0.32276665518E+02  0.35060500586E+02  0.00000000000E+00 0. -1.
</event>
<event>
 7    1  0.3189267E-013  0.7246130E+02  0.7816164E-02  0.1226709E+00
        -11   -1    0    0    0    0  0.00000000000E+00  0.00000000000E+00  0.45593999997E+02  0.45594000000E+02  0.51100000000E-03 0.  1.
         11   -1    0    0    0    0 -0.00000000000E+00 -0.00000000000E+00 -0.45593999997E+02  0.45594000000E+02  0.51100000000E-03 0. -1.
    9900012    2    1    2    0    0 -0.16158003316E+02  0.80090003619E+01 -0.50461841094E+01  0.72461304295E+02  0.69999653485E+02 0.  0.
         12    1    1    2    0    0  0.16158003316E+02 -0.80090003619E+01  0.50461841094E+01  0.18726695705E+02  0.00000000000E+00 0. -1.
         11    1    3    3    0    0 -0.23257119814E+02 -0.81497037385E+01  0.40133554097E+01  0.24968346260E+02  0.51100000000E-03 0. -1.
        -11    1    3    3    0    0 -0.14881038618E+02  0.19033406380E+02 -0.20650625620E+01  0.24248306177E+02  0.51100000000E-03 0.  1.
         12    1    3    3    0    0  0.21980155115E+02 -0.28747022801E+01 -0.69944769572E+01  0.23244651858E+02  0.00000000000E+00 0. -1.
</event>
<event>
 7    1  0.3189267E-013  0.7246160E+02  0.7816164E-02  0.1226708E+00
        -11   -1    0    0    0    0  0.00000000000E+00  0.00000000000E+00  0.45593999997E+02  0.45594000000E+02  0.51100000000E-03 0.  1.
         11   -1    0    0    0    0 -0.00000000000E+00 -0.00000000000E+00 -0.45593999997E+02  0.45594000000E+02  0.51100000000E-03 0. -1.
    9900012    2    1    2    0    0  0.14018419375E+02  0.89204247440E+01  0.86364423291E+01  0.72461596301E+02  0.70000033878E+02 0.  0.
         12    1    1    2    0    0 -0.14018419375E+02 -0.89204247440E+01 -0.86364423291E+01  0.18726403699E+02  0.00000000000E+00 0. -1.
         11    1    3    3    0    0  0.41102165584E+01 -0.75248808588E+01 -0.25023540037E+02  0.26451753596E+02  0.51100000000E-03 0. -1.
        -11    1    3    3    0    0  0.18443946753E+01 -0.55616814790E+01  0.12140763373E+01  0.59839848100E+01  0.51100000000E-03 0.  1.
        -12    1    3    3    0    0  0.80638081418E+01  0.22006987082E+02  0.32445906029E+02  0.40025857894E+02  0.00000000000E+00 0.  1.
</event>
<event>
 7    1  0.3189267E-013  0.7246161E+02  0.7816164E-02  0.1226708E+00
        -11   -1    0    0    0    0  0.00000000000E+00  0.00000000000E+00  0.45593999997E+02  0.45594000000E+02  0.51100000000E-03 0. -1.
         11   -1    0    0    0    0 -0.00000000000E+00 -0.00000000000E+00 -0.45593999997E+02  0.45594000000E+02  0.51100000000E-03 0.  1.
    9900012    2    1    2    0    0  0.16079150409E+02  0.90249290892E+01 -0.32694325565E+01  0.72461611876E+02  0.70000054168E+02 0.  0.
         12    1    1    2    0    0 -0.16079150409E+02 -0.90249290892E+01  0.32694325565E+01  0.18726388124E+02  0.00000000000E+00 0. -1.
         11    1    3    3    0    0  0.20111082078E+02  0.20002165500E+02  0.12862172794E+02  0.31144465580E+02  0.51100000000E-03 0. -1.
        -11    1    3    3    0    0  0.11682273727E+02  0.49374517186E+01  0.15895320062E+01  0.12782040571E+02  0.51100000000E-03 0.  1.
        -12    1    3    3    0    0 -0.15714205397E+02 -0.15914688129E+02 -0.17721137356E+02  0.28535105724E+02  0.00000000000E+00 0.  1.
</event>
<event>
 7    1  0.3189267E-013  0.7246159E+02  0.7816164E-02  0.1226708E+00
        -11   -1    0    0    0    0  0.00000000000E+00  0.00000000000E+00  0.45593999997E+02  0.45594000000E+02  0.51100000000E-03 0.  1.
         11   -1    0    0    0    0 -0.00000000000E+00 -0.00000000000E+00 -0.45593999997E+02  0.45594000000E+02  0.51100000000E-03 0. -1.
    9900012    2    1    2    0    0 -0.14251218621E+01  0.18665481662E+02 -0.49725304136E+00  0.72461589811E+02  0.70000025423E+02 0.  0.
         12    1    1    2    0    0  0.14251218621E+01 -0.18665481662E+02  0.49725304136E+00  0.18726410189E+02  0.00000000000E+00 0. -1.
         11    1    3    3    0    0  0.22281532464E+02 -0.65182245995E+01 -0.70630017955E+01  0.24266024304E+02  0.51100000000E-03 0. -1.
        -11    1    3    3    0    0  0.71973461704E+01 -0.88773440633E+00  0.18870492707E+01  0.74933850485E+01  0.51100000000E-03 0.  1.
        -12    1    3    3    0    0 -0.30904000497E+02  0.26071440668E+02  0.46786994834E+01  0.40702180458E+02  0.00000000000E+00 0.  1.
</event>
<event>
 7    1  0.3189267E-013  0.7246154E+02  0.7816164E-02  0.1226708E+00
        -11   -1    0    0    0    0  0.00000000000E+00  0.00000000000E+00  0.45593999997E+02  0.45594000000E+02  0.51100000000E-03 0.  1.
         11   -1    0    0    0    0 -0.00000000000E+00 -0.00000000000E+00 -0.45593999997E+02  0.45594000000E+02  0.51100000000E-03 0. -1.
    9900012    2    1    2    0    0  0.17751546871E+02  0.16450175075E+00  0.59611907542E+01  0.72461540849E+02  0.69999961642E+02 0.  0.
         12    1    1    2    0    0 -0.17751546871E+02 -0.16450175075E+00 -0.59611907542E+01  0.18726459151E+02  0.00000000000E+00 0. -1.
         11    1    3    3    0    0  0.64216991361E+01 -0.80630414806E+00  0.86156013819E+01  0.10775756753E+02  0.51100000000E-03 0. -1.
        -11    1    3    3    0    0 -0.17447035618E+02 -0.17795953634E+02  0.72070903489E+01  0.25942959915E+02  0.51100000000E-03 0.  1.
         12    1    3    3    0    0  0.28776883353E+02  0.18766759533E+02 -0.98615009766E+01  0.35742824180E+02  0.00000000000E+00 0. -1.
</event>
<event>
 7    1  0.3189267E-013  0.7246152E+02  0.7816164E-02  0.1226708E+00
        -11   -1    0    0    0    0  0.00000000000E+00  0.00000000000E+00  0.45593999997E+02  0.45594000000E+02  0.51100000000E-03 0.  1.
         11   -1    0    0    0    0 -0.00000000000E+00 -0.00000000000E+00 -0.45593999997E+02  0.45594000000E+02  0.51100000000E-03 0. -1.
    9900012    2    1    2    0    0  0.49927905066E+01  0.17115142576E+02 -0.57292990734E+01  0.72461523281E+02  0.69999938756E+02 0.  0.
         12    1    1    2    0    0 -0.49927905066E+01 -0.17115142576E+02  0.57292990734E+01  0.18726476719E+02  0.00000000000E+00 0. -1.
         11    1    3    3    0    0 -0.60654946293E+01 -0.63348005183E+01  0.79420587580E+01  0.11831999843E+02  0.51100000000E-03 0. -1.
        -11    1    3    3    0    0 -0.98937639497E+01  0.18570220164E+01  0.15656370879E+02  0.18613356635E+02  0.51100000000E-03 0.  1.
         12    1    3    3    0    0  0.20952049086E+02  0.21592921078E+02 -0.29327728710E+02  0.42016166803E+02  0.00000000000E+00 0. -1.
</event>
<event>
 7    1  0.3189267E-013  0.7246158E+02  0.7816164E-02  0.1226708E+00
        -11   -1    0    0    0    0  0.00000000000E+00  0.00000000000E+00  0.45593999997E+02  0.45594000000E+02  0.51100000000E-03 0. -1.
         11   -1    0    0    0    0 -0.00000000000E+00 -0.00000000000E+00 -0.45593999997E+02  0.45594000000E+02  0.51100000000E-03 0.  1.
    9900012    2    1    2    0    0 -0.14064007627E+02  0.28904101395E+00 -0.12361191811E+02  0.72461577004E+02  0.70000008740E+02 0.  0.
         12    1    1    2    0    0  0.14064007627E+02 -0.28904101395E+00  0.12361191811E+02  0.18726422996E+02  0.00000000000E+00 0. -1.
         11    1    3    3    0    0 -0.41617148438E+01  0.28364561671E+00  0.49804865335E+01  0.64965815356E+01  0.51100000000E-03 0. -1.
        -11    1    3    3    0    0  0.24165678458E+02  0.12630193325E+00 -0.20582149940E+02  0.31743044339E+02  0.51100000000E-03 0.  1.
         12    1    3    3    0    0 -0.34067971241E+02 -0.12090653602E+00  0.32404715954E+01  0.34221951129E+02  0.00000000000E+00 0. -1.
</event>
<event>
 7    1  0.3189267E-013  0.7246171E+02  0.7816164E-02  0.1226708E+00
        -11   -1    0    0    0    0  0.00000000000E+00  0.00000000000E+00  0.45593999997E+02  0.45594000000E+02  0.51100000000E-03 0.  1.
         11   -1    0    0    0    0 -0.00000000000E+00 -0.00000000000E+00 -0.45593999997E+02  0.45594000000E+02  0.51100000000E-03 0. -1.
    9900012    2    1    2    0    0  0.35593441922E+01 -0.21998567848E+01  0.18252821849E+02  0.72461713491E+02  0.70000186540E+02 0.  0.
         12    1    1    2    0    0 -0.35593441922E+01  0.21998567848E+01 -0.18252821849E+02  0.18726286509E+02  0.00000000000E+00 0. -1.
         11    1    3    3    0    0 -0.59628392613E+01 -0.46154227302E-01  0.10981487857E+02  0.12496025691E+02  0.51100000000E-03 0. -1.
        -11    1    3    3    0    0  0.42542515839E+01  0.26572290827E+02  0.13495088523E+02  0.30104861914E+02  0.51100000000E-03 0.  1.
         12    1    3    3    0    0  0.52679318696E+01 -0.28725993385E+02 -0.62237545309E+01  0.29860825886E+02  0.00000000000E+00 0. -1.
</event>
<event>
 7    1  0.3189267E-013  0.7246187E+02  0.7816164E-02  0.1226707E+00
        -11   -1    0    0    0    0  0.00000000000E+00  0.00000000000E+00  0.45593999997E+02  0.45594000000E+02  0.51100000000E-03 0.  1.
         11   -1    0    0    0    0 -0.00000000000E+00 -0.00000000000E+00 -0.45593999997E+02  0.45594000000E+02  0.51100000000E-03 0. -1.
    9900012    2    1    2    0    0 -0.15389171014E+02 -0.93592260645E+01  0.51231196008E+01  0.72461867151E+02  0.70000386710E+02 0.  0.
         12    1    1    2    0    0  0.15389171014E+02  0.93592260645E+01 -0.51231196008E+01  0.18726132849E+02  0.00000000000E+00 0. -1.
         11    1    3    3    0    0 -0.62162458167E+01  0.23560023407E+02 -0.70927259434E+01  0.25377611719E+02  0.51100000000E-03 0. -1.
        -11    1    3    3    0    0  0.99444279696E+01 -0.87691094656E+01  0.91960565380E+01  0.16135562729E+02  0.51100000000E-03 0.  1.
        -12    1    3    3    0    0 -0.19117353167E+02 -0.24150140006E+02  0.30197890062E+01  0.30948692703E+02  0.00000000000E+00 0.  1.
</event>
<event>
 7    1  0.3189267E-013  0.7246177E+02  0.7816164E-02  0.1226707E+00
        -11   -1    0    0    0    0  0.00000000000E+00  0.00000000000E+00  0.45593999997E+02  0.45594000000E+02  0.51100000000E-03 0. -1.
         11   -1    0    0    0    0 -0.00000000000E+00 -0.00000000000E+00 -0.45593999997E+02  0.45594000000E+02  0.51100000000E-03 0.  1.
    9900012    2    1    2    0    0 -0.89630932983E+01  0.13598148035E+02 -0.92425577836E+01  0.72461773849E+02  0.70000265168E+02 0.  0.
         12    1    1    2    0    0  0.89630932983E+01 -0.13598148035E+02  0.92425577836E+01  0.18726226151E+02  0.00000000000E+00 0. -1.
         11    1    3    3    0    0 -0.68638108509E+01 -0.64597804599E+01 -0.14319899636E+02  0.17143517399E+02  0.51100000000E-03 0.  1.
        -11    1    3    3    0    0  0.17088307665E+02 -0.37056146184E+01  0.15172202163E+02  0.23150325209E+02  0.51100000000E-03 0. -1.
         12    1    3    3    0    0 -0.19187590112E+02  0.23763543113E+02 -0.10094860311E+02  0.32167931241E+02  0.00000000000E+00 0. -1.
</event>
<event>
 7    1  0.3189267E-013  0.7246153E+02  0.7816164E-02  0.1226708E+00
        -11   -1    0    0    0    0  0.00000000000E+00  0.00000000000E+00  0.45593999997E+02  0.45594000000E+02  0.51100000000E-03 0. -1.
         11   -1    0    0    0    0 -0.00000000000E+00 -0.00000000000E+00 -0.45593999997E+02  0.45594000000E+02  0.51100000000E-03 0.  1.
    9900012    2    1    2    0    0 -0.63127560058E+01 -0.51761716356E+01 -0.16853394351E+02  0.72461533640E+02  0.69999952251E+02 0.  0.
         12    1    1    2    0    0  0.63127560058E+01  0.51761716356E+01  0.16853394351E+02  0.18726466360E+02  0.00000000000E+00 0. -1.
         11    1    3    3    0    0  0.16706102922E+02 -0.21798207488E+02  0.26568966211E+01  0.27591934047E+02  0.51100000000E-03 0. -1.
        -11    1    3    3    0    0  0.60421969543E+01 -0.10841547403E+01 -0.13055360145E+01  0.62759827981E+01  0.51100000000E-03 0.  1.
        -12    1    3    3    0    0 -0.29061055882E+02  0.17706190593E+02 -0.18204754957E+02  0.38593616795E+02  0.00000000000E+00 0.  1.
</event>
<event>
 7    1  0.3189267E-013  0.7246156E+02  0.7816164E-02  0.1226708E+00
        -11   -1    0    0    0    0  0.00000000000E+00  0.00000000000E+00  0.45593999997E+02  0.45594000000E+02  0.51100000000E-03 0.  1.
         11   -1    0    0    0    0 -0.00000000000E+00 -0.00000000000E+00 -0.45593999997E+02  0.45594000000E+02  0.51100000000E-03 0. -1.
    9900012    2    1    2    0    0 -0.85861762408E+01 -0.11209859302E+02  0.12300256616E+02  0.72461556642E+02  0.69999982215E+02 0.  0.
         12    1    1    2    0    0  0.85861762408E+01  0.11209859302E+02 -0.12300256616E+02  0.18726443358E+02  0.00000000000E+00 0. -1.
         11    1    3    3    0    0  0.19193626110E+02 -0.14755473167E+02  0.12097716203E+02  0.27064257041E+02  0.51100000000E-03 0. -1.
        -11    1    3    3    0    0  0.39920795760E+01  0.97612362324E+01  0.65391595570E+01  0.12408829119E+02  0.51100000000E-03 0.  1.
        -12    1    3    3    0    0 -0.31771881926E+02 -0.62156223676E+01 -0.63366191437E+01  0.32988470482E+02  0.00000000000E+00 0.  1.
</event>
<event>
 7    1  0.3189267E-013  0.7246158E+02  0.7816164E-02  0.1226708E+00
        -11   -1    0    0    0    0  0.00000000000E+00  0.00000000000E+00  0.45593999997E+02  0.45594000000E+02  0.51100000000E-03 0.  1.
         11   -1    0    0    0    0 -0.00000000000E+00 -0.00000000000E+00 -0.45593999997E+02  0.45594000000E+02  0.51100000000E-03 0. -1.
    9900012    2    1    2    0    0  0.14091637490E+02  0.12313972563E+02  0.68602928380E+00  0.72461580064E+02  0.70000012726E+02 0.  0.
         12    1    1    2    0    0 -0.14091637490E+02 -0.12313972563E+02 -0.68602928380E+00  0.18726419936E+02  0.00000000000E+00 0. -1.
         11    1    3    3    0    0  0.10888621429E+02 -0.13347608719E+02  0.31746253502E+00  0.17228508869E+02  0.51100000000E-03 0. -1.
        -11    1    3    3    0    0 -0.28513196747E+01 -0.95044453784E+00  0.20878342214E+02  0.21093566378E+02  0.51100000000E-03 0.  1.
         12    1    3    3    0    0  0.60543357364E+01  0.26612025820E+02 -0.20509775465E+02  0.34139504816E+02  0.00000000000E+00 0. -1.
</event>
<event>
 7    1  0.3189267E-013  0.7246144E+02  0.7816164E-02  0.1226708E+00
        -11   -1    0    0    0    0  0.00000000000E+00  0.00000000000E+00  0.45593999997E+02  0.45594000000E+02  0.51100000000E-03 0.  1.
         11   -1    0    0    0    0 -0.00000000000E+00 -0.00000000000E+00 -0.45593999997E+02  0.45594000000E+02  0.51100000000E-03 0. -1.
    9900012    2    1    2    0    0 -0.38861876922E+01  0.65730182348E+01  0.17099034980E+02  0.72461440766E+02  0.69999831265E+02 0.  0.
         12    1    1    2    0    0  0.38861876922E+01 -0.65730182348E+01 -0.17099034980E+02  0.18726559234E+02  0.00000000000E+00 0. -1.
         11    1    3    3    0    0 -0.11535165838E+02 -0.78758733864E+01 -0.17970759341E+02  0.22760439892E+02  0.51100000000E-03 0. -1.
        -11    1    3    3    0    0 -0.11067226900E+02  0.39550053598E+01  0.50277512063E+01  0.12782951972E+02  0.51100000000E-03 0.  1.
        -12    1    3    3    0    0  0.18716205046E+02  0.10493886261E+02  0.30042043115E+02  0.36918048902E+02  0.00000000000E+00 0.  1.
</event>
<event>
 7    1  0.3189267E-013  0.7246162E+02  0.7816164E-02  0.1226708E+00
        -11   -1    0    0    0    0  0.00000000000E+00  0.00000000000E+00  0.45593999997E+02  0.45594000000E+02  0.51100000000E-03 0.  1.
         11   -1    0    0    0    0 -0.00000000000E+00 -0.00000000000E+00 -0.45593999997E+02  0.45594000000E+02  0.51100000000E-03 0. -1.
    9900012    2    1    2    0    0 -0.98682318625E-01 -0.18627478013E+02 -0.19195396660E+01  0.72461620002E+02  0.70000064753E+02 0.  0.
         12    1    1    2    0    0  0.98682318625E-01  0.18627478013E+02  0.19195396660E+01  0.18726379998E+02  0.00000000000E+00 0. -1.
         11    1    3    3    0    0 -0.15862225594E+02 -0.96865561830E+01 -0.24829289810E+02  0.31015048029E+02  0.51100000000E-03 0. -1.
        -11    1    3    3    0    0 -0.80182150961E+01 -0.57355848581E+01  0.31144398648E+01  0.10338686712E+02  0.51100000000E-03 0.  1.
        -12    1    3    3    0    0  0.23781758372E+02 -0.32053369716E+01  0.19795310279E+02  0.31107885261E+02  0.00000000000E+00 0.  1.
</event>
<event>
 7    1  0.3189267E-013  0.7246156E+02  0.7816164E-02  0.1226708E+00
        -11   -1    0    0    0    0  0.00000000000E+00  0.00000000000E+00  0.45593999997E+02  0.45594000000E+02  0.51100000000E-03 0.  1.
         11   -1    0    0    0    0 -0.00000000000E+00 -0.00000000000E+00 -0.45593999997E+02  0.45594000000E+02  0.51100000000E-03 0. -1.
    9900012    2    1    2    0    0  0.72783937786E+00  0.73044659908E+01  0.17227723555E+02  0.72461563274E+02  0.69999990854E+02 0.  0.
         12    1    1    2    0    0 -0.72783937786E+00 -0.73044659908E+01 -0.17227723555E+02  0.18726436726E+02  0.00000000000E+00 0. -1.
         11    1    3    3    0    0 -0.33177915232E+01 -0.67321321564E+01 -0.13003524076E+01  0.76171031638E+01  0.51100000000E-03 0. -1.
        -11    1    3    3    0    0 -0.86613471602E-01 -0.19216864035E+02 -0.92419073189E+01  0.21323888398E+02  0.51100000000E-03 0.  1.
         12    1    3    3    0    0  0.41322443727E+01  0.33253462183E+02  0.27769983282E+02  0.43520571712E+02  0.00000000000E+00 0. -1.
</event>
<event>
 7    1  0.3189267E-013  0.7246162E+02  0.7816164E-02  0.1226708E+00
        -11   -1    0    0    0    0  0.00000000000E+00  0.00000000000E+00  0.45593999997E+02  0.45594000000E+02  0.51100000000E-03 0.  1.
         11   -1    0    0    0    0 -0.00000000000E+00 -0.00000000000E+00 -0.45593999997E+02  0.45594000000E+02  0.51100000000E-03 0. -1.
    9900012    2    1    2    0    0 -0.57729659459E+01  0.10864372554E+02  0.14117913485E+02  0.72461622668E+02  0.70000068226E+02 0.  0.
         12    1    1    2    0    0  0.57729659459E+01 -0.10864372554E+02 -0.14117913485E+02  0.18726377332E+02  0.00000000000E+00 0. -1.
         11    1    3    3    0    0 -0.25329499212E+01 -0.38075358231E+00  0.27947679059E+00  0.25766094254E+01  0.51100000000E-03 0. -1.
        -11    1    3    3    0    0 -0.27390679016E+02 -0.15905247350E+02  0.10614532260E+02  0.33405006894E+02  0.51100000000E-03 0.  1.
         12    1    3    3    0    0  0.24150662991E+02  0.27150373486E+02  0.32239044343E+01  0.36480006348E+02  0.00000000000E+00 0. -1.
</event>
<event>
 7    1  0.3189267E-013  0.7246159E+02  0.7816164E-02  0.1226708E+00
        -11   -1    0    0    0    0  0.00000000000E+00  0.00000000000E+00  0.45593999997E+02  0.45594000000E+02  0.51100000000E-03 0. -1.
         11   -1    0    0    0    0 -0.00000000000E+00 -0.00000000000E+00 -0.45593999997E+02  0.45594000000E+02  0.51100000000E-03 0.  1.
    9900012    2    1    2    0    0  0.13244116517E+02  0.57830031785E+01 -0.11909192231E+02  0.72461585296E+02  0.70000019542E+02 0.  0.
         12    1    1    2    0    0 -0.13244116517E+02 -0.57830031785E+01  0.11909192231E+02  0.18726414704E+02  0.00000000000E+00 0. -1.
         11    1    3    3    0    0 -0.27352055257E+01  0.52073672338E+01 -0.16286010726E+02  0.17315662517E+02  0.51100000000E-03 0.  1.
        -11    1    3    3    0    0  0.21371149118E+02  0.22801566118E+02 -0.22571965553E+01  0.31332608710E+02  0.51100000000E-03 0. -1.
         12    1    3    3    0    0 -0.53918270748E+01 -0.22225930173E+02  0.66340150502E+01  0.23813314069E+02  0.00000000000E+00 0. -1.
</event>
<event>
 7    1  0.3189267E-013  0.7246175E+02  0.7816164E-02  0.1226708E+00
        -11   -1    0    0    0    0  0.00000000000E+00  0.00000000000E+00  0.45593999997E+02  0.45594000000E+02  0.51100000000E-03 0.  1.
         11   -1    0    0    0    0 -0.00000000000E+00 -0.00000000000E+00 -0.45593999997E+02  0.45594000000E+02  0.51100000000E-03 0. -1.
    9900012    2    1    2    0    0 -0.17286419020E+02 -0.67630637299E+01 -0.24724741520E+01  0.72461749922E+02  0.70000233998E+02 0.  0.
         12    1    1    2    0    0  0.17286419020E+02  0.67630637299E+01  0.24724741520E+01  0.18726250078E+02  0.00000000000E+00 0. -1.
         11    1    3    3    0    0 -0.16515882214E+02  0.60885033532E+01 -0.10542734024E+02  0.20518125630E+02  0.51100000000E-03 0. -1.
        -11    1    3    3    0    0 -0.11077486000E+02  0.25830679761E+01  0.24592199055E+02  0.27095372131E+02  0.51100000000E-03 0.  1.
         12    1    3    3    0    0  0.10306949195E+02 -0.15434635059E+02 -0.16521939184E+02  0.24848252162E+02  0.00000000000E+00 0. -1.
</event>
<event>
 7    1  0.3189267E-013  0.7246147E+02  0.7816164E-02  0.1226708E+00
        -11   -1    0    0    0    0  0.00000000000E+00  0.00000000000E+00  0.45593999997E+02  0.45594000000E+02  0.51100000000E-03 0.  1.
         11   -1    0    0    0    0 -0.00000000000E+00 -0.00000000000E+00 -0.45593999997E+02  0.45594000000E+02  0.51100000000E-03 0. -1.
    9900012    2    1    2    0    0 -0.11463685478E+02  0.37469723912E+01  0.14325753541E+02  0.72461465314E+02  0.69999863243E+02 0.  0.
         12    1    1    2    0    0  0.11463685478E+02 -0.37469723912E+01 -0.14325753541E+02  0.18726534686E+02  0.00000000000E+00 0. -1.
         11    1    3    3    0    0 -0.22438991034E+02  0.10870186871E+02 -0.16691583432E+01  0.24989105047E+02  0.51100000000E-03 0. -1.
        -11    1    3    3    0    0 -0.27712589986E+01 -0.21703201204E+02  0.74854668536E-01  0.21879543469E+02  0.51100000000E-03 0.  1.
        -12    1    3    3    0    0  0.13746564554E+02  0.14579986723E+02  0.15920057215E+02  0.25592816798E+02  0.00000000000E+00 0.  1.
</event>
<event>
 7    1  0.3189267E-013  0.7246157E+02  0.7816164E-02  0.1226708E+00
        -11   -1    0    0    0    0  0.00000000000E+00  0.00000000000E+00  0.45593999997E+02  0.45594000000E+02  0.51100000000E-03 0.  1.
         11   -1    0    0    0    0 -0.00000000000E+00 -0.00000000000E+00 -0.45593999997E+02  0.45594000000E+02  0.51100000000E-03 0. -1.
    9900012    2    1    2    0    0 -0.12323431243E+02  0.69300603637E+01  0.12279509073E+02  0.72461573824E+02  0.70000004598E+02 0.  0.
         12    1    1    2    0    0  0.12323431243E+02 -0.69300603637E+01 -0.12279509073E+02  0.18726426176E+02  0.00000000000E+00 0. -1.
         11    1    3    3    0    0 -0.35921856840E+02 -0.90740135328E+01  0.10633919066E+02  0.38546047208E+02  0.51100000000E-03 0. -1.
        -11    1    3    3    0    0 -0.57158482075E+00  0.70370215691E+01 -0.30859003679E+01  0.77051387472E+01  0.51100000000E-03 0.  1.
        -12    1    3    3    0    0  0.24170010418E+02  0.89670523274E+01  0.47314903756E+01  0.26210387868E+02  0.00000000000E+00 0.  1.
</event>
<event>
 7    1  0.3189267E-013  0.7246158E+02  0.7816164E-02  0.1226708E+00
        -11   -1    0    0    0    0  0.00000000000E+00  0.00000000000E+00  0.45593999997E+02  0.45594000000E+02  0.51100000000E-03 0. -1.
         11   -1    0    0    0    0 -0.00000000000E+00 -0.00000000000E+00 -0.45593999997E+02  0.45594000000E+02  0.51100000000E-03 0.  1.
    9900012    2    1    2    0    0  0.17171463887E+02 -0.74655395089E+01 -0.29187171476E+00  0.72461584399E+02  0.70000018374E+02 0.  0.
         12    1    1    2    0    0 -0.17171463887E+02  0.74655395089E+01  0.29187171476E+00  0.18726415601E+02  0.00000000000E+00 0. -1.
         11    1    3    3    0    0  0.66761159161E+01  0.53540659835E+00 -0.73495926319E+01  0.99435253339E+01  0.51100000000E-03 0. -1.
        -11    1    3    3    0    0  0.22390026315E+02 -0.29497150347E+02  0.28306892056E+00  0.37033434694E+02  0.51100000000E-03 0.  1.
         12    1    3    3    0    0 -0.11894678345E+02  0.21496204240E+02  0.67746519966E+01  0.25484624370E+02  0.00000000000E+00 0. -1.
</event>
<event>
 7    1  0.3189267E-013  0.7246138E+02  0.7816164E-02  0.1226709E+00
        -11   -1    0    0    0    0  0.00000000000E+00  0.00000000000E+00  0.45593999997E+02  0.45594000000E+02  0.51100000000E-03 0.  1.
         11   -1    0    0    0    0 -0.00000000000E+00 -0.00000000000E+00 -0.45593999997E+02  0.45594000000E+02  0.51100000000E-03 0. -1.
    9900012    2    1    2    0    0  0.64835108765E+00 -0.14313214765E+02  0.12058097811E+02  0.72461382610E+02  0.69999755506E+02 0.  0.
         12    1    1    2    0    0 -0.64835108765E+00  0.14313214765E+02 -0.12058097811E+02  0.18726617390E+02  0.00000000000E+00 0. -1.
         11    1    3    3    0    0 -0.76287551842E-01 -0.12476143489E+02  0.86989973800E+01  0.15209619714E+02  0.51100000000E-03 0. -1.
        -11    1    3    3    0    0  0.23882527919E+02 -0.10531226763E+02 -0.11361402753E+02  0.28466881630E+02  0.51100000000E-03 0.  1.
         12    1    3    3    0    0 -0.23157889280E+02  0.86941554871E+01  0.14720503184E+02  0.28784881266E+02  0.00000000000E+00 0. -1.
</event>
<event>
 7    1  0.4095578E-013  0.7246164E+02  0.7816164E-02  0.1226708E+00
        -11   -1    0    0    0    0  0.00000000000E+00  0.00000000000E+00  0.45593999997E+02  0.45594000000E+02  0.51100000000E-03 0. -1.
         11   -1    0    0    0    0 -0.00000000000E+00 -0.00000000000E+00 -0.45593999997E+02  0.45594000000E+02  0.51100000000E-03 0.  1.
    9900012    2    1    2    0    0 -0.11358812850E+01 -0.79891345927E+01 -0.16898523839E+02  0.72461638747E+02  0.70000089172E+02 0.  0.
         12    1    1    2    0    0  0.11358812850E+01  0.79891345927E+01  0.16898523839E+02  0.18726361253E+02  0.00000000000E+00 0. -1.
         11    1    3    3    0    0 -0.35587595000E+01  0.26273398477E+02 -0.43224018856E+01  0.26863346684E+02  0.51100000000E-03 0. -1.
        -11    1    3    3    0    0  0.53154079184E+01 -0.62658802023E+01  0.74211206283E+01  0.11071939653E+02  0.51100000000E-03 0.  1.
        -12    1    3    3    0    0 -0.28925297033E+01 -0.27996652868E+02 -0.19997242582E+02  0.34526352410E+02  0.00000000000E+00 0.  1.
</event>
<event>
 7    1  0.3189267E-013  0.7246166E+02  0.7816164E-02  0.1226708E+00
        -11   -1    0    0    0    0  0.00000000000E+00  0.00000000000E+00  0.45593999997E+02  0.45594000000E+02  0.51100000000E-03 0.  1.
         11   -1    0    0    0    0 -0.00000000000E+00 -0.00000000000E+00 -0.45593999997E+02  0.45594000000E+02  0.51100000000E-03 0. -1.
    9900012    2    1    2    0    0  0.17636924500E+02  0.56535976106E+01  0.27661453825E+01  0.72461659406E+02  0.70000116084E+02 0.  0.
         12    1    1    2    0    0 -0.17636924500E+02 -0.56535976106E+01 -0.27661453825E+01  0.18726340594E+02  0.00000000000E+00 0. -1.
         11    1    3    3    0    0 -0.14519930418E+02  0.17222638272E+02  0.58095668767E+01  0.23263678040E+02  0.51100000000E-03 0. -1.
        -11    1    3    3    0    0  0.12159506431E+02 -0.17653714604E+02  0.10923143807E+02  0.24058726210E+02  0.51100000000E-03 0.  1.
        -12    1    3    3    0    0  0.19997348487E+02  0.60846739430E+01 -0.13966565301E+02  0.25139255156E+02  0.00000000000E+00 0.  1.
</event>
<event>
 7    1  0.3189267E-013  0.7246156E+02  0.7816164E-02  0.1226708E+00
        -11   -1    0    0    0    0  0.00000000000E+00  0.00000000000E+00  0.45593999997E+02  0.45594000000E+02  0.51100000000E-03 0.  1.
         11   -1    0    0    0    0 -0.00000000000E+00 -0.00000000000E+00 -0.45593999997E+02  0.45594000000E+02  0.51100000000E-03 0. -1.
    9900012    2    1    2    0    0 -0.22517504688E+00 -0.16579659798E+02  0.87030913663E+01  0.72461558209E+02  0.69999984256E+02 0.  0.
         12    1    1    2    0    0  0.22517504688E+00  0.16579659798E+02 -0.87030913663E+01  0.18726441791E+02  0.00000000000E+00 0. -1.
         11    1    3    3    0    0  0.34844267403E+01  0.73287186973E+00  0.97374196316E+01  0.10368011971E+02  0.51100000000E-03 0. -1.
        -11    1    3    3    0    0  0.35458322426E+00  0.15290052069E+02  0.18395836487E+02  0.23923173323E+02  0.51100000000E-03 0.  1.
         12    1    3    3    0    0 -0.40641850115E+01 -0.32602583737E+02 -0.19430164752E+02  0.38170372915E+02  0.00000000000E+00 0. -1.
</event>
<event>
 7    1  0.3189267E-013  0.7246160E+02  0.7816164E-02  0.1226708E+00
        -11   -1    0    0    0    0  0.00000000000E+00  0.00000000000E+00  0.45593999997E+02  0.45594000000E+02  0.51100000000E-03 0. -1.
         11   -1    0    0    0    0 -0.00000000000E+00 -0.00000000000E+00 -0.45593999997E+02  0.45594000000E+02  0.51100000000E-03 0.  1.
    9900012    2    1    2    0    0 -0.31605740292E+01 -0.15611629833E+02 -0.98471217056E+01  0.72461600984E+02  0.70000039979E+02 0.  0.
         12    1    1    2    0    0  0.31605740292E+01  0.15611629833E+02  0.98471217056E+01  0.18726399016E+02  0.00000000000E+00 0. -1.
         11    1    3    3    0    0  0.42739371266E+01 -0.14161484367E+02  0.17830049116E+02  0.23167322456E+02  0.51100000000E-03 0. -1.
        -11    1    3    3    0    0  0.74708542204E+01  0.43992812150E+01  0.69712065602E+01  0.11124974569E+02  0.51100000000E-03 0.  1.
         12    1    3    3    0    0 -0.14905365376E+02 -0.58494266809E+01 -0.34648377382E+02  0.38169303959E+02  0.00000000000E+00 0. -1.
</event>
<event>
 7    1  0.3189267E-013  0.7246164E+02  0.7816164E-02  0.1226708E+00
        -11   -1    0    0    0    0  0.00000000000E+00  0.00000000000E+00  0.45593999997E+02  0.45594000000E+02  0.51100000000E-03 0.  1.
         11   -1    0    0    0    0 -0.00000000000E+00 -0.00000000000E+00 -0.45593999997E+02  0.45594000000E+02  0.51100000000E-03 0. -1.
    9900012    2    1    2    0    0  0.61202515109E+01  0.17623474587E+02 -0.16223673487E+01  0.72461643950E+02  0.70000095951E+02 0.  0.
         12    1    1    2    0    0 -0.61202515109E+01 -0.17623474587E+02  0.16223673487E+01  0.18726356050E+02  0.00000000000E+00 0. -1.
         11    1    3    3    0    0  0.89245248664E+01  0.18919869301E+01 -0.24724979298E+02  0.26354342340E+02  0.51100000000E-03 0. -1.
        -11    1    3    3    0    0 -0.25337450277E+01  0.82062325782E+01 -0.94064778029E+01  0.12737501400E+02  0.51100000000E-03 0.  1.
        -12    1    3    3    0    0 -0.27052832775E+00  0.75252550788E+01  0.32509089752E+02  0.33369800211E+02  0.00000000000E+00 0.  1.
</event>
<event>
 7    1  0.3189267E-013  0.7246120E+02  0.7816164E-02  0.1226709E+00
        -11   -1    0    0    0    0  0.00000000000E+00  0.00000000000E+00  0.45593999997E+02  0.45594000000E+02  0.51100000000E-03 0.  1.
         11   -1    0    0    0    0 -0.00000000000E+00 -0.00000000000E+00 -0.45593999997E+02  0.45594000000E+02  0.51100000000E-03 0. -1.
    9900012    2    1    2    0    0  0.75621909703E+01  0.16364625560E+02 -0.50700551591E+01  0.72461196714E+02  0.69999513341E+02 0.  0.
         12    1    1    2    0    0 -0.75621909703E+01 -0.16364625560E+02  0.50700551591E+01  0.18726803286E+02  0.00000000000E+00 0. -1.
         11    1    3    3    0    0  0.28354172231E+02  0.12877083514E+02 -0.53696788110E+01  0.31600819824E+02  0.51100000000E-03 0. -1.
        -11    1    3    3    0    0  0.11155140777E+00  0.77816579121E+01  0.13632604615E+02  0.15697597027E+02  0.51100000000E-03 0.  1.
        -12    1    3    3    0    0 -0.20903532669E+02 -0.42941158661E+01 -0.13332980963E+02  0.25162779864E+02  0.00000000000E+00 0.  1.
</event>
<event>
 7    1  0.3189267E-013  0.7246162E+02  0.7816164E-02  0.1226708E+00
        -11   -1    0    0    0    0  0.00000000000E+00  0.00000000000E+00  0.45593999997E+02  0.45594000000E+02  0.51100000000E-03 0. -1.
         11   -1    0    0    0    0 -0.00000000000E+00 -0.00000000000E+00 -0.45593999997E+02  0.45594000000E+02  0.51100000000E-03 0.  1.
    9900012    2    1    2    0    0 -0.33648413985E+01 -0.14629313749E+02  0.11195465666E+02  0.72461616743E+02  0.70000060507E+02 0.  0.
         12    1    1    2    0    0  0.33648413985E+01  0.14629313749E+02 -0.11195465666E+02  0.18726383257E+02  0.00000000000E+00 0. -1.
         11    1    3    3    0    0 -0.18835489877E+02 -0.97120369902E+01  0.18223485947E+02  0.27949861927E+02  0.51100000000E-03 0. -1.
        -11    1    3    3    0    0  0.15904286638E+02 -0.21203174428E+02  0.62417606531E+00  0.26512460001E+02  0.51100000000E-03 0.  1.
        -12    1    3    3    0    0 -0.43363815951E+00  0.16285897669E+02 -0.76521963458E+01  0.17999294815E+02  0.00000000000E+00 0.  1.
</event>
<event>
 7    1  0.3189267E-013  0.7246156E+02  0.7816164E-02  0.1226708E+00
        -11   -1    0    0    0    0  0.00000000000E+00  0.00000000000E+00  0.45593999997E+02  0.45594000000E+02  0.51100000000E-03 0.  1.
         11   -1    0    0    0    0 -0.00000000000E+00 -0.00000000000E+00 -0.45593999997E+02  0.45594000000E+02  0.51100000000E-03 0. -1.
    9900012    2    1    2    0    0 -0.13337577468E+02 -0.60714603325E+01 -0.11658720944E+02  0.72461564746E+02  0.69999992772E+02 0.  0.
         12    1    1    2    0    0  0.13337577468E+02  0.60714603325E+01  0.11658720944E+02  0.18726435254E+02  0.00000000000E+00 0. -1.
         11    1    3    3    0    0  0.11215340315E+01  0.32416353936E+01  0.18486651114E+01  0.38966141154E+01  0.51100000000E-03 0. -1.
        -11    1    3    3    0    0 -0.12817958610E+01  0.20254675638E+02 -0.26760346352E+02  0.33585875349E+02  0.51100000000E-03 0.  1.
         12    1    3    3    0    0 -0.13177315639E+02 -0.29567771364E+02  0.13252960297E+02  0.34979075281E+02  0.00000000000E+00 0. -1.
</event>
<event>
 7    1  0.3189267E-013  0.7246152E+02  0.7816164E-02  0.1226708E+00
        -11   -1    0    0    0    0  0.00000000000E+00  0.00000000000E+00  0.45593999997E+02  0.45594000000E+02  0.51100000000E-03 0. -1.
         11   -1    0    0    0    0 -0.00000000000E+00 -0.00000000000E+00 -0.45593999997E+02  0.45594000000E+02  0.51100000000E-03 0.  1.
    9900012    2    1    2    0    0  0.13471250942E+02 -0.99055670386E+01  0.84312673648E+01  0.72461517958E+02  0.69999931822E+02 0.  0.
         12    1    1    2    0    0 -0.13471250942E+02  0.99055670386E+01 -0.84312673648E+01  0.18726482042E+02  0.00000000000E+00 0. -1.
         11    1    3    3    0    0  0.13147298403E+01 -0.10950252984E+02  0.11390034093E+02  0.15854634397E+02  0.51100000000E-03 0. -1.
        -11    1    3    3    0    0  0.95432736705E+01  0.31798488893E+01  0.25778796854E+02  0.27671860776E+02  0.51100000000E-03 0.  1.
        -12    1    3    3    0    0  0.26132474316E+01 -0.21351629435E+01 -0.28737563582E+02  0.28935022784E+02  0.00000000000E+00 0.  1.
</event>
<event>
 7    1  0.3189267E-013  0.7246154E+02  0.7816164E-02  0.1226708E+00
        -11   -1    0    0    0    0  0.00000000000E+00  0.00000000000E+00  0.45593999997E+02  0.45594000000E+02  0.51100000000E-03 0.  1.
         11   -1    0    0    0    0 -0.00000000000E+00 -0.00000000000E+00 -0.45593999997E+02  0.45594000000E+02  0.51100000000E-03 0. -1.
    9900012    2    1    2    0    0 -0.16345851220E+02 -0.58654217340E+01 -0.70064393039E+01  0.72461542355E+02  0.69999963604E+02 0.  0.
         12    1    1    2    0    0  0.16345851220E+02  0.58654217340E+01  0.70064393039E+01  0.18726457645E+02  0.00000000000E+00 0. -1.
         11    1    3    3    0    0  0.37751333787E+01  0.98775510032E+01 -0.15389421928E+02  0.18672224114E+02  0.51100000000E-03 0. -1.
        -11    1    3    3    0    0 -0.20627373187E+00  0.98656048870E+01 -0.11954327188E+02  0.15500924083E+02  0.51100000000E-03 0.  1.
         12    1    3    3    0    0 -0.19914710867E+02 -0.25608577624E+02  0.20337309812E+02  0.38288394158E+02  0.00000000000E+00 0. -1.
</event>
<event>
 7    1  0.3189267E-013  0.7246163E+02  0.7816164E-02  0.1226708E+00
        -11   -1    0    0    0    0  0.00000000000E+00  0.00000000000E+00  0.45593999997E+02  0.45594000000E+02  0.51100000000E-03 0.  1.
         11   -1    0    0    0    0 -0.00000000000E+00 -0.00000000000E+00 -0.45593999997E+02  0.45594000000E+02  0.51100000000E-03 0. -1.
    9900012    2    1    2    0    0  0.72568933629E+01  0.40621140930E+01  0.16778370588E+02  0.72461628441E+02  0.70000075746E+02 0.  0.
         12    1    1    2    0    0 -0.72568933629E+01 -0.40621140930E+01 -0.16778370588E+02  0.18726371559E+02  0.00000000000E+00 0. -1.
         11    1    3    3    0    0  0.37798193966E+01  0.36403783591E+01 -0.18108120823E+02  0.18853207400E+02  0.51100000000E-03 0. -1.
        -11    1    3    3    0    0 -0.17752162200E+02  0.60250564359E+01  0.15906980253E+02  0.24586024259E+02  0.51100000000E-03 0.  1.
         12    1    3    3    0    0  0.21229236167E+02 -0.56033207020E+01  0.18979511159E+02  0.29022396781E+02  0.00000000000E+00 0. -1.
</event>
<event>
 7    1  0.3189267E-013  0.7246157E+02  0.7816164E-02  0.1226708E+00
        -11   -1    0    0    0    0  0.00000000000E+00  0.00000000000E+00  0.45593999997E+02  0.45594000000E+02  0.51100000000E-03 0. -1.
         11   -1    0    0    0    0 -0.00000000000E+00 -0.00000000000E+00 -0.45593999997E+02  0.45594000000E+02  0.51100000000E-03 0.  1.
    9900012    2    1    2    0    0  0.14946575988E+02  0.98096421452E+01  0.55722558880E+01  0.72461568186E+02  0.69999997254E+02 0.  0.
         12    1    1    2    0    0 -0.14946575988E+02 -0.98096421452E+01 -0.55722558880E+01  0.18726431814E+02  0.00000000000E+00 0. -1.
         11    1    3    3    0    0 -0.55820746194E+01 -0.22448197997E+01 -0.47950899503E+01  0.76936116930E+01  0.51100000000E-03 0. -1.
        -11    1    3    3    0    0  0.15880062747E+02  0.92744975993E+01 -0.23854425329E+02  0.30120197652E+02  0.51100000000E-03 0.  1.
         12    1    3    3    0    0  0.46485878610E+01  0.27799643456E+01  0.34221771167E+02  0.34647758841E+02  0.00000000000E+00 0. -1.
</event>
<event>
 7    1  0.3189267E-013  0.7246157E+02  0.7816164E-02  0.1226708E+00
        -11   -1    0    0    0    0  0.00000000000E+00  0.00000000000E+00  0.45593999997E+02  0.45594000000E+02  0.51100000000E-03 0. -1.
         11   -1    0    0    0    0 -0.00000000000E+00 -0.00000000000E+00 -0.45593999997E+02  0.45594000000E+02  0.51100000000E-03 0.  1.
    9900012    2    1    2    0    0  0.77928319290E+01  0.14085155994E+02 -0.95686692289E+01  0.72461567353E+02  0.69999996169E+02 0.  0.
         12    1    1    2    0    0 -0.77928319290E+01 -0.14085155994E+02  0.95686692289E+01  0.18726432647E+02  0.00000000000E+00 0. -1.
         11    1    3    3    0    0 -0.60223010131E+01 -0.10604389729E+02 -0.71894121197E+01  0.14156582847E+02  0.51100000000E-03 0. -1.
        -11    1    3    3    0    0  0.17768150300E+02  0.28009958730E+02 -0.20814839225E+02  0.39160215594E+02  0.51100000000E-03 0.  1.
         12    1    3    3    0    0 -0.39530173577E+01 -0.33204130072E+01  0.18435582116E+02  0.19144768913E+02  0.00000000000E+00 0. -1.
</event>
<event>
 7    1  0.3189267E-013  0.7246149E+02  0.7816164E-02  0.1226708E+00
        -11   -1    0    0    0    0  0.00000000000E+00  0.00000000000E+00  0.45593999997E+02  0.45594000000E+02  0.51100000000E-03 0.  1.
         11   -1    0    0    0    0 -0.00000000000E+00 -0.00000000000E+00 -0.45593999997E+02  0.45594000000E+02  0.51100000000E-03 0. -1.
    9900012    2    1    2    0    0  0.69027223776E+01 -0.15167120377E+01  0.17341690585E+02  0.72461488740E+02  0.69999893760E+02 0.  0.
         12    1    1    2    0    0 -0.69027223776E+01  0.15167120377E+01 -0.17341690585E+02  0.18726511260E+02  0.00000000000E+00 0. -1.
         11    1    3    3    0    0 -0.84371995721E+01  0.40153045384E+01 -0.14088577722E+02  0.16905532516E+02  0.51100000000E-03 0. -1.
        -11    1    3    3    0    0  0.17975626693E+02  0.16018788424E+02  0.17379201602E+02  0.29694467266E+02  0.51100000000E-03 0.  1.
         12    1    3    3    0    0 -0.26357047436E+01 -0.21550805000E+02  0.14051066704E+02  0.25861488959E+02  0.00000000000E+00 0. -1.
</event>
<event>
 7    1  0.3189267E-013  0.7246155E+02  0.7816164E-02  0.1226708E+00
        -11   -1    0    0    0    0  0.00000000000E+00  0.00000000000E+00  0.45593999997E+02  0.45594000000E+02  0.51100000000E-03 0.  1.
         11   -1    0    0    0    0 -0.00000000000E+00 -0.00000000000E+00 -0.45593999997E+02  0.45594000000E+02  0.51100000000E-03 0. -1.
    9900012    2    1    2    0    0  0.15586617787E+02 -0.99609793709E+01 -0.29182368736E+01  0.72461551577E+02  0.69999975618E+02 0.  0.
         12    1    1    2    0    0 -0.15586617787E+02  0.99609793709E+01  0.29182368736E+01  0.18726448423E+02  0.00000000000E+00 0. -1.
         11    1    3    3    0    0  0.19735864966E+01  0.41612106216E+01  0.87797343564E+00  0.46884491158E+01  0.51100000000E-03 0. -1.
        -11    1    3    3    0    0  0.39682314739E+02 -0.56033025241E+01  0.70176345844E-01  0.40076028086E+02  0.51100000000E-03 0.  1.
         12    1    3    3    0    0 -0.26069283448E+02 -0.85188874684E+01 -0.38663866551E+01  0.27697074375E+02  0.00000000000E+00 0. -1.
</event>
<event>
 7    1  0.3280334E-013  0.7246157E+02  0.7816164E-02  0.1226708E+00
        -11   -1    0    0    0    0  0.00000000000E+00  0.00000000000E+00  0.45593999997E+02  0.45594000000E+02  0.51100000000E-03 0. -1.
         11   -1    0    0    0    0 -0.00000000000E+00 -0.00000000000E+00 -0.45593999997E+02  0.45594000000E+02  0.51100000000E-03 0.  1.
    9900012    2    1    2    0    0  0.50015974754E+01  0.99633071809E-02 -0.18046142318E+02  0.72461566032E+02  0.69999994448E+02 0.  0.
         12    1    1    2    0    0 -0.50015974754E+01 -0.99633071809E-02  0.18046142318E+02  0.18726433968E+02  0.00000000000E+00 0. -1.
         11    1    3    3    0    0 -0.86752897522E+01  0.12853859322E+02  0.80872548677E+01  0.17489598146E+02  0.51100000000E-03 0. -1.
        -11    1    3    3    0    0  0.38797064865E+01  0.13034912217E+02 -0.23531205110E+02  0.27178643695E+02  0.51100000000E-03 0.  1.
         12    1    3    3    0    0  0.97971807411E+01 -0.25878808232E+02 -0.26021920764E+01  0.27793324191E+02  0.00000000000E+00 0. -1.
</event>
<event>
 7    1  0.3189267E-013  0.7246161E+02  0.7816164E-02  0.1226708E+00
        -11   -1    0    0    0    0  0.00000000000E+00  0.00000000000E+00  0.45593999997E+02  0.45594000000E+02  0.51100000000E-03 0. -1.
         11   -1    0    0    0    0 -0.00000000000E+00 -0.00000000000E+00 -0.45593999997E+02  0.45594000000E+02  0.51100000000E-03 0.  1.
    9900012    2    1    2    0    0  0.14254899632E+01 -0.12492449225E+02 -0.13877483612E+02  0.72461605241E+02  0.70000045525E+02 0.  0.
         12    1    1    2    0    0 -0.14254899632E+01  0.12492449225E+02  0.13877483612E+02  0.18726394759E+02  0.00000000000E+00 0. -1.
         11    1    3    3    0    0  0.41548344398E+01 -0.24112854918E+01 -0.55994335681E+01  0.73777099082E+01  0.51100000000E-03 0. -1.
        -11    1    3    3    0    0 -0.14283241361E+02  0.15555045196E+02 -0.24718352201E+02  0.32511034290E+02  0.51100000000E-03 0.  1.
         12    1    3    3    0    0  0.11553896884E+02 -0.25636208929E+02  0.16440302158E+02  0.32572861043E+02  0.00000000000E+00 0. -1.
</event>
<event>
 7    1  0.3189267E-013  0.7246148E+02  0.7816164E-02  0.1226708E+00
        -11   -1    0    0    0    0  0.00000000000E+00  0.00000000000E+00  0.45593999997E+02  0.45594000000E+02  0.51100000000E-03 0. -1.
         11   -1    0    0    0    0 -0.00000000000E+00 -0.00000000000E+00 -0.45593999997E+02  0.45594000000E+02  0.51100000000E-03 0.  1.
    9900012    2    1    2    0    0  0.25005761584E+01  0.28191648494E+01 -0.18343442956E+02  0.72461482143E+02  0.69999885166E+02 0.  0.
         12    1    1    2    0    0 -0.25005761584E+01 -0.28191648494E+01  0.18343442956E+02  0.18726517857E+02  0.00000000000E+00 0. -1.
         11    1    3    3    0    0  0.97108043008E+01  0.78186954385E+01 -0.19025932421E+02  0.22746820070E+02  0.51100000000E-03 0. -1.
        -11    1    3    3    0    0  0.55531195243E+01  0.90839458544E+01 -0.19359178065E+02  0.22093731788E+02  0.51100000000E-03 0.  1.
         12    1    3    3    0    0 -0.12763347667E+02 -0.14083476444E+02  0.20041667530E+02  0.27620930284E+02  0.00000000000E+00 0. -1.
</event>
<event>
 7    1  0.3189267E-013  0.7246155E+02  0.7816164E-02  0.1226708E+00
        -11   -1    0    0    0    0  0.00000000000E+00  0.00000000000E+00  0.45593999997E+02  0.45594000000E+02  0.51100000000E-03 0.  1.
         11   -1    0    0    0    0 -0.00000000000E+00 -0.00000000000E+00 -0.45593999997E+02  0.45594000000E+02  0.51100000000E-03 0. -1.
    9900012    2    1    2    0    0 -0.17472037239E+02  0.38123667279E+01  0.55564100314E+01  0.72461550315E+02  0.69999973974E+02 0.  0.
         12    1    1    2    0    0  0.17472037239E+02 -0.38123667279E+01 -0.55564100314E+01  0.18726449685E+02  0.00000000000E+00 0. -1.
         11    1    3    3    0    0  0.81137652877E+01  0.14899658187E+02  0.12928202170E+02  0.21330058904E+02  0.51100000000E-03 0. -1.
        -11    1    3    3    0    0  0.10246553842E+02  0.45562817794E+01  0.59530008978E+00  0.11229690635E+02  0.51100000000E-03 0.  1.
        -12    1    3    3    0    0 -0.35832356369E+02 -0.15643573239E+02 -0.79670922282E+01  0.39901800777E+02  0.00000000000E+00 0.  1.
</event>
<event>
 7    1  0.3189267E-013  0.7246156E+02  0.7816164E-02  0.1226708E+00
        -11   -1    0    0    0    0  0.00000000000E+00  0.00000000000E+00  0.45593999997E+02  0.45594000000E+02  0.51100000000E-03 0.  1.
         11   -1    0    0    0    0 -0.00000000000E+00 -0.00000000000E+00 -0.45593999997E+02  0.45594000000E+02  0.51100000000E-03 0. -1.
    9900012    2    1    2    0    0  0.88373326612E+01 -0.17796322046E+01  0.16413830712E+02  0.72461564728E+02  0.69999992749E+02 0.  0.
         12    1    1    2    0    0 -0.88373326612E+01  0.17796322046E+01 -0.16413830712E+02  0.18726435272E+02  0.00000000000E+00 0. -1.
         11    1    3    3    0    0 -0.23910882947E+02 -0.19012247244E+02  0.31712801431E+01  0.30712422350E+02  0.51100000000E-03 0. -1.
        -11    1    3    3    0    0  0.54536163352E+01 -0.57873490726E+00  0.64328822591E+01  0.84533330495E+01  0.51100000000E-03 0.  1.
        -12    1    3    3    0    0  0.27294599273E+02  0.17811349947E+02  0.68096683099E+01  0.33295809329E+02  0.00000000000E+00 0.  1.
</event>
<event>
 7    1  0.3189267E-013  0.7246156E+02  0.7816164E-02  0.1226708E+00
        -11   -1    0    0    0    0  0.00000000000E+00  0.00000000000E+00  0.45593999997E+02  0.45594000000E+02  0.51100000000E-03 0.  1.
         11   -1    0    0    0    0 -0.00000000000E+00 -0.00000000000E+00 -0.45593999997E+02  0.45594000000E+02  0.51100000000E-03 0. -1.
    9900012    2    1    2    0    0  0.97959089005E+01  0.15531369604E+02  0.36737333196E+01  0.72461559082E+02  0.69999985394E+02 0.  0.
         12    1    1    2    0    0 -0.97959089005E+01 -0.15531369604E+02 -0.36737333196E+01  0.18726440918E+02  0.00000000000E+00 0. -1.
         11    1    3    3    0    0  0.14863805476E+02 -0.97372926562E+01 -0.31734389878E+01  0.18050437578E+02  0.51100000000E-03 0. -1.
        -11    1    3    3    0    0 -0.93823950367E+00 -0.65377095119E+01  0.18997963037E+02  0.20113292590E+02  0.51100000000E-03 0.  1.
         12    1    3    3    0    0 -0.41296570716E+01  0.31806371772E+02 -0.12150790729E+02  0.34297828913E+02  0.00000000000E+00 0. -1.
</event>
<event>
 7    1  0.3189267E-013  0.7246165E+02  0.7816164E-02  0.1226708E+00
        -11   -1    0    0    0    0  0.00000000000E+00  0.00000000000E+00  0.45593999997E+02  0.45594000000E+02  0.51100000000E-03 0. -1.
         11   -1    0    0    0    0 -0.00000000000E+00 -0.00000000000E+00 -0.45593999997E+02  0.45594000000E+02  0.51100000000E-03 0.  1.
    9900012    2    1    2    0    0  0.69811916636E-01 -0.12767151970E+02 -0.13699310463E+02  0.72461650908E+02  0.70000105015E+02 0.  0.
         12    1    1    2    0    0 -0.69811916636E-01  0.12767151970E+02  0.13699310463E+02  0.18726349092E+02  0.00000000000E+00 0. -1.
         11    1    3    3    0    0  0.79085450750E+01 -0.17850154639E+02  0.89769744334E+01  0.21488582459E+02  0.51100000000E-03 0. -1.
        -11    1    3    3    0    0  0.10766226253E+02  0.13025485706E+01  0.89667309985E+01  0.14071621285E+02  0.51100000000E-03 0.  1.
        -12    1    3    3    0    0 -0.18604959412E+02  0.37804540988E+01 -0.31643015895E+02  0.36901447165E+02  0.00000000000E+00 0.  1.
</event>
<event>
 7    1  0.3189267E-013  0.7246157E+02  0.7816164E-02  0.1226708E+00
        -11   -1    0    0    0    0  0.00000000000E+00  0.00000000000E+00  0.45593999997E+02  0.45594000000E+02  0.51100000000E-03 0. -1.
         11   -1    0    0    0    0 -0.00000000000E+00 -0.00000000000E+00 -0.45593999997E+02  0.45594000000E+02  0.51100000000E-03 0.  1.
    9900012    2    1    2    0    0  0.75121230345E+01  0.85559183035E+01  0.14867536239E+02  0.72461565094E+02  0.69999993225E+02 0.  0.
         12    1    1    2    0    0 -0.75121230345E+01 -0.85559183035E+01 -0.14867536239E+02  0.18726434906E+02  0.00000000000E+00 0. -1.
         11    1    3    3    0    0  0.20823364899E+02  0.15228757757E+02  0.31272937680E+02  0.40540402316E+02  0.51100000000E-03 0. -1.
        -11    1    3    3    0    0 -0.11763557995E+02  0.63776405679E+01 -0.43041139556E+01  0.14056350633E+02  0.51100000000E-03 0.  1.
        -12    1    3    3    0    0 -0.15476838697E+01 -0.13050480021E+02 -0.12101287486E+02  0.17864812144E+02  0.00000000000E+00 0.  1.
</event>
<event>
 7    1  0.3189267E-013  0.7246158E+02  0.7816164E-02  0.1226708E+00
        -11   -1    0    0    0    0  0.00000000000E+00  0.00000000000E+00  0.45593999997E+02  0.45594000000E+02  0.51100000000E-03 0.  1.
         11   -1    0    0    0    0 -0.00000000000E+00 -0.00000000000E+00 -0.45593999997E+02  0.45594000000E+02  0.51100000000E-03 0. -1.
    9900012    2    1    2    0    0 -0.15565183081E+02 -0.90984288077E+01 -0.50618492760E+01  0.72461584187E+02  0.70000018097E+02 0.  0.
         12    1    1    2    0    0  0.15565183081E+02  0.90984288077E+01  0.50618492760E+01  0.18726415813E+02  0.00000000000E+00 0. -1.
         11    1    3    3    0    0  0.52495929180E+01 -0.20844341041E+02 -0.37404674662E+01  0.21818246409E+02  0.51100000000E-03 0. -1.
        -11    1    3    3    0    0  0.49941471112E+01 -0.13136445831E+02 -0.42269384356E+01  0.14675650692E+02  0.51100000000E-03 0.  1.
         12    1    3    3    0    0 -0.25808923110E+02  0.24882358064E+02  0.29055566258E+01  0.35967687085E+02  0.00000000000E+00 0. -1.
</event>
<event>
 7    1  0.3189267E-013  0.7246171E+02  0.7816164E-02  0.1226708E+00
        -11   -1    0    0    0    0  0.00000000000E+00  0.00000000000E+00  0.45593999997E+02  0.45594000000E+02  0.51100000000E-03 0. -1.
         11   -1    0    0    0    0 -0.00000000000E+00 -0.00000000000E+00 -0.45593999997E+02  0.45594000000E+02  0.51100000000E-03 0.  1.
    9900012    2    1    2    0    0  0.18243214217E+02 -0.41464172704E+01 -0.81618421996E+00  0.72461713721E+02  0.70000186839E+02 0.  0.
         12    1    1    2    0    0 -0.18243214217E+02  0.41464172704E+01  0.81618421996E+00  0.18726286279E+02  0.00000000000E+00 0. -1.
         11    1    3    3    0    0  0.35288122030E+00  0.35001110781E+01 -0.14351727557E+01  0.37993451823E+01  0.51100000000E-03 0. -1.
        -11    1    3    3    0    0  0.42486290525E+02 -0.84415683626E+01  0.52099520162E+01  0.43628987603E+02  0.51100000000E-03 0.  1.
         12    1    3    3    0    0 -0.24595957529E+02  0.79504001419E+00 -0.45909634805E+01  0.25033380935E+02  0.00000000000E+00 0. -1.
</event>
<event>
 7    1  0.3189267E-013  0.7246151E+02  0.7816164E-02  0.1226708E+00
        -11   -1    0    0    0    0  0.00000000000E+00  0.00000000000E+00  0.45593999997E+02  0.45594000000E+02  0.51100000000E-03 0. -1.
         11   -1    0    0    0    0 -0.00000000000E+00 -0.00000000000E+00 -0.45593999997E+02  0.45594000000E+02  0.51100000000E-03 0.  1.
    9900012    2    1    2    0    0  0.16018984014E+02 -0.67219160292E+01 -0.69921015346E+01  0.72461508395E+02  0.69999919365E+02 0.  0.
         12    1    1    2    0    0 -0.16018984014E+02  0.67219160292E+01  0.69921015346E+01  0.18726491605E+02  0.00000000000E+00 0. -1.
         11    1    3    3    0    0  0.67506377789E+01  0.17251398792E+02  0.52035776986E+00  0.18532475365E+02  0.51100000000E-03 0. -1.
        -11    1    3    3    0    0  0.18402422614E+02  0.80127497721E+01 -0.41409477156E+01  0.20493920202E+02  0.51100000000E-03 0.  1.
         12    1    3    3    0    0 -0.91340763793E+01 -0.31986064593E+02 -0.33715115889E+01  0.33435112828E+02  0.00000000000E+00 0. -1.
</event>
<event>
 7    1  0.3189267E-013  0.7246161E+02  0.7816164E-02  0.1226708E+00
        -11   -1    0    0    0    0  0.00000000000E+00  0.00000000000E+00  0.45593999997E+02  0.45594000000E+02  0.51100000000E-03 0. -1.
         11   -1    0    0    0    0 -0.00000000000E+00 -0.00000000000E+00 -0.45593999997E+02  0.45594000000E+02  0.51100000000E-03 0.  1.
    9900012    2    1    2    0    0 -0.17884823184E+02  0.30191649895E+01 -0.46578491763E+01  0.72461606420E+02  0.70000047060E+02 0.  0.
         12    1    1    2    0    0  0.17884823184E+02 -0.30191649895E+01  0.46578491763E+01  0.18726393580E+02  0.00000000000E+00 0. -1.
         11    1    3    3    0    0 -0.12567731513E+02 -0.59300537838E-01 -0.74930010377E+01  0.14632035291E+02  0.51100000000E-03 0. -1.
        -11    1    3    3    0    0  0.48857254686E+01 -0.25563358904E+02 -0.48370389123E+01  0.26471731669E+02  0.51100000000E-03 0.  1.
         12    1    3    3    0    0 -0.10202817140E+02  0.28641824432E+02  0.76721907738E+01  0.31357839461E+02  0.00000000000E+00 0. -1.
</event>
<event>
 7    1  0.3189267E-013  0.7246157E+02  0.7816164E-02  0.1226708E+00
        -11   -1    0    0    0    0  0.00000000000E+00  0.00000000000E+00  0.45593999997E+02  0.45594000000E+02  0.51100000000E-03 0.  1.
         11   -1    0    0    0    0 -0.00000000000E+00 -0.00000000000E+00 -0.45593999997E+02  0.45594000000E+02  0.51100000000E-03 0. -1.
    9900012    2    1    2    0    0  0.76082388131E+01  0.10503369667E+02  0.13508256658E+02  0.72461572948E+02  0.70000003456E+02 0.  0.
         12    1    1    2    0    0 -0.76082388131E+01 -0.10503369667E+02 -0.13508256658E+02  0.18726427052E+02  0.00000000000E+00 0. -1.
         11    1    3    3    0    0 -0.24638334548E+01 -0.16651900110E+02 -0.19867018106E+02  0.26039482738E+02  0.51100000000E-03 0. -1.
        -11    1    3    3    0    0 -0.15671818289E+01 -0.77973553004E+00  0.69929844958E+00  0.18849575497E+01  0.51100000000E-03 0.  1.
        -12    1    3    3    0    0  0.11639254097E+02  0.27935005307E+02  0.32675976315E+02  0.44537132660E+02  0.00000000000E+00 0.  1.
</event>
<event>
 7    1  0.3189267E-013  0.7246166E+02  0.7816164E-02  0.1226708E+00
        -11   -1    0    0    0    0  0.00000000000E+00  0.00000000000E+00  0.45593999997E+02  0.45594000000E+02  0.51100000000E-03 0. -1.
         11   -1    0    0    0    0 -0.00000000000E+00 -0.00000000000E+00 -0.45593999997E+02  0.45594000000E+02  0.51100000000E-03 0.  1.
    9900012    2    1    2    0    0  0.18545524369E+02  0.18799627992E+01 -0.17902286014E+01  0.72461664195E+02  0.70000122323E+02 0.  0.
         12    1    1    2    0    0 -0.18545524369E+02 -0.18799627992E+01  0.17902286014E+01  0.18726335805E+02  0.00000000000E+00 0. -1.
         11    1    3    3    0    0  0.11063373329E+02 -0.48582544888E+01  0.59386790631E+01  0.13463609299E+02  0.51100000000E-03 0. -1.
        -11    1    3    3    0    0  0.16701884864E+02 -0.16425268121E+00 -0.29766443014E+02  0.34132404939E+02  0.51100000000E-03 0.  1.
         12    1    3    3    0    0 -0.92197338235E+01  0.69024699691E+01  0.22037535350E+02  0.24865649956E+02  0.00000000000E+00 0. -1.
</event>
<event>
 7    1  0.3189267E-013  0.7246160E+02  0.7816164E-02  0.1226708E+00
        -11   -1    0    0    0    0  0.00000000000E+00  0.00000000000E+00  0.45593999997E+02  0.45594000000E+02  0.51100000000E-03 0. -1.
         11   -1    0    0    0    0 -0.00000000000E+00 -0.00000000000E+00 -0.45593999997E+02  0.45594000000E+02  0.51100000000E-03 0.  1.
    9900012    2    1    2    0    0  0.44603256162E+01 -0.10758418610E+01 -0.18155610300E+02  0.72461598165E+02  0.70000036307E+02 0.  0.
         12    1    1    2    0    0 -0.44603256162E+01  0.10758418610E+01  0.18155610300E+02  0.18726401835E+02  0.00000000000E+00 0. -1.
         11    1    3    3    0    0  0.30209239147E+01  0.83273914627E+01  0.93736768439E+01  0.12897179835E+02  0.51100000000E-03 0. -1.
        -11    1    3    3    0    0 -0.12171348466E+02  0.16525815580E+02 -0.18353205327E+01  0.20606132723E+02  0.51100000000E-03 0.  1.
        -12    1    3    3    0    0  0.13610750168E+02 -0.25929048904E+02 -0.25693966612E+02  0.38958285607E+02  0.00000000000E+00 0.  1.
</event>
<event>
 7    1  0.3189267E-013  0.7246198E+02  0.7816164E-02  0.1226707E+00
        -11   -1    0    0    0    0  0.00000000000E+00  0.00000000000E+00  0.45593999997E+02  0.45594000000E+02  0.51100000000E-03 0. -1.
         11   -1    0    0    0    0 -0.00000000000E+00 -0.00000000000E+00 -0.45593999997E+02  0.45594000000E+02  0.51100000000E-03 0.  1.
    9900012    2    1    2    0    0 -0.86828027572E+01  0.13550457495E+02 -0.95738123834E+01  0.72461979451E+02  0.70000533001E+02 0.  0.
         12    1    1    2    0    0  0.86828027572E+01 -0.13550457495E+02  0.95738123834E+01  0.18726020549E+02  0.00000000000E+00 0. -1.
         11    1    3    3    0    0  0.15043662682E+02  0.87975060929E+01 -0.10141939013E+02  0.20163502363E+02  0.51100000000E-03 0. -1.
        -11    1    3    3    0    0 -0.68837542360E+01  0.15176804172E+02 -0.18433897802E+02  0.24850151825E+02  0.51100000000E-03 0.  1.
         12    1    3    3    0    0 -0.16842711203E+02 -0.10423852771E+02  0.19002024432E+02  0.27448325263E+02  0.00000000000E+00 0. -1.
</event>
<event>
 7    1  0.3189267E-013  0.7246167E+02  0.7816164E-02  0.1226708E+00
        -11   -1    0    0    0    0  0.00000000000E+00  0.00000000000E+00  0.45593999997E+02  0.45594000000E+02  0.51100000000E-03 0. -1.
         11   -1    0    0    0    0 -0.00000000000E+00 -0.00000000000E+00 -0.45593999997E+02  0.45594000000E+02  0.51100000000E-03 0.  1.
    9900012    2    1    2    0    0 -0.12405420153E+02  0.88324030636E+01 -0.10898141697E+02  0.72461673999E+02  0.70000135094E+02 0.  0.
         12    1    1    2    0    0  0.12405420153E+02 -0.88324030636E+01  0.10898141697E+02  0.18726326001E+02  0.00000000000E+00 0. -1.
         11    1    3    3    0    0  0.17973577978E+02  0.15209998329E+02  0.31476451198E+01  0.23755025249E+02  0.51100000000E-03 0. -1.
        -11    1    3    3    0    0 -0.23945510248E+01  0.10985804687E+02 -0.10838813467E+02  0.15617351148E+02  0.51100000000E-03 0.  1.
         12    1    3    3    0    0 -0.27984447106E+02 -0.17363399953E+02 -0.32069733497E+01  0.33089297602E+02  0.00000000000E+00 0. -1.
</event>
<event>
 7    1  0.3189267E-013  0.7246160E+02  0.7816164E-02  0.1226708E+00
        -11   -1    0    0    0    0  0.00000000000E+00  0.00000000000E+00  0.45593999997E+02  0.45594000000E+02  0.51100000000E-03 0.  1.
         11   -1    0    0    0    0 -0.00000000000E+00 -0.00000000000E+00 -0.45593999997E+02  0.45594000000E+02  0.51100000000E-03 0. -1.
    9900012    2    1    2    0    0 -0.36707226835E+01  0.36916686853E+01  0.17988204745E+02  0.72461597979E+02  0.70000036065E+02 0.  0.
         12    1    1    2    0    0  0.36707226835E+01 -0.36916686853E+01 -0.17988204745E+02  0.18726402021E+02  0.00000000000E+00 0. -1.
         11    1    3    3    0    0  0.45635554502E+01  0.17858651450E+01 -0.74513411241E+01  0.89183988177E+01  0.51100000000E-03 0. -1.
        -11    1    3    3    0    0  0.23288930971E+02 -0.67330293373E+01  0.43101831742E+01  0.24622868823E+02  0.51100000000E-03 0.  1.
         12    1    3    3    0    0 -0.31523209105E+02  0.86388328776E+01  0.21129362695E+02  0.38920330338E+02  0.00000000000E+00 0. -1.
</event>
<event>
 7    1  0.3189267E-013  0.7246153E+02  0.7816164E-02  0.1226708E+00
        -11   -1    0    0    0    0  0.00000000000E+00  0.00000000000E+00  0.45593999997E+02  0.45594000000E+02  0.51100000000E-03 0. -1.
         11   -1    0    0    0    0 -0.00000000000E+00 -0.00000000000E+00 -0.45593999997E+02  0.45594000000E+02  0.51100000000E-03 0.  1.
    9900012    2    1    2    0    0  0.75406375859E+01  0.14549677396E+02  0.90623595138E+01  0.72461529764E+02  0.69999947202E+02 0.  0.
         12    1    1    2    0    0 -0.75406375859E+01 -0.14549677396E+02 -0.90623595138E+01  0.18726470236E+02  0.00000000000E+00 0. -1.
         11    1    3    3    0    0  0.25646665307E+02  0.27693048983E+02  0.12107467818E+02  0.39638960387E+02  0.51100000000E-03 0. -1.
        -11    1    3    3    0    0  0.36510780622E+01  0.30429455784E+01  0.21419848162E+01  0.52132511951E+01  0.51100000000E-03 0.  1.
        -12    1    3    3    0    0 -0.21757105784E+02 -0.16186317165E+02 -0.51870931207E+01  0.27609318182E+02  0.00000000000E+00 0.  1.
</event>
<event>
 7    1  0.3189267E-013  0.7246156E+02  0.7816164E-02  0.1226708E+00
        -11   -1    0    0    0    0  0.00000000000E+00  0.00000000000E+00  0.45593999997E+02  0.45594000000E+02  0.51100000000E-03 0.  1.
         11   -1    0    0    0    0 -0.00000000000E+00 -0.00000000000E+00 -0.45593999997E+02  0.45594000000E+02  0.51100000000E-03 0. -1.
    9900012    2    1    2    0    0 -0.37380914890E+01 -0.65765252095E+01  0.17130542314E+02  0.72461561690E+02  0.69999988792E+02 0.  0.
         12    1    1    2    0    0  0.37380914890E+01  0.65765252095E+01 -0.17130542314E+02  0.18726438310E+02  0.00000000000E+00 0. -1.
         11    1    3    3    0    0  0.11654829762E+02 -0.23947965513E+02  0.43579299369E+01  0.26987620544E+02  0.51100000000E-03 0. -1.
        -11    1    3    3    0    0 -0.89182199768E+01 -0.47777821160E+01 -0.91524027767E+01  0.13642885558E+02  0.51100000000E-03 0.  1.
        -12    1    3    3    0    0 -0.64747012746E+01  0.22149222420E+02  0.21925015153E+02  0.31831055588E+02  0.00000000000E+00 0.  1.
</event>
<event>
 7    1  0.3189267E-013  0.7246153E+02  0.7816164E-02  0.1226708E+00
        -11   -1    0    0    0    0  0.00000000000E+00  0.00000000000E+00  0.45593999997E+02  0.45594000000E+02  0.51100000000E-03 0.  1.
         11   -1    0    0    0    0 -0.00000000000E+00 -0.00000000000E+00 -0.45593999997E+02  0.45594000000E+02  0.51100000000E-03 0. -1.
    9900012    2    1    2    0    0  0.90477167697E+01  0.15590542720E+02  0.50748892088E+01  0.72461529389E+02  0.69999946714E+02 0.  0.
         12    1    1    2    0    0 -0.90477167697E+01 -0.15590542720E+02 -0.50748892088E+01  0.18726470611E+02  0.00000000000E+00 0. -1.
         11    1    3    3    0    0  0.25750078109E+02 -0.60341801179E+01  0.49378841392E+01  0.26904656704E+02  0.51100000000E-03 0. -1.
        -11    1    3    3    0    0  0.31976329168E+01  0.17564066333E+02  0.12487291402E+02  0.21786549273E+02  0.51100000000E-03 0.  1.
        -12    1    3    3    0    0 -0.19899994256E+02  0.40606565049E+01 -0.12350286332E+02  0.23770323412E+02  0.00000000000E+00 0.  1.
</event>
<event>
 7    1  0.3189267E-013  0.7246164E+02  0.7816164E-02  0.1226708E+00
        -11   -1    0    0    0    0  0.00000000000E+00  0.00000000000E+00  0.45593999997E+02  0.45594000000E+02  0.51100000000E-03 0.  1.
         11   -1    0    0    0    0 -0.00000000000E+00 -0.00000000000E+00 -0.45593999997E+02  0.45594000000E+02  0.51100000000E-03 0. -1.
    9900012    2    1    2    0    0 -0.73574030966E+01 -0.14373027053E+02 -0.94848012284E+01  0.72461635128E+02  0.70000084458E+02 0.  0.
         12    1    1    2    0    0  0.73574030966E+01  0.14373027053E+02  0.94848012284E+01  0.18726364872E+02  0.00000000000E+00 0. -1.
         11    1    3    3    0    0 -0.14821513748E+02 -0.85333209373E+01 -0.35620194223E+02  0.39513201246E+02  0.51100000000E-03 0. -1.
        -11    1    3    3    0    0  0.48851086390E+01 -0.95356035654E+01  0.59282914894E+01  0.12244862679E+02  0.51100000000E-03 0.  1.
        -12    1    3    3    0    0  0.25790020120E+01  0.36958974500E+01  0.20207101505E+02  0.20703571203E+02  0.00000000000E+00 0.  1.
</event>
<event>
 7    1  0.3189267E-013  0.7246130E+02  0.7816164E-02  0.1226709E+00
        -11   -1    0    0    0    0  0.00000000000E+00  0.00000000000E+00  0.45593999997E+02  0.45594000000E+02  0.51100000000E-03 0.  1.
         11   -1    0    0    0    0 -0.00000000000E+00 -0.00000000000E+00 -0.45593999997E+02  0.45594000000E+02  0.51100000000E-03 0. -1.
    9900012    2    1    2    0    0  0.89872963167E+01  0.11309745885E+02  0.11916682745E+02  0.72461303155E+02  0.69999652001E+02 0.  0.
         12    1    1    2    0    0 -0.89872963167E+01 -0.11309745885E+02 -0.11916682745E+02  0.18726696845E+02  0.00000000000E+00 0. -1.
         11    1    3    3    0    0 -0.84200600610E+01 -0.12216122196E+02  0.13571553184E+02  0.20107662943E+02  0.51100000000E-03 0. -1.
        -11    1    3    3    0    0  0.95940228464E+01  0.21955877490E+01  0.19161998194E+02  0.21541774648E+02  0.51100000000E-03 0.  1.
        -12    1    3    3    0    0  0.78133335312E+01  0.21330280332E+02 -0.20816868633E+02  0.30811865564E+02  0.00000000000E+00 0.  1.
</event>
<event>
 7    1  0.3189267E-013  0.7246156E+02  0.7816164E-02  0.1226708E+00
        -11   -1    0    0    0    0  0.00000000000E+00  0.00000000000E+00  0.45593999997E+02  0.45594000000E+02  0.51100000000E-03 0. -1.
         11   -1    0    0    0    0 -0.00000000000E+00 -0.00000000000E+00 -0.45593999997E+02  0.45594000000E+02  0.51100000000E-03 0.  1.
    9900012    2    1    2    0    0  0.11911678729E+02 -0.14280560179E+02 -0.22038643536E+01  0.72461561276E+02  0.69999988252E+02 0.  0.
         12    1    1    2    0    0 -0.11911678729E+02  0.14280560179E+02  0.22038643536E+01  0.18726438724E+02  0.00000000000E+00 0. -1.
         11    1    3    3    0    0  0.14792819583E+02 -0.14699616306E+02  0.50956918764E+01  0.21467936713E+02  0.51100000000E-03 0.  1.
        -11    1    3    3    0    0  0.47539484866E+01  0.24203658953E+02 -0.82112668003E+01  0.25996962046E+02  0.51100000000E-03 0. -1.
         12    1    3    3    0    0 -0.76350893401E+01 -0.23784602826E+02  0.91171057034E+00  0.24996662517E+02  0.00000000000E+00 0. -1.
</event>
<event>
 7    1  0.3189267E-013  0.7246158E+02  0.7816164E-02  0.1226708E+00
        -11   -1    0    0    0    0  0.00000000000E+00  0.00000000000E+00  0.45593999997E+02  0.45594000000E+02  0.51100000000E-03 0. -1.
         11   -1    0    0    0    0 -0.00000000000E+00 -0.00000000000E+00 -0.45593999997E+02  0.45594000000E+02  0.51100000000E-03 0.  1.
    9900012    2    1    2    0    0  0.76288334418E+00 -0.18017494647E+02 -0.50464505693E+01  0.72461581023E+02  0.70000013976E+02 0.  0.
         12    1    1    2    0    0 -0.76288334418E+00  0.18017494647E+02  0.50464505693E+01  0.18726418977E+02  0.00000000000E+00 0. -1.
         11    1    3    3    0    0  0.15129752742E+02  0.18060244863E+01  0.15367295256E+02  0.21640815748E+02  0.51100000000E-03 0. -1.
        -11    1    3    3    0    0  0.11670060249E+01 -0.28197468626E+02 -0.16681814769E+02  0.32783259206E+02  0.51100000000E-03 0.  1.
        -12    1    3    3    0    0 -0.15533875423E+02  0.83739494919E+01 -0.37319310568E+01  0.18037506068E+02  0.00000000000E+00 0.  1.
</event>
<event>
 7    1  0.3189267E-013  0.7246134E+02  0.7816164E-02  0.1226709E+00
        -11   -1    0    0    0    0  0.00000000000E+00  0.00000000000E+00  0.45593999997E+02  0.45594000000E+02  0.51100000000E-03 0. -1.
         11   -1    0    0    0    0 -0.00000000000E+00 -0.00000000000E+00 -0.45593999997E+02  0.45594000000E+02  0.51100000000E-03 0.  1.
    9900012    2    1    2    0    0  0.64810291287E+01 -0.94658186425E+01 -0.14801430020E+02  0.72461340079E+02  0.69999700102E+02 0.  0.
         12    1    1    2    0    0 -0.64810291287E+01  0.94658186425E+01  0.14801430020E+02  0.18726659921E+02  0.00000000000E+00 0. -1.
         11    1    3    3    0    0 -0.11018577695E+02 -0.30473482733E+02 -0.23416978694E+01  0.32488855836E+02  0.51100000000E-03 0. -1.
        -11    1    3    3    0    0  0.13898373476E+02 -0.14866233823E+01 -0.97255727555E+01  0.17028258867E+02  0.51100000000E-03 0.  1.
        -12    1    3    3    0    0  0.36012333485E+01  0.22494287473E+02 -0.27341593952E+01  0.22944225377E+02  0.00000000000E+00 0.  1.
</event>
<event>
 7    1  0.3189267E-013  0.7246157E+02  0.7816164E-02  0.1226708E+00
        -11   -1    0    0    0    0  0.00000000000E+00  0.00000000000E+00  0.45593999997E+02  0.45594000000E+02  0.51100000000E-03 0.  1.
         11   -1    0    0    0    0 -0.00000000000E+00 -0.00000000000E+00 -0.45593999997E+02  0.45594000000E+02  0.51100000000E-03 0. -1.
    9900012    2    1    2    0    0 -0.27212502791E+01  0.12857952034E+02  0.13339673807E+02  0.72461573996E+02  0.70000004823E+02 0.  0.
         12    1    1    2    0    0  0.27212502791E+01 -0.12857952034E+02 -0.13339673807E+02  0.18726426004E+02  0.00000000000E+00 0. -1.
         11    1    3    3    0    0  0.26311863598E+02  0.11060979183E+02  0.65236735882E+01  0.29278281094E+02  0.51100000000E-03 0. -1.
        -11    1    3    3    0    0  0.18735701537E+01 -0.95228184301E+00 -0.83756007832E+01  0.86352645918E+01  0.51100000000E-03 0.  1.
        -12    1    3    3    0    0 -0.30906684031E+02  0.27492546944E+01  0.15191601002E+02  0.34548028311E+02  0.00000000000E+00 0.  1.
</event>
<event>
 7    1  0.3189267E-013  0.7246159E+02  0.7816164E-02  0.1226708E+00
        -11   -1    0    0    0    0  0.00000000000E+00  0.00000000000E+00  0.45593999997E+02  0.45594000000E+02  0.51100000000E-03 0. -1.
         11   -1    0    0    0    0 -0.00000000000E+00 -0.00000000000E+00 -0.45593999997E+02  0.45594000000E+02  0.51100000000E-03 0.  1.
    9900012    2    1    2    0    0  0.11859106682E+02  0.15554485053E+01 -0.14409050130E+02  0.72461586649E+02  0.70000021305E+02 0.  0.
         12    1    1    2    0    0 -0.11859106682E+02 -0.15554485053E+01  0.14409050130E+02  0.18726413351E+02  0.00000000000E+00 0. -1.
         11    1    3    3    0    0  0.14497364846E+02 -0.11512541289E+02 -0.29445594810E+01  0.18745202725E+02  0.51100000000E-03 0. -1.
        -11    1    3    3    0    0  0.13646598173E+02  0.14951758360E+01 -0.25733097561E+02  0.29166033375E+02  0.51100000000E-03 0.  1.
         12    1    3    3    0    0 -0.16284856337E+02  0.11572813958E+02  0.14268606913E+02  0.24550350549E+02  0.00000000000E+00 0. -1.
</event>
<event>
 7    1  0.3189267E-013  0.7246158E+02  0.7816164E-02  0.1226708E+00
        -11   -1    0    0    0    0  0.00000000000E+00  0.00000000000E+00  0.45593999997E+02  0.45594000000E+02  0.51100000000E-03 0. -1.
         11   -1    0    0    0    0 -0.00000000000E+00 -0.00000000000E+00 -0.45593999997E+02  0.45594000000E+02  0.51100000000E-03 0.  1.
    9900012    2    1    2    0    0 -0.10338581574E+02 -0.12375255964E+02 -0.95207985026E+01  0.72461579272E+02  0.70000011695E+02 0.  0.
         12    1    1    2    0    0  0.10338581574E+02  0.12375255964E+02  0.95207985026E+01  0.18726420728E+02  0.00000000000E+00 0. -1.
         11    1    3    3    0    0 -0.18893851704E+02 -0.67018281345E+01 -0.85867381212E+01  0.21808810246E+02  0.51100000000E-03 0. -1.
        -11    1    3    3    0    0 -0.11007638861E+02 -0.22196666057E+02  0.21073530329E+01  0.24865659742E+02  0.51100000000E-03 0.  1.
        -12    1    3    3    0    0  0.19562908990E+02  0.16523238227E+02 -0.30414134143E+01  0.25787109284E+02  0.00000000000E+00 0.  1.
</event>
<event>
 7    1  0.3189267E-013  0.7246157E+02  0.7816164E-02  0.1226708E+00
        -11   -1    0    0    0    0  0.00000000000E+00  0.00000000000E+00  0.45593999997E+02  0.45594000000E+02  0.51100000000E-03 0.  1.
         11   -1    0    0    0    0 -0.00000000000E+00 -0.00000000000E+00 -0.45593999997E+02  0.45594000000E+02  0.51100000000E-03 0. -1.
    9900012    2    1    2    0    0 -0.11380098192E+02 -0.14806685505E+02  0.13909667868E+01  0.72461565233E+02  0.69999993407E+02 0.  0.
         12    1    1    2    0    0  0.11380098192E+02  0.14806685505E+02 -0.13909667868E+01  0.18726434767E+02  0.00000000000E+00 0. -1.
         11    1    3    3    0    0 -0.22705491017E+02  0.73643981575E+01  0.92149921198E+01  0.25586906077E+02  0.51100000000E-03 0. -1.
        -11    1    3    3    0    0  0.80273906492E+01 -0.15001564355E+02  0.15026470646E+02  0.22699796345E+02  0.51100000000E-03 0.  1.
        -12    1    3    3    0    0  0.32980021764E+01 -0.71695193070E+01 -0.22850495980E+02  0.24174862812E+02  0.00000000000E+00 0.  1.
</event>
<event>
 7    1  0.3189267E-013  0.7246158E+02  0.7816164E-02  0.1226708E+00
        -11   -1    0    0    0    0  0.00000000000E+00  0.00000000000E+00  0.45593999997E+02  0.45594000000E+02  0.51100000000E-03 0.  1.
         11   -1    0    0    0    0 -0.00000000000E+00 -0.00000000000E+00 -0.45593999997E+02  0.45594000000E+02  0.51100000000E-03 0. -1.
    9900012    2    1    2    0    0  0.10806151396E+02 -0.21697201796E+01  0.15139293144E+02  0.72461580413E+02  0.70000013182E+02 0.  0.
         12    1    1    2    0    0 -0.10806151396E+02  0.21697201796E+01 -0.15139293144E+02  0.18726419587E+02  0.00000000000E+00 0. -1.
         11    1    3    3    0    0 -0.65223092845E+01  0.79454246762E-01 -0.20311876355E+02  0.21333521807E+02  0.51100000000E-03 0. -1.
        -11    1    3    3    0    0 -0.64954878424E+01 -0.49918970898E+01 -0.16143304757E+00  0.81936841382E+01  0.51100000000E-03 0.  1.
        -12    1    3    3    0    0  0.23823948523E+02  0.27427226635E+01  0.35612602546E+02  0.42934374468E+02  0.00000000000E+00 0.  1.
</event>
<event>
 7    1  0.3189267E-013  0.7246156E+02  0.7816164E-02  0.1226708E+00
        -11   -1    0    0    0    0  0.00000000000E+00  0.00000000000E+00  0.45593999997E+02  0.45594000000E+02  0.51100000000E-03 0.  1.
         11   -1    0    0    0    0 -0.00000000000E+00 -0.00000000000E+00 -0.45593999997E+02  0.45594000000E+02  0.51100000000E-03 0. -1.
    9900012    2    1    2    0    0  0.17298744753E+02  0.89535782378E+00  0.71155753672E+01  0.72461557507E+02  0.69999983342E+02 0.  0.
         12    1    1    2    0    0 -0.17298744753E+02 -0.89535782378E+00 -0.71155753672E+01  0.18726442493E+02  0.00000000000E+00 0. -1.
         11    1    3    3    0    0  0.82854914333E+01  0.13390698445E+02 -0.45952602476E+01  0.16403554192E+02  0.51100000000E-03 0. -1.
        -11    1    3    3    0    0  0.16484533678E+02  0.88944236875E+01  0.23872060794E+02  0.30343465691E+02  0.51100000000E-03 0.  1.
         12    1    3    3    0    0 -0.74712803586E+01 -0.21389764308E+02 -0.12161225179E+02  0.25714537624E+02  0.00000000000E+00 0. -1.
</event>
<event>
 7    1  0.3189267E-013  0.7246159E+02  0.7816164E-02  0.1226708E+00
        -11   -1    0    0    0    0  0.00000000000E+00  0.00000000000E+00  0.45593999997E+02  0.45594000000E+02  0.51100000000E-03 0.  1.
         11   -1    0    0    0    0 -0.00000000000E+00 -0.00000000000E+00 -0.45593999997E+02  0.45594000000E+02  0.51100000000E-03 0. -1.
    9900012    2    1    2    0    0 -0.35340567138E+01  0.68140649230E+01  0.17080905790E+02  0.72461591368E+02  0.70000027452E+02 0.  0.
         12    1    1    2    0    0  0.35340567138E+01 -0.68140649230E+01 -0.17080905790E+02  0.18726408632E+02  0.00000000000E+00 0. -1.
         11    1    3    3    0    0  0.20382515860E+02  0.19925545113E+02  0.10868322146E+00  0.28504142034E+02  0.51100000000E-03 0. -1.
        -11    1    3    3    0    0  0.61806592288E+01  0.39501616095E-01 -0.13801070872E+01  0.63329933454E+01  0.51100000000E-03 0.  1.
        -12    1    3    3    0    0 -0.30097231802E+02 -0.13150981806E+02  0.18352329656E+02  0.37624455988E+02  0.00000000000E+00 0.  1.
</event>
<event>
 7    1  0.3189267E-013  0.7246155E+02  0.7816164E-02  0.1226708E+00
        -11   -1    0    0    0    0  0.00000000000E+00  0.00000000000E+00  0.45593999997E+02  0.45594000000E+02  0.51100000000E-03 0. -1.
         11   -1    0    0    0    0 -0.00000000000E+00 -0.00000000000E+00 -0.45593999997E+02  0.45594000000E+02  0.51100000000E-03 0.  1.
    9900012    2    1    2    0    0 -0.13151961004E+01 -0.11538986904E+02 -0.14690205502E+02  0.72461545524E+02  0.69999967732E+02 0.  0.
         12    1    1    2    0    0  0.13151961004E+01  0.11538986904E+02  0.14690205502E+02  0.18726454476E+02  0.00000000000E+00 0. -1.
         11    1    3    3    0    0 -0.32759615984E+01  0.12345043117E+02  0.89995609862E+00  0.12803981225E+02  0.51100000000E-03 0. -1.
        -11    1    3    3    0    0 -0.12036103417E+02 -0.32355675191E+01  0.15440694097E+02  0.19843178100E+02  0.51100000000E-03 0.  1.
        -12    1    3    3    0    0  0.13996868915E+02 -0.20648462502E+02 -0.31030855698E+02  0.39814386200E+02  0.00000000000E+00 0.  1.
</event>
<event>
 7    1  0.3189267E-013  0.7246166E+02  0.7816164E-02  0.1226708E+00
        -11   -1    0    0    0    0  0.00000000000E+00  0.00000000000E+00  0.45593999997E+02  0.45594000000E+02  0.51100000000E-03 0.  1.
         11   -1    0    0    0    0 -0.00000000000E+00 -0.00000000000E+00 -0.45593999997E+02  0.45594000000E+02  0.51100000000E-03 0. -1.
    9900012    2    1    2    0    0  0.23383250150E+01 -0.95420825078E+01  0.15942291697E+02  0.72461661142E+02  0.70000118346E+02 0.  0.
         12    1    1    2    0    0 -0.23383250150E+01  0.95420825078E+01 -0.15942291697E+02  0.18726338858E+02  0.00000000000E+00 0. -1.
         11    1    3    3    0    0 -0.58281991978E+01 -0.14849681804E+02  0.18437547925E+01  0.16058654600E+02  0.51100000000E-03 0. -1.
        -11    1    3    3    0    0  0.25998610892E+02 -0.37749910492E+01  0.22605364618E+02  0.34658055853E+02  0.51100000000E-03 0.  1.
         12    1    3    3    0    0 -0.17832086679E+02  0.90825903454E+01 -0.85068277136E+01  0.21744950689E+02  0.00000000000E+00 0. -1.
</event>
<event>
 7    1  0.3189267E-013  0.7246159E+02  0.7816164E-02  0.1226708E+00
        -11   -1    0    0    0    0  0.00000000000E+00  0.00000000000E+00  0.45593999997E+02  0.45594000000E+02  0.51100000000E-03 0.  1.
         11   -1    0    0    0    0 -0.00000000000E+00 -0.00000000000E+00 -0.45593999997E+02  0.45594000000E+02  0.51100000000E-03 0. -1.
    9900012    2    1    2    0    0  0.73596418908E+01 -0.58551882411E+01  0.16193544428E+02  0.72461589793E+02  0.70000025401E+02 0.  0.
         12    1    1    2    0    0 -0.73596418908E+01  0.58551882411E+01 -0.16193544428E+02  0.18726410207E+02  0.00000000000E+00 0. -1.
         11    1    3    3    0    0  0.11092586883E+02 -0.28730499233E+02 -0.48011429739E+00  0.30801259389E+02  0.51100000000E-03 0. -1.
        -11    1    3    3    0    0  0.31593188639E+01  0.30206144673E+00 -0.73356785464E+01  0.79927915523E+01  0.51100000000E-03 0.  1.
        -12    1    3    3    0    0 -0.68922638566E+01  0.22573249545E+02  0.24009337272E+02  0.33667538852E+02  0.00000000000E+00 0.  1.
</event>
<event>
 7    1  0.3189267E-013  0.7246166E+02  0.7816164E-02  0.1226708E+00
        -11   -1    0    0    0    0  0.00000000000E+00  0.00000000000E+00  0.45593999997E+02  0.45594000000E+02  0.51100000000E-03 0.  1.
         11   -1    0    0    0    0 -0.00000000000E+00 -0.00000000000E+00 -0.45593999997E+02  0.45594000000E+02  0.51100000000E-03 0. -1.
    9900012    2    1    2    0    0 -0.30966398786E+01  0.15473755344E+02  0.10082130840E+02  0.72461664393E+02  0.70000122581E+02 0.  0.
         12    1    1    2    0    0  0.30966398786E+01 -0.15473755344E+02 -0.10082130840E+02  0.18726335607E+02  0.00000000000E+00 0. -1.
         11    1    3    3    0    0 -0.11618160546E+02 -0.15006081463E+02 -0.17585357976E+01  0.19059291272E+02  0.51100000000E-03 0. -1.
        -11    1    3    3    0    0 -0.11743144353E+02  0.13864821310E+02  0.18946492384E+02  0.26250795858E+02  0.51100000000E-03 0.  1.
         12    1    3    3    0    0  0.20264665021E+02  0.16615015497E+02 -0.71058257459E+01  0.27151577264E+02  0.00000000000E+00 0. -1.
</event>
<event>
 7    1  0.3189267E-013  0.7246158E+02  0.7816164E-02  0.1226708E+00
        -11   -1    0    0    0    0  0.00000000000E+00  0.00000000000E+00  0.45593999997E+02  0.45594000000E+02  0.51100000000E-03 0.  1.
         11   -1    0    0    0    0 -0.00000000000E+00 -0.00000000000E+00 -0.45593999997E+02  0.45594000000E+02  0.51100000000E-03 0. -1.
    9900012    2    1    2    0    0 -0.13564031264E+02  0.85024327604E+01  0.97162063738E+01  0.72461575534E+02  0.70000006826E+02 0.  0.
         12    1    1    2    0    0  0.13564031264E+02 -0.85024327604E+01 -0.97162063738E+01  0.18726424466E+02  0.00000000000E+00 0. -1.
         11    1    3    3    0    0  0.74855280608E+01  0.13763860038E+02  0.84100316253E+01  0.17782171006E+02  0.51100000000E-03 0. -1.
        -11    1    3    3    0    0 -0.26248761771E+02  0.46105764935E+01  0.19717136753E+02  0.33151476470E+02  0.51100000000E-03 0.  1.
         12    1    3    3    0    0  0.51992024460E+01 -0.98720037712E+01 -0.18410962005E+02  0.21527928058E+02  0.00000000000E+00 0. -1.
</event>
<event>
 7    1  0.3189267E-013  0.7246158E+02  0.7816164E-02  0.1226708E+00
        -11   -1    0    0    0    0  0.00000000000E+00  0.00000000000E+00  0.45593999997E+02  0.45594000000E+02  0.51100000000E-03 0. -1.
         11   -1    0    0    0    0 -0.00000000000E+00 -0.00000000000E+00 -0.45593999997E+02  0.45594000000E+02  0.51100000000E-03 0.  1.
    9900012    2    1    2    0    0 -0.10340607290E+02 -0.54270913973E+01 -0.14638894706E+02  0.72461582341E+02  0.70000015692E+02 0.  0.
         12    1    1    2    0    0  0.10340607290E+02  0.54270913973E+01  0.14638894706E+02  0.18726417659E+02  0.00000000000E+00 0. -1.
         11    1    3    3    0    0 -0.13826285475E+02 -0.19694224170E+02  0.13569985798E+02  0.27625588691E+02  0.51100000000E-03 0. -1.
        -11    1    3    3    0    0 -0.13180683442E+02  0.82459800723E+01 -0.66005165525E+01  0.16890631201E+02  0.51100000000E-03 0.  1.
        -12    1    3    3    0    0  0.16666361627E+02  0.60211527005E+01 -0.21608363951E+02  0.27945362448E+02  0.00000000000E+00 0.  1.
</event>
<event>
 7    1  0.3189267E-013  0.7246155E+02  0.7816164E-02  0.1226708E+00
        -11   -1    0    0    0    0  0.00000000000E+00  0.00000000000E+00  0.45593999997E+02  0.45594000000E+02  0.51100000000E-03 0. -1.
         11   -1    0    0    0    0 -0.00000000000E+00 -0.00000000000E+00 -0.45593999997E+02  0.45594000000E+02  0.51100000000E-03 0.  1.
    9900012    2    1    2    0    0 -0.16695531225E+02 -0.84571858761E+01 -0.64424377064E+00  0.72461553304E+02  0.69999977867E+02 0.  0.
         12    1    1    2    0    0  0.16695531225E+02  0.84571858761E+01  0.64424377064E+00  0.18726446696E+02  0.00000000000E+00 0. -1.
         11    1    3    3    0    0  0.15704613045E+02  0.88857275018E+01  0.54246146921E+00  0.18052293174E+02  0.51100000000E-03 0. -1.
        -11    1    3    3    0    0 -0.28758807074E+01 -0.15930972078E+02 -0.14738505266E+02  0.21892695104E+02  0.51100000000E-03 0.  1.
        -12    1    3    3    0    0 -0.29524263562E+02 -0.14119413000E+01  0.13551800026E+02  0.32516565026E+02  0.00000000000E+00 0.  1.
</event>
<event>
 7    1  0.3189267E-013  0.7246152E+02  0.7816164E-02  0.1226708E+00
        -11   -1    0    0    0    0  0.00000000000E+00  0.00000000000E+00  0.45593999997E+02  0.45594000000E+02  0.51100000000E-03 0. -1.
         11   -1    0    0    0    0 -0.00000000000E+00 -0.00000000000E+00 -0.45593999997E+02  0.45594000000E+02  0.51100000000E-03 0.  1.
    9900012    2    1    2    0    0  0.67994095912E+01  0.12962686691E+01 -0.17400250147E+02  0.72461521729E+02  0.69999936734E+02 0.  0.
         12    1    1    2    0    0 -0.67994095912E+01 -0.12962686691E+01  0.17400250147E+02  0.18726478271E+02  0.00000000000E+00 0. -1.
         11    1    3    3    0    0 -0.51965670727E+01  0.66589969922E+01 -0.21784187798E+01  0.87230762305E+01  0.51100000000E-03 0. -1.
        -11    1    3    3    0    0 -0.68886518167E+01 -0.61534015202E+01 -0.35108036814E+02  0.36302783961E+02  0.51100000000E-03 0.  1.
        -12    1    3    3    0    0  0.18884628481E+02  0.79067319708E+00  0.19886205446E+02  0.27435661537E+02  0.00000000000E+00 0.  1.
</event>
<event>
 7    1  0.3189267E-013  0.7246161E+02  0.7816164E-02  0.1226708E+00
        -11   -1    0    0    0    0  0.00000000000E+00  0.00000000000E+00  0.45593999997E+02  0.45594000000E+02  0.51100000000E-03 0. -1.
         11   -1    0    0    0    0 -0.00000000000E+00 -0.00000000000E+00 -0.45593999997E+02  0.45594000000E+02  0.51100000000E-03 0.  1.
    9900012    2    1    2    0    0  0.82885391942E+01  0.12122709356E+01 -0.16748384496E+02  0.72461605098E+02  0.70000045339E+02 0.  0.
         12    1    1    2    0    0 -0.82885391942E+01 -0.12122709356E+01  0.16748384496E+02  0.18726394902E+02  0.00000000000E+00 0. -1.
         11    1    3    3    0    0 -0.78814275348E+01  0.18139253274E+02  0.71003444425E+01  0.21013431438E+02  0.51100000000E-03 0. -1.
        -11    1    3    3    0    0  0.62506326780E+01 -0.35330083799E+01  0.10817448851E+02  0.12983441646E+02  0.51100000000E-03 0.  1.
        -12    1    3    3    0    0  0.99193340510E+01 -0.13393973959E+02 -0.34666177789E+02  0.38464732014E+02  0.00000000000E+00 0.  1.
</event>
<event>
 7    1  0.3189267E-013  0.7246150E+02  0.7816164E-02  0.1226708E+00
        -11   -1    0    0    0    0  0.00000000000E+00  0.00000000000E+00  0.45593999997E+02  0.45594000000E+02  0.51100000000E-03 0.  1.
         11   -1    0    0    0    0 -0.00000000000E+00 -0.00000000000E+00 -0.45593999997E+02  0.45594000000E+02  0.51100000000E-03 0. -1.
    9900012    2    1    2    0    0  0.15720214037E+02  0.95755399994E+01 -0.34446669119E+01  0.72461499372E+02  0.69999907610E+02 0.  0.
         12    1    1    2    0    0 -0.15720214037E+02 -0.95755399994E+01  0.34446669119E+01  0.18726500628E+02  0.00000000000E+00 0. -1.
         11    1    3    3    0    0 -0.34934956299E+01  0.27851705105E+01  0.94944573234E+01  0.10493159992E+02  0.51100000000E-03 0. -1.
        -11    1    3    3    0    0 -0.25010571139E+00  0.15426656408E+02  0.18441962970E+02  0.24044755754E+02  0.51100000000E-03 0.  1.
         12    1    3    3    0    0  0.19463815378E+02 -0.86362869196E+01 -0.31381087205E+02  0.37923583626E+02  0.00000000000E+00 0. -1.
</event>
<event>
 7    1  0.3189267E-013  0.7246161E+02  0.7816164E-02  0.1226708E+00
        -11   -1    0    0    0    0  0.00000000000E+00  0.00000000000E+00  0.45593999997E+02  0.45594000000E+02  0.51100000000E-03 0. -1.
         11   -1    0    0    0    0 -0.00000000000E+00 -0.00000000000E+00 -0.45593999997E+02  0.45594000000E+02  0.51100000000E-03 0.  1.
    9900012    2    1    2    0    0  0.56357766552E+01 -0.10664308556E+02 -0.14324399172E+02  0.72461605069E+02  0.70000045301E+02 0.  0.
         12    1    1    2    0    0 -0.56357766552E+01  0.10664308556E+02  0.14324399172E+02  0.18726394931E+02  0.00000000000E+00 0. -1.
         11    1    3    3    0    0 -0.66243055604E+01 -0.12353764177E+02 -0.10125394641E+02  0.17292210107E+02  0.51100000000E-03 0. -1.
        -11    1    3    3    0    0  0.12533163705E+02 -0.25121267373E+02 -0.30368711741E+00  0.28075799063E+02  0.51100000000E-03 0.  1.
        -12    1    3    3    0    0 -0.27308148933E+00  0.26810722995E+02 -0.38953174136E+01  0.27093595899E+02  0.00000000000E+00 0.  1.
</event>
<event>
 7    1  0.3189267E-013  0.7246154E+02  0.7816164E-02  0.1226708E+00
        -11   -1    0    0    0    0  0.00000000000E+00  0.00000000000E+00  0.45593999997E+02  0.45594000000E+02  0.51100000000E-03 0.  1.
         11   -1    0    0    0    0 -0.00000000000E+00 -0.00000000000E+00 -0.45593999997E+02  0.45594000000E+02  0.51100000000E-03 0. -1.
    9900012    2    1    2    0    0  0.12825007246E+02  0.10381186924E+01  0.13605949333E+02  0.72461538548E+02  0.69999958644E+02 0.  0.
         12    1    1    2    0    0 -0.12825007246E+02 -0.10381186924E+01 -0.13605949333E+02  0.18726461452E+02  0.00000000000E+00 0. -1.
         11    1    3    3    0    0 -0.18783780997E+02 -0.10564913020E+01 -0.66397651474E+01  0.19950766499E+02  0.51100000000E-03 0. -1.
        -11    1    3    3    0    0  0.20707680812E+01  0.13324094281E+02 -0.23174672492E+01  0.13681747826E+02  0.51100000000E-03 0.  1.
        -12    1    3    3    0    0  0.29538020162E+02 -0.11229484286E+02  0.22563181729E+02  0.38829024224E+02  0.00000000000E+00 0.  1.
</event>
<event>
 7    1  0.3189267E-013  0.7246157E+02  0.7816164E-02  0.1226708E+00
        -11   -1    0    0    0    0  0.00000000000E+00  0.00000000000E+00  0.45593999997E+02  0.45594000000E+02  0.51100000000E-03 0.  1.
         11   -1    0    0    0    0 -0.00000000000E+00 -0.00000000000E+00 -0.45593999997E+02  0.45594000000E+02  0.51100000000E-03 0. -1.
    9900012    2    1    2    0    0 -0.11254254840E+02 -0.38141655137E+01  0.14473187767E+02  0.72461567485E+02  0.69999996341E+02 0.  0.
         12    1    1    2    0    0  0.11254254840E+02  0.38141655137E+01 -0.14473187767E+02  0.18726432515E+02  0.00000000000E+00 0. -1.
         11    1    3    3    0    0  0.22611230526E+01  0.27375269182E+02 -0.16084343206E+00  0.27468962687E+02  0.51100000000E-03 0. -1.
        -11    1    3    3    0    0  0.70728734075E+01 -0.55047464330E+01  0.65380608170E+01  0.11093872680E+02  0.51100000000E-03 0.  1.
        -12    1    3    3    0    0 -0.20588251301E+02 -0.25684688263E+02  0.80959703825E+01  0.33898732118E+02  0.00000000000E+00 0.  1.
</event>
<event>
 7    1  0.3189267E-013  0.7246161E+02  0.7816164E-02  0.1226708E+00
        -11   -1    0    0    0    0  0.00000000000E+00  0.00000000000E+00  0.45593999997E+02  0.45594000000E+02  0.51100000000E-03 0.  1.
         11   -1    0    0    0    0 -0.00000000000E+00 -0.00000000000E+00 -0.45593999997E+02  0.45594000000E+02  0.51100000000E-03 0. -1.
    9900012    2    1    2    0    0  0.15931374093E+02 -0.97560197814E+01  0.12996908376E+01  0.72461606894E+02  0.70000047678E+02 0.  0.
         12    1    1    2    0    0 -0.15931374093E+02  0.97560197814E+01 -0.12996908376E+01  0.18726393106E+02  0.00000000000E+00 0. -1.
         11    1    3    3    0    0 -0.13372398030E+02  0.84081308780E+01 -0.43217819693E+01  0.16376675291E+02  0.51100000000E-03 0. -1.
        -11    1    3    3    0    0 -0.10854587050E+02 -0.64516135736E+01 -0.38372607595E+01  0.13197346253E+02  0.51100000000E-03 0.  1.
        -12    1    3    3    0    0  0.40158359173E+02 -0.11712537086E+02  0.94587335664E+01  0.42887585350E+02  0.00000000000E+00 0.  1.
</event>
<event>
 7    1  0.3189267E-013  0.7246157E+02  0.7816164E-02  0.1226708E+00
        -11   -1    0    0    0    0  0.00000000000E+00  0.00000000000E+00  0.45593999997E+02  0.45594000000E+02  0.51100000000E-03 0.  1.
         11   -1    0    0    0    0 -0.00000000000E+00 -0.00000000000E+00 -0.45593999997E+02  0.45594000000E+02  0.51100000000E-03 0. -1.
    9900012    2    1    2    0    0  0.43279887542E+00  0.12295324436E+02 -0.14117956688E+02  0.72461574316E+02  0.70000005239E+02 0.  0.
         12    1    1    2    0    0 -0.43279887542E+00 -0.12295324436E+02  0.14117956688E+02  0.18726425684E+02  0.00000000000E+00 0. -1.
         11    1    3    3    0    0 -0.11234653919E+02 -0.13499478086E+02 -0.23715044319E+02  0.29510280998E+02  0.51100000000E-03 0. -1.
        -11    1    3    3    0    0  0.91898405211E+01 -0.45521534171E+01  0.69497918679E+01  0.12388497762E+02  0.51100000000E-03 0.  1.
        -12    1    3    3    0    0  0.24776122729E+01  0.30346955939E+02  0.26472957632E+01  0.30562795556E+02  0.00000000000E+00 0.  1.
</event>
<event>
 7    1  0.3189267E-013  0.7246163E+02  0.7816164E-02  0.1226708E+00
        -11   -1    0    0    0    0  0.00000000000E+00  0.00000000000E+00  0.45593999997E+02  0.45594000000E+02  0.51100000000E-03 0.  1.
         11   -1    0    0    0    0 -0.00000000000E+00 -0.00000000000E+00 -0.45593999997E+02  0.45594000000E+02  0.51100000000E-03 0. -1.
    9900012    2    1    2    0    0  0.43672709353E+00  0.73835957799E+01  0.17203740961E+02  0.72461630351E+02  0.70000078235E+02 0.  0.
         12    1    1    2    0    0 -0.43672709353E+00 -0.73835957799E+01 -0.17203740961E+02  0.18726369649E+02  0.00000000000E+00 0. -1.
         11    1    3    3    0    0  0.24889436103E+01 -0.16791771371E+02  0.27435113330E+02  0.32262111985E+02  0.51100000000E-03 0. -1.
        -11    1    3    3    0    0  0.28298822906E+01 -0.10534113344E+01  0.80932342659E+01  0.86381913826E+01  0.51100000000E-03 0.  1.
        -12    1    3    3    0    0 -0.48820988073E+01  0.25228778485E+02 -0.18324606635E+02  0.31561326983E+02  0.00000000000E+00 0.  1.
</event>
<event>
 7    1  0.3189267E-013  0.7246158E+02  0.7816164E-02  0.1226708E+00
        -11   -1    0    0    0    0  0.00000000000E+00  0.00000000000E+00  0.45593999997E+02  0.45594000000E+02  0.51100000000E-03 0.  1.
         11   -1    0    0    0    0 -0.00000000000E+00 -0.00000000000E+00 -0.45593999997E+02  0.45594000000E+02  0.51100000000E-03 0. -1.
    9900012    2    1    2    0    0 -0.11609013051E+02  0.14691370632E+02  0.27068965294E+00  0.72461579414E+02  0.70000011880E+02 0.  0.
         12    1    1    2    0    0  0.11609013051E+02 -0.14691370632E+02 -0.27068965294E+00  0.18726420586E+02  0.00000000000E+00 0. -1.
         11    1    3    3    0    0  0.12650884702E+02 -0.85349016087E+00 -0.30084134336E+01  0.13031649199E+02  0.51100000000E-03 0. -1.
        -11    1    3    3    0    0 -0.10540834152E+02 -0.96023110916E+01 -0.18562646151E+02  0.23406951859E+02  0.51100000000E-03 0.  1.
         12    1    3    3    0    0 -0.13719063600E+02  0.25147171885E+02  0.21841749238E+02  0.36022978356E+02  0.00000000000E+00 0. -1.
</event>
<event>
 7    1  0.3189267E-013  0.7246159E+02  0.7816164E-02  0.1226708E+00
        -11   -1    0    0    0    0  0.00000000000E+00  0.00000000000E+00  0.45593999997E+02  0.45594000000E+02  0.51100000000E-03 0. -1.
         11   -1    0    0    0    0 -0.00000000000E+00 -0.00000000000E+00 -0.45593999997E+02  0.45594000000E+02  0.51100000000E-03 0.  1.
    9900012    2    1    2    0    0 -0.12840406875E+02 -0.13387654392E+02  0.25638178052E+01  0.72461588156E+02  0.70000023268E+02 0.  0.
         12    1    1    2    0    0  0.12840406875E+02  0.13387654392E+02 -0.25638178052E+01  0.18726411844E+02  0.00000000000E+00 0. -1.
         11    1    3    3    0    0  0.16480350993E+02  0.13165612284E+02  0.61850055964E+01  0.21981574333E+02  0.51100000000E-03 0. -1.
        -11    1    3    3    0    0  0.40684752199E+01  0.13808819851E+01 -0.54116579770E+01  0.69098023122E+01  0.51100000000E-03 0.  1.
        -12    1    3    3    0    0 -0.33389233088E+02 -0.27934148661E+02  0.17904701858E+01  0.43570211511E+02  0.00000000000E+00 0.  1.
</event>
<event>
 7    1  0.3189267E-013  0.7246159E+02  0.7816164E-02  0.1226708E+00
        -11   -1    0    0    0    0  0.00000000000E+00  0.00000000000E+00  0.45593999997E+02  0.45594000000E+02  0.51100000000E-03 0. -1.
         11   -1    0    0    0    0 -0.00000000000E+00 -0.00000000000E+00 -0.45593999997E+02  0.45594000000E+02  0.51100000000E-03 0.  1.
    9900012    2    1    2    0    0  0.82903530247E+01 -0.10223334777E+02 -0.13320353294E+02  0.72461592466E+02  0.70000028883E+02 0.  0.
         12    1    1    2    0    0 -0.82903530247E+01  0.10223334777E+02  0.13320353294E+02  0.18726407534E+02  0.00000000000E+00 0. -1.
         11    1    3    3    0    0  0.87733535017E+01  0.19850814251E+02 -0.50639885590E+01  0.22286106400E+02  0.51100000000E-03 0. -1.
        -11    1    3    3    0    0 -0.49630457844E+01 -0.34263268890E+01 -0.19868973528E+02  0.20764095182E+02  0.51100000000E-03 0.  1.
         12    1    3    3    0    0  0.44800453074E+01 -0.26647822139E+02  0.11612608794E+02  0.29411390884E+02  0.00000000000E+00 0. -1.
</event>
<event>
 7    1  0.3189267E-013  0.7246155E+02  0.7816164E-02  0.1226708E+00
        -11   -1    0    0    0    0  0.00000000000E+00  0.00000000000E+00  0.45593999997E+02  0.45594000000E+02  0.51100000000E-03 0.  1.
         11   -1    0    0    0    0 -0.00000000000E+00 -0.00000000000E+00 -0.45593999997E+02  0.45594000000E+02  0.51100000000E-03 0. -1.
    9900012    2    1    2    0    0 -0.15435925175E+02  0.10523466939E+02 -0.12917815797E+01  0.72461552337E+02  0.69999976607E+02 0.  0.
         12    1    1    2    0    0  0.15435925175E+02 -0.10523466939E+02  0.12917815797E+01  0.18726447663E+02  0.00000000000E+00 0. -1.
         11    1    3    3    0    0 -0.17529400360E+02  0.22860069876E+01  0.22208596200E+01  0.17816787664E+02  0.51100000000E-03 0. -1.
        -11    1    3    3    0    0 -0.19813521605E+02  0.46419244620E+01 -0.18788186200E+02  0.27696913945E+02  0.51100000000E-03 0.  1.
        -12    1    3    3    0    0  0.21906996790E+02  0.35955354893E+01  0.15275545001E+02  0.26947850729E+02  0.00000000000E+00 0.  1.
</event>
<event>
 7    1  0.3189267E-013  0.7246158E+02  0.7816164E-02  0.1226708E+00
        -11   -1    0    0    0    0  0.00000000000E+00  0.00000000000E+00  0.45593999997E+02  0.45594000000E+02  0.51100000000E-03 0.  1.
         11   -1    0    0    0    0 -0.00000000000E+00 -0.00000000000E+00 -0.45593999997E+02  0.45594000000E+02  0.51100000000E-03 0. -1.
    9900012    2    1    2    0    0  0.15162584170E+02 -0.72374878926E+00 -0.10965904345E+02  0.72461579383E+02  0.70000011839E+02 0.  0.
         12    1    1    2    0    0 -0.15162584170E+02  0.72374878926E+00  0.10965904345E+02  0.18726420617E+02  0.00000000000E+00 0. -1.
         11    1    3    3    0    0  0.24616681922E+01  0.75520443961E+01 -0.16644187536E+02  0.18442401249E+02  0.51100000000E-03 0. -1.
        -11    1    3    3    0    0  0.54801687179E+01  0.15533494883E+02 -0.14531224214E+02  0.21965386176E+02  0.51100000000E-03 0.  1.
         12    1    3    3    0    0  0.72207472600E+01 -0.23809288068E+02  0.20209507405E+02  0.32053791957E+02  0.00000000000E+00 0. -1.
</event>
<event>
 7    1  0.3189267E-013  0.7246150E+02  0.7816164E-02  0.1226708E+00
        -11   -1    0    0    0    0  0.00000000000E+00  0.00000000000E+00  0.45593999997E+02  0.45594000000E+02  0.51100000000E-03 0.  1.
         11   -1    0    0    0    0 -0.00000000000E+00 -0.00000000000E+00 -0.45593999997E+02  0.45594000000E+02  0.51100000000E-03 0. -1.
    9900012    2    1    2    0    0 -0.36333738235E+01 -0.16932996406E+02 -0.71241734759E+01  0.72461504857E+02  0.69999914755E+02 0.  0.
         12    1    1    2    0    0  0.36333738235E+01  0.16932996406E+02  0.71241734759E+01  0.18726495143E+02  0.00000000000E+00 0. -1.
         11    1    3    3    0    0  0.19215515670E+02 -0.33423805393E+01  0.60465821206E+01  0.20419811599E+02  0.51100000000E-03 0. -1.
        -11    1    3    3    0    0  0.11348944277E+02  0.32338336601E+01 -0.26555500976E+00  0.11803674685E+02  0.51100000000E-03 0.  1.
        -12    1    3    3    0    0 -0.34197833771E+02 -0.16824449527E+02 -0.12905200587E+02  0.40238018573E+02  0.00000000000E+00 0.  1.
</event>
<event>
 7    1  0.3189267E-013  0.7246158E+02  0.7816164E-02  0.1226708E+00
        -11   -1    0    0    0    0  0.00000000000E+00  0.00000000000E+00  0.45593999997E+02  0.45594000000E+02  0.51100000000E-03 0. -1.
         11   -1    0    0    0    0 -0.00000000000E+00 -0.00000000000E+00 -0.45593999997E+02  0.45594000000E+02  0.51100000000E-03 0.  1.
    9900012    2    1    2    0    0 -0.57491963926E+01 -0.11292424750E+02 -0.13787914974E+02  0.72461582424E+02  0.70000015801E+02 0.  0.
         12    1    1    2    0    0  0.57491963926E+01  0.11292424750E+02  0.13787914974E+02  0.18726417576E+02  0.00000000000E+00 0. -1.
         11    1    3    3    0    0 -0.51557520682E+00  0.58437608266E+01 -0.12552994419E+02  0.13856154861E+02  0.51100000000E-03 0. -1.
        -11    1    3    3    0    0  0.64819005214E+00  0.67818286852E+01 -0.24071552233E+02  0.25017053740E+02  0.51100000000E-03 0.  1.
         12    1    3    3    0    0 -0.58818112379E+01 -0.23918014262E+02  0.22836631678E+02  0.33588373823E+02  0.00000000000E+00 0. -1.
</event>
<event>
 7    1  0.3386335E-013  0.7246157E+02  0.7816164E-02  0.1226708E+00
        -11   -1    0    0    0    0  0.00000000000E+00  0.00000000000E+00  0.45593999997E+02  0.45594000000E+02  0.51100000000E-03 0.  1.
         11   -1    0    0    0    0 -0.00000000000E+00 -0.00000000000E+00 -0.45593999997E+02  0.45594000000E+02  0.51100000000E-03 0. -1.
    9900012    2    1    2    0    0  0.10903489627E+02  0.12674540979E+02 -0.84349989513E+01  0.72461567280E+02  0.69999996074E+02 0.  0.
         12    1    1    2    0    0 -0.10903489627E+02 -0.12674540979E+02  0.84349989513E+01  0.18726432720E+02  0.00000000000E+00 0. -1.
         11    1    3    3    0    0 -0.84359764002E+01 -0.14593426248E+02  0.10468994608E+02  0.19842722491E+02  0.51100000000E-03 0. -1.
        -11    1    3    3    0    0  0.53850769342E+01 -0.86360766248E+01 -0.68052392818E+01  0.12243045169E+02  0.51100000000E-03 0.  1.
        -12    1    3    3    0    0  0.13954389093E+02  0.35904043853E+02 -0.12098754278E+02  0.40375799621E+02  0.00000000000E+00 0.  1.
</event>
<event>
 7    1  0.3189267E-013  0.7246161E+02  0.7816164E-02  0.1226708E+00
        -11   -1    0    0    0    0  0.00000000000E+00  0.00000000000E+00  0.45593999997E+02  0.45594000000E+02  0.51100000000E-03 0. -1.
         11   -1    0    0    0    0 -0.00000000000E+00 -0.00000000000E+00 -0.45593999997E+02  0.45594000000E+02  0.51100000000E-03 0.  1.
    9900012    2    1    2    0    0 -0.17887637554E+02 -0.55197523533E+01 -0.49255048521E+00  0.72461605545E+02  0.70000045921E+02 0.  0.
         12    1    1    2    0    0  0.17887637554E+02  0.55197523533E+01  0.49255048521E+00  0.18726394455E+02  0.00000000000E+00 0. -1.
         11    1    3    3    0    0  0.98375842800E+01 -0.69659352726E+01 -0.28207158682E+00  0.12057440994E+02  0.51100000000E-03 0.  1.
        -11    1    3    3    0    0  0.14391143959E+02 -0.18668128536E+01 -0.92397342820E+01  0.17203566623E+02  0.51100000000E-03 0. -1.
        -12    1    3    3    0    0 -0.42116365793E+02  0.33129957729E+01  0.90292553836E+01  0.43200597928E+02  0.00000000000E+00 0.  1.
</event>
<event>
 7    1  0.3189267E-013  0.7246151E+02  0.7816164E-02  0.1226708E+00
        -11   -1    0    0    0    0  0.00000000000E+00  0.00000000000E+00  0.45593999997E+02  0.45594000000E+02  0.51100000000E-03 0. -1.
         11   -1    0    0    0    0 -0.00000000000E+00 -0.00000000000E+00 -0.45593999997E+02  0.45594000000E+02  0.51100000000E-03 0.  1.
    9900012    2    1    2    0    0  0.82199007653E+01  0.73427984819E+00 -0.16809980627E+02  0.72461511163E+02  0.69999922970E+02 0.  0.
         12    1    1    2    0    0 -0.82199007653E+01 -0.73427984819E+00  0.16809980627E+02  0.18726488837E+02  0.00000000000E+00 0. -1.
         11    1    3    3    0    0 -0.79286740460E+01  0.62981453695E+01 -0.22634417196E+02  0.24796115608E+02  0.51100000000E-03 0. -1.
        -11    1    3    3    0    0  0.37871083048E+01 -0.23099238886E+02 -0.45316019109E+01  0.23842240721E+02  0.51100000000E-03 0.  1.
         12    1    3    3    0    0  0.12361466507E+02  0.17535373365E+02  0.10356038480E+02  0.23823154834E+02  0.00000000000E+00 0. -1.
</event>
<event>
 7    1  0.3189267E-013  0.7246156E+02  0.7816164E-02  0.1226708E+00
        -11   -1    0    0    0    0  0.00000000000E+00  0.00000000000E+00  0.45593999997E+02  0.45594000000E+02  0.51100000000E-03 0. -1.
         11   -1    0    0    0    0 -0.00000000000E+00 -0.00000000000E+00 -0.45593999997E+02  0.45594000000E+02  0.51100000000E-03 0.  1.
    9900012    2    1    2    0    0  0.16547034360E+02 -0.48544830398E+01 -0.73013243165E+01  0.72461556438E+02  0.69999981950E+02 0.  0.
         12    1    1    2    0    0 -0.16547034360E+02  0.48544830398E+01  0.73013243165E+01  0.18726443562E+02  0.00000000000E+00 0. -1.
         11    1    3    3    0    0 -0.67727892750E+01 -0.95681170294E+01 -0.80130877624E+01  0.14199616678E+02  0.51100000000E-03 0. -1.
        -11    1    3    3    0    0  0.15461016070E+02 -0.23430634762E+02 -0.49293598415E+01  0.28501513152E+02  0.51100000000E-03 0.  1.
         12    1    3    3    0    0  0.78588075657E+01  0.28144268752E+02  0.56411232874E+01  0.29760426608E+02  0.00000000000E+00 0. -1.
</event>
<event>
 7    1  0.3189267E-013  0.7246159E+02  0.7816164E-02  0.1226708E+00
        -11   -1    0    0    0    0  0.00000000000E+00  0.00000000000E+00  0.45593999997E+02  0.45594000000E+02  0.51100000000E-03 0. -1.
         11   -1    0    0    0    0 -0.00000000000E+00 -0.00000000000E+00 -0.45593999997E+02  0.45594000000E+02  0.51100000000E-03 0.  1.
    9900012    2    1    2    0    0 -0.13381324246E+02 -0.87434262283E+01  0.97555692678E+01  0.72461588904E+02  0.70000024243E+02 0.  0.
         12    1    1    2    0    0  0.13381324246E+02  0.87434262283E+01 -0.97555692678E+01  0.18726411096E+02  0.00000000000E+00 0. -1.
         11    1    3    3    0    0 -0.93834502416E+01  0.17297429980E+01 -0.56023874553E+01  0.11064713947E+02  0.51100000000E-03 0. -1.
        -11    1    3    3    0    0 -0.11681728624E+02 -0.13531315132E+01 -0.20485865269E+02  0.23621270597E+02  0.51100000000E-03 0.  1.
         12    1    3    3    0    0  0.76838546193E+01 -0.91200377131E+01  0.35843821993E+02  0.37775604360E+02  0.00000000000E+00 0. -1.
</event>
<event>
 7    1  0.3189267E-013  0.7246168E+02  0.7816164E-02  0.1226708E+00
        -11   -1    0    0    0    0  0.00000000000E+00  0.00000000000E+00  0.45593999997E+02  0.45594000000E+02  0.51100000000E-03 0.  1.
         11   -1    0    0    0    0 -0.00000000000E+00 -0.00000000000E+00 -0.45593999997E+02  0.45594000000E+02  0.51100000000E-03 0. -1.
    9900012    2    1    2    0    0  0.58640665002E+00  0.83301535799E+01  0.16761258293E+02  0.72461678658E+02  0.70000141164E+02 0.  0.
         12    1    1    2    0    0 -0.58640665002E+00 -0.83301535799E+01 -0.16761258293E+02  0.18726321342E+02  0.00000000000E+00 0. -1.
         11    1    3    3    0    0  0.20129195134E+02 -0.10610171013E+02  0.10091825769E+02  0.24891869622E+02  0.51100000000E-03 0. -1.
        -11    1    3    3    0    0  0.52544854500E+01  0.21980627372E+01 -0.11310017104E+02  0.12663237512E+02  0.51100000000E-03 0.  1.
        -12    1    3    3    0    0 -0.24797273934E+02  0.16742261855E+02  0.17979449629E+02  0.34906571524E+02  0.00000000000E+00 0.  1.
</event>
<event>
 7    1  0.3189267E-013  0.7246218E+02  0.7816164E-02  0.1226706E+00
        -11   -1    0    0    0    0  0.00000000000E+00  0.00000000000E+00  0.45593999997E+02  0.45594000000E+02  0.51100000000E-03 0.  1.
         11   -1    0    0    0    0 -0.00000000000E+00 -0.00000000000E+00 -0.45593999997E+02  0.45594000000E+02  0.51100000000E-03 0. -1.
    9900012    2    1    2    0    0  0.16962659104E+02 -0.59439585259E+01  0.52529810539E+01  0.72462182080E+02  0.70000796960E+02 0.  0.
         12    1    1    2    0    0 -0.16962659104E+02  0.59439585259E+01 -0.52529810539E+01  0.18725817920E+02  0.00000000000E+00 0. -1.
         11    1    3    3    0    0  0.18965598050E+02  0.21201275858E+02  0.12718786042E+02  0.31160159275E+02  0.51100000000E-03 0. -1.
        -11    1    3    3    0    0  0.12787478019E+02 -0.99430346832E+01  0.27354126477E+01  0.16427599198E+02  0.51100000000E-03 0.  1.
        -12    1    3    3    0    0 -0.14790416966E+02 -0.17202199700E+02 -0.10201217635E+02  0.24874423607E+02  0.00000000000E+00 0.  1.
</event>
<event>
 7    1  0.3189267E-013  0.7246162E+02  0.7816164E-02  0.1226708E+00
        -11   -1    0    0    0    0  0.00000000000E+00  0.00000000000E+00  0.45593999997E+02  0.45594000000E+02  0.51100000000E-03 0.  1.
         11   -1    0    0    0    0 -0.00000000000E+00 -0.00000000000E+00 -0.45593999997E+02  0.45594000000E+02  0.51100000000E-03 0. -1.
    9900012    2    1    2    0    0 -0.11307800545E+02  0.14107626047E+02 -0.48770854103E+01  0.72461616795E+02  0.70000060576E+02 0.  0.
         12    1    1    2    0    0  0.11307800545E+02 -0.14107626047E+02  0.48770854103E+01  0.18726383205E+02  0.00000000000E+00 0. -1.
         11    1    3    3    0    0  0.41299185655E+01  0.24755841595E+02  0.56187367705E+01  0.25719217010E+02  0.51100000000E-03 0. -1.
        -11    1    3    3    0    0 -0.13829381556E+02 -0.56180055504E+01  0.14729174431E+02  0.20970511683E+02  0.51100000000E-03 0.  1.
         12    1    3    3    0    0 -0.16083375549E+01 -0.50302099977E+01 -0.25224996612E+02  0.25771888103E+02  0.00000000000E+00 0. -1.
</event>
<event>
 7    1  0.3189267E-013  0.7246157E+02  0.7816164E-02  0.1226708E+00
        -11   -1    0    0    0    0  0.00000000000E+00  0.00000000000E+00  0.45593999997E+02  0.45594000000E+02  0.51100000000E-03 0. -1.
         11   -1    0    0    0    0 -0.00000000000E+00 -0.00000000000E+00 -0.45593999997E+02  0.45594000000E+02  0.51100000000E-03 0.  1.
    9900012    2    1    2    0    0  0.62584223913E+01  0.33295192699E+01 -0.17332786326E+02  0.72461573987E+02  0.70000004811E+02 0.  0.
         12    1    1    2    0    0 -0.62584223913E+01 -0.33295192699E+01  0.17332786326E+02  0.18726426013E+02  0.00000000000E+00 0. -1.
         11    1    3    3    0    0  0.87949795200E+01  0.98852003866E-01 -0.15284229198E+02  0.17634315947E+02  0.51100000000E-03 0. -1.
        -11    1    3    3    0    0  0.22771499497E+02 -0.10197980804E+02 -0.66217772773E+01  0.25814490822E+02  0.51100000000E-03 0.  1.
         12    1    3    3    0    0 -0.25308056626E+02  0.13428648070E+02  0.45732201496E+01  0.29012767219E+02  0.00000000000E+00 0. -1.
</event>
<event>
 7    1  0.3189267E-013  0.7246149E+02  0.7816164E-02  0.1226708E+00
        -11   -1    0    0    0    0  0.00000000000E+00  0.00000000000E+00  0.45593999997E+02  0.45594000000E+02  0.51100000000E-03 0.  1.
         11   -1    0    0    0    0 -0.00000000000E+00 -0.00000000000E+00 -0.45593999997E+02  0.45594000000E+02  0.51100000000E-03 0. -1.
    9900012    2    1    2    0    0  0.31851864010E+01 -0.10518130023E+02  0.15162635738E+02  0.72461494878E+02  0.69999901756E+02 0.  0.
         12    1    1    2    0    0 -0.31851864010E+01  0.10518130023E+02 -0.15162635738E+02  0.18726505122E+02  0.00000000000E+00 0. -1.
         11    1    3    3    0    0 -0.86244972492E+01 -0.12355030810E+02 -0.13106087509E+02  0.19969934130E+02  0.51100000000E-03 0. -1.
        -11    1    3    3    0    0  0.47883106943E+01 -0.17191605367E+02  0.26744273730E+02  0.32151755660E+02  0.51100000000E-03 0.  1.
         12    1    3    3    0    0  0.70213729559E+01  0.19028506154E+02  0.15244495160E+01  0.20339805087E+02  0.00000000000E+00 0. -1.
</event>
<event>
 7    1  0.3189267E-013  0.7246156E+02  0.7816164E-02  0.1226708E+00
        -11   -1    0    0    0    0  0.00000000000E+00  0.00000000000E+00  0.45593999997E+02  0.45594000000E+02  0.51100000000E-03 0.  1.
         11   -1    0    0    0    0 -0.00000000000E+00 -0.00000000000E+00 -0.45593999997E+02  0.45594000000E+02  0.51100000000E-03 0. -1.
    9900012    2    1    2    0    0 -0.66321077860E+01 -0.16669591494E+02 -0.53683623684E+01  0.72461562838E+02  0.69999990287E+02 0.  0.
         12    1    1    2    0    0  0.66321077860E+01  0.16669591494E+02  0.53683623684E+01  0.18726437162E+02  0.00000000000E+00 0. -1.
         11    1    3    3    0    0  0.15483591277E+02 -0.90020349274E+01  0.35771705081E+01  0.18264018747E+02  0.51100000000E-03 0. -1.
        -11    1    3    3    0    0  0.60575290114E+01  0.12085844774E+02  0.81404631005E+01  0.15780635012E+02  0.51100000000E-03 0.  1.
         12    1    3    3    0    0 -0.28173228075E+02 -0.19753401341E+02 -0.17085995977E+02  0.38416909079E+02  0.00000000000E+00 0. -1.
</event>
<event>
 7    1  0.3189267E-013  0.7246157E+02  0.7816164E-02  0.1226708E+00
        -11   -1    0    0    0    0  0.00000000000E+00  0.00000000000E+00  0.45593999997E+02  0.45594000000E+02  0.51100000000E-03 0.  1.
         11   -1    0    0    0    0 -0.00000000000E+00 -0.00000000000E+00 -0.45593999997E+02  0.45594000000E+02  0.51100000000E-03 0. -1.
    9900012    2    1    2    0    0  0.16600782227E+00  0.52023910745E-02  0.18725697964E+02  0.72461565479E+02  0.69999993727E+02 0.  0.
         12    1    1    2    0    0 -0.16600782227E+00 -0.52023910745E-02 -0.18725697964E+02  0.18726434521E+02  0.00000000000E+00 0. -1.
         11    1    3    3    0    0 -0.15605809217E+02  0.91402331651E+01 -0.59292822787E+01  0.19032643858E+02  0.51100000000E-03 0. -1.
        -11    1    3    3    0    0  0.12797444964E+02  0.75491156882E+01 -0.78255737811E+01  0.16792955384E+02  0.51100000000E-03 0.  1.
        -12    1    3    3    0    0  0.29743720753E+01 -0.16684146462E+02  0.32480554023E+02  0.36635966237E+02  0.00000000000E+00 0.  1.
</event>
<event>
 7    1  0.3189267E-013  0.7246156E+02  0.7816164E-02  0.1226708E+00
        -11   -1    0    0    0    0  0.00000000000E+00  0.00000000000E+00  0.45593999997E+02  0.45594000000E+02  0.51100000000E-03 0.  1.
         11   -1    0    0    0    0 -0.00000000000E+00 -0.00000000000E+00 -0.45593999997E+02  0.45594000000E+02  0.51100000000E-03 0. -1.
    9900012    2    1    2    0    0  0.16982851666E+02  0.68181168566E+01 -0.39718611279E+01  0.72461557492E+02  0.69999983323E+02 0.  0.
         12    1    1    2    0    0 -0.16982851666E+02 -0.68181168566E+01  0.39718611279E+01  0.18726442508E+02  0.00000000000E+00 0. -1.
         11    1    3    3    0    0  0.48392844809E+01 -0.29803889939E+01  0.51789501193E+00  0.57069789159E+01  0.51100000000E-03 0. -1.
        -11    1    3    3    0    0  0.37756089057E+02 -0.31201810556E+01 -0.35873710037E+01  0.38054264172E+02  0.51100000000E-03 0.  1.
         12    1    3    3    0    0 -0.25612521872E+02  0.12918686906E+02 -0.90238513608E+00  0.28700314405E+02  0.00000000000E+00 0. -1.
</event>
<event>
 7    1  0.3189267E-013  0.7246158E+02  0.7816164E-02  0.1226708E+00
        -11   -1    0    0    0    0  0.00000000000E+00  0.00000000000E+00  0.45593999997E+02  0.45594000000E+02  0.51100000000E-03 0.  1.
         11   -1    0    0    0    0 -0.00000000000E+00 -0.00000000000E+00 -0.45593999997E+02  0.45594000000E+02  0.51100000000E-03 0. -1.
    9900012    2    1    2    0    0  0.10650147204E+02  0.11531831737E+02  0.10211263320E+02  0.72461583437E+02  0.70000017121E+02 0.  0.
         12    1    1    2    0    0 -0.10650147204E+02 -0.11531831737E+02 -0.10211263320E+02  0.18726416563E+02  0.00000000000E+00 0. -1.
         11    1    3    3    0    0  0.12198831404E+02 -0.45327941615E+01 -0.80845848970E+01  0.15320516432E+02  0.51100000000E-03 0. -1.
        -11    1    3    3    0    0 -0.23394635808E+02 -0.41409859903E+01  0.12420421956E+02  0.26809021455E+02  0.51100000000E-03 0.  1.
         12    1    3    3    0    0  0.21845951609E+02  0.20205611889E+02  0.58754262609E+01  0.30332045550E+02  0.00000000000E+00 0. -1.
</event>
<event>
 7    1  0.3189267E-013  0.7246154E+02  0.7816164E-02  0.1226708E+00
        -11   -1    0    0    0    0  0.00000000000E+00  0.00000000000E+00  0.45593999997E+02  0.45594000000E+02  0.51100000000E-03 0.  1.
         11   -1    0    0    0    0 -0.00000000000E+00 -0.00000000000E+00 -0.45593999997E+02  0.45594000000E+02  0.51100000000E-03 0. -1.
    9900012    2    1    2    0    0  0.10577143430E+02 -0.84125545844E+01  0.12962762244E+02  0.72461541638E+02  0.69999962670E+02 0.  0.
         12    1    1    2    0    0 -0.10577143430E+02  0.84125545844E+01 -0.12962762244E+02  0.18726458362E+02  0.00000000000E+00 0. -1.
         11    1    3    3    0    0 -0.14402512825E+02 -0.17147922860E+02  0.14508802263E+02  0.26683121584E+02  0.51100000000E-03 0.  1.
        -11    1    3    3    0    0  0.26359618312E+02 -0.37795393557E+01 -0.12194451659E+02  0.29288548049E+02  0.51100000000E-03 0. -1.
         12    1    3    3    0    0 -0.13799620560E+01  0.12514907631E+02  0.10648411640E+02  0.16489872006E+02  0.00000000000E+00 0. -1.
</event>
<event>
 7    1  0.3189267E-013  0.7246156E+02  0.7816164E-02  0.1226708E+00
        -11   -1    0    0    0    0  0.00000000000E+00  0.00000000000E+00  0.45593999997E+02  0.45594000000E+02  0.51100000000E-03 0. -1.
         11   -1    0    0    0    0 -0.00000000000E+00 -0.00000000000E+00 -0.45593999997E+02  0.45594000000E+02  0.51100000000E-03 0.  1.
    9900012    2    1    2    0    0  0.14153077002E+02  0.11048403872E+02 -0.53200345619E+01  0.72461559215E+02  0.69999985567E+02 0.  0.
         12    1    1    2    0    0 -0.14153077002E+02 -0.11048403872E+02  0.53200345619E+01  0.18726440785E+02  0.00000000000E+00 0. -1.
         11    1    3    3    0    0  0.79268580685E+01 -0.23136258695E+01 -0.74648825351E+01  0.11131595350E+02  0.51100000000E-03 0. -1.
        -11    1    3    3    0    0  0.53316329904E+01  0.26384006963E+01 -0.28362897354E+02  0.28980017515E+02  0.51100000000E-03 0.  1.
         12    1    3    3    0    0  0.89458594291E+00  0.10723629045E+02  0.30507745327E+02  0.32349946350E+02  0.00000000000E+00 0. -1.
</event>
<event>
 7    1  0.3189267E-013  0.7246156E+02  0.7816164E-02  0.1226708E+00
        -11   -1    0    0    0    0  0.00000000000E+00  0.00000000000E+00  0.45593999997E+02  0.45594000000E+02  0.51100000000E-03 0. -1.
         11   -1    0    0    0    0 -0.00000000000E+00 -0.00000000000E+00 -0.45593999997E+02  0.45594000000E+02  0.51100000000E-03 0.  1.
    9900012    2    1    2    0    0 -0.13512493284E+02 -0.78611114613E+01 -0.10309953255E+02  0.72461556551E+02  0.69999982096E+02 0.  0.
         12    1    1    2    0    0  0.13512493284E+02  0.78611114613E+01  0.10309953255E+02  0.18726443449E+02  0.00000000000E+00 0. -1.
         11    1    3    3    0    0 -0.16045450237E+02  0.50015079448E+01  0.13495567382E+02  0.21554625820E+02  0.51100000000E-03 0. -1.
        -11    1    3    3    0    0  0.50382867305E+01 -0.24062312624E+02 -0.11658394687E+00  0.24584401845E+02  0.51100000000E-03 0.  1.
        -12    1    3    3    0    0 -0.25053297773E+01  0.11199693218E+02 -0.23688936690E+02  0.26322528886E+02  0.00000000000E+00 0.  1.
</event>
<event>
 7    1  0.3189267E-013  0.7246147E+02  0.7816164E-02  0.1226708E+00
        -11   -1    0    0    0    0  0.00000000000E+00  0.00000000000E+00  0.45593999997E+02  0.45594000000E+02  0.51100000000E-03 0.  1.
         11   -1    0    0    0    0 -0.00000000000E+00 -0.00000000000E+00 -0.45593999997E+02  0.45594000000E+02  0.51100000000E-03 0. -1.
    9900012    2    1    2    0    0 -0.16225765998E+02  0.45845901713E+01  0.81479379637E+01  0.72461472230E+02  0.69999872253E+02 0.  0.
         12    1    1    2    0    0  0.16225765998E+02 -0.45845901713E+01 -0.81479379637E+01  0.18726527770E+02  0.00000000000E+00 0. -1.
         11    1    3    3    0    0 -0.18961831327E+02 -0.14746105114E+02 -0.66647131819E+01  0.24928238313E+02  0.51100000000E-03 0. -1.
        -11    1    3    3    0    0  0.19844360346E+02  0.78003878926E+01 -0.12908066698E+01  0.21361434197E+02  0.51100000000E-03 0.  1.
        -12    1    3    3    0    0 -0.17108295017E+02  0.11530307393E+02  0.16103457815E+02  0.26171799720E+02  0.00000000000E+00 0.  1.
</event>
<event>
 7    1  0.3189267E-013  0.7246172E+02  0.7816164E-02  0.1226708E+00
        -11   -1    0    0    0    0  0.00000000000E+00  0.00000000000E+00  0.45593999997E+02  0.45594000000E+02  0.51100000000E-03 0. -1.
         11   -1    0    0    0    0 -0.00000000000E+00 -0.00000000000E+00 -0.45593999997E+02  0.45594000000E+02  0.51100000000E-03 0.  1.
    9900012    2    1    2    0    0  0.42134368265E+01  0.15085813363E+02 -0.10263468717E+02  0.72461718874E+02  0.70000193553E+02 0.  0.
         12    1    1    2    0    0 -0.42134368265E+01 -0.15085813363E+02  0.10263468717E+02  0.18726281126E+02  0.00000000000E+00 0. -1.
         11    1    3    3    0    0 -0.26112545133E+01  0.69220152255E+01 -0.63871848625E+01  0.97738976690E+01  0.51100000000E-03 0. -1.
        -11    1    3    3    0    0 -0.18092778107E+02  0.10372209347E+02 -0.23113250290E+02  0.31131233282E+02  0.51100000000E-03 0.  1.
         12    1    3    3    0    0  0.24917469447E+02 -0.22084112102E+01  0.19236966436E+02  0.31556587924E+02  0.00000000000E+00 0. -1.
</event>
<event>
 7    1  0.3189267E-013  0.7246153E+02  0.7816164E-02  0.1226708E+00
        -11   -1    0    0    0    0  0.00000000000E+00  0.00000000000E+00  0.45593999997E+02  0.45594000000E+02  0.51100000000E-03 0.  1.
         11   -1    0    0    0    0 -0.00000000000E+00 -0.00000000000E+00 -0.45593999997E+02  0.45594000000E+02  0.51100000000E-03 0. -1.
    9900012    2    1    2    0    0  0.17914037546E+02  0.16597905539E+01 -0.51974121767E+01  0.72461528383E+02  0.69999945403E+02 0.  0.
         12    1    1    2    0    0 -0.17914037546E+02 -0.16597905539E+01  0.51974121767E+01  0.18726471617E+02  0.00000000000E+00 0. -1.
         11    1    3    3    0    0  0.42157407086E+01  0.86500769892E+01  0.21206930069E+02  0.23287983701E+02  0.51100000000E-03 0.  1.
        -11    1    3    3    0    0  0.14712893559E+02  0.13473091835E+02 -0.75521003801E+01  0.21331377379E+02  0.51100000000E-03 0. -1.
        -12    1    3    3    0    0 -0.10145967214E+01 -0.20463378270E+02 -0.18852241866E+02  0.27842167303E+02  0.00000000000E+00 0.  1.
</event>
<event>
 7    1  0.3189267E-013  0.7246159E+02  0.7816164E-02  0.1226708E+00
        -11   -1    0    0    0    0  0.00000000000E+00  0.00000000000E+00  0.45593999997E+02  0.45594000000E+02  0.51100000000E-03 0. -1.
         11   -1    0    0    0    0 -0.00000000000E+00 -0.00000000000E+00 -0.45593999997E+02  0.45594000000E+02  0.51100000000E-03 0.  1.
    9900012    2    1    2    0    0 -0.40237005983E+01 -0.14491095665E+02 -0.11157799842E+02  0.72461587706E+02  0.70000022683E+02 0.  0.
         12    1    1    2    0    0  0.40237005983E+01  0.14491095665E+02  0.11157799842E+02  0.18726412294E+02  0.00000000000E+00 0. -1.
         11    1    3    3    0    0  0.15072106413E+02 -0.10031021117E+02  0.62446094093E+01  0.19151629782E+02  0.51100000000E-03 0. -1.
        -11    1    3    3    0    0 -0.66031744662E+01  0.12677737405E+02  0.10876773687E+02  0.17961935999E+02  0.51100000000E-03 0.  1.
        -12    1    3    3    0    0 -0.12492632545E+02 -0.17137811953E+02 -0.28279182937E+02  0.35348021926E+02  0.00000000000E+00 0.  1.
</event>
<event>
 7    1  0.3189267E-013  0.7246148E+02  0.7816164E-02  0.1226708E+00
        -11   -1    0    0    0    0  0.00000000000E+00  0.00000000000E+00  0.45593999997E+02  0.45594000000E+02  0.51100000000E-03 0. -1.
         11   -1    0    0    0    0 -0.00000000000E+00 -0.00000000000E+00 -0.45593999997E+02  0.45594000000E+02  0.51100000000E-03 0.  1.
    9900012    2    1    2    0    0 -0.44319447421E+01  0.14679144684E+02 -0.10750021692E+02  0.72461484327E+02  0.69999888012E+02 0.  0.
         12    1    1    2    0    0  0.44319447421E+01 -0.14679144684E+02  0.10750021692E+02  0.18726515673E+02  0.00000000000E+00 0. -1.
         11    1    3    3    0    0 -0.14236230515E+02  0.38498433163E+02 -0.73009579959E+01  0.41690569715E+02  0.51100000000E-03 0. -1.
        -11    1    3    3    0    0  0.91024194768E+01 -0.81793518467E+01  0.47150313685E+01  0.13114395069E+02  0.51100000000E-03 0.  1.
        -12    1    3    3    0    0  0.70186629648E+00 -0.15639936632E+02 -0.81640950647E+01  0.17656519543E+02  0.00000000000E+00 0.  1.
</event>
<event>
 7    1  0.3189267E-013  0.7246163E+02  0.7816164E-02  0.1226708E+00
        -11   -1    0    0    0    0  0.00000000000E+00  0.00000000000E+00  0.45593999997E+02  0.45594000000E+02  0.51100000000E-03 0. -1.
         11   -1    0    0    0    0 -0.00000000000E+00 -0.00000000000E+00 -0.45593999997E+02  0.45594000000E+02  0.51100000000E-03 0.  1.
    9900012    2    1    2    0    0 -0.74768431884E+01  0.14917626871E+02 -0.84993089151E+01  0.72461627486E+02  0.70000074502E+02 0.  0.
         12    1    1    2    0    0  0.74768431884E+01 -0.14917626871E+02  0.84993089151E+01  0.18726372514E+02  0.00000000000E+00 0. -1.
         11    1    3    3    0    0  0.53544867299E+01 -0.10362906680E+01 -0.48319854686E+01  0.72864607539E+01  0.51100000000E-03 0. -1.
        -11    1    3    3    0    0  0.17253278121E+02 -0.95916605654E+01 -0.14211538154E+02  0.24323720425E+02  0.51100000000E-03 0.  1.
        -12    1    3    3    0    0 -0.30084608040E+02  0.25545578104E+02  0.10544214707E+02  0.40851446307E+02  0.00000000000E+00 0.  1.
</event>
<event>
 7    1  0.3189267E-013  0.7246135E+02  0.7816164E-02  0.1226709E+00
        -11   -1    0    0    0    0  0.00000000000E+00  0.00000000000E+00  0.45593999997E+02  0.45594000000E+02  0.51100000000E-03 0.  1.
         11   -1    0    0    0    0 -0.00000000000E+00 -0.00000000000E+00 -0.45593999997E+02  0.45594000000E+02  0.51100000000E-03 0. -1.
    9900012    2    1    2    0    0 -0.17862795336E+02 -0.53854873868E+01 -0.16138293664E+01  0.72461351158E+02  0.69999714534E+02 0.  0.
         12    1    1    2    0    0  0.17862795336E+02  0.53854873868E+01  0.16138293664E+01  0.18726648842E+02  0.00000000000E+00 0. -1.
         11    1    3    3    0    0 -0.27133756855E+02  0.19434302930E+02 -0.61349497187E+01  0.33934797771E+02  0.51100000000E-03 0. -1.
        -11    1    3    3    0    0 -0.48734871070E+01  0.35823153708E+01 -0.14985422732E+01  0.62313312545E+01  0.51100000000E-03 0.  1.
        -12    1    3    3    0    0  0.14144448626E+02 -0.28402105688E+02  0.60196626255E+01  0.32295222132E+02  0.00000000000E+00 0.  1.
</event>
<event>
 7    1  0.3189267E-013  0.7246147E+02  0.7816164E-02  0.1226708E+00
        -11   -1    0    0    0    0  0.00000000000E+00  0.00000000000E+00  0.45593999997E+02  0.45594000000E+02  0.51100000000E-03 0. -1.
         11   -1    0    0    0    0 -0.00000000000E+00 -0.00000000000E+00 -0.45593999997E+02  0.45594000000E+02  0.51100000000E-03 0.  1.
    9900012    2    1    2    0    0  0.15279548483E+02 -0.10282174615E+02  0.33904825651E+01  0.72461465652E+02  0.69999863684E+02 0.  0.
         12    1    1    2    0    0 -0.15279548483E+02  0.10282174615E+02 -0.33904825651E+01  0.18726534348E+02  0.00000000000E+00 0. -1.
         11    1    3    3    0    0  0.84013311581E+00 -0.24007525651E+02  0.24434608366E+02  0.34265393589E+02  0.51100000000E-03 0. -1.
        -11    1    3    3    0    0  0.94484013987E+00 -0.20074443104E+01  0.46687796466E+01  0.51691449195E+01  0.51100000000E-03 0.  1.
        -12    1    3    3    0    0  0.13494575228E+02  0.15732795347E+02 -0.25712905447E+02  0.33026927144E+02  0.00000000000E+00 0.  1.
</event>
<event>
 7    1  0.3189267E-013  0.7246158E+02  0.7816164E-02  0.1226708E+00
        -11   -1    0    0    0    0  0.00000000000E+00  0.00000000000E+00  0.45593999997E+02  0.45594000000E+02  0.51100000000E-03 0. -1.
         11   -1    0    0    0    0 -0.00000000000E+00 -0.00000000000E+00 -0.45593999997E+02  0.45594000000E+02  0.51100000000E-03 0.  1.
    9900012    2    1    2    0    0  0.27709511034E+01 -0.17589266701E+02  0.57981209337E+01  0.72461583379E+02  0.70000017046E+02 0.  0.
         12    1    1    2    0    0 -0.27709511034E+01  0.17589266701E+02 -0.57981209337E+01  0.18726416621E+02  0.00000000000E+00 0. -1.
         11    1    3    3    0    0 -0.19287841528E+01  0.11202936740E+02  0.14219471402E+02  0.18204927001E+02  0.51100000000E-03 0. -1.
        -11    1    3    3    0    0 -0.48031484431E+01  0.63395093268E+01  0.10551870428E+02  0.13213689237E+02  0.51100000000E-03 0.  1.
        -12    1    3    3    0    0  0.95028836993E+01 -0.35131712767E+02 -0.18973220896E+02  0.41042967141E+02  0.00000000000E+00 0.  1.
</event>
<event>
 7    1  0.3189267E-013  0.7246170E+02  0.7816164E-02  0.1226708E+00
        -11   -1    0    0    0    0  0.00000000000E+00  0.00000000000E+00  0.45593999997E+02  0.45594000000E+02  0.51100000000E-03 0.  1.
         11   -1    0    0    0    0 -0.00000000000E+00 -0.00000000000E+00 -0.45593999997E+02  0.45594000000E+02  0.51100000000E-03 0. -1.
    9900012    2    1    2    0    0 -0.18315135484E+02  0.36390027407E+01 -0.14098719861E+01  0.72461701173E+02  0.70000170493E+02 0.  0.
         12    1    1    2    0    0  0.18315135484E+02 -0.36390027407E+01  0.14098719861E+01  0.18726298827E+02  0.00000000000E+00 0. -1.
         11    1    3    3    0    0  0.11095067626E+02 -0.22815838039E+01  0.24842914370E+01  0.11596458704E+02  0.51100000000E-03 0. -1.
        -11    1    3    3    0    0 -0.25523641370E+02 -0.12189579638E+02  0.16954378089E+02  0.32977159629E+02  0.51100000000E-03 0.  1.
        -12    1    3    3    0    0 -0.38865617398E+01  0.18110166183E+02 -0.20848541512E+02  0.27888082840E+02  0.00000000000E+00 0.  1.
</event>
<event>
 7    1  0.3189267E-013  0.7246170E+02  0.7816164E-02  0.1226708E+00
        -11   -1    0    0    0    0  0.00000000000E+00  0.00000000000E+00  0.45593999997E+02  0.45594000000E+02  0.51100000000E-03 0.  1.
         11   -1    0    0    0    0 -0.00000000000E+00 -0.00000000000E+00 -0.45593999997E+02  0.45594000000E+02  0.51100000000E-03 0. -1.
    9900012    2    1    2    0    0  0.29933549596E+01 -0.14341708939E+02 -0.11663167966E+02  0.72461700947E+02  0.70000170199E+02 0.  0.
         12    1    1    2    0    0 -0.29933549596E+01  0.14341708939E+02  0.11663167966E+02  0.18726299053E+02  0.00000000000E+00 0. -1.
         11    1    3    3    0    0 -0.37716273158E+01 -0.84504599707E+01 -0.26588878100E+02  0.28153221578E+02  0.51100000000E-03 0. -1.
        -11    1    3    3    0    0  0.18403724031E+02  0.44191918013E+01 -0.44721248888E+01  0.19448038864E+02  0.51100000000E-03 0.  1.
         12    1    3    3    0    0 -0.11638741756E+02 -0.10310440770E+02  0.19397835023E+02  0.24860440505E+02  0.00000000000E+00 0. -1.
</event>
<event>
 7    1  0.3189267E-013  0.7246157E+02  0.7816164E-02  0.1226708E+00
        -11   -1    0    0    0    0  0.00000000000E+00  0.00000000000E+00  0.45593999997E+02  0.45594000000E+02  0.51100000000E-03 0.  1.
         11   -1    0    0    0    0 -0.00000000000E+00 -0.00000000000E+00 -0.45593999997E+02  0.45594000000E+02  0.51100000000E-03 0. -1.
    9900012    2    1    2    0    0  0.16297748186E+01  0.17982212795E+02  0.49661793315E+01  0.72461572681E+02  0.70000003109E+02 0.  0.
         12    1    1    2    0    0 -0.16297748186E+01 -0.17982212795E+02 -0.49661793315E+01  0.18726427319E+02  0.00000000000E+00 0. -1.
         11    1    3    3    0    0 -0.68783409860E+01  0.17223948143E+02  0.30809664047E+02  0.35961248077E+02  0.51100000000E-03 0. -1.
        -11    1    3    3    0    0  0.33814392732E+01  0.10617377418E+02 -0.37279113861E+01  0.11749900356E+02  0.51100000000E-03 0.  1.
         12    1    3    3    0    0  0.51266765314E+01 -0.98591127660E+01 -0.22115573329E+02  0.24750424248E+02  0.00000000000E+00 0. -1.
</event>
<event>
 7    1  0.3189267E-013  0.7246155E+02  0.7816164E-02  0.1226708E+00
        -11   -1    0    0    0    0  0.00000000000E+00  0.00000000000E+00  0.45593999997E+02  0.45594000000E+02  0.51100000000E-03 0.  1.
         11   -1    0    0    0    0 -0.00000000000E+00 -0.00000000000E+00 -0.45593999997E+02  0.45594000000E+02  0.51100000000E-03 0. -1.
    9900012    2    1    2    0    0 -0.90202335758E+00 -0.18696038844E+02 -0.56948171172E+00  0.72461552819E+02  0.69999977236E+02 0.  0.
         12    1    1    2    0    0  0.90202335758E+00  0.18696038844E+02  0.56948171172E+00  0.18726447181E+02  0.00000000000E+00 0. -1.
         11    1    3    3    0    0  0.19422050715E+02 -0.33008196773E+01  0.53273653109E+01  0.20408142638E+02  0.51100000000E-03 0. -1.
        -11    1    3    3    0    0  0.98203516350E+01 -0.39934109329E+01 -0.15179121466E+02  0.18514652734E+02  0.51100000000E-03 0.  1.
        -12    1    3    3    0    0 -0.30144425708E+02 -0.11401808234E+02  0.92822744431E+01  0.33538757447E+02  0.00000000000E+00 0.  1.
</event>
<event>
 7    1  0.3189267E-013  0.7246160E+02  0.7816164E-02  0.1226708E+00
        -11   -1    0    0    0    0  0.00000000000E+00  0.00000000000E+00  0.45593999997E+02  0.45594000000E+02  0.51100000000E-03 0.  1.
         11   -1    0    0    0    0 -0.00000000000E+00 -0.00000000000E+00 -0.45593999997E+02  0.45594000000E+02  0.51100000000E-03 0. -1.
    9900012    2    1    2    0    0  0.10120239742E+02  0.10591223051E+02  0.11665538732E+02  0.72461600131E+02  0.70000038868E+02 0.  0.
         12    1    1    2    0    0 -0.10120239742E+02 -0.10591223051E+02 -0.11665538732E+02  0.18726399869E+02  0.00000000000E+00 0. -1.
         11    1    3    3    0    0  0.32340793924E+01  0.27603574950E+01  0.25331530033E+01  0.49493138328E+01  0.51100000000E-03 0. -1.
        -11    1    3    3    0    0  0.43912618955E+01  0.20390824104E+02  0.33800636601E+02  0.39718407869E+02  0.51100000000E-03 0.  1.
         12    1    3    3    0    0  0.24948984543E+01 -0.12559958548E+02 -0.24668250873E+02  0.27793878429E+02  0.00000000000E+00 0. -1.
</event>
<event>
 7    1  0.3189267E-013  0.7246160E+02  0.7816164E-02  0.1226708E+00
        -11   -1    0    0    0    0  0.00000000000E+00  0.00000000000E+00  0.45593999997E+02  0.45594000000E+02  0.51100000000E-03 0. -1.
         11   -1    0    0    0    0 -0.00000000000E+00 -0.00000000000E+00 -0.45593999997E+02  0.45594000000E+02  0.51100000000E-03 0.  1.
    9900012    2    1    2    0    0 -0.13534739692E+02  0.59300520096E+01 -0.11503189355E+02  0.72461599900E+02  0.70000038567E+02 0.  0.
         12    1    1    2    0    0  0.13534739692E+02 -0.59300520096E+01  0.11503189355E+02  0.18726400100E+02  0.00000000000E+00 0. -1.
         11    1    3    3    0    0  0.73764179176E+01  0.63329769064E+01 -0.48039259698E+01  0.10844161691E+02  0.51100000000E-03 0. -1.
        -11    1    3    3    0    0 -0.10772052571E+02  0.12635753795E+02 -0.29268289902E+02  0.33650143902E+02  0.51100000000E-03 0.  1.
         12    1    3    3    0    0 -0.10139105038E+02 -0.13038678692E+02  0.22569026517E+02  0.27967294308E+02  0.00000000000E+00 0. -1.
</event>
<event>
 7    1  0.3189267E-013  0.7246109E+02  0.7816164E-02  0.1226709E+00
        -11   -1    0    0    0    0  0.00000000000E+00  0.00000000000E+00  0.45593999997E+02  0.45594000000E+02  0.51100000000E-03 0.  1.
         11   -1    0    0    0    0 -0.00000000000E+00 -0.00000000000E+00 -0.45593999997E+02  0.45594000000E+02  0.51100000000E-03 0. -1.
    9900012    2    1    2    0    0 -0.40907325772E+01  0.17598608141E+02 -0.49246355531E+01  0.72461090569E+02  0.69999375065E+02 0.  0.
         12    1    1    2    0    0  0.40907325772E+01 -0.17598608141E+02  0.49246355531E+01  0.18726909431E+02  0.00000000000E+00 0. -1.
         11    1    3    3    0    0  0.26085885809E+02 -0.89650003977E+00  0.92683197613E+01  0.27697994552E+02  0.51100000000E-03 0.  1.
        -11    1    3    3    0    0 -0.13191730421E+02 -0.43825587226E+01 -0.35494145824E+01  0.14346669181E+02  0.51100000000E-03 0. -1.
        -12    1    3    3    0    0 -0.16984887965E+02  0.22877666904E+02 -0.10643540732E+02  0.30416426835E+02  0.00000000000E+00 0.  1.
</event>
<event>
 7    1  0.3189267E-013  0.7246161E+02  0.7816164E-02  0.1226708E+00
        -11   -1    0    0    0    0  0.00000000000E+00  0.00000000000E+00  0.45593999997E+02  0.45594000000E+02  0.51100000000E-03 0. -1.
         11   -1    0    0    0    0 -0.00000000000E+00 -0.00000000000E+00 -0.45593999997E+02  0.45594000000E+02  0.51100000000E-03 0.  1.
    9900012    2    1    2    0    0 -0.30068476384E+01 -0.16995043831E+02 -0.72667065232E+01  0.72461610299E+02  0.70000052114E+02 0.  0.
         12    1    1    2    0    0  0.30068476384E+01  0.16995043831E+02  0.72667065232E+01  0.18726389701E+02  0.00000000000E+00 0. -1.
         11    1    3    3    0    0 -0.76351619388E+01 -0.75583617966E+01 -0.10087589038E+02  0.14737163354E+02  0.51100000000E-03 0. -1.
        -11    1    3    3    0    0 -0.24677900334E+02 -0.69557028274E+01 -0.72369018332E+01  0.26641195828E+02  0.51100000000E-03 0.  1.
         12    1    3    3    0    0  0.29306214634E+02 -0.24809792069E+01  0.10057784348E+02  0.31083251117E+02  0.00000000000E+00 0. -1.
</event>
<event>
 7    1  0.3189267E-013  0.7246149E+02  0.7816164E-02  0.1226708E+00
        -11   -1    0    0    0    0  0.00000000000E+00  0.00000000000E+00  0.45593999997E+02  0.45594000000E+02  0.51100000000E-03 0.  1.
         11   -1    0    0    0    0 -0.00000000000E+00 -0.00000000000E+00 -0.45593999997E+02  0.45594000000E+02  0.51100000000E-03 0. -1.
    9900012    2    1    2    0    0  0.10036053268E+02 -0.15103918130E+02  0.46724083848E+01  0.72461491831E+02  0.69999897787E+02 0.  0.
         12    1    1    2    0    0 -0.10036053268E+02  0.15103918130E+02 -0.46724083848E+01  0.18726508169E+02  0.00000000000E+00 0. -1.
         11    1    3    3    0    0 -0.14228737177E+02  0.30593047599E+01 -0.97275343149E+01  0.17505462901E+02  0.51100000000E-03 0. -1.
        -11    1    3    3    0    0  0.35707552554E+01  0.13657084918E+02 -0.63214446281E+00  0.14130317351E+02  0.51100000000E-03 0.  1.
        -12    1    3    3    0    0  0.20694035190E+02 -0.31820307808E+02  0.15032087163E+02  0.40825711579E+02  0.00000000000E+00 0.  1.
</event>
<event>
 7    1  0.3189267E-013  0.7246158E+02  0.7816164E-02  0.1226708E+00
        -11   -1    0    0    0    0  0.00000000000E+00  0.00000000000E+00  0.45593999997E+02  0.45594000000E+02  0.51100000000E-03 0. -1.
         11   -1    0    0    0    0 -0.00000000000E+00 -0.00000000000E+00 -0.45593999997E+02  0.45594000000E+02  0.51100000000E-03 0.  1.
    9900012    2    1    2    0    0  0.13558077245E+02  0.12452858715E+02 -0.34327273031E+01  0.72461581082E+02  0.70000014053E+02 0.  0.
         12    1    1    2    0    0 -0.13558077245E+02 -0.12452858715E+02  0.34327273031E+01  0.18726418918E+02  0.00000000000E+00 0. -1.
         11    1    3    3    0    0  0.64339743831E+01 -0.10316923273E+02  0.12635798337E+02  0.17535630358E+02  0.51100000000E-03 0. -1.
        -11    1    3    3    0    0 -0.18761683788E+01 -0.33198766645E+00  0.15032045638E+02  0.15152314012E+02  0.51100000000E-03 0.  1.
        -12    1    3    3    0    0  0.90002712405E+01  0.23101769654E+02 -0.31100571278E+02  0.39773636712E+02  0.00000000000E+00 0.  1.
</event>
<event>
 7    1  0.3189267E-013  0.7246154E+02  0.7816164E-02  0.1226708E+00
        -11   -1    0    0    0    0  0.00000000000E+00  0.00000000000E+00  0.45593999997E+02  0.45594000000E+02  0.51100000000E-03 0.  1.
         11   -1    0    0    0    0 -0.00000000000E+00 -0.00000000000E+00 -0.45593999997E+02  0.45594000000E+02  0.51100000000E-03 0. -1.
    9900012    2    1    2    0    0 -0.32525137651E+01 -0.18304430549E+02  0.22470538122E+01  0.72461540795E+02  0.69999961572E+02 0.  0.
         12    1    1    2    0    0  0.32525137651E+01  0.18304430549E+02 -0.22470538122E+01  0.18726459205E+02  0.00000000000E+00 0. -1.
         11    1    3    3    0    0 -0.60814962105E+01 -0.18376795833E+02 -0.28517463763E+02  0.34466461394E+02  0.51100000000E-03 0. -1.
        -11    1    3    3    0    0 -0.57028398374E+01  0.83634119592E+01  0.11193417229E+02  0.15091773631E+02  0.51100000000E-03 0.  1.
        -12    1    3    3    0    0  0.85318222827E+01 -0.82910466747E+01  0.19571100347E+02  0.22903305770E+02  0.00000000000E+00 0.  1.
</event>
<event>
 7    1  0.3189267E-013  0.7246175E+02  0.7816164E-02  0.1226708E+00
        -11   -1    0    0    0    0  0.00000000000E+00  0.00000000000E+00  0.45593999997E+02  0.45594000000E+02  0.51100000000E-03 0. -1.
         11   -1    0    0    0    0 -0.00000000000E+00 -0.00000000000E+00 -0.45593999997E+02  0.45594000000E+02  0.51100000000E-03 0.  1.
    9900012    2    1    2    0    0  0.14490867611E+02  0.68003330881E+01 -0.97181597399E+01  0.72461750964E+02  0.70000235355E+02 0.  0.
         12    1    1    2    0    0 -0.14490867611E+02 -0.68003330881E+01  0.97181597399E+01  0.18726249036E+02  0.00000000000E+00 0. -1.
         11    1    3    3    0    0 -0.30006848278E+01 -0.51253354593E+01 -0.69281099620E+00  0.59793946469E+01  0.51100000000E-03 0. -1.
        -11    1    3    3    0    0 -0.18478642343E+02 -0.11941345273E+02 -0.76465863839E+01  0.23292192541E+02  0.51100000000E-03 0.  1.
         12    1    3    3    0    0  0.35970194782E+02  0.23867013820E+02 -0.13787623598E+01  0.43190163776E+02  0.00000000000E+00 0. -1.
</event>
<event>
 7    1  0.3189267E-013  0.7246153E+02  0.7816164E-02  0.1226708E+00
        -11   -1    0    0    0    0  0.00000000000E+00  0.00000000000E+00  0.45593999997E+02  0.45594000000E+02  0.51100000000E-03 0.  1.
         11   -1    0    0    0    0 -0.00000000000E+00 -0.00000000000E+00 -0.45593999997E+02  0.45594000000E+02  0.51100000000E-03 0. -1.
    9900012    2    1    2    0    0  0.33441842092E+00 -0.16827377971E+02 -0.82102451953E+01  0.72461531801E+02  0.69999949855E+02 0.  0.
         12    1    1    2    0    0 -0.33441842092E+00  0.16827377971E+02  0.82102451953E+01  0.18726468199E+02  0.00000000000E+00 0. -1.
         11    1    3    3    0    0  0.15638432152E+02 -0.44698238764E+01 -0.13154399060E+02  0.20918367540E+02  0.51100000000E-03 0. -1.
        -11    1    3    3    0    0  0.38867941405E+01 -0.17748553493E+02  0.19657000955E+02  0.26767816619E+02  0.51100000000E-03 0.  1.
         12    1    3    3    0    0 -0.19190807871E+02  0.53909993981E+01 -0.14712847090E+02  0.24775347641E+02  0.00000000000E+00 0. -1.
</event>
<event>
 7    1  0.3189267E-013  0.7246153E+02  0.7816164E-02  0.1226708E+00
        -11   -1    0    0    0    0  0.00000000000E+00  0.00000000000E+00  0.45593999997E+02  0.45594000000E+02  0.51100000000E-03 0. -1.
         11   -1    0    0    0    0 -0.00000000000E+00 -0.00000000000E+00 -0.45593999997E+02  0.45594000000E+02  0.51100000000E-03 0.  1.
    9900012    2    1    2    0    0 -0.10478118143E+01 -0.60103854478E+01 -0.17704745701E+02  0.72461530413E+02  0.69999948048E+02 0.  0.
         12    1    1    2    0    0  0.10478118143E+01  0.60103854478E+01  0.17704745701E+02  0.18726469587E+02  0.00000000000E+00 0. -1.
         11    1    3    3    0    0 -0.26077569901E+02  0.78858182546E+01  0.35239984160E+01  0.27470790789E+02  0.51100000000E-03 0. -1.
        -11    1    3    3    0    0 -0.32172253838E+01  0.15394497470E+01 -0.10454514752E+02  0.11046145194E+02  0.51100000000E-03 0.  1.
         12    1    3    3    0    0  0.28246983470E+02 -0.15435653449E+02 -0.10774229365E+02  0.33944594430E+02  0.00000000000E+00 0. -1.
</event>
<event>
 7    1  0.3189267E-013  0.7246157E+02  0.7816164E-02  0.1226708E+00
        -11   -1    0    0    0    0  0.00000000000E+00  0.00000000000E+00  0.45593999997E+02  0.45594000000E+02  0.51100000000E-03 0.  1.
         11   -1    0    0    0    0 -0.00000000000E+00 -0.00000000000E+00 -0.45593999997E+02  0.45594000000E+02  0.51100000000E-03 0. -1.
    9900012    2    1    2    0    0  0.18292479547E+02 -0.37614008041E+01  0.13842890625E+01  0.72461569475E+02  0.69999998933E+02 0.  0.
         12    1    1    2    0    0 -0.18292479547E+02  0.37614008041E+01 -0.13842890625E+01  0.18726430525E+02  0.00000000000E+00 0. -1.
         11    1    3    3    0    0  0.30363964596E+01  0.89232067004E+01 -0.41351645730E+00  0.94347399222E+01  0.51100000000E-03 0. -1.
        -11    1    3    3    0    0 -0.21835846927E+02 -0.11797919701E+02  0.64236354372E+01  0.25637047661E+02  0.51100000000E-03 0.  1.
         12    1    3    3    0    0  0.37091930015E+02 -0.88668780386E+00 -0.46258299173E+01  0.37389781892E+02  0.00000000000E+00 0. -1.
</event>
<event>
 7    1  0.3189267E-013  0.7246155E+02  0.7816164E-02  0.1226708E+00
        -11   -1    0    0    0    0  0.00000000000E+00  0.00000000000E+00  0.45593999997E+02  0.45594000000E+02  0.51100000000E-03 0. -1.
         11   -1    0    0    0    0 -0.00000000000E+00 -0.00000000000E+00 -0.45593999997E+02  0.45594000000E+02  0.51100000000E-03 0.  1.
    9900012    2    1    2    0    0  0.13772379999E+02 -0.97334820894E+01 -0.81400632325E+01  0.72461554692E+02  0.69999979676E+02 0.  0.
         12    1    1    2    0    0 -0.13772379999E+02  0.97334820894E+01  0.81400632325E+01  0.18726445308E+02  0.00000000000E+00 0. -1.
         11    1    3    3    0    0  0.10763851460E+02 -0.15248588048E+02  0.11865657419E+02  0.22117272932E+02  0.51100000000E-03 0. -1.
        -11    1    3    3    0    0  0.19500833699E+02 -0.37935216139E+01  0.34857339296E+01  0.20169870165E+02  0.51100000000E-03 0.  1.
         12    1    3    3    0    0 -0.16492305160E+02  0.93086275729E+01 -0.23491454581E+02  0.30174411595E+02  0.00000000000E+00 0. -1.
</event>
<event>
 7    1  0.3189267E-013  0.7246166E+02  0.7816164E-02  0.1226708E+00
        -11   -1    0    0    0    0  0.00000000000E+00  0.00000000000E+00  0.45593999997E+02  0.45594000000E+02  0.51100000000E-03 0.  1.
         11   -1    0    0    0    0 -0.00000000000E+00 -0.00000000000E+00 -0.45593999997E+02  0.45594000000E+02  0.51100000000E-03 0. -1.
    9900012    2    1    2    0    0  0.13323630196E+02  0.11733527088E+02  0.59565820396E+01  0.72461664290E+02  0.70000122447E+02 0.  0.
         12    1    1    2    0    0 -0.13323630196E+02 -0.11733527088E+02 -0.59565820396E+01  0.18726335710E+02  0.00000000000E+00 0. -1.
         11    1    3    3    0    0  0.15872214953E+02  0.25649303182E+02 -0.23345512211E+02  0.38142193197E+02  0.51100000000E-03 0. -1.
        -11    1    3    3    0    0  0.39337174342E+01 -0.68053876519E+01  0.97151513725E+01  0.12496863622E+02  0.51100000000E-03 0.  1.
        -12    1    3    3    0    0 -0.64823021912E+01 -0.71103884422E+01  0.19586942878E+02  0.21822607470E+02  0.00000000000E+00 0.  1.
</event>
<event>
 7    1  0.3189267E-013  0.7246149E+02  0.7816164E-02  0.1226708E+00
        -11   -1    0    0    0    0  0.00000000000E+00  0.00000000000E+00  0.45593999997E+02  0.45594000000E+02  0.51100000000E-03 0.  1.
         11   -1    0    0    0    0 -0.00000000000E+00 -0.00000000000E+00 -0.45593999997E+02  0.45594000000E+02  0.51100000000E-03 0. -1.
    9900012    2    1    2    0    0  0.26542303994E+01  0.15053022288E+02  0.10818679490E+02  0.72461488181E+02  0.69999893032E+02 0.  0.
         12    1    1    2    0    0 -0.26542303994E+01 -0.15053022288E+02 -0.10818679490E+02  0.18726511819E+02  0.00000000000E+00 0. -1.
         11    1    3    3    0    0 -0.13205276337E+01  0.24766012924E+01 -0.61586333209E+01  0.67680212644E+01  0.51100000000E-03 0. -1.
        -11    1    3    3    0    0 -0.92760360149E+01 -0.37028601947E+01 -0.20463101860E+02  0.22770475528E+02  0.51100000000E-03 0.  1.
        -12    1    3    3    0    0  0.13250794048E+02  0.16279281190E+02  0.37440414671E+02  0.42922991388E+02  0.00000000000E+00 0.  1.
</event>
<event>
 7    1  0.3189267E-013  0.7246160E+02  0.7816164E-02  0.1226708E+00
        -11   -1    0    0    0    0  0.00000000000E+00  0.00000000000E+00  0.45593999997E+02  0.45594000000E+02  0.51100000000E-03 0.  1.
         11   -1    0    0    0    0 -0.00000000000E+00 -0.00000000000E+00 -0.45593999997E+02  0.45594000000E+02  0.51100000000E-03 0. -1.
    9900012    2    1    2    0    0 -0.47939185756E+01 -0.85321314194E+01  0.15965560877E+02  0.72461600026E+02  0.70000038731E+02 0.  0.
         12    1    1    2    0    0  0.47939185756E+01  0.85321314194E+01 -0.15965560877E+02  0.18726399974E+02  0.00000000000E+00 0. -1.
         11    1    3    3    0    0  0.54006466028E+01  0.47557233612E+00  0.59591997437E+01  0.80563772641E+01  0.51100000000E-03 0. -1.
        -11    1    3    3    0    0  0.24255842239E+02  0.62331426938E+01  0.93379216893E+01  0.26728163654E+02  0.51100000000E-03 0.  1.
         12    1    3    3    0    0 -0.34450407418E+02 -0.15240846449E+02  0.66843944418E+00  0.37677059108E+02  0.00000000000E+00 0. -1.
</event>
<event>
 7    1  0.3189267E-013  0.7246155E+02  0.7816164E-02  0.1226708E+00
        -11   -1    0    0    0    0  0.00000000000E+00  0.00000000000E+00  0.45593999997E+02  0.45594000000E+02  0.51100000000E-03 0.  1.
         11   -1    0    0    0    0 -0.00000000000E+00 -0.00000000000E+00 -0.45593999997E+02  0.45594000000E+02  0.51100000000E-03 0. -1.
    9900012    2    1    2    0    0  0.16401152619E+02 -0.69852862069E+01 -0.57347822455E+01  0.72461554581E+02  0.69999979531E+02 0.  0.
         12    1    1    2    0    0 -0.16401152619E+02  0.69852862069E+01  0.57347822455E+01  0.18726445419E+02  0.00000000000E+00 0. -1.
         11    1    3    3    0    0  0.10859937082E+02 -0.22243821083E+02  0.18563381427E+02  0.30940668061E+02  0.51100000000E-03 0. -1.
        -11    1    3    3    0    0  0.59466107733E+01  0.85980710787E+01  0.49174485401E+01  0.11552934968E+02  0.51100000000E-03 0.  1.
         12    1    3    3    0    0 -0.40539523664E+00  0.66604637971E+01 -0.29215612213E+02  0.29967951552E+02  0.00000000000E+00 0. -1.
</event>
<event>
 7    1  0.3189267E-013  0.7246161E+02  0.7816164E-02  0.1226708E+00
        -11   -1    0    0    0    0  0.00000000000E+00  0.00000000000E+00  0.45593999997E+02  0.45594000000E+02  0.51100000000E-03 0. -1.
         11   -1    0    0    0    0 -0.00000000000E+00 -0.00000000000E+00 -0.45593999997E+02  0.45594000000E+02  0.51100000000E-03 0.  1.
    9900012    2    1    2    0    0  0.64645488857E+01 -0.62627777518E+01 -0.16421476737E+02  0.72461610180E+02  0.70000051959E+02 0.  0.
         12    1    1    2    0    0 -0.64645488857E+01  0.62627777518E+01  0.16421476737E+02  0.18726389820E+02  0.00000000000E+00 0. -1.
         11    1    3    3    0    0 -0.11614544830E+02  0.12185526534E+02 -0.16871683314E+00  0.16834879689E+02  0.51100000000E-03 0. -1.
        -11    1    3    3    0    0 -0.80121211057E+00 -0.11765895877E+02  0.14646612682E+02  0.18804294987E+02  0.51100000000E-03 0.  1.
        -12    1    3    3    0    0  0.18880305826E+02 -0.66824084095E+01 -0.30899372586E+02  0.36822435504E+02  0.00000000000E+00 0.  1.
</event>
<event>
 7    1  0.3189267E-013  0.7246193E+02  0.7816164E-02  0.1226707E+00
        -11   -1    0    0    0    0  0.00000000000E+00  0.00000000000E+00  0.45593999997E+02  0.45594000000E+02  0.51100000000E-03 0.  1.
         11   -1    0    0    0    0 -0.00000000000E+00 -0.00000000000E+00 -0.45593999997E+02  0.45594000000E+02  0.51100000000E-03 0. -1.
    9900012    2    1    2    0    0 -0.65128530979E+01 -0.17345234930E+02  0.27186904659E+01  0.72461929721E+02  0.70000468218E+02 0.  0.
         12    1    1    2    0    0  0.65128530979E+01  0.17345234930E+02 -0.27186904659E+01  0.18726070279E+02  0.00000000000E+00 0. -1.
         11    1    3    3    0    0  0.24395203458E+02 -0.13120619572E+02 -0.47086467718E+01  0.28097116657E+02  0.51100000000E-03 0. -1.
        -11    1    3    3    0    0 -0.17371499318E+02 -0.17579746390E+02  0.37705347835E+01  0.25000668081E+02  0.51100000000E-03 0.  1.
        -12    1    3    3    0    0 -0.13536557238E+02  0.13355131032E+02  0.36568024542E+01  0.19364144983E+02  0.00000000000E+00 0.  1.
</event>
<event>
 7    1  0.3189267E-013  0.7246174E+02  0.7816164E-02  0.1226708E+00
        -11   -1    0    0    0    0  0.00000000000E+00  0.00000000000E+00  0.45593999997E+02  0.45594000000E+02  0.51100000000E-03 0.  1.
         11   -1    0    0    0    0 -0.00000000000E+00 -0.00000000000E+00 -0.45593999997E+02  0.45594000000E+02  0.51100000000E-03 0. -1.
    9900012    2    1    2    0    0  0.98801229048E+01 -0.65522050502E+01  0.14495672188E+02  0.72461742183E+02  0.70000223917E+02 0.  0.
         12    1    1    2    0    0 -0.98801229048E+01  0.65522050502E+01 -0.14495672188E+02  0.18726257817E+02  0.00000000000E+00 0. -1.
         11    1    3    3    0    0 -0.46015400505E+01 -0.11492774612E+02 -0.97225996821E+01  0.15741251029E+02  0.51100000000E-03 0. -1.
        -11    1    3    3    0    0 -0.49597793250E+01 -0.41349408337E+01 -0.12570685348E+02  0.14132207083E+02  0.51100000000E-03 0.  1.
        -12    1    3    3    0    0  0.19441442280E+02  0.90755103954E+01  0.36788957219E+02  0.42588284071E+02  0.00000000000E+00 0.  1.
</event>
<event>
 7    1  0.3189267E-013  0.7246155E+02  0.7816164E-02  0.1226708E+00
        -11   -1    0    0    0    0  0.00000000000E+00  0.00000000000E+00  0.45593999997E+02  0.45594000000E+02  0.51100000000E-03 0.  1.
         11   -1    0    0    0    0 -0.00000000000E+00 -0.00000000000E+00 -0.45593999997E+02  0.45594000000E+02  0.51100000000E-03 0. -1.
    9900012    2    1    2    0    0  0.17728672259E+02  0.29142154329E+01  0.52802739894E+01  0.72461554393E+02  0.69999979286E+02 0.  0.
         12    1    1    2    0    0 -0.17728672259E+02 -0.29142154329E+01 -0.52802739894E+01  0.18726445607E+02  0.00000000000E+00 0. -1.
         11    1    3    3    0    0  0.15384702379E+02 -0.70759144046E+01 -0.13350747519E+02  0.21563860775E+02  0.51100000000E-03 0. -1.
        -11    1    3    3    0    0 -0.20235584845E+01 -0.98518891202E+01  0.27084942913E+02  0.28892016909E+02  0.51100000000E-03 0.  1.
         12    1    3    3    0    0  0.43675283647E+01  0.19842018958E+02 -0.84539214047E+01  0.22005676710E+02  0.00000000000E+00 0. -1.
</event>
<event>
 7    1  0.3189267E-013  0.7246157E+02  0.7816164E-02  0.1226708E+00
        -11   -1    0    0    0    0  0.00000000000E+00  0.00000000000E+00  0.45593999997E+02  0.45594000000E+02  0.51100000000E-03 0. -1.
         11   -1    0    0    0    0 -0.00000000000E+00 -0.00000000000E+00 -0.45593999997E+02  0.45594000000E+02  0.51100000000E-03 0.  1.
    9900012    2    1    2    0    0  0.14347426594E+02  0.91611847103E+01 -0.78040457608E+01  0.72461572540E+02  0.70000002926E+02 0.  0.
         12    1    1    2    0    0 -0.14347426594E+02 -0.91611847103E+01  0.78040457608E+01  0.18726427460E+02  0.00000000000E+00 0. -1.
         11    1    3    3    0    0  0.38699720818E+02 -0.57002295440E+01 -0.50692062582E+01  0.39444364117E+02  0.51100000000E-03 0. -1.
        -11    1    3    3    0    0 -0.38944151644E+00  0.79178931670E+01 -0.12404697719E+01  0.80239306088E+01  0.51100000000E-03 0.  1.
        -12    1    3    3    0    0 -0.23962852708E+02  0.69435210874E+01 -0.14943697307E+01  0.24993277814E+02  0.00000000000E+00 0.  1.
</event>
<event>
 7    1  0.3189267E-013  0.7246162E+02  0.7816164E-02  0.1226708E+00
        -11   -1    0    0    0    0  0.00000000000E+00  0.00000000000E+00  0.45593999997E+02  0.45594000000E+02  0.51100000000E-03 0. -1.
         11   -1    0    0    0    0 -0.00000000000E+00 -0.00000000000E+00 -0.45593999997E+02  0.45594000000E+02  0.51100000000E-03 0.  1.
    9900012    2    1    2    0    0 -0.45156949359E+01  0.17910443069E+02 -0.30825266571E+01  0.72461616412E+02  0.70000060077E+02 0.  0.
         12    1    1    2    0    0  0.45156949359E+01 -0.17910443069E+02  0.30825266571E+01  0.18726383588E+02  0.00000000000E+00 0. -1.
         11    1    3    3    0    0  0.19958987427E+01 -0.31435336171E+01  0.17129559915E+02  0.17529610336E+02  0.51100000000E-03 0. -1.
        -11    1    3    3    0    0 -0.10506893472E+02 -0.94793419293E+01  0.51290908003E+01  0.15051920361E+02  0.51100000000E-03 0.  1.
        -12    1    3    3    0    0  0.39952997937E+01  0.30533318615E+02 -0.25341177372E+02  0.39880085716E+02  0.00000000000E+00 0.  1.
</event>
<event>
 7    1  0.3189267E-013  0.7246157E+02  0.7816164E-02  0.1226708E+00
        -11   -1    0    0    0    0  0.00000000000E+00  0.00000000000E+00  0.45593999997E+02  0.45594000000E+02  0.51100000000E-03 0.  1.
         11   -1    0    0    0    0 -0.00000000000E+00 -0.00000000000E+00 -0.45593999997E+02  0.45594000000E+02  0.51100000000E-03 0. -1.
    9900012    2    1    2    0    0 -0.43174879840E+01 -0.86039071005E+01 -0.16062725794E+02  0.72461572689E+02  0.70000003120E+02 0.  0.
         12    1    1    2    0    0  0.43174879840E+01  0.86039071005E+01  0.16062725794E+02  0.18726427311E+02  0.00000000000E+00 0. -1.
         11    1    3    3    0    0 -0.15902703798E+02 -0.12668902881E+01 -0.96818830715E+01  0.18661185899E+02  0.51100000000E-03 0. -1.
        -11    1    3    3    0    0  0.12738752779E+01 -0.28873099255E+02  0.65308860049E+00  0.28908565232E+02  0.51100000000E-03 0.  1.
         12    1    3    3    0    0  0.10311340536E+02  0.21536082442E+02 -0.70339313230E+01  0.24891821558E+02  0.00000000000E+00 0. -1.
</event>
<event>
 7    1  0.3189267E-013  0.7246160E+02  0.7816164E-02  0.1226708E+00
        -11   -1    0    0    0    0  0.00000000000E+00  0.00000000000E+00  0.45593999997E+02  0.45594000000E+02  0.51100000000E-03 0.  1.
         11   -1    0    0    0    0 -0.00000000000E+00 -0.00000000000E+00 -0.45593999997E+02  0.45594000000E+02  0.51100000000E-03 0. -1.
    9900012    2    1    2    0    0 -0.16667643437E+02 -0.21034092442E+01  0.82730487709E+01  0.72461601410E+02  0.70000040533E+02 0.  0.
         12    1    1    2    0    0  0.16667643437E+02  0.21034092442E+01 -0.82730487709E+01  0.18726398590E+02  0.00000000000E+00 0. -1.
         11    1    3    3    0    0 -0.50450177169E+01 -0.25395986543E+01 -0.20846553062E+02  0.21598160568E+02  0.51100000000E-03 0. -1.
        -11    1    3    3    0    0 -0.15355491108E+02  0.10137593331E+01 -0.52705621935E+01  0.16266457551E+02  0.51100000000E-03 0.  1.
         12    1    3    3    0    0  0.37328653879E+01 -0.57756992305E+00  0.34390164027E+02  0.34596983291E+02  0.00000000000E+00 0. -1.
</event>
<event>
 7    1  0.3189267E-013  0.7246158E+02  0.7816164E-02  0.1226708E+00
        -11   -1    0    0    0    0  0.00000000000E+00  0.00000000000E+00  0.45593999997E+02  0.45594000000E+02  0.51100000000E-03 0.  1.
         11   -1    0    0    0    0 -0.00000000000E+00 -0.00000000000E+00 -0.45593999997E+02  0.45594000000E+02  0.51100000000E-03 0. -1.
    9900012    2    1    2    0    0  0.10555820147E+01 -0.36843399377E+01  0.18330034940E+02  0.72461580292E+02  0.70000013024E+02 0.  0.
         12    1    1    2    0    0 -0.10555820147E+01  0.36843399377E+01 -0.18330034940E+02  0.18726419708E+02  0.00000000000E+00 0. -1.
         11    1    3    3    0    0  0.32437281648E+01 -0.96474938399E+00  0.32361457347E+01  0.46824302727E+01  0.51100000000E-03 0. -1.
        -11    1    3    3    0    0  0.22110541918E+02 -0.20810235171E+02  0.20996335502E+02  0.36915959375E+02  0.51100000000E-03 0.  1.
         12    1    3    3    0    0 -0.24298688068E+02  0.18090644617E+02 -0.59024462970E+01  0.30863190645E+02  0.00000000000E+00 0. -1.
</event>
<event>
 7    1  0.3189267E-013  0.7246156E+02  0.7816164E-02  0.1226708E+00
        -11   -1    0    0    0    0  0.00000000000E+00  0.00000000000E+00  0.45593999997E+02  0.45594000000E+02  0.51100000000E-03 0. -1.
         11   -1    0    0    0    0 -0.00000000000E+00 -0.00000000000E+00 -0.45593999997E+02  0.45594000000E+02  0.51100000000E-03 0.  1.
    9900012    2    1    2    0    0 -0.52287619765E+01 -0.16106329905E+02 -0.79953462494E+01  0.72461564769E+02  0.69999992802E+02 0.  0.
         12    1    1    2    0    0  0.52287619765E+01  0.16106329905E+02  0.79953462494E+01  0.18726435231E+02  0.00000000000E+00 0. -1.
         11    1    3    3    0    0  0.64271000219E+00  0.40170974371E+01 -0.44860745300E+01  0.60559898378E+01  0.51100000000E-03 0. -1.
        -11    1    3    3    0    0 -0.15951018806E+02 -0.12073237759E+01 -0.28988816615E+02  0.33109577477E+02  0.51100000000E-03 0.  1.
         12    1    3    3    0    0  0.10079546827E+02 -0.18916103566E+02  0.25479544896E+02  0.33295997454E+02  0.00000000000E+00 0. -1.
</event>
<event>
 7    1  0.3189267E-013  0.7246115E+02  0.7816164E-02  0.1226709E+00
        -11   -1    0    0    0    0  0.00000000000E+00  0.00000000000E+00  0.45593999997E+02  0.45594000000E+02  0.51100000000E-03 0.  1.
         11   -1    0    0    0    0 -0.00000000000E+00 -0.00000000000E+00 -0.45593999997E+02  0.45594000000E+02  0.51100000000E-03 0. -1.
    9900012    2    1    2    0    0 -0.64819921401E+01  0.60941100779E+00  0.17558677118E+02  0.72461154403E+02  0.69999458222E+02 0.  0.
         12    1    1    2    0    0  0.64819921401E+01 -0.60941100779E+00 -0.17558677118E+02  0.18726845597E+02  0.00000000000E+00 0. -1.
         11    1    3    3    0    0 -0.33055529529E+01  0.21603256532E+00 -0.16434581416E+01  0.36978784888E+01  0.51100000000E-03 0. -1.
        -11    1    3    3    0    0 -0.33909297006E+02  0.69220473271E+01  0.10199923000E+02  0.36080376828E+02  0.51100000000E-03 0.  1.
         12    1    3    3    0    0  0.30732857818E+02 -0.65286688846E+01  0.90022122592E+01  0.32682899086E+02  0.00000000000E+00 0. -1.
</event>
<event>
 7    1  0.3189267E-013  0.7246155E+02  0.7816164E-02  0.1226708E+00
        -11   -1    0    0    0    0  0.00000000000E+00  0.00000000000E+00  0.45593999997E+02  0.45594000000E+02  0.51100000000E-03 0. -1.
         11   -1    0    0    0    0 -0.00000000000E+00 -0.00000000000E+00 -0.45593999997E+02  0.45594000000E+02  0.51100000000E-03 0.  1.
    9900012    2    1    2    0    0 -0.97780528163E+01 -0.12844130339E+02 -0.94919978962E+01  0.72461547450E+02  0.69999970241E+02 0.  0.
         12    1    1    2    0    0  0.97780528163E+01  0.12844130339E+02  0.94919978962E+01  0.18726452550E+02  0.00000000000E+00 0. -1.
         11    1    3    3    0    0 -0.12543433796E+01 -0.12067853356E+02  0.84621656003E+00  0.12162341250E+02  0.51100000000E-03 0. -1.
        -11    1    3    3    0    0  0.17931363414E+02 -0.18330926449E+02 -0.12398237425E+02  0.28482853612E+02  0.51100000000E-03 0.  1.
         12    1    3    3    0    0 -0.26455072851E+02  0.17554649466E+02  0.20600229687E+01  0.31816352589E+02  0.00000000000E+00 0. -1.
</event>
<event>
 7    1  0.3189267E-013  0.7246159E+02  0.7816164E-02  0.1226708E+00
        -11   -1    0    0    0    0  0.00000000000E+00  0.00000000000E+00  0.45593999997E+02  0.45594000000E+02  0.51100000000E-03 0.  1.
         11   -1    0    0    0    0 -0.00000000000E+00 -0.00000000000E+00 -0.45593999997E+02  0.45594000000E+02  0.51100000000E-03 0. -1.
    9900012    2    1    2    0    0  0.65158110475E+01  0.17556220550E+02 -0.40335073379E-01  0.72461593497E+02  0.70000030226E+02 0.  0.
         12    1    1    2    0    0 -0.65158110475E+01 -0.17556220550E+02  0.40335073379E-01  0.18726406503E+02  0.00000000000E+00 0. -1.
         11    1    3    3    0    0 -0.96478971721E+01 -0.18013422089E+02  0.81584200930E+01  0.22002843313E+02  0.51100000000E-03 0. -1.
        -11    1    3    3    0    0 -0.55711338221E+01  0.33938861294E+01 -0.95975240602E+01  0.11604674208E+02  0.51100000000E-03 0.  1.
        -12    1    3    3    0    0  0.21734842042E+02  0.32175756509E+02  0.13987688938E+01  0.38854075976E+02  0.00000000000E+00 0.  1.
</event>
<event>
 7    1  0.3189267E-013  0.7246145E+02  0.7816164E-02  0.1226708E+00
        -11   -1    0    0    0    0  0.00000000000E+00  0.00000000000E+00  0.45593999997E+02  0.45594000000E+02  0.51100000000E-03 0.  1.
         11   -1    0    0    0    0 -0.00000000000E+00 -0.00000000000E+00 -0.45593999997E+02  0.45594000000E+02  0.51100000000E-03 0. -1.
    9900012    2    1    2    0    0  0.85451696154E+01  0.10612831520E+02  0.12846460240E+02  0.72461450469E+02  0.69999843905E+02 0.  0.
         12    1    1    2    0    0 -0.85451696154E+01 -0.10612831520E+02 -0.12846460240E+02  0.18726549531E+02  0.00000000000E+00 0. -1.
         11    1    3    3    0    0 -0.29920062495E+01 -0.16456336323E+02 -0.39612470408E+01  0.17188792423E+02  0.51100000000E-03 0. -1.
        -11    1    3    3    0    0 -0.14894899489E+02  0.16916609849E+02  0.14636239374E+02  0.26874694842E+02  0.51100000000E-03 0.  1.
         12    1    3    3    0    0  0.26432075353E+02  0.10152557994E+02  0.21714679064E+01  0.28397963205E+02  0.00000000000E+00 0. -1.
</event>
<event>
 7    1  0.3189267E-013  0.7246155E+02  0.7816164E-02  0.1226708E+00
        -11   -1    0    0    0    0  0.00000000000E+00  0.00000000000E+00  0.45593999997E+02  0.45594000000E+02  0.51100000000E-03 0.  1.
         11   -1    0    0    0    0 -0.00000000000E+00 -0.00000000000E+00 -0.45593999997E+02  0.45594000000E+02  0.51100000000E-03 0. -1.
    9900012    2    1    2    0    0  0.96442595495E+01 -0.11759316551E+02  0.10926412332E+02  0.72461554676E+02  0.69999979655E+02 0.  0.
         12    1    1    2    0    0 -0.96442595495E+01  0.11759316551E+02 -0.10926412332E+02  0.18726445324E+02  0.00000000000E+00 0. -1.
         11    1    3    3    0    0  0.19740736996E+02 -0.31215286270E+02  0.16971069964E+02  0.40646131551E+02  0.51100000000E-03 0. -1.
        -11    1    3    3    0    0 -0.61244765026E+00 -0.47636045396E+01  0.91709197522E+00  0.48895887646E+01  0.51100000000E-03 0.  1.
        -12    1    3    3    0    0 -0.94840297962E+01  0.24219574258E+02 -0.69617496078E+01  0.26925834361E+02  0.00000000000E+00 0.  1.
</event>
<event>
 7    1  0.3189267E-013  0.7246160E+02  0.7816164E-02  0.1226708E+00
        -11   -1    0    0    0    0  0.00000000000E+00  0.00000000000E+00  0.45593999997E+02  0.45594000000E+02  0.51100000000E-03 0.  1.
         11   -1    0    0    0    0 -0.00000000000E+00 -0.00000000000E+00 -0.45593999997E+02  0.45594000000E+02  0.51100000000E-03 0. -1.
    9900012    2    1    2    0    0 -0.13916265865E+02  0.61487972805E+01 -0.10918239345E+02  0.72461598477E+02  0.70000036713E+02 0.  0.
         12    1    1    2    0    0  0.13916265865E+02 -0.61487972805E+01  0.10918239345E+02  0.18726401523E+02  0.00000000000E+00 0. -1.
         11    1    3    3    0    0 -0.45553665888E+01 -0.19719025102E+02 -0.19078264394E+02  0.27813153152E+02  0.51100000000E-03 0. -1.
        -11    1    3    3    0    0  0.12357088372E+02  0.38969705122E+01  0.33496934333E+01  0.13382991391E+02  0.51100000000E-03 0.  1.
        -12    1    3    3    0    0 -0.21717987649E+02  0.21970851870E+02  0.48103316164E+01  0.31265453933E+02  0.00000000000E+00 0.  1.
</event>
<event>
 7    1  0.3189267E-013  0.7246160E+02  0.7816164E-02  0.1226708E+00
        -11   -1    0    0    0    0  0.00000000000E+00  0.00000000000E+00  0.45593999997E+02  0.45594000000E+02  0.51100000000E-03 0.  1.
         11   -1    0    0    0    0 -0.00000000000E+00 -0.00000000000E+00 -0.45593999997E+02  0.45594000000E+02  0.51100000000E-03 0. -1.
    9900012    2    1    2    0    0 -0.84877414434E+01 -0.16688660149E+02 -0.35337416802E+00  0.72461601369E+02  0.70000040481E+02 0.  0.
         12    1    1    2    0    0  0.84877414434E+01  0.16688660149E+02  0.35337416802E+00  0.18726398631E+02  0.00000000000E+00 0. -1.
         11    1    3    3    0    0  0.52027057426E+01  0.82947588664E+01 -0.17350840357E+01  0.99439272206E+01  0.51100000000E-03 0. -1.
        -11    1    3    3    0    0  0.63359615687E+01  0.14255970430E+02  0.86956125917E+01  0.17860313001E+02  0.51100000000E-03 0.  1.
         12    1    3    3    0    0 -0.20026408755E+02 -0.39239389445E+02 -0.73139027240E+01  0.44657361148E+02  0.00000000000E+00 0. -1.
</event>
<event>
 7    1  0.3189267E-013  0.7246158E+02  0.7816164E-02  0.1226708E+00
        -11   -1    0    0    0    0  0.00000000000E+00  0.00000000000E+00  0.45593999997E+02  0.45594000000E+02  0.51100000000E-03 0. -1.
         11   -1    0    0    0    0 -0.00000000000E+00 -0.00000000000E+00 -0.45593999997E+02  0.45594000000E+02  0.51100000000E-03 0.  1.
    9900012    2    1    2    0    0 -0.65227043879E+01  0.11547381308E+02 -0.13220859862E+02  0.72461579544E+02  0.70000012049E+02 0.  0.
         12    1    1    2    0    0  0.65227043879E+01 -0.11547381308E+02  0.13220859862E+02  0.18726420456E+02  0.00000000000E+00 0. -1.
         11    1    3    3    0    0  0.83771611711E+01  0.36655259977E+01 -0.22216812100E+01  0.94100360141E+01  0.51100000000E-03 0. -1.
        -11    1    3    3    0    0  0.17344099160E+02 -0.11912519546E+02 -0.13719663949E+02  0.25118819175E+02  0.51100000000E-03 0.  1.
        -12    1    3    3    0    0 -0.32243964719E+02  0.19794374857E+02  0.27204852970E+01  0.37932724355E+02  0.00000000000E+00 0.  1.
</event>
<event>
 7    1  0.3189267E-013  0.7246160E+02  0.7816164E-02  0.1226708E+00
        -11   -1    0    0    0    0  0.00000000000E+00  0.00000000000E+00  0.45593999997E+02  0.45594000000E+02  0.51100000000E-03 0.  1.
         11   -1    0    0    0    0 -0.00000000000E+00 -0.00000000000E+00 -0.45593999997E+02  0.45594000000E+02  0.51100000000E-03 0. -1.
    9900012    2    1    2    0    0 -0.12260314770E+02  0.13912907492E+02 -0.26064699084E+01  0.72461601560E+02  0.70000040729E+02 0.  0.
         12    1    1    2    0    0  0.12260314770E+02 -0.13912907492E+02  0.26064699084E+01  0.18726398440E+02  0.00000000000E+00 0. -1.
         11    1    3    3    0    0  0.12389550746E+02 -0.16260222890E+02  0.66255302240E+01  0.21489380334E+02  0.51100000000E-03 0. -1.
        -11    1    3    3    0    0  0.57485237415E+01  0.41148369897E+01 -0.83271385036E+01  0.10923307401E+02  0.51100000000E-03 0.  1.
        -12    1    3    3    0    0 -0.30398389258E+02  0.26058293393E+02 -0.90486162885E+00  0.40048913825E+02  0.00000000000E+00 0.  1.
</event>
<event>
 7    1  0.3189267E-013  0.7246156E+02  0.7816164E-02  0.1226708E+00
        -11   -1    0    0    0    0  0.00000000000E+00  0.00000000000E+00  0.45593999997E+02  0.45594000000E+02  0.51100000000E-03 0.  1.
         11   -1    0    0    0    0 -0.00000000000E+00 -0.00000000000E+00 -0.45593999997E+02  0.45594000000E+02  0.51100000000E-03 0. -1.
    9900012    2    1    2    0    0 -0.27483404357E+01 -0.74546682757E+01  0.16957418181E+02  0.72461561854E+02  0.69999989005E+02 0.  0.
         12    1    1    2    0    0  0.27483404357E+01  0.74546682757E+01 -0.16957418181E+02  0.18726438146E+02  0.00000000000E+00 0. -1.
         11    1    3    3    0    0  0.98488443274E+01 -0.50260642493E+01 -0.13055318017E+02  0.17108547139E+02  0.51100000000E-03 0. -1.
        -11    1    3    3    0    0  0.16822299242E+02 -0.18066203893E+01  0.87416606368E+01  0.19043903486E+02  0.51100000000E-03 0.  1.
         12    1    3    3    0    0 -0.29419484005E+02 -0.62198363716E+00  0.21271075561E+02  0.36309111230E+02  0.00000000000E+00 0. -1.
</event>
<event>
 7    1  0.3189267E-013  0.7246155E+02  0.7816164E-02  0.1226708E+00
        -11   -1    0    0    0    0  0.00000000000E+00  0.00000000000E+00  0.45593999997E+02  0.45594000000E+02  0.51100000000E-03 0. -1.
         11   -1    0    0    0    0 -0.00000000000E+00 -0.00000000000E+00 -0.45593999997E+02  0.45594000000E+02  0.51100000000E-03 0.  1.
    9900012    2    1    2    0    0 -0.42613653202E+01 -0.65883528052E+01 -0.17003364663E+02  0.72461547134E+02  0.69999969829E+02 0.  0.
         12    1    1    2    0    0  0.42613653202E+01  0.65883528052E+01  0.17003364663E+02  0.18726452866E+02  0.00000000000E+00 0. -1.
         11    1    3    3    0    0 -0.11679537031E+02 -0.61317194433E+01 -0.48124308026E+00  0.13200044081E+02  0.51100000000E-03 0. -1.
        -11    1    3    3    0    0 -0.12850663283E+02  0.31549503387E+01 -0.31257868099E+02  0.33943299439E+02  0.51100000000E-03 0.  1.
         12    1    3    3    0    0  0.20268834994E+02 -0.36115837006E+01  0.14735746516E+02  0.25318203614E+02  0.00000000000E+00 0. -1.
</event>
<event>
 7    1  0.3189267E-013  0.7246156E+02  0.7816164E-02  0.1226708E+00
        -11   -1    0    0    0    0  0.00000000000E+00  0.00000000000E+00  0.45593999997E+02  0.45594000000E+02  0.51100000000E-03 0.  1.
         11   -1    0    0    0    0 -0.00000000000E+00 -0.00000000000E+00 -0.45593999997E+02  0.45594000000E+02  0.51100000000E-03 0. -1.
    9900012    2    1    2    0    0 -0.27025468580E+01 -0.16059688479E+02  0.92445772876E+01  0.72461559794E+02  0.69999986322E+02 0.  0.
         12    1    1    2    0    0  0.27025468580E+01  0.16059688479E+02 -0.92445772876E+01  0.18726440206E+02  0.00000000000E+00 0. -1.
         11    1    3    3    0    0  0.12163621068E+01  0.71070508882E+01 -0.25559960652E+02  0.26557509256E+02  0.51100000000E-03 0. -1.
        -11    1    3    3    0    0  0.67013476753E+01 -0.11934219562E+02  0.11186228846E+02  0.17676690111E+02  0.51100000000E-03 0.  1.
        -12    1    3    3    0    0 -0.10620256640E+02 -0.11232519805E+02  0.23618309093E+02  0.28227360427E+02  0.00000000000E+00 0.  1.
</event>
<event>
 7    1  0.3189267E-013  0.7246153E+02  0.7816164E-02  0.1226708E+00
        -11   -1    0    0    0    0  0.00000000000E+00  0.00000000000E+00  0.45593999997E+02  0.45594000000E+02  0.51100000000E-03 0. -1.
         11   -1    0    0    0    0 -0.00000000000E+00 -0.00000000000E+00 -0.45593999997E+02  0.45594000000E+02  0.51100000000E-03 0.  1.
    9900012    2    1    2    0    0 -0.57600959733E+01 -0.69077697688E+01 -0.16425119688E+02  0.72461533553E+02  0.69999952138E+02 0.  0.
         12    1    1    2    0    0  0.57600959733E+01  0.69077697688E+01  0.16425119688E+02  0.18726466447E+02  0.00000000000E+00 0. -1.
         11    1    3    3    0    0 -0.18182238675E+02  0.29031858576E+01 -0.11346597985E+02  0.21627935118E+02  0.51100000000E-03 0. -1.
        -11    1    3    3    0    0  0.50489371202E+01 -0.20878294476E+02 -0.21033386528E+02  0.30063238272E+02  0.51100000000E-03 0.  1.
         12    1    3    3    0    0  0.73732055813E+01  0.11067338850E+02  0.15954864825E+02  0.20770360164E+02  0.00000000000E+00 0. -1.
</event>
<event>
 7    1  0.3189267E-013  0.7246152E+02  0.7816164E-02  0.1226708E+00
        -11   -1    0    0    0    0  0.00000000000E+00  0.00000000000E+00  0.45593999997E+02  0.45594000000E+02  0.51100000000E-03 0. -1.
         11   -1    0    0    0    0 -0.00000000000E+00 -0.00000000000E+00 -0.45593999997E+02  0.45594000000E+02  0.51100000000E-03 0.  1.
    9900012    2    1    2    0    0 -0.62078474705E+01 -0.11676502781E+01 -0.17628962165E+02  0.72461519167E+02  0.69999933397E+02 0.  0.
         12    1    1    2    0    0  0.62078474705E+01  0.11676502781E+01  0.17628962165E+02  0.18726480833E+02  0.00000000000E+00 0. -1.
         11    1    3    3    0    0 -0.12383214483E+02 -0.14455002989E+02  0.49617358571E+00  0.19040412307E+02  0.51100000000E-03 0. -1.
        -11    1    3    3    0    0 -0.39554544204E+01 -0.43820830425E+01 -0.29505119863E+02  0.30089871549E+02  0.51100000000E-03 0.  1.
        -12    1    3    3    0    0  0.10130821433E+02  0.17669435753E+02  0.11379984112E+02  0.23331235311E+02  0.00000000000E+00 0.  1.
</event>
<event>
 7    1  0.3189267E-013  0.7246139E+02  0.7816164E-02  0.1226709E+00
        -11   -1    0    0    0    0  0.00000000000E+00  0.00000000000E+00  0.45593999997E+02  0.45594000000E+02  0.51100000000E-03 0.  1.
         11   -1    0    0    0    0 -0.00000000000E+00 -0.00000000000E+00 -0.45593999997E+02  0.45594000000E+02  0.51100000000E-03 0. -1.
    9900012    2    1    2    0    0  0.91868883044E+01 -0.12552107408E+02  0.10427452725E+02  0.72461385586E+02  0.69999759382E+02 0.  0.
         12    1    1    2    0    0 -0.91868883044E+01  0.12552107408E+02 -0.10427452725E+02  0.18726614414E+02  0.00000000000E+00 0. -1.
         11    1    3    3    0    0  0.37502909278E+02 -0.99907148579E+01  0.16052925800E+02  0.41999750174E+02  0.51100000000E-03 0. -1.
        -11    1    3    3    0    0  0.47080831843E+00  0.29653107342E+00 -0.10298213533E+01  0.11705227170E+01  0.51100000000E-03 0.  1.
        -12    1    3    3    0    0 -0.28786829292E+02 -0.28579236232E+01 -0.45956517224E+01  0.29291112694E+02  0.00000000000E+00 0.  1.
</event>
<event>
 7    1  0.3189267E-013  0.7246156E+02  0.7816164E-02  0.1226708E+00
        -11   -1    0    0    0    0  0.00000000000E+00  0.00000000000E+00  0.45593999997E+02  0.45594000000E+02  0.51100000000E-03 0.  1.
         11   -1    0    0    0    0 -0.00000000000E+00 -0.00000000000E+00 -0.45593999997E+02  0.45594000000E+02  0.51100000000E-03 0. -1.
    9900012    2    1    2    0    0  0.16201451738E+02  0.77810047761E+01  0.52581658192E+01  0.72461564634E+02  0.69999992626E+02 0.  0.
         12    1    1    2    0    0 -0.16201451738E+02 -0.77810047761E+01 -0.52581658192E+01  0.18726435366E+02  0.00000000000E+00 0. -1.
         11    1    3    3    0    0  0.93718658153E+01 -0.75234195455E+00 -0.68837865773E+01  0.11652656572E+02  0.51100000000E-03 0. -1.
        -11    1    3    3    0    0  0.24759638071E+02  0.15193031153E+02  0.24529842368E+02  0.38020797465E+02  0.51100000000E-03 0.  1.
         12    1    3    3    0    0 -0.17930052149E+02 -0.66596844221E+01 -0.12387889971E+02  0.22788110597E+02  0.00000000000E+00 0. -1.
</event>
<event>
 7    1  0.3189267E-013  0.7246147E+02  0.7816164E-02  0.1226708E+00
        -11   -1    0    0    0    0  0.00000000000E+00  0.00000000000E+00  0.45593999997E+02  0.45594000000E+02  0.51100000000E-03 0.  1.
         11   -1    0    0    0    0 -0.00000000000E+00 -0.00000000000E+00 -0.45593999997E+02  0.45594000000E+02  0.51100000000E-03 0. -1.
    9900012    2    1    2    0    0  0.17595953831E+00 -0.11715464537E+02  0.14608216230E+02  0.72461466618E+02  0.69999864943E+02 0.  0.
         12    1    1    2    0    0 -0.17595953831E+00  0.11715464537E+02 -0.14608216230E+02  0.18726533382E+02  0.00000000000E+00 0. -1.
         11    1    3    3    0    0  0.16179267125E+02 -0.62314278082E+01  0.61585163012E+01  0.18399095101E+02  0.51100000000E-03 0. -1.
        -11    1    3    3    0    0  0.11683061434E+02  0.66927312477E+01  0.17878105476E+02  0.22381090940E+02  0.51100000000E-03 0.  1.
         12    1    3    3    0    0 -0.27686369020E+02 -0.12176767976E+02 -0.94284055471E+01  0.31681280578E+02  0.00000000000E+00 0. -1.
</event>
<event>
 7    1  0.3189267E-013  0.7246155E+02  0.7816164E-02  0.1226708E+00
        -11   -1    0    0    0    0  0.00000000000E+00  0.00000000000E+00  0.45593999997E+02  0.45594000000E+02  0.51100000000E-03 0. -1.
         11   -1    0    0    0    0 -0.00000000000E+00 -0.00000000000E+00 -0.45593999997E+02  0.45594000000E+02  0.51100000000E-03 0.  1.
    9900012    2    1    2    0    0  0.40220137189E+01 -0.11022592883E+02 -0.14594722942E+02  0.72461545825E+02  0.69999968124E+02 0.  0.
         12    1    1    2    0    0 -0.40220137189E+01  0.11022592883E+02  0.14594722942E+02  0.18726454175E+02  0.00000000000E+00 0. -1.
         11    1    3    3    0    0 -0.66916108432E+01  0.11029474290E+02 -0.68895200311E+01  0.14625062233E+02  0.51100000000E-03 0. -1.
        -11    1    3    3    0    0  0.12899443409E+02  0.47117790955E+01  0.16650663754E+02  0.21583352525E+02  0.51100000000E-03 0.  1.
         12    1    3    3    0    0 -0.21858188473E+01 -0.26763846268E+02 -0.24355866665E+02  0.36253131067E+02  0.00000000000E+00 0. -1.
</event>
<event>
 7    1  0.3189267E-013  0.7246164E+02  0.7816164E-02  0.1226708E+00
        -11   -1    0    0    0    0  0.00000000000E+00  0.00000000000E+00  0.45593999997E+02  0.45594000000E+02  0.51100000000E-03 0. -1.
         11   -1    0    0    0    0 -0.00000000000E+00 -0.00000000000E+00 -0.45593999997E+02  0.45594000000E+02  0.51100000000E-03 0.  1.
    9900012    2    1    2    0    0  0.14547239602E+02 -0.11332460517E+02 -0.32603425652E+01  0.72461636897E+02  0.70000086763E+02 0.  0.
         12    1    1    2    0    0 -0.14547239602E+02  0.11332460517E+02  0.32603425652E+01  0.18726363103E+02  0.00000000000E+00 0. -1.
         11    1    3    3    0    0  0.31128173347E+01 -0.73231439684E+01  0.79723210124E+01  0.11263923470E+02  0.51100000000E-03 0. -1.
        -11    1    3    3    0    0  0.32307371842E+02 -0.72604863701E+00  0.72572211965E+01  0.33120396763E+02  0.51100000000E-03 0.  1.
         12    1    3    3    0    0 -0.20872949575E+02 -0.32832679114E+01 -0.18489884774E+02  0.28077316665E+02  0.00000000000E+00 0. -1.
</event>
<event>
 7    1  0.3189267E-013  0.7246162E+02  0.7816164E-02  0.1226708E+00
        -11   -1    0    0    0    0  0.00000000000E+00  0.00000000000E+00  0.45593999997E+02  0.45594000000E+02  0.51100000000E-03 0. -1.
         11   -1    0    0    0    0 -0.00000000000E+00 -0.00000000000E+00 -0.45593999997E+02  0.45594000000E+02  0.51100000000E-03 0.  1.
    9900012    2    1    2    0    0  0.15489966046E+02 -0.47233478563E+01 -0.94036215123E+01  0.72461623932E+02  0.70000069873E+02 0.  0.
         12    1    1    2    0    0 -0.15489966046E+02  0.47233478563E+01  0.94036215123E+01  0.18726376068E+02  0.00000000000E+00 0. -1.
         11    1    3    3    0    0  0.35153237734E+01  0.11184417913E+01  0.22024379683E+02  0.22331182547E+02  0.51100000000E-03 0. -1.
        -11    1    3    3    0    0 -0.13195723083E+02 -0.85106200801E-01 -0.95752351259E+01  0.16303971257E+02  0.51100000000E-03 0.  1.
        -12    1    3    3    0    0  0.25170365356E+02 -0.57566834467E+01 -0.21852766069E+02  0.33826470129E+02  0.00000000000E+00 0.  1.
</event>
<event>
 7    1  0.3189267E-013  0.7246158E+02  0.7816164E-02  0.1226708E+00
        -11   -1    0    0    0    0  0.00000000000E+00  0.00000000000E+00  0.45593999997E+02  0.45594000000E+02  0.51100000000E-03 0. -1.
         11   -1    0    0    0    0 -0.00000000000E+00 -0.00000000000E+00 -0.45593999997E+02  0.45594000000E+02  0.51100000000E-03 0.  1.
    9900012    2    1    2    0    0 -0.15797233887E+02 -0.36511420606E+01 -0.93699278442E+01  0.72461575231E+02  0.70000006431E+02 0.  0.
         12    1    1    2    0    0  0.15797233887E+02  0.36511420606E+01  0.93699278442E+01  0.18726424769E+02  0.00000000000E+00 0. -1.
         11    1    3    3    0    0  0.16427673276E+02 -0.46136039056E+01 -0.24647280210E+02  0.29977361663E+02  0.51100000000E-03 0. -1.
        -11    1    3    3    0    0 -0.94414109812E+01 -0.45993132873E+01 -0.48603728063E+01  0.11572257693E+02  0.51100000000E-03 0.  1.
        -12    1    3    3    0    0 -0.22783496183E+02  0.55617751323E+01  0.20137725172E+02  0.30911955875E+02  0.00000000000E+00 0.  1.
</event>
<event>
 7    1  0.3189267E-013  0.7246148E+02  0.7816164E-02  0.1226708E+00
        -11   -1    0    0    0    0  0.00000000000E+00  0.00000000000E+00  0.45593999997E+02  0.45594000000E+02  0.51100000000E-03 0.  1.
         11   -1    0    0    0    0 -0.00000000000E+00 -0.00000000000E+00 -0.45593999997E+02  0.45594000000E+02  0.51100000000E-03 0. -1.
    9900012    2    1    2    0    0 -0.11084428014E+02 -0.46693214757E+01  0.14353243493E+02  0.72461475864E+02  0.69999876987E+02 0.  0.
         12    1    1    2    0    0  0.11084428014E+02  0.46693214757E+01 -0.14353243493E+02  0.18726524136E+02  0.00000000000E+00 0. -1.
         11    1    3    3    0    0 -0.33123238476E+02  0.48900507700E+01  0.12748308570E+02  0.35827097222E+02  0.51100000000E-03 0. -1.
        -11    1    3    3    0    0  0.17496622989E+01  0.87711268816E+01  0.24654712248E+01  0.92775284184E+01  0.51100000000E-03 0.  1.
         12    1    3    3    0    0  0.20289148163E+02 -0.18330499127E+02 -0.86053630244E+00  0.27356850224E+02  0.00000000000E+00 0. -1.
</event>
<event>
 7    1  0.3189267E-013  0.7246143E+02  0.7816164E-02  0.1226708E+00
        -11   -1    0    0    0    0  0.00000000000E+00  0.00000000000E+00  0.45593999997E+02  0.45594000000E+02  0.51100000000E-03 0. -1.
         11   -1    0    0    0    0 -0.00000000000E+00 -0.00000000000E+00 -0.45593999997E+02  0.45594000000E+02  0.51100000000E-03 0.  1.
    9900012    2    1    2    0    0 -0.13094307554E+02 -0.13053564293E+02  0.29711713296E+01  0.72461433573E+02  0.69999821895E+02 0.  0.
         12    1    1    2    0    0  0.13094307554E+02  0.13053564293E+02 -0.29711713296E+01  0.18726566427E+02  0.00000000000E+00 0. -1.
         11    1    3    3    0    0  0.85980394725E+00 -0.21341926821E+02  0.98359379867E+01  0.23515160633E+02  0.51100000000E-03 0. -1.
        -11    1    3    3    0    0 -0.58746871319E+01 -0.26573352623E+01 -0.25258240857E+02  0.26068220327E+02  0.51100000000E-03 0.  1.
         12    1    3    3    0    0 -0.80794243694E+01  0.10945697790E+02  0.18393474199E+02  0.22878052613E+02  0.00000000000E+00 0. -1.
</event>
<event>
 7    1  0.3189267E-013  0.7246156E+02  0.7816164E-02  0.1226708E+00
        -11   -1    0    0    0    0  0.00000000000E+00  0.00000000000E+00  0.45593999997E+02  0.45594000000E+02  0.51100000000E-03 0. -1.
         11   -1    0    0    0    0 -0.00000000000E+00 -0.00000000000E+00 -0.45593999997E+02  0.45594000000E+02  0.51100000000E-03 0.  1.
    9900012    2    1    2    0    0 -0.85646147971E+01 -0.16436454630E+02  0.26776538173E+01  0.72461561540E+02  0.69999988596E+02 0.  0.
         12    1    1    2    0    0  0.85646147971E+01  0.16436454630E+02 -0.26776538173E+01  0.18726438460E+02  0.00000000000E+00 0. -1.
         11    1    3    3    0    0 -0.66828620350E+01 -0.70524541443E+01  0.27763781634E+02  0.29414712735E+02  0.51100000000E-03 0. -1.
        -11    1    3    3    0    0 -0.11195945411E+02 -0.43300951900E+01  0.35457623552E+01  0.12516842610E+02  0.51100000000E-03 0.  1.
        -12    1    3    3    0    0  0.93141926485E+01 -0.50539052961E+01 -0.28631890171E+02  0.30530006194E+02  0.00000000000E+00 0.  1.
</event>
<event>
 7    1  0.3189267E-013  0.7246149E+02  0.7816164E-02  0.1226708E+00
        -11   -1    0    0    0    0  0.00000000000E+00  0.00000000000E+00  0.45593999997E+02  0.45594000000E+02  0.51100000000E-03 0.  1.
         11   -1    0    0    0    0 -0.00000000000E+00 -0.00000000000E+00 -0.45593999997E+02  0.45594000000E+02  0.51100000000E-03 0. -1.
    9900012    2    1    2    0    0  0.18202684414E+02  0.36674421638E+01 -0.24278418074E+01  0.72461487571E+02  0.69999892238E+02 0.  0.
         12    1    1    2    0    0 -0.18202684414E+02 -0.36674421638E+01  0.24278418074E+01  0.18726512429E+02  0.00000000000E+00 0. -1.
         11    1    3    3    0    0  0.84697829406E+01  0.13554201152E+02 -0.18763676914E+01  0.16092679948E+02  0.51100000000E-03 0. -1.
        -11    1    3    3    0    0 -0.46208263275E+00 -0.11348433939E+02  0.25738679510E+02  0.28133256058E+02  0.51100000000E-03 0.  1.
         12    1    3    3    0    0  0.10194984106E+02  0.14616749508E+01 -0.26290153626E+02  0.28235551566E+02  0.00000000000E+00 0. -1.
</event>
<event>
 7    1  0.3189267E-013  0.7246157E+02  0.7816164E-02  0.1226708E+00
        -11   -1    0    0    0    0  0.00000000000E+00  0.00000000000E+00  0.45593999997E+02  0.45594000000E+02  0.51100000000E-03 0.  1.
         11   -1    0    0    0    0 -0.00000000000E+00 -0.00000000000E+00 -0.45593999997E+02  0.45594000000E+02  0.51100000000E-03 0. -1.
    9900012    2    1    2    0    0 -0.89631788716E-01 -0.10561423563E+01  0.18696405481E+02  0.72461573527E+02  0.70000004212E+02 0.  0.
         12    1    1    2    0    0  0.89631788716E-01  0.10561423563E+01 -0.18696405481E+02  0.18726426473E+02  0.00000000000E+00 0. -1.
         11    1    3    3    0    0  0.66644477497E+01 -0.14818225453E+02 -0.12451691206E+02  0.20470449031E+02  0.51100000000E-03 0. -1.
        -11    1    3    3    0    0  0.15718566763E+02  0.75032953328E+01  0.81399988102E+01  0.19225825413E+02  0.51100000000E-03 0.  1.
         12    1    3    3    0    0 -0.22472646301E+02  0.62587877641E+01  0.23008097877E+02  0.32765299083E+02  0.00000000000E+00 0. -1.
</event>
<event>
 7    1  0.3189267E-013  0.7246153E+02  0.7816164E-02  0.1226708E+00
        -11   -1    0    0    0    0  0.00000000000E+00  0.00000000000E+00  0.45593999997E+02  0.45594000000E+02  0.51100000000E-03 0.  1.
         11   -1    0    0    0    0 -0.00000000000E+00 -0.00000000000E+00 -0.45593999997E+02  0.45594000000E+02  0.51100000000E-03 0. -1.
    9900012    2    1    2    0    0  0.12254420593E+02  0.14115313659E+02  0.11260251439E+01  0.72461525788E+02  0.69999942022E+02 0.  0.
         12    1    1    2    0    0 -0.12254420593E+02 -0.14115313659E+02 -0.11260251439E+01  0.18726474212E+02  0.00000000000E+00 0. -1.
         11    1    3    3    0    0  0.18480494196E+02 -0.86755380825E+01  0.72841588270E+01  0.21676083522E+02  0.51100000000E-03 0. -1.
        -11    1    3    3    0    0 -0.53047746623E+01  0.14717724115E+01  0.17841219189E+02  0.18671257340E+02  0.51100000000E-03 0.  1.
         12    1    3    3    0    0 -0.92129894038E+00  0.21319079330E+02 -0.23999352872E+02  0.32114184927E+02  0.00000000000E+00 0. -1.
</event>
<event>
 7    1  0.3678543E-013  0.7246157E+02  0.7816164E-02  0.1226708E+00
        -11   -1    0    0    0    0  0.00000000000E+00  0.00000000000E+00  0.45593999997E+02  0.45594000000E+02  0.51100000000E-03 0. -1.
         11   -1    0    0    0    0 -0.00000000000E+00 -0.00000000000E+00 -0.45593999997E+02  0.45594000000E+02  0.51100000000E-03 0.  1.
    9900012    2    1    2    0    0 -0.21552134772E+01  0.50625446433E+01 -0.17899855026E+02  0.72461571794E+02  0.70000001953E+02 0.  0.
         12    1    1    2    0    0  0.21552134772E+01 -0.50625446433E+01  0.17899855026E+02  0.18726428206E+02  0.00000000000E+00 0. -1.
         11    1    3    3    0    0 -0.20983276758E+02 -0.12514110005E+02  0.57959320413E+01  0.25109633235E+02  0.51100000000E-03 0. -1.
        -11    1    3    3    0    0  0.13041446594E+01  0.80276101197E+00 -0.23034049132E+02  0.23084900654E+02  0.51100000000E-03 0.  1.
        -12    1    3    3    0    0  0.17523918621E+02  0.16773893636E+02 -0.66173793615E+00  0.24267037905E+02  0.00000000000E+00 0.  1.
</event>
<event>
 7    1  0.3189267E-013  0.7246157E+02  0.7816164E-02  0.1226708E+00
        -11   -1    0    0    0    0  0.00000000000E+00  0.00000000000E+00  0.45593999997E+02  0.45594000000E+02  0.51100000000E-03 0.  1.
         11   -1    0    0    0    0 -0.00000000000E+00 -0.00000000000E+00 -0.45593999997E+02  0.45594000000E+02  0.51100000000E-03 0. -1.
    9900012    2    1    2    0    0  0.13090786883E+02  0.45181080005E+01  0.12605443467E+02  0.72461569317E+02  0.69999998727E+02 0.  0.
         12    1    1    2    0    0 -0.13090786883E+02 -0.45181080005E+01 -0.12605443467E+02  0.18726430683E+02  0.00000000000E+00 0. -1.
         11    1    3    3    0    0  0.95967239405E+01 -0.85808963698E+01 -0.13801470824E+02  0.18873512923E+02  0.51100000000E-03 0. -1.
        -11    1    3    3    0    0  0.17938375195E+01  0.13605346275E+02 -0.10099305374E+02  0.17038757866E+02  0.51100000000E-03 0.  1.
         12    1    3    3    0    0  0.17002254230E+01 -0.50634190515E+00  0.36506219665E+02  0.36549298528E+02  0.00000000000E+00 0. -1.
</event>
<event>
 7    1  0.3189267E-013  0.7246157E+02  0.7816164E-02  0.1226708E+00
        -11   -1    0    0    0    0  0.00000000000E+00  0.00000000000E+00  0.45593999997E+02  0.45594000000E+02  0.51100000000E-03 0.  1.
         11   -1    0    0    0    0 -0.00000000000E+00 -0.00000000000E+00 -0.45593999997E+02  0.45594000000E+02  0.51100000000E-03 0. -1.
    9900012    2    1    2    0    0 -0.73413201618E+01  0.11894286338E+02  0.12462350629E+02  0.72461569149E+02  0.69999998508E+02 0.  0.
         12    1    1    2    0    0  0.73413201618E+01 -0.11894286338E+02 -0.12462350629E+02  0.18726430851E+02  0.00000000000E+00 0. -1.
         11    1    3    3    0    0  0.62374643454E+01  0.19027433048E+02  0.75502662016E+01  0.21399899295E+02  0.51100000000E-03 0. -1.
        -11    1    3    3    0    0 -0.91961899663E+01  0.39529039411E+01  0.25431665180E+02  0.27330659589E+02  0.51100000000E-03 0.  1.
         12    1    3    3    0    0 -0.43825945410E+01 -0.11086050651E+02 -0.20519580753E+02  0.23731010266E+02  0.00000000000E+00 0. -1.
</event>
<event>
 7    1  0.3189267E-013  0.7246157E+02  0.7816164E-02  0.1226708E+00
        -11   -1    0    0    0    0  0.00000000000E+00  0.00000000000E+00  0.45593999997E+02  0.45594000000E+02  0.51100000000E-03 0. -1.
         11   -1    0    0    0    0 -0.00000000000E+00 -0.00000000000E+00 -0.45593999997E+02  0.45594000000E+02  0.51100000000E-03 0.  1.
    9900012    2    1    2    0    0  0.15223822473E+02 -0.26919210486E+01 -0.10567298682E+02  0.72461574525E+02  0.70000005512E+02 0.  0.
         12    1    1    2    0    0 -0.15223822473E+02  0.26919210486E+01  0.10567298682E+02  0.18726425475E+02  0.00000000000E+00 0. -1.
         11    1    3    3    0    0  0.12925722541E+02 -0.46469541987E+01 -0.11719468344E+02  0.18055869547E+02  0.51100000000E-03 0. -1.
        -11    1    3    3    0    0 -0.72150071268E+01  0.13657942466E+02 -0.21935622332E+02  0.26828478295E+02  0.51100000000E-03 0.  1.
         12    1    3    3    0    0  0.95131070584E+01 -0.11702909316E+02  0.23087791995E+02  0.27577226684E+02  0.00000000000E+00 0. -1.
</event>
<event>
 7    1  0.3189267E-013  0.7246151E+02  0.7816164E-02  0.1226708E+00
        -11   -1    0    0    0    0  0.00000000000E+00  0.00000000000E+00  0.45593999997E+02  0.45594000000E+02  0.51100000000E-03 0.  1.
         11   -1    0    0    0    0 -0.00000000000E+00 -0.00000000000E+00 -0.45593999997E+02  0.45594000000E+02  0.51100000000E-03 0. -1.
    9900012    2    1    2    0    0 -0.59367063275E+01 -0.17744555465E+02  0.75352804697E+00  0.72461507131E+02  0.69999917718E+02 0.  0.
         12    1    1    2    0    0  0.59367063275E+01  0.17744555465E+02 -0.75352804697E+00  0.18726492869E+02  0.00000000000E+00 0. -1.
         11    1    3    3    0    0 -0.12625997126E+02  0.57842521111E+01 -0.27611230517E+00  0.13890630445E+02  0.51100000000E-03 0. -1.
        -11    1    3    3    0    0 -0.17186605500E+02 -0.20166246120E+02 -0.14190840226E+02  0.30057226049E+02  0.51100000000E-03 0.  1.
        -12    1    3    3    0    0  0.23875896298E+02 -0.33625614559E+01  0.15220480578E+02  0.28513650636E+02  0.00000000000E+00 0.  1.
</event>
<event>
 7    1  0.3189267E-013  0.7246157E+02  0.7816164E-02  0.1226708E+00
        -11   -1    0    0    0    0  0.00000000000E+00  0.00000000000E+00  0.45593999997E+02  0.45594000000E+02  0.51100000000E-03 0.  1.
         11   -1    0    0    0    0 -0.00000000000E+00 -0.00000000000E+00 -0.45593999997E+02  0.45594000000E+02  0.51100000000E-03 0. -1.
    9900012    2    1    2    0    0 -0.57884779466E+01 -0.94291828035E+01 -0.15108380254E+02  0.72461571639E+02  0.70000001751E+02 0.  0.
         12    1    1    2    0    0  0.57884779466E+01  0.94291828035E+01  0.15108380254E+02  0.18726428361E+02  0.00000000000E+00 0. -1.
         11    1    3    3    0    0  0.18744184791E+02  0.63052503739E+01 -0.16712232030E+00  0.19776970847E+02  0.51100000000E-03 0. -1.
        -11    1    3    3    0    0  0.56250831957E+01 -0.17003970801E+02  0.20817677859E+01  0.18030816436E+02  0.51100000000E-03 0.  1.
         12    1    3    3    0    0 -0.30157745933E+02  0.12695376241E+01 -0.17023025719E+02  0.34653784356E+02  0.00000000000E+00 0. -1.
</event>
<event>
 7    1  0.3189267E-013  0.7246158E+02  0.7816164E-02  0.1226708E+00
        -11   -1    0    0    0    0  0.00000000000E+00  0.00000000000E+00  0.45593999997E+02  0.45594000000E+02  0.51100000000E-03 0.  1.
         11   -1    0    0    0    0 -0.00000000000E+00 -0.00000000000E+00 -0.45593999997E+02  0.45594000000E+02  0.51100000000E-03 0. -1.
    9900012    2    1    2    0    0 -0.14993233064E+02 -0.95791201500E+01  0.58414327277E+01  0.72461577040E+02  0.70000008787E+02 0.  0.
         12    1    1    2    0    0  0.14993233064E+02  0.95791201500E+01 -0.58414327277E+01  0.18726422960E+02  0.00000000000E+00 0. -1.
         11    1    3    3    0    0  0.97747275305E+01  0.99968879440E+01 -0.32773419731E+01  0.14360502691E+02  0.51100000000E-03 0. -1.
        -11    1    3    3    0    0  0.81612019478E+01 -0.22201578569E+02 -0.61854165317E+00  0.23662161825E+02  0.51100000000E-03 0.  1.
         12    1    3    3    0    0 -0.32929162543E+02  0.26255704750E+01  0.97373163539E+01  0.34438912524E+02  0.00000000000E+00 0. -1.
</event>
<event>
 7    1  0.3189267E-013  0.7246157E+02  0.7816164E-02  0.1226708E+00
        -11   -1    0    0    0    0  0.00000000000E+00  0.00000000000E+00  0.45593999997E+02  0.45594000000E+02  0.51100000000E-03 0.  1.
         11   -1    0    0    0    0 -0.00000000000E+00 -0.00000000000E+00 -0.45593999997E+02  0.45594000000E+02  0.51100000000E-03 0. -1.
    9900012    2    1    2    0    0  0.57221836427E+01 -0.98943511720E+01  0.14833662068E+02  0.72461572121E+02  0.70000002379E+02 0.  0.
         12    1    1    2    0    0 -0.57221836427E+01  0.98943511720E+01 -0.14833662068E+02  0.18726427879E+02  0.00000000000E+00 0. -1.
         11    1    3    3    0    0 -0.19041651737E+02 -0.14757658150E+02 -0.75841828081E+01  0.25256539828E+02  0.51100000000E-03 0. -1.
        -11    1    3    3    0    0 -0.76092706457E+01  0.51139778319E+01  0.49170109010E+01  0.10403401631E+02  0.51100000000E-03 0.  1.
        -12    1    3    3    0    0  0.32373106025E+02 -0.25067085426E+00  0.17500833975E+02  0.36801630663E+02  0.00000000000E+00 0.  1.
</event>
<event>
 7    1  0.3189267E-013  0.7246162E+02  0.7816164E-02  0.1226708E+00
        -11   -1    0    0    0    0  0.00000000000E+00  0.00000000000E+00  0.45593999997E+02  0.45594000000E+02  0.51100000000E-03 0. -1.
         11   -1    0    0    0    0 -0.00000000000E+00 -0.00000000000E+00 -0.45593999997E+02  0.45594000000E+02  0.51100000000E-03 0.  1.
    9900012    2    1    2    0    0 -0.15605186077E+02  0.44455916118E+00 -0.10342045436E+02  0.72461618365E+02  0.70000062621E+02 0.  0.
         12    1    1    2    0    0  0.15605186077E+02 -0.44455916118E+00  0.10342045436E+02  0.18726381635E+02  0.00000000000E+00 0. -1.
         11    1    3    3    0    0 -0.57167339313E+00  0.95278066913E+01 -0.25424950660E+02  0.27157577712E+02  0.51100000000E-03 0.  1.
        -11    1    3    3    0    0 -0.10518089847E+01  0.72894050898E+01 -0.98902227387E+01  0.12331189512E+02  0.51100000000E-03 0. -1.
        -12    1    3    3    0    0 -0.13981703699E+02 -0.16372652620E+02  0.24973127963E+02  0.32972851141E+02  0.00000000000E+00 0.  1.
</event>
<event>
 7    1  0.3189267E-013  0.7246217E+02  0.7816164E-02  0.1226706E+00
        -11   -1    0    0    0    0  0.00000000000E+00  0.00000000000E+00  0.45593999997E+02  0.45594000000E+02  0.51100000000E-03 0.  1.
         11   -1    0    0    0    0 -0.00000000000E+00 -0.00000000000E+00 -0.45593999997E+02  0.45594000000E+02  0.51100000000E-03 0. -1.
    9900012    2    1    2    0    0 -0.14965031676E+02 -0.66012673476E+01  0.91174506711E+01  0.72462167297E+02  0.70000777703E+02 0.  0.
         12    1    1    2    0    0  0.14965031676E+02  0.66012673476E+01 -0.91174506711E+01  0.18725832703E+02  0.00000000000E+00 0. -1.
         11    1    3    3    0    0 -0.23936101229E+01 -0.99414078074E+01  0.91091393528E+00  0.10265998396E+02  0.51100000000E-03 0. -1.
        -11    1    3    3    0    0  0.35730332323E+01 -0.69903383377E+01  0.31251404161E+02  0.32222378231E+02  0.51100000000E-03 0.  1.
         12    1    3    3    0    0 -0.16144454786E+02  0.10330478797E+02 -0.23044867425E+02  0.29973790670E+02  0.00000000000E+00 0. -1.
</event>
<event>
 7    1  0.3189267E-013  0.7246160E+02  0.7816164E-02  0.1226708E+00
        -11   -1    0    0    0    0  0.00000000000E+00  0.00000000000E+00  0.45593999997E+02  0.45594000000E+02  0.51100000000E-03 0.  1.
         11   -1    0    0    0    0 -0.00000000000E+00 -0.00000000000E+00 -0.45593999997E+02  0.45594000000E+02  0.51100000000E-03 0. -1.
    9900012    2    1    2    0    0  0.15632738970E+02  0.77632004242E+01 -0.67844234679E+01  0.72461595905E+02  0.70000033363E+02 0.  0.
         12    1    1    2    0    0 -0.15632738970E+02 -0.77632004242E+01  0.67844234679E+01  0.18726404095E+02  0.00000000000E+00 0. -1.
         11    1    3    3    0    0 -0.93742917086E-01  0.15769259313E+01 -0.16117040812E+01  0.22567838695E+01  0.51100000000E-03 0. -1.
        -11    1    3    3    0    0 -0.33912509384E+01  0.76868208057E+01  0.29450618423E+02  0.30625589346E+02  0.51100000000E-03 0.  1.
         12    1    3    3    0    0  0.19117732825E+02 -0.15005463129E+01 -0.34623337810E+02  0.39579222690E+02  0.00000000000E+00 0. -1.
</event>
<event>
 7    1  0.3189267E-013  0.7246163E+02  0.7816164E-02  0.1226708E+00
        -11   -1    0    0    0    0  0.00000000000E+00  0.00000000000E+00  0.45593999997E+02  0.45594000000E+02  0.51100000000E-03 0.  1.
         11   -1    0    0    0    0 -0.00000000000E+00 -0.00000000000E+00 -0.45593999997E+02  0.45594000000E+02  0.51100000000E-03 0. -1.
    9900012    2    1    2    0    0  0.84004319788E+00  0.16256564229E+01  0.18636747945E+02  0.72461633419E+02  0.70000082231E+02 0.  0.
         12    1    1    2    0    0 -0.84004319788E+00 -0.16256564229E+01 -0.18636747945E+02  0.18726366581E+02  0.00000000000E+00 0. -1.
         11    1    3    3    0    0 -0.19256955767E+01  0.72133896807E+01 -0.14725680755E+02  0.16510207997E+02  0.51100000000E-03 0. -1.
        -11    1    3    3    0    0  0.16300907015E+02 -0.16036125896E+02  0.59241734980E+01  0.23621446509E+02  0.51100000000E-03 0.  1.
        -12    1    3    3    0    0 -0.13535168241E+02  0.10448392638E+02  0.27438255202E+02  0.32329978913E+02  0.00000000000E+00 0.  1.
</event>
<event>
 7    1  0.3189267E-013  0.7246157E+02  0.7816164E-02  0.1226708E+00
        -11   -1    0    0    0    0  0.00000000000E+00  0.00000000000E+00  0.45593999997E+02  0.45594000000E+02  0.51100000000E-03 0.  1.
         11   -1    0    0    0    0 -0.00000000000E+00 -0.00000000000E+00 -0.45593999997E+02  0.45594000000E+02  0.51100000000E-03 0. -1.
    9900012    2    1    2    0    0  0.17032509957E+02  0.19744322091E+01  0.75282468550E+01  0.72461567379E+02  0.69999996203E+02 0.  0.
         12    1    1    2    0    0 -0.17032509957E+02 -0.19744322091E+01 -0.75282468550E+01  0.18726432621E+02  0.00000000000E+00 0. -1.
         11    1    3    3    0    0  0.12273686137E+02  0.60058601394E+00  0.40664929229E+01  0.12943741341E+02  0.51100000000E-03 0. -1.
        -11    1    3    3    0    0  0.10998808470E+02  0.93040762151E+01  0.28823029951E+02  0.32222766451E+02  0.51100000000E-03 0.  1.
         12    1    3    3    0    0 -0.62399846495E+01 -0.79302300199E+01 -0.25361276019E+02  0.27295059588E+02  0.00000000000E+00 0. -1.
</event>
<event>
 7    1  0.3189267E-013  0.7246157E+02  0.7816164E-02  0.1226708E+00
        -11   -1    0    0    0    0  0.00000000000E+00  0.00000000000E+00  0.45593999997E+02  0.45594000000E+02  0.51100000000E-03 0.  1.
         11   -1    0    0    0    0 -0.00000000000E+00 -0.00000000000E+00 -0.45593999997E+02  0.45594000000E+02  0.51100000000E-03 0. -1.
    9900012    2    1    2    0    0 -0.11716716554E+02 -0.11332501771E+02  0.92180316824E+01  0.72461570781E+02  0.70000000634E+02 0.  0.
         12    1    1    2    0    0  0.11716716554E+02  0.11332501771E+02 -0.92180316824E+01  0.18726429219E+02  0.00000000000E+00 0. -1.
         11    1    3    3    0    0  0.18996029885E+02 -0.86055249599E+01 -0.17329332394E+02  0.27114755627E+02  0.51100000000E-03 0. -1.
        -11    1    3    3    0    0 -0.26419320828E+01 -0.38226263811E+01 -0.22098594520E+01  0.51454598082E+01  0.51100000000E-03 0.  1.
        -12    1    3    3    0    0 -0.28070814356E+02  0.10956495696E+01  0.28757223528E+02  0.40201355346E+02  0.00000000000E+00 0.  1.
</event>
<event>
 7    1  0.3189267E-013  0.7246157E+02  0.7816164E-02  0.1226708E+00
        -11   -1    0    0    0    0  0.00000000000E+00  0.00000000000E+00  0.45593999997E+02  0.45594000000E+02  0.51100000000E-03 0. -1.
         11   -1    0    0    0    0 -0.00000000000E+00 -0.00000000000E+00 -0.45593999997E+02  0.45594000000E+02  0.51100000000E-03 0.  1.
    9900012    2    1    2    0    0 -0.14066460541E+02  0.95008260126E+01 -0.79087301145E+01  0.72461574311E+02  0.70000005232E+02 0.  0.
         12    1    1    2    0    0  0.14066460541E+02 -0.95008260126E+01  0.79087301145E+01  0.18726425689E+02  0.00000000000E+00 0. -1.
         11    1    3    3    0    0 -0.90356817385E+01  0.97203471508E+01 -0.13428674587E+02  0.18880095197E+02  0.51100000000E-03 0. -1.
        -11    1    3    3    0    0 -0.13717125652E+02 -0.23017820439E+02 -0.45668046215E+01  0.27181524950E+02  0.51100000000E-03 0.  1.
         12    1    3    3    0    0  0.86863468490E+01  0.22798299300E+02  0.10086749094E+02  0.26399954164E+02  0.00000000000E+00 0. -1.
</event>
<event>
 7    1  0.3189267E-013  0.7246155E+02  0.7816164E-02  0.1226708E+00
        -11   -1    0    0    0    0  0.00000000000E+00  0.00000000000E+00  0.45593999997E+02  0.45594000000E+02  0.51100000000E-03 0.  1.
         11   -1    0    0    0    0 -0.00000000000E+00 -0.00000000000E+00 -0.45593999997E+02  0.45594000000E+02  0.51100000000E-03 0. -1.
    9900012    2    1    2    0    0 -0.98976053910E+01  0.12787401490E+02  0.94445561769E+01  0.72461551572E+02  0.69999975611E+02 0.  0.
         12    1    1    2    0    0  0.98976053910E+01 -0.12787401490E+02 -0.94445561769E+01  0.18726448428E+02  0.00000000000E+00 0. -1.
         11    1    3    3    0    0 -0.80047574749E+01  0.49174801264E+01 -0.17051486276E+02  0.19468203243E+02  0.51100000000E-03 0. -1.
        -11    1    3    3    0    0  0.11869554513E+02 -0.10742868401E+02 -0.21616026467E+01  0.16154506246E+02  0.51100000000E-03 0.  1.
        -12    1    3    3    0    0 -0.13762402429E+02  0.18612789764E+02  0.28657645099E+02  0.36838842083E+02  0.00000000000E+00 0.  1.
</event>
<event>
 7    1  0.3189267E-013  0.7246157E+02  0.7816164E-02  0.1226708E+00
        -11   -1    0    0    0    0  0.00000000000E+00  0.00000000000E+00  0.45593999997E+02  0.45594000000E+02  0.51100000000E-03 0. -1.
         11   -1    0    0    0    0 -0.00000000000E+00 -0.00000000000E+00 -0.45593999997E+02  0.45594000000E+02  0.51100000000E-03 0.  1.
    9900012    2    1    2    0    0  0.61431878978E+01 -0.15852762252E+02 -0.78504935638E+01  0.72461572744E+02  0.70000003191E+02 0.  0.
         12    1    1    2    0    0 -0.61431878978E+01  0.15852762252E+02  0.78504935638E+01  0.18726427256E+02  0.00000000000E+00 0. -1.
         11    1    3    3    0    0  0.27835574863E-02 -0.56406792929E+01 -0.25898671737E+02  0.26505819524E+02  0.51100000000E-03 0. -1.
        -11    1    3    3    0    0  0.69501917353E+01  0.10611955339E+02 -0.60854944862E+01  0.14069541737E+02  0.51100000000E-03 0.  1.
         12    1    3    3    0    0 -0.80978739496E+00 -0.20824038299E+02  0.24133672660E+02  0.31886211483E+02  0.00000000000E+00 0. -1.
</event>
<event>
 7    1  0.3189267E-013  0.7246226E+02  0.7816164E-02  0.1226706E+00
        -11   -1    0    0    0    0  0.00000000000E+00  0.00000000000E+00  0.45593999997E+02  0.45594000000E+02  0.51100000000E-03 0. -1.
         11   -1    0    0    0    0 -0.00000000000E+00 -0.00000000000E+00 -0.45593999997E+02  0.45594000000E+02  0.51100000000E-03 0.  1.
    9900012    2    1    2    0    0 -0.17171649712E+02  0.11359224993E+01 -0.73822453429E+01  0.72462257824E+02  0.70000895629E+02 0.  0.
         12    1    1    2    0    0  0.17171649712E+02 -0.11359224993E+01  0.73822453429E+01  0.18725742176E+02  0.00000000000E+00 0. -1.
         11    1    3    3    0    0 -0.62515030765E+01 -0.18246094167E+02  0.15426558579E+02  0.24697772226E+02  0.51100000000E-03 0. -1.
        -11    1    3    3    0    0 -0.50047686159E+01  0.37928287857E+01  0.95110586089E+01  0.11397082750E+02  0.51100000000E-03 0.  1.
        -12    1    3    3    0    0 -0.59153780196E+01  0.15589187880E+02 -0.32319862531E+02  0.36367402848E+02  0.00000000000E+00 0.  1.
</event>
<event>
 7    1  0.3189267E-013  0.7246160E+02  0.7816164E-02  0.1226708E+00
        -11   -1    0    0    0    0  0.00000000000E+00  0.00000000000E+00  0.45593999997E+02  0.45594000000E+02  0.51100000000E-03 0. -1.
         11   -1    0    0    0    0 -0.00000000000E+00 -0.00000000000E+00 -0.45593999997E+02  0.45594000000E+02  0.51100000000E-03 0.  1.
    9900012    2    1    2    0    0 -0.50447126355E+01  0.88425589384E+01 -0.15717440945E+02  0.72461603549E+02  0.70000043321E+02 0.  0.
         12    1    1    2    0    0  0.50447126355E+01 -0.88425589384E+01  0.15717440945E+02  0.18726396451E+02  0.00000000000E+00 0. -1.
         11    1    3    3    0    0  0.10450799408E+01 -0.88899904447E+01 -0.22126486376E+01  0.92206255994E+01  0.51100000000E-03 0. -1.
        -11    1    3    3    0    0 -0.30998387429E+02  0.43846820810E+01  0.13084859665E+01  0.31334287863E+02  0.51100000000E-03 0.  1.
         12    1    3    3    0    0  0.24908594852E+02  0.13347867302E+02 -0.14813278274E+02  0.31906690086E+02  0.00000000000E+00 0. -1.
</event>
<event>
 7    1  0.3189267E-013  0.7246157E+02  0.7816164E-02  0.1226708E+00
        -11   -1    0    0    0    0  0.00000000000E+00  0.00000000000E+00  0.45593999997E+02  0.45594000000E+02  0.51100000000E-03 0.  1.
         11   -1    0    0    0    0 -0.00000000000E+00 -0.00000000000E+00 -0.45593999997E+02  0.45594000000E+02  0.51100000000E-03 0. -1.
    9900012    2    1    2    0    0 -0.17497041297E+02  0.16165921883E+01  0.64745072620E+01  0.72461572985E+02  0.70000003505E+02 0.  0.
         12    1    1    2    0    0  0.17497041297E+02 -0.16165921883E+01 -0.64745072620E+01  0.18726427015E+02  0.00000000000E+00 0. -1.
         11    1    3    3    0    0  0.63214641495E+00 -0.25127610367E+02  0.10776567665E+02  0.27348323948E+02  0.51100000000E-03 0. -1.
        -11    1    3    3    0    0  0.87762112565E+01  0.93365243116E+01 -0.21747503695E+01  0.12997003873E+02  0.51100000000E-03 0.  1.
         12    1    3    3    0    0 -0.26905398969E+02  0.17407678243E+02 -0.21273100339E+01  0.32116245165E+02  0.00000000000E+00 0. -1.
</event>
<event>
 7    1  0.3189267E-013  0.7246140E+02  0.7816164E-02  0.1226708E+00
        -11   -1    0    0    0    0  0.00000000000E+00  0.00000000000E+00  0.45593999997E+02  0.45594000000E+02  0.51100000000E-03 0. -1.
         11   -1    0    0    0    0 -0.00000000000E+00 -0.00000000000E+00 -0.45593999997E+02  0.45594000000E+02  0.51100000000E-03 0.  1.
    9900012    2    1    2    0    0  0.16730558572E+02  0.77931387297E+01 -0.31687169509E+01  0.72461404781E+02  0.69999784388E+02 0.  0.
         12    1    1    2    0    0 -0.16730558572E+02 -0.77931387297E+01  0.31687169509E+01  0.18726595219E+02  0.00000000000E+00 0. -1.
         11    1    3    3    0    0 -0.22094293144E+02  0.11396466778E+02 -0.76254135882E+01  0.26003541629E+02  0.51100000000E-03 0. -1.
        -11    1    3    3    0    0 -0.86352963629E+00  0.45161773026E+01 -0.26823480632E+01  0.53232069521E+01  0.51100000000E-03 0.  1.
        -12    1    3    3    0    0  0.39688381352E+02 -0.81195053514E+01  0.71390447006E+01  0.41134656201E+02  0.00000000000E+00 0.  1.
</event>
<event>
 7    1  0.3189267E-013  0.7246154E+02  0.7816164E-02  0.1226708E+00
        -11   -1    0    0    0    0  0.00000000000E+00  0.00000000000E+00  0.45593999997E+02  0.45594000000E+02  0.51100000000E-03 0.  1.
         11   -1    0    0    0    0 -0.00000000000E+00 -0.00000000000E+00 -0.45593999997E+02  0.45594000000E+02  0.51100000000E-03 0. -1.
    9900012    2    1    2    0    0 -0.17427245518E+02  0.65770740941E+01 -0.19270317359E+01  0.72461541677E+02  0.69999962721E+02 0.  0.
         12    1    1    2    0    0  0.17427245518E+02 -0.65770740941E+01  0.19270317359E+01  0.18726458323E+02  0.00000000000E+00 0. -1.
         11    1    3    3    0    0 -0.97454372076E+00  0.23452846086E+01 -0.13237188594E+02  0.13478622240E+02  0.51100000000E-03 0. -1.
        -11    1    3    3    0    0 -0.34313723690E+02  0.45875041104E+01 -0.47714133227E+01  0.34946290401E+02  0.51100000000E-03 0.  1.
         12    1    3    3    0    0  0.17861021892E+02 -0.35571462482E+00  0.16081570181E+02  0.24036629036E+02  0.00000000000E+00 0. -1.
</event>
<event>
 7    1  0.3189267E-013  0.7246147E+02  0.7816164E-02  0.1226708E+00
        -11   -1    0    0    0    0  0.00000000000E+00  0.00000000000E+00  0.45593999997E+02  0.45594000000E+02  0.51100000000E-03 0.  1.
         11   -1    0    0    0    0 -0.00000000000E+00 -0.00000000000E+00 -0.45593999997E+02  0.45594000000E+02  0.51100000000E-03 0. -1.
    9900012    2    1    2    0    0 -0.13010879933E+00 -0.15231291737E+02  0.10893742527E+02  0.72461473293E+02  0.69999873637E+02 0.  0.
         12    1    1    2    0    0  0.13010879933E+00  0.15231291737E+02 -0.10893742527E+02  0.18726526707E+02  0.00000000000E+00 0. -1.
         11    1    3    3    0    0 -0.16662678322E+02  0.38678802674E+01  0.46214538853E+01  0.17719006261E+02  0.51100000000E-03 0. -1.
        -11    1    3    3    0    0 -0.35775256464E+01 -0.99081692102E+01 -0.18653821709E+02  0.21422781599E+02  0.51100000000E-03 0.  1.
        -12    1    3    3    0    0  0.20110095169E+02 -0.91910027939E+01  0.24926110351E+02  0.33319685432E+02  0.00000000000E+00 0.  1.
</event>
<event>
 7    1  0.3189267E-013  0.7246156E+02  0.7816164E-02  0.1226708E+00
        -11   -1    0    0    0    0  0.00000000000E+00  0.00000000000E+00  0.45593999997E+02  0.45594000000E+02  0.51100000000E-03 0. -1.
         11   -1    0    0    0    0 -0.00000000000E+00 -0.00000000000E+00 -0.45593999997E+02  0.45594000000E+02  0.51100000000E-03 0.  1.
    9900012    2    1    2    0    0  0.96544858631E+01 -0.15218572567E+02 -0.50858028768E+01  0.72461563095E+02  0.69999990622E+02 0.  0.
         12    1    1    2    0    0 -0.96544858631E+01  0.15218572567E+02  0.50858028768E+01  0.18726436905E+02  0.00000000000E+00 0. -1.
         11    1    3    3    0    0  0.40469967850E+01 -0.13814391929E+02  0.13010571338E+02  0.19403365022E+02  0.51100000000E-03 0. -1.
        -11    1    3    3    0    0 -0.19794818270E+02  0.98228040319E+01 -0.76074484571E+01  0.23370827578E+02  0.51100000000E-03 0.  1.
         12    1    3    3    0    0  0.25402307348E+02 -0.11226984669E+02 -0.10488925758E+02  0.29687370495E+02  0.00000000000E+00 0. -1.
</event>
<event>
 7    1  0.3189267E-013  0.7246156E+02  0.7816164E-02  0.1226708E+00
        -11   -1    0    0    0    0  0.00000000000E+00  0.00000000000E+00  0.45593999997E+02  0.45594000000E+02  0.51100000000E-03 0.  1.
         11   -1    0    0    0    0 -0.00000000000E+00 -0.00000000000E+00 -0.45593999997E+02  0.45594000000E+02  0.51100000000E-03 0. -1.
    9900012    2    1    2    0    0 -0.10150588424E+02  0.12692319718E+02 -0.93032408432E+01  0.72461555720E+02  0.69999981015E+02 0.  0.
         12    1    1    2    0    0  0.10150588424E+02 -0.12692319718E+02  0.93032408432E+01  0.18726444280E+02  0.00000000000E+00 0. -1.
         11    1    3    3    0    0  0.61209089335E+01  0.34108549483E+01 -0.28792743705E+02  0.29633115732E+02  0.51100000000E-03 0. -1.
        -11    1    3    3    0    0 -0.42159167876E+01 -0.28453863609E+01 -0.85720131207E+01  0.99674263030E+01  0.51100000000E-03 0.  1.
        -12    1    3    3    0    0 -0.12055580570E+02  0.12126851131E+02  0.28061515982E+02  0.32861013686E+02  0.00000000000E+00 0.  1.
</event>
<event>
 7    1  0.3189267E-013  0.7246171E+02  0.7816164E-02  0.1226708E+00
        -11   -1    0    0    0    0  0.00000000000E+00  0.00000000000E+00  0.45593999997E+02  0.45594000000E+02  0.51100000000E-03 0. -1.
         11   -1    0    0    0    0 -0.00000000000E+00 -0.00000000000E+00 -0.45593999997E+02  0.45594000000E+02  0.51100000000E-03 0.  1.
    9900012    2    1    2    0    0  0.56689630160E+01 -0.91351200543E+01  0.15332529110E+02  0.72461708082E+02  0.70000179494E+02 0.  0.
         12    1    1    2    0    0 -0.56689630160E+01  0.91351200543E+01 -0.15332529110E+02  0.18726291918E+02  0.00000000000E+00 0. -1.
         11    1    3    3    0    0  0.76628345591E+01 -0.19104300096E+02  0.25874024712E+01  0.20745793970E+02  0.51100000000E-03 0. -1.
        -11    1    3    3    0    0  0.15129327494E+02 -0.35028651657E+00 -0.12418939855E+02  0.19576754543E+02  0.51100000000E-03 0.  1.
         12    1    3    3    0    0 -0.17123199037E+02  0.10319466559E+02  0.25164066493E+02  0.32139159569E+02  0.00000000000E+00 0. -1.
</event>
<event>
 7    1  0.3189267E-013  0.7246192E+02  0.7816164E-02  0.1226707E+00
        -11   -1    0    0    0    0  0.00000000000E+00  0.00000000000E+00  0.45593999997E+02  0.45594000000E+02  0.51100000000E-03 0.  1.
         11   -1    0    0    0    0 -0.00000000000E+00 -0.00000000000E+00 -0.45593999997E+02  0.45594000000E+02  0.51100000000E-03 0. -1.
    9900012    2    1    2    0    0 -0.14861576976E+02  0.11273990586E+02 -0.16422093944E+01  0.72461916970E+02  0.70000451608E+02 0.  0.
         12    1    1    2    0    0  0.14861576976E+02 -0.11273990586E+02  0.16422093944E+01  0.18726083030E+02  0.00000000000E+00 0. -1.
         11    1    3    3    0    0 -0.19228118685E+02 -0.57349613473E+01 -0.23278751124E+02  0.30732890914E+02  0.51100000000E-03 0. -1.
        -11    1    3    3    0    0 -0.50622646133E+01 -0.67937501738E+01  0.42770737470E+00  0.84831891585E+01  0.51100000000E-03 0.  1.
         12    1    3    3    0    0  0.94288063218E+01  0.23802702108E+02  0.21208834355E+02  0.33245836897E+02  0.00000000000E+00 0. -1.
</event>
<event>
 7    1  0.3189267E-013  0.7246155E+02  0.7816164E-02  0.1226708E+00
        -11   -1    0    0    0    0  0.00000000000E+00  0.00000000000E+00  0.45593999997E+02  0.45594000000E+02  0.51100000000E-03 0. -1.
         11   -1    0    0    0    0 -0.00000000000E+00 -0.00000000000E+00 -0.45593999997E+02  0.45594000000E+02  0.51100000000E-03 0.  1.
    9900012    2    1    2    0    0  0.58871857237E+01 -0.15154545123E+02  0.92930401340E+01  0.72461553766E+02  0.69999978469E+02 0.  0.
         12    1    1    2    0    0 -0.58871857237E+01  0.15154545123E+02 -0.92930401340E+01  0.18726446234E+02  0.00000000000E+00 0. -1.
         11    1    3    3    0    0  0.86206107333E+01 -0.72995155371E+01  0.11870517646E+02  0.16386184606E+02  0.51100000000E-03 0. -1.
        -11    1    3    3    0    0  0.20491979137E+02  0.35702900445E+01 -0.16622656924E+02  0.26626695316E+02  0.51100000000E-03 0.  1.
         12    1    3    3    0    0 -0.23225404147E+02 -0.11425319630E+02  0.14045179412E+02  0.29448673844E+02  0.00000000000E+00 0. -1.
</event>
<event>
 7    1  0.3189267E-013  0.7246153E+02  0.7816164E-02  0.1226708E+00
        -11   -1    0    0    0    0  0.00000000000E+00  0.00000000000E+00  0.45593999997E+02  0.45594000000E+02  0.51100000000E-03 0. -1.
         11   -1    0    0    0    0 -0.00000000000E+00 -0.00000000000E+00 -0.45593999997E+02  0.45594000000E+02  0.51100000000E-03 0.  1.
    9900012    2    1    2    0    0 -0.15555543499E+02 -0.15296216920E+01 -0.10313386205E+02  0.72461531805E+02  0.69999949860E+02 0.  0.
         12    1    1    2    0    0  0.15555543499E+02  0.15296216920E+01  0.10313386205E+02  0.18726468195E+02  0.00000000000E+00 0. -1.
         11    1    3    3    0    0  0.75293291955E+01  0.43759911557E+01  0.19854165720E+02  0.21680128999E+02  0.51100000000E-03 0. -1.
        -11    1    3    3    0    0 -0.94034253316E+01 -0.67996212313E+01  0.52990465927E+01  0.12756925645E+02  0.51100000000E-03 0.  1.
        -12    1    3    3    0    0 -0.13681447362E+02  0.89400838362E+00 -0.35466598518E+02  0.38024477160E+02  0.00000000000E+00 0.  1.
</event>
<event>
 7    1  0.3189267E-013  0.7246160E+02  0.7816164E-02  0.1226708E+00
        -11   -1    0    0    0    0  0.00000000000E+00  0.00000000000E+00  0.45593999997E+02  0.45594000000E+02  0.51100000000E-03 0.  1.
         11   -1    0    0    0    0 -0.00000000000E+00 -0.00000000000E+00 -0.45593999997E+02  0.45594000000E+02  0.51100000000E-03 0. -1.
    9900012    2    1    2    0    0  0.15634431708E+02 -0.87796862497E+01 -0.53999683166E+01  0.72461601433E+02  0.70000040564E+02 0.  0.
         12    1    1    2    0    0 -0.15634431708E+02  0.87796862497E+01  0.53999683166E+01  0.18726398567E+02  0.00000000000E+00 0. -1.
         11    1    3    3    0    0  0.14637231146E+02 -0.12099292097E+02  0.29828052492E+01  0.19223385037E+02  0.51100000000E-03 0. -1.
        -11    1    3    3    0    0 -0.98556532808E+01 -0.15533246916E+02 -0.21137195542E+02  0.28021361441E+02  0.51100000000E-03 0.  1.
         12    1    3    3    0    0  0.10852853843E+02  0.18852852764E+02  0.12754421976E+02  0.25216854955E+02  0.00000000000E+00 0. -1.
</event>
<event>
 7    1  0.3189267E-013  0.7246152E+02  0.7816164E-02  0.1226708E+00
        -11   -1    0    0    0    0  0.00000000000E+00  0.00000000000E+00  0.45593999997E+02  0.45594000000E+02  0.51100000000E-03 0.  1.
         11   -1    0    0    0    0 -0.00000000000E+00 -0.00000000000E+00 -0.45593999997E+02  0.45594000000E+02  0.51100000000E-03 0. -1.
    9900012    2    1    2    0    0 -0.95540353249E+01 -0.38516766848E+01  0.15638601682E+02  0.72461524976E+02  0.69999940964E+02 0.  0.
         12    1    1    2    0    0  0.95540353249E+01  0.38516766848E+01 -0.15638601682E+02  0.18726475024E+02  0.00000000000E+00 0. -1.
         11    1    3    3    0    0 -0.58672370384E+01  0.19103298933E+01 -0.12232090830E+02  0.13700287483E+02  0.51100000000E-03 0. -1.
        -11    1    3    3    0    0 -0.27450188801E+02 -0.49652202843E+01  0.16438813773E+02  0.32379019075E+02  0.51100000000E-03 0.  1.
         12    1    3    3    0    0  0.23763390515E+02 -0.79678629385E+00  0.11431878739E+02  0.26382218418E+02  0.00000000000E+00 0. -1.
</event>
<event>
 7    1  0.3189267E-013  0.7246161E+02  0.7816164E-02  0.1226708E+00
        -11   -1    0    0    0    0  0.00000000000E+00  0.00000000000E+00  0.45593999997E+02  0.45594000000E+02  0.51100000000E-03 0.  1.
         11   -1    0    0    0    0 -0.00000000000E+00 -0.00000000000E+00 -0.45593999997E+02  0.45594000000E+02  0.51100000000E-03 0. -1.
    9900012    2    1    2    0    0 -0.40137374692E+01 -0.84842691044E+01  0.16204469054E+02  0.72461608782E+02  0.70000050138E+02 0.  0.
         12    1    1    2    0    0  0.40137374692E+01  0.84842691044E+01 -0.16204469054E+02  0.18726391218E+02  0.00000000000E+00 0. -1.
         11    1    3    3    0    0 -0.63196931498E+01 -0.24677243999E+01  0.10504159076E+02  0.12504620881E+02  0.51100000000E-03 0. -1.
        -11    1    3    3    0    0  0.44857817393E+01 -0.27412981788E+02  0.19913124669E+02  0.34177863343E+02  0.51100000000E-03 0.  1.
         12    1    3    3    0    0 -0.21798260587E+01  0.21396437084E+02 -0.14212814691E+02  0.25779124558E+02  0.00000000000E+00 0. -1.
</event>
<event>
 7    1  0.3189267E-013  0.7246127E+02  0.7816164E-02  0.1226709E+00
        -11   -1    0    0    0    0  0.00000000000E+00  0.00000000000E+00  0.45593999997E+02  0.45594000000E+02  0.51100000000E-03 0. -1.
         11   -1    0    0    0    0 -0.00000000000E+00 -0.00000000000E+00 -0.45593999997E+02  0.45594000000E+02  0.51100000000E-03 0.  1.
    9900012    2    1    2    0    0  0.18537074738E+02 -0.16371596248E+00 -0.26533944701E+01  0.72461269240E+02  0.69999607819E+02 0.  0.
         12    1    1    2    0    0 -0.18537074738E+02  0.16371596248E+00  0.26533944701E+01  0.18726730760E+02  0.00000000000E+00 0. -1.
         11    1    3    3    0    0  0.29069082844E+02 -0.12573457713E+00  0.10418597484E+02  0.30880002597E+02  0.51100000000E-03 0. -1.
        -11    1    3    3    0    0  0.79966845211E+01  0.13344462243E+02 -0.10062910067E+02  0.18527919343E+02  0.51100000000E-03 0.  1.
        -12    1    3    3    0    0 -0.18528692627E+02 -0.13382443629E+02 -0.30090818872E+01  0.23053347301E+02  0.00000000000E+00 0.  1.
</event>
<event>
 7    1  0.3189267E-013  0.7246152E+02  0.7816164E-02  0.1226708E+00
        -11   -1    0    0    0    0  0.00000000000E+00  0.00000000000E+00  0.45593999997E+02  0.45594000000E+02  0.51100000000E-03 0. -1.
         11   -1    0    0    0    0 -0.00000000000E+00 -0.00000000000E+00 -0.45593999997E+02  0.45594000000E+02  0.51100000000E-03 0.  1.
    9900012    2    1    2    0    0 -0.11772340039E+02 -0.10946057755E+02  0.96060863850E+01  0.72461519658E+02  0.69999934037E+02 0.  0.
         12    1    1    2    0    0  0.11772340039E+02  0.10946057755E+02 -0.96060863850E+01  0.18726480342E+02  0.00000000000E+00 0. -1.
         11    1    3    3    0    0 -0.21549565447E+02 -0.12926562266E+01 -0.51908093714E+01  0.22203586046E+02  0.51100000000E-03 0.  1.
        -11    1    3    3    0    0  0.16282431613E+02 -0.20763246535E+02 -0.47913620920E+01  0.26817664643E+02  0.51100000000E-03 0. -1.
         12    1    3    3    0    0 -0.65052062042E+01  0.11109845007E+02  0.19588257848E+02  0.23440268970E+02  0.00000000000E+00 0. -1.
</event>
<event>
 7    1  0.3189267E-013  0.7246155E+02  0.7816164E-02  0.1226708E+00
        -11   -1    0    0    0    0  0.00000000000E+00  0.00000000000E+00  0.45593999997E+02  0.45594000000E+02  0.51100000000E-03 0.  1.
         11   -1    0    0    0    0 -0.00000000000E+00 -0.00000000000E+00 -0.45593999997E+02  0.45594000000E+02  0.51100000000E-03 0. -1.
    9900012    2    1    2    0    0  0.90250595451E+01 -0.15679027314E+02  0.48369639738E+01  0.72461552986E+02  0.69999977452E+02 0.  0.
         12    1    1    2    0    0 -0.90250595451E+01  0.15679027314E+02 -0.48369639738E+01  0.18726447014E+02  0.00000000000E+00 0. -1.
         11    1    3    3    0    0 -0.39128213617E+01 -0.27703484197E+02  0.27021558309E+02  0.38896758494E+02  0.51100000000E-03 0. -1.
        -11    1    3    3    0    0 -0.23861202799E+01  0.26835102270E+01  0.14636773582E+01  0.38777762698E+01  0.51100000000E-03 0.  1.
        -12    1    3    3    0    0  0.15324001187E+02  0.93409466559E+01 -0.23648271693E+02  0.29687018222E+02  0.00000000000E+00 0.  1.
</event>
<event>
 7    1  0.3189267E-013  0.7246159E+02  0.7816164E-02  0.1226708E+00
        -11   -1    0    0    0    0  0.00000000000E+00  0.00000000000E+00  0.45593999997E+02  0.45594000000E+02  0.51100000000E-03 0.  1.
         11   -1    0    0    0    0 -0.00000000000E+00 -0.00000000000E+00 -0.45593999997E+02  0.45594000000E+02  0.51100000000E-03 0. -1.
    9900012    2    1    2    0    0 -0.16976546048E+02  0.29762093134E+01  0.73223993085E+01  0.72461588992E+02  0.70000024357E+02 0.  0.
         12    1    1    2    0    0  0.16976546048E+02 -0.29762093134E+01 -0.73223993085E+01  0.18726411008E+02  0.00000000000E+00 0. -1.
         11    1    3    3    0    0 -0.19344818074E+02  0.86544313387E+01 -0.49095604361E+00  0.21198165161E+02  0.51100000000E-03 0. -1.
        -11    1    3    3    0    0 -0.26285004501E+01  0.21226823832E+02  0.10386817012E+02  0.23777574151E+02  0.51100000000E-03 0.  1.
         12    1    3    3    0    0  0.49967724755E+01 -0.26905045857E+02 -0.25734616600E+01  0.27485849680E+02  0.00000000000E+00 0. -1.
</event>
<event>
 7    1  0.3189267E-013  0.7246154E+02  0.7816164E-02  0.1226708E+00
        -11   -1    0    0    0    0  0.00000000000E+00  0.00000000000E+00  0.45593999997E+02  0.45594000000E+02  0.51100000000E-03 0. -1.
         11   -1    0    0    0    0 -0.00000000000E+00 -0.00000000000E+00 -0.45593999997E+02  0.45594000000E+02  0.51100000000E-03 0.  1.
    9900012    2    1    2    0    0 -0.44244796115E+01  0.13580989203E+01 -0.18145519853E+02  0.72461538956E+02  0.69999959176E+02 0.  0.
         12    1    1    2    0    0  0.44244796115E+01 -0.13580989203E+01  0.18145519853E+02  0.18726461044E+02  0.00000000000E+00 0. -1.
         11    1    3    3    0    0  0.96118667929E+01  0.11814410996E+02  0.87765686485E+01  0.17578294796E+02  0.51100000000E-03 0. -1.
        -11    1    3    3    0    0  0.13159436087E+02  0.11476157979E+01 -0.20874988826E+02  0.24703298138E+02  0.51100000000E-03 0.  1.
        -12    1    3    3    0    0 -0.27195782491E+02 -0.11603927873E+02 -0.60470996751E+01  0.30179946022E+02  0.00000000000E+00 0.  1.
</event>
<event>
 7    1  0.3189267E-013  0.7246155E+02  0.7816164E-02  0.1226708E+00
        -11   -1    0    0    0    0  0.00000000000E+00  0.00000000000E+00  0.45593999997E+02  0.45594000000E+02  0.51100000000E-03 0.  1.
         11   -1    0    0    0    0 -0.00000000000E+00 -0.00000000000E+00 -0.45593999997E+02  0.45594000000E+02  0.51100000000E-03 0. -1.
    9900012    2    1    2    0    0  0.43516459583E+01  0.13731391411E+02  0.11966279395E+02  0.72461554123E+02  0.69999978934E+02 0.  0.
         12    1    1    2    0    0 -0.43516459583E+01 -0.13731391411E+02 -0.11966279395E+02  0.18726445877E+02  0.00000000000E+00 0. -1.
         11    1    3    3    0    0 -0.73472767034E+01  0.40451047257E+01 -0.13479667843E+02  0.15875981627E+02  0.51100000000E-03 0. -1.
        -11    1    3    3    0    0 -0.83473644577E+01  0.22709762168E+02  0.21478357833E+02  0.32353232398E+02  0.51100000000E-03 0.  1.
         12    1    3    3    0    0  0.20046287119E+02 -0.13023475483E+02  0.39675894052E+01  0.24232340098E+02  0.00000000000E+00 0. -1.
</event>
<event>
 7    1  0.3189267E-013  0.7246155E+02  0.7816164E-02  0.1226708E+00
        -11   -1    0    0    0    0  0.00000000000E+00  0.00000000000E+00  0.45593999997E+02  0.45594000000E+02  0.51100000000E-03 0.  1.
         11   -1    0    0    0    0 -0.00000000000E+00 -0.00000000000E+00 -0.45593999997E+02  0.45594000000E+02  0.51100000000E-03 0. -1.
    9900012    2    1    2    0    0 -0.14335451308E+02 -0.11559470059E+02  0.33990053616E+01  0.72461554803E+02  0.69999979820E+02 0.  0.
         12    1    1    2    0    0  0.14335451308E+02  0.11559470059E+02 -0.33990053616E+01  0.18726445197E+02  0.00000000000E+00 0. -1.
         11    1    3    3    0    0  0.16911878412E+02 -0.91446516684E+00 -0.12124870411E+02  0.20829314936E+02  0.51100000000E-03 0. -1.
        -11    1    3    3    0    0 -0.23008122064E+02 -0.25130578924E+01 -0.87464237080E+01  0.24742454786E+02  0.51100000000E-03 0.  1.
        -12    1    3    3    0    0 -0.82392076560E+01 -0.81319469998E+01  0.24270299481E+02  0.26889785081E+02  0.00000000000E+00 0.  1.
</event>
<event>
 7    1  0.3189267E-013  0.7246153E+02  0.7816164E-02  0.1226708E+00
        -11   -1    0    0    0    0  0.00000000000E+00  0.00000000000E+00  0.45593999997E+02  0.45594000000E+02  0.51100000000E-03 0.  1.
         11   -1    0    0    0    0 -0.00000000000E+00 -0.00000000000E+00 -0.45593999997E+02  0.45594000000E+02  0.51100000000E-03 0. -1.
    9900012    2    1    2    0    0 -0.18206702151E+02  0.16453883399E+01 -0.40606945497E+01  0.72461533536E+02  0.69999952115E+02 0.  0.
         12    1    1    2    0    0  0.18206702151E+02 -0.16453883399E+01  0.40606945497E+01  0.18726466464E+02  0.00000000000E+00 0. -1.
         11    1    3    3    0    0  0.44617203715E+01 -0.88152717228E+01  0.25096454285E+02  0.26971243616E+02  0.51100000000E-03 0. -1.
        -11    1    3    3    0    0  0.23447863787E+01 -0.43818018984E+01 -0.11255065342E+01  0.50955839958E+01  0.51100000000E-03 0.  1.
         12    1    3    3    0    0 -0.25013208902E+02  0.14842461961E+02 -0.28031642301E+02  0.40394705924E+02  0.00000000000E+00 0. -1.
</event>
<event>
 7    1  0.3189267E-013  0.7246160E+02  0.7816164E-02  0.1226708E+00
        -11   -1    0    0    0    0  0.00000000000E+00  0.00000000000E+00  0.45593999997E+02  0.45594000000E+02  0.51100000000E-03 0.  1.
         11   -1    0    0    0    0 -0.00000000000E+00 -0.00000000000E+00 -0.45593999997E+02  0.45594000000E+02  0.51100000000E-03 0. -1.
    9900012    2    1    2    0    0 -0.12424058413E+02  0.97634145163E+00  0.13977399386E+02  0.72461597151E+02  0.70000034986E+02 0.  0.
         12    1    1    2    0    0  0.12424058413E+02 -0.97634145163E+00 -0.13977399386E+02  0.18726402849E+02  0.00000000000E+00 0. -1.
         11    1    3    3    0    0 -0.90403931833E-01 -0.27676649578E+02  0.13857058876E+02  0.30951949627E+02  0.51100000000E-03 0. -1.
        -11    1    3    3    0    0 -0.18814864671E+00 -0.27828810400E+01  0.66239863860E+01  0.71872820106E+01  0.51100000000E-03 0.  1.
        -12    1    3    3    0    0 -0.12145505834E+02  0.31435872070E+02 -0.65036458763E+01  0.34322365513E+02  0.00000000000E+00 0.  1.
</event>
<event>
 7    1  0.3189267E-013  0.7246177E+02  0.7816164E-02  0.1226707E+00
        -11   -1    0    0    0    0  0.00000000000E+00  0.00000000000E+00  0.45593999997E+02  0.45594000000E+02  0.51100000000E-03 0.  1.
         11   -1    0    0    0    0 -0.00000000000E+00 -0.00000000000E+00 -0.45593999997E+02  0.45594000000E+02  0.51100000000E-03 0. -1.
    9900012    2    1    2    0    0  0.13530460100E+02 -0.41724049537E+01 -0.12255182458E+02  0.72461766778E+02  0.70000255956E+02 0.  0.
         12    1    1    2    0    0 -0.13530460100E+02  0.41724049537E+01  0.12255182458E+02  0.18726233222E+02  0.00000000000E+00 0. -1.
         11    1    3    3    0    0  0.10162572026E+02 -0.20890131959E+02 -0.28341355624E+02  0.36645708102E+02  0.51100000000E-03 0. -1.
        -11    1    3    3    0    0  0.55296753174E+01  0.13187010939E+02 -0.43643847924E+01  0.14950666256E+02  0.51100000000E-03 0.  1.
        -12    1    3    3    0    0 -0.21617872443E+01  0.35307160659E+01  0.20450557958E+02  0.20865392419E+02  0.00000000000E+00 0.  1.
</event>
<event>
 7    1  0.3189267E-013  0.7246152E+02  0.7816164E-02  0.1226708E+00
        -11   -1    0    0    0    0  0.00000000000E+00  0.00000000000E+00  0.45593999997E+02  0.45594000000E+02  0.51100000000E-03 0.  1.
         11   -1    0    0    0    0 -0.00000000000E+00 -0.00000000000E+00 -0.45593999997E+02  0.45594000000E+02  0.51100000000E-03 0. -1.
    9900012    2    1    2    0    0  0.63363267553E+01 -0.92566598120E+01  0.14994876809E+02  0.72461518266E+02  0.69999932223E+02 0.  0.
         12    1    1    2    0    0 -0.63363267553E+01  0.92566598120E+01 -0.14994876809E+02  0.18726481734E+02  0.00000000000E+00 0. -1.
         11    1    3    3    0    0 -0.12861048641E+01 -0.17999957395E+02 -0.24358141834E+02  0.30314544460E+02  0.51100000000E-03 0. -1.
        -11    1    3    3    0    0 -0.29770188101E+00 -0.66408567901E+00 -0.17643660576E+00  0.74884333208E+00  0.51100000000E-03 0.  1.
        -12    1    3    3    0    0  0.79201335004E+01  0.94073832623E+01  0.39529455248E+02  0.41398130474E+02  0.00000000000E+00 0.  1.
</event>
<event>
 7    1  0.3189267E-013  0.7246172E+02  0.7816164E-02  0.1226708E+00
        -11   -1    0    0    0    0  0.00000000000E+00  0.00000000000E+00  0.45593999997E+02  0.45594000000E+02  0.51100000000E-03 0.  1.
         11   -1    0    0    0    0 -0.00000000000E+00 -0.00000000000E+00 -0.45593999997E+02  0.45594000000E+02  0.51100000000E-03 0. -1.
    9900012    2    1    2    0    0  0.14766535549E+02  0.38882169951E+01  0.10839963517E+02  0.72461718667E+02  0.70000193283E+02 0.  0.
         12    1    1    2    0    0 -0.14766535549E+02 -0.38882169951E+01 -0.10839963517E+02  0.18726281333E+02  0.00000000000E+00 0. -1.
         11    1    3    3    0    0 -0.22955038793E+02  0.88839679140E+01 -0.74620457739E+00  0.24625505344E+02  0.51100000000E-03 0. -1.
        -11    1    3    3    0    0 -0.10598738466E+01 -0.28078849152E+01  0.83331276041E+01  0.88571195202E+01  0.51100000000E-03 0.  1.
        -12    1    3    3    0    0  0.38781448189E+02 -0.21878660037E+01  0.32530404903E+01  0.38979093803E+02  0.00000000000E+00 0.  1.
</event>
<event>
 7    1  0.3189267E-013  0.7246158E+02  0.7816164E-02  0.1226708E+00
        -11   -1    0    0    0    0  0.00000000000E+00  0.00000000000E+00  0.45593999997E+02  0.45594000000E+02  0.51100000000E-03 0. -1.
         11   -1    0    0    0    0 -0.00000000000E+00 -0.00000000000E+00 -0.45593999997E+02  0.45594000000E+02  0.51100000000E-03 0.  1.
    9900012    2    1    2    0    0  0.16265728796E+02 -0.90698628885E+01 -0.19602410790E+01  0.72461577727E+02  0.70000009682E+02 0.  0.
         12    1    1    2    0    0 -0.16265728796E+02  0.90698628885E+01  0.19602410790E+01  0.18726422273E+02  0.00000000000E+00 0. -1.
         11    1    3    3    0    0  0.26638364787E+02 -0.40655460240E+01  0.83974731017E+00  0.26959902055E+02  0.51100000000E-03 0. -1.
        -11    1    3    3    0    0 -0.90246879983E+01  0.13021830782E+02 -0.16458663316E+02  0.22845145410E+02  0.51100000000E-03 0.  1.
         12    1    3    3    0    0 -0.13479479931E+01 -0.18026147646E+02  0.13658674927E+02  0.22656530262E+02  0.00000000000E+00 0. -1.
</event>
<event>
 7    1  0.3189267E-013  0.7246156E+02  0.7816164E-02  0.1226708E+00
        -11   -1    0    0    0    0  0.00000000000E+00  0.00000000000E+00  0.45593999997E+02  0.45594000000E+02  0.51100000000E-03 0.  1.
         11   -1    0    0    0    0 -0.00000000000E+00 -0.00000000000E+00 -0.45593999997E+02  0.45594000000E+02  0.51100000000E-03 0. -1.
    9900012    2    1    2    0    0 -0.12504754628E+02 -0.12882794727E+02  0.53239367494E+01  0.72461559047E+02  0.69999985348E+02 0.  0.
         12    1    1    2    0    0  0.12504754628E+02  0.12882794727E+02 -0.53239367494E+01  0.18726440953E+02  0.00000000000E+00 0. -1.
         11    1    3    3    0    0  0.13987293864E+02 -0.98828747505E+01  0.22185407263E+01  0.17269554893E+02  0.51100000000E-03 0. -1.
        -11    1    3    3    0    0  0.78807143223E+01 -0.13937197960E+02  0.94141246616E+01  0.18573553473E+02  0.51100000000E-03 0.  1.
         12    1    3    3    0    0 -0.34372762814E+02  0.10937277984E+02 -0.63087286386E+01  0.36618450680E+02  0.00000000000E+00 0. -1.
</event>
<event>
 7    1  0.3189267E-013  0.7246158E+02  0.7816164E-02  0.1226708E+00
        -11   -1    0    0    0    0  0.00000000000E+00  0.00000000000E+00  0.45593999997E+02  0.45594000000E+02  0.51100000000E-03 0.  1.
         11   -1    0    0    0    0 -0.00000000000E+00 -0.00000000000E+00 -0.45593999997E+02  0.45594000000E+02  0.51100000000E-03 0. -1.
    9900012    2    1    2    0    0  0.17678594649E+02 -0.43848960769E+01 -0.43495751133E+01  0.72461579466E+02  0.70000011947E+02 0.  0.
         12    1    1    2    0    0 -0.17678594649E+02  0.43848960769E+01  0.43495751133E+01  0.18726420534E+02  0.00000000000E+00 0. -1.
         11    1    3    3    0    0  0.86486166870E+01  0.83796637228E+01 -0.18943265326E+02  0.22446929326E+02  0.51100000000E-03 0. -1.
        -11    1    3    3    0    0  0.14800009512E+02 -0.31521331632E+01 -0.13177741409E+02  0.20065619700E+02  0.51100000000E-03 0.  1.
        -12    1    3    3    0    0 -0.57700315503E+01 -0.96124266365E+01  0.27771431622E+02  0.29949030440E+02  0.00000000000E+00 0.  1.
</event>
<event>
 7    1  0.3189267E-013  0.7246154E+02  0.7816164E-02  0.1226708E+00
        -11   -1    0    0    0    0  0.00000000000E+00  0.00000000000E+00  0.45593999997E+02  0.45594000000E+02  0.51100000000E-03 0.  1.
         11   -1    0    0    0    0 -0.00000000000E+00 -0.00000000000E+00 -0.45593999997E+02  0.45594000000E+02  0.51100000000E-03 0. -1.
    9900012    2    1    2    0    0  0.28859058373E+00 -0.88543605664E+01  0.16498404957E+02  0.72461538730E+02  0.69999958882E+02 0.  0.
         12    1    1    2    0    0 -0.28859058373E+00  0.88543605664E+01 -0.16498404957E+02  0.18726461270E+02  0.00000000000E+00 0. -1.
         11    1    3    3    0    0 -0.30959086387E+01 -0.37212966416E+01  0.70326666779E+01  0.85376284680E+01  0.51100000000E-03 0. -1.
        -11    1    3    3    0    0 -0.13491360654E+02 -0.18213551833E+02  0.27738024258E+02  0.35821059066E+02  0.51100000000E-03 0.  1.
         12    1    3    3    0    0  0.16875859876E+02  0.13080487908E+02 -0.18272285979E+02  0.28102851196E+02  0.00000000000E+00 0. -1.
</event>
<event>
 7    1  0.3189267E-013  0.7246161E+02  0.7816164E-02  0.1226708E+00
        -11   -1    0    0    0    0  0.00000000000E+00  0.00000000000E+00  0.45593999997E+02  0.45594000000E+02  0.51100000000E-03 0.  1.
         11   -1    0    0    0    0 -0.00000000000E+00 -0.00000000000E+00 -0.45593999997E+02  0.45594000000E+02  0.51100000000E-03 0. -1.
    9900012    2    1    2    0    0 -0.44869200999E+01 -0.58491322174E+01  0.17214327377E+02  0.72461605080E+02  0.70000045315E+02 0.  0.
         12    1    1    2    0    0  0.44869200999E+01  0.58491322174E+01 -0.17214327377E+02  0.18726394920E+02  0.00000000000E+00 0. -1.
         11    1    3    3    0    0  0.71221123185E+01  0.94777533909E+01 -0.19445789757E+02  0.22774789411E+02  0.51100000000E-03 0. -1.
        -11    1    3    3    0    0 -0.60123926693E+01 -0.37396920203E+01 -0.32227187108E+01  0.77794651594E+01  0.51100000000E-03 0.  1.
        -12    1    3    3    0    0 -0.55966397490E+01 -0.11587193588E+02  0.39882835844E+02  0.41907350509E+02  0.00000000000E+00 0.  1.
</event>
<event>
 7    1  0.3189267E-013  0.7246156E+02  0.7816164E-02  0.1226708E+00
        -11   -1    0    0    0    0  0.00000000000E+00  0.00000000000E+00  0.45593999997E+02  0.45594000000E+02  0.51100000000E-03 0.  1.
         11   -1    0    0    0    0 -0.00000000000E+00 -0.00000000000E+00 -0.45593999997E+02  0.45594000000E+02  0.51100000000E-03 0. -1.
    9900012    2    1    2    0    0  0.68984756594E+01 -0.15327807313E+02  0.82552283380E+01  0.72461563116E+02  0.69999990649E+02 0.  0.
         12    1    1    2    0    0 -0.68984756594E+01  0.15327807313E+02 -0.82552283380E+01  0.18726436884E+02  0.00000000000E+00 0. -1.
         11    1    3    3    0    0 -0.20005336585E+01  0.78010687687E+01 -0.15799503330E+02  0.17733671774E+02  0.51100000000E-03 0. -1.
        -11    1    3    3    0    0 -0.96354049615E+01  0.13995576756E+00  0.23026749138E+02  0.24961806676E+02  0.51100000000E-03 0.  1.
        -12    1    3    3    0    0  0.18534414279E+02 -0.23268831849E+02  0.10279825301E+01  0.29766084667E+02  0.00000000000E+00 0.  1.
</event>
<event>
 7    1  0.3189267E-013  0.7246157E+02  0.7816164E-02  0.1226708E+00
        -11   -1    0    0    0    0  0.00000000000E+00  0.00000000000E+00  0.45593999997E+02  0.45594000000E+02  0.51100000000E-03 0.  1.
         11   -1    0    0    0    0 -0.00000000000E+00 -0.00000000000E+00 -0.45593999997E+02  0.45594000000E+02  0.51100000000E-03 0. -1.
    9900012    2    1    2    0    0 -0.17545809765E+02 -0.47952498538E+01 -0.44530092867E+01  0.72461570730E+02  0.70000000568E+02 0.  0.
         12    1    1    2    0    0  0.17545809765E+02  0.47952498538E+01  0.44530092867E+01  0.18726429270E+02  0.00000000000E+00 0. -1.
         11    1    3    3    0    0  0.24093742850E+01 -0.58262136102E+01  0.13166717832E+02  0.14598366628E+02  0.51100000000E-03 0. -1.
        -11    1    3    3    0    0 -0.36866056017E+01 -0.17693404254E+01  0.18077283513E+02  0.18534017532E+02  0.51100000000E-03 0.  1.
         12    1    3    3    0    0 -0.16268578449E+02  0.28003041818E+01 -0.35697010632E+02  0.39329186570E+02  0.00000000000E+00 0. -1.
</event>
<event>
 7    1  0.3189267E-013  0.7246153E+02  0.7816164E-02  0.1226708E+00
        -11   -1    0    0    0    0  0.00000000000E+00  0.00000000000E+00  0.45593999997E+02  0.45594000000E+02  0.51100000000E-03 0.  1.
         11   -1    0    0    0    0 -0.00000000000E+00 -0.00000000000E+00 -0.45593999997E+02  0.45594000000E+02  0.51100000000E-03 0. -1.
    9900012    2    1    2    0    0  0.18352661283E+02 -0.13100370402E+01  0.34848720716E+01  0.72461529255E+02  0.69999946539E+02 0.  0.
         12    1    1    2    0    0 -0.18352661283E+02  0.13100370402E+01 -0.34848720716E+01  0.18726470745E+02  0.00000000000E+00 0. -1.
         11    1    3    3    0    0  0.27517639341E+02 -0.26314857966E+02 -0.27553687653E+01  0.38174393013E+02  0.51100000000E-03 0. -1.
        -11    1    3    3    0    0  0.63050612632E+01  0.49148330977E+01 -0.62320317160E+00  0.80185886766E+01  0.51100000000E-03 0.  1.
        -12    1    3    3    0    0 -0.15470039322E+02  0.20089987828E+02  0.68634440084E+01  0.26268547565E+02  0.00000000000E+00 0.  1.
</event>
<event>
 7    1  0.3189267E-013  0.7246152E+02  0.7816164E-02  0.1226708E+00
        -11   -1    0    0    0    0  0.00000000000E+00  0.00000000000E+00  0.45593999997E+02  0.45594000000E+02  0.51100000000E-03 0.  1.
         11   -1    0    0    0    0 -0.00000000000E+00 -0.00000000000E+00 -0.45593999997E+02  0.45594000000E+02  0.51100000000E-03 0. -1.
    9900012    2    1    2    0    0 -0.15319324355E+02  0.10478835936E+02  0.24886788951E+01  0.72461515442E+02  0.69999928544E+02 0.  0.
         12    1    1    2    0    0  0.15319324355E+02 -0.10478835936E+02 -0.24886788951E+01  0.18726484558E+02  0.00000000000E+00 0. -1.
         11    1    3    3    0    0  0.21361160347E+02  0.24389876293E+01  0.15651994591E+02  0.26593848291E+02  0.51100000000E-03 0. -1.
        -11    1    3    3    0    0 -0.10390890358E+01  0.53056070954E+01 -0.81378075368E+01  0.97700094392E+01  0.51100000000E-03 0.  1.
        -12    1    3    3    0    0 -0.35641395666E+02  0.27342412111E+01 -0.50255081589E+01  0.36097657711E+02  0.00000000000E+00 0.  1.
</event>
<event>
 7    1  0.3189267E-013  0.7246152E+02  0.7816164E-02  0.1226708E+00
        -11   -1    0    0    0    0  0.00000000000E+00  0.00000000000E+00  0.45593999997E+02  0.45594000000E+02  0.51100000000E-03 0. -1.
         11   -1    0    0    0    0 -0.00000000000E+00 -0.00000000000E+00 -0.45593999997E+02  0.45594000000E+02  0.51100000000E-03 0.  1.
    9900012    2    1    2    0    0 -0.13214776599E+02  0.12550328425E+02  0.43058070177E+01  0.72461520399E+02  0.69999935002E+02 0.  0.
         12    1    1    2    0    0  0.13214776599E+02 -0.12550328425E+02 -0.43058070177E+01  0.18726479601E+02  0.00000000000E+00 0. -1.
         11    1    3    3    0    0 -0.14399769124E+01  0.60061635238E+00 -0.10320791445E+02  0.10438055845E+02  0.51100000000E-03 0. -1.
        -11    1    3    3    0    0  0.51298292376E+00 -0.12382455651E+01 -0.21557019155E+02  0.21598645297E+02  0.51100000000E-03 0.  1.
         12    1    3    3    0    0 -0.12287782611E+02  0.13187957638E+02  0.36183617617E+02  0.40424819258E+02  0.00000000000E+00 0. -1.
</event>
<event>
 7    1  0.3189267E-013  0.7246097E+02  0.7816164E-02  0.1226710E+00
        -11   -1    0    0    0    0  0.00000000000E+00  0.00000000000E+00  0.45593999997E+02  0.45594000000E+02  0.51100000000E-03 0.  1.
         11   -1    0    0    0    0 -0.00000000000E+00 -0.00000000000E+00 -0.45593999997E+02  0.45594000000E+02  0.51100000000E-03 0. -1.
    9900012    2    1    2    0    0  0.22150967363E+01  0.74949815625E+00  0.18580453419E+02  0.72460970062E+02  0.69999218081E+02 0.  0.
         12    1    1    2    0    0 -0.22150967363E+01 -0.74949815625E+00 -0.18580453419E+02  0.18727029938E+02  0.00000000000E+00 0. -1.
         11    1    3    3    0    0 -0.14087954239E+02  0.51254061315E+01  0.15092938679E+02  0.21272918015E+02  0.51100000000E-03 0. -1.
        -11    1    3    3    0    0 -0.26163627605E+01  0.15919483229E+02  0.14154430189E+02  0.21462133971E+02  0.51100000000E-03 0.  1.
         12    1    3    3    0    0  0.18919413736E+02 -0.20295391204E+02 -0.10666915448E+02  0.29725918075E+02  0.00000000000E+00 0. -1.
</event>
<event>
 7    1  0.3189267E-013  0.7246160E+02  0.7816164E-02  0.1226708E+00
        -11   -1    0    0    0    0  0.00000000000E+00  0.00000000000E+00  0.45593999997E+02  0.45594000000E+02  0.51100000000E-03 0. -1.
         11   -1    0    0    0    0 -0.00000000000E+00 -0.00000000000E+00 -0.45593999997E+02  0.45594000000E+02  0.51100000000E-03 0.  1.
    9900012    2    1    2    0    0  0.13345444989E+02 -0.19043813854E-01 -0.13136848627E+02  0.72461600013E+02  0.70000038714E+02 0.  0.
         12    1    1    2    0    0 -0.13345444989E+02  0.19043813854E-01  0.13136848627E+02  0.18726399987E+02  0.00000000000E+00 0. -1.
         11    1    3    3    0    0  0.24691317637E+02  0.20483502142E+02  0.14357319566E+02  0.35147797257E+02  0.51100000000E-03 0. -1.
        -11    1    3    3    0    0 -0.61126039548E+01 -0.80004185587E+01 -0.54826607764E+01  0.11464300837E+02  0.51100000000E-03 0.  1.
        -12    1    3    3    0    0 -0.52332686928E+01 -0.12502127397E+02 -0.22011507417E+02  0.25849501919E+02  0.00000000000E+00 0.  1.
</event>
<event>
 7    1  0.3189267E-013  0.7246155E+02  0.7816164E-02  0.1226708E+00
        -11   -1    0    0    0    0  0.00000000000E+00  0.00000000000E+00  0.45593999997E+02  0.45594000000E+02  0.51100000000E-03 0. -1.
         11   -1    0    0    0    0 -0.00000000000E+00 -0.00000000000E+00 -0.45593999997E+02  0.45594000000E+02  0.51100000000E-03 0.  1.
    9900012    2    1    2    0    0  0.10748722872E+02 -0.22838337753E+01 -0.15163405692E+02  0.72461553132E+02  0.69999977643E+02 0.  0.
         12    1    1    2    0    0 -0.10748722872E+02  0.22838337753E+01  0.15163405692E+02  0.18726446868E+02  0.00000000000E+00 0. -1.
         11    1    3    3    0    0 -0.53660962662E+01  0.72793690840E+00  0.13777782129E+02  0.14803788769E+02  0.51100000000E-03 0. -1.
        -11    1    3    3    0    0 -0.61326552228E+01  0.18090372219E+02 -0.12923794230E+02  0.23062859421E+02  0.51100000000E-03 0.  1.
        -12    1    3    3    0    0  0.22247474361E+02 -0.21102142903E+02 -0.16017393591E+02  0.34594904942E+02  0.00000000000E+00 0.  1.
</event>
<event>
 7    1  0.3189267E-013  0.7246156E+02  0.7816164E-02  0.1226708E+00
        -11   -1    0    0    0    0  0.00000000000E+00  0.00000000000E+00  0.45593999997E+02  0.45594000000E+02  0.51100000000E-03 0.  1.
         11   -1    0    0    0    0 -0.00000000000E+00 -0.00000000000E+00 -0.45593999997E+02  0.45594000000E+02  0.51100000000E-03 0. -1.
    9900012    2    1    2    0    0  0.26896458319E+01 -0.11685452622E+02  0.14383865947E+02  0.72461558874E+02  0.69999985122E+02 0.  0.
         12    1    1    2    0    0 -0.26896458319E+01  0.11685452622E+02 -0.14383865947E+02  0.18726441126E+02  0.00000000000E+00 0. -1.
         11    1    3    3    0    0 -0.15270036120E+02  0.49438761899E+01 -0.99551754755E+01  0.18887070548E+02  0.51100000000E-03 0. -1.
        -11    1    3    3    0    0 -0.10389979591E+02  0.29187631373E+01 -0.97390752174E+00  0.10836020961E+02  0.51100000000E-03 0.  1.
        -12    1    3    3    0    0  0.28349661542E+02 -0.19548091949E+02  0.25312948945E+02  0.42738467364E+02  0.00000000000E+00 0.  1.
</event>
<event>
 7    1  0.3189267E-013  0.7246156E+02  0.7816164E-02  0.1226708E+00
        -11   -1    0    0    0    0  0.00000000000E+00  0.00000000000E+00  0.45593999997E+02  0.45594000000E+02  0.51100000000E-03 0.  1.
         11   -1    0    0    0    0 -0.00000000000E+00 -0.00000000000E+00 -0.45593999997E+02  0.45594000000E+02  0.51100000000E-03 0. -1.
    9900012    2    1    2    0    0 -0.17733513159E+02  0.25965781273E+01 -0.54277046293E+01  0.72461556545E+02  0.69999982089E+02 0.  0.
         12    1    1    2    0    0  0.17733513159E+02 -0.25965781273E+01  0.54277046293E+01  0.18726443455E+02  0.00000000000E+00 0. -1.
         11    1    3    3    0    0 -0.68167384337E+01  0.31588007743E+01 -0.90465094098E+01  0.11759476092E+02  0.51100000000E-03 0. -1.
        -11    1    3    3    0    0 -0.22748971342E+02  0.22714486066E+02  0.10285835718E+02  0.33752955294E+02  0.51100000000E-03 0.  1.
         12    1    3    3    0    0  0.11832196617E+02 -0.23276708714E+02 -0.66670309372E+01  0.26949125159E+02  0.00000000000E+00 0. -1.
</event>
<event>
 7    1  0.3189267E-013  0.7246158E+02  0.7816164E-02  0.1226708E+00
        -11   -1    0    0    0    0  0.00000000000E+00  0.00000000000E+00  0.45593999997E+02  0.45594000000E+02  0.51100000000E-03 0.  1.
         11   -1    0    0    0    0 -0.00000000000E+00 -0.00000000000E+00 -0.45593999997E+02  0.45594000000E+02  0.51100000000E-03 0. -1.
    9900012    2    1    2    0    0  0.22536870943E+01  0.14441772101E+01  0.18534132726E+02  0.72461579380E+02  0.70000011836E+02 0.  0.
         12    1    1    2    0    0 -0.22536870943E+01 -0.14441772101E+01 -0.18534132726E+02  0.18726420620E+02  0.00000000000E+00 0. -1.
         11    1    3    3    0    0 -0.14368600231E+02  0.12759544408E+02 -0.28994775602E+01  0.19433723691E+02  0.51100000000E-03 0. -1.
        -11    1    3    3    0    0  0.26793794523E+01  0.30146538481E+01 -0.12779557831E+02  0.13400907084E+02  0.51100000000E-03 0.  1.
        -12    1    3    3    0    0  0.13942907873E+02 -0.14330021046E+02  0.34213168117E+02  0.39626948605E+02  0.00000000000E+00 0.  1.
</event>
<event>
 7    1  0.3189267E-013  0.7246160E+02  0.7816164E-02  0.1226708E+00
        -11   -1    0    0    0    0  0.00000000000E+00  0.00000000000E+00  0.45593999997E+02  0.45594000000E+02  0.51100000000E-03 0. -1.
         11   -1    0    0    0    0 -0.00000000000E+00 -0.00000000000E+00 -0.45593999997E+02  0.45594000000E+02  0.51100000000E-03 0.  1.
    9900012    2    1    2    0    0  0.88873440588E+01  0.11182353420E+02 -0.12109830394E+02  0.72461604068E+02  0.70000043996E+02 0.  0.
         12    1    1    2    0    0 -0.88873440588E+01 -0.11182353420E+02  0.12109830394E+02  0.18726395932E+02  0.00000000000E+00 0. -1.
         11    1    3    3    0    0  0.14887030488E+02 -0.21518802661E+02 -0.20631986805E+02  0.33322086137E+02  0.51100000000E-03 0. -1.
        -11    1    3    3    0    0  0.20795005743E+01 -0.16334086878E+01 -0.58976226836E+00  0.27092741416E+01  0.51100000000E-03 0.  1.
        -12    1    3    3    0    0 -0.80791870040E+01  0.34334564769E+02  0.91119186796E+01  0.36430243789E+02  0.00000000000E+00 0.  1.
</event>
<event>
 7    1  0.3189267E-013  0.7246156E+02  0.7816164E-02  0.1226708E+00
        -11   -1    0    0    0    0  0.00000000000E+00  0.00000000000E+00  0.45593999997E+02  0.45594000000E+02  0.51100000000E-03 0.  1.
         11   -1    0    0    0    0 -0.00000000000E+00 -0.00000000000E+00 -0.45593999997E+02  0.45594000000E+02  0.51100000000E-03 0. -1.
    9900012    2    1    2    0    0  0.12386773238E+02  0.12539280331E+02 -0.63256511514E+01  0.72461559737E+02  0.69999986247E+02 0.  0.
         12    1    1    2    0    0 -0.12386773238E+02 -0.12539280331E+02  0.63256511514E+01  0.18726440263E+02  0.00000000000E+00 0. -1.
         11    1    3    3    0    0  0.58766147488E+01  0.70289881623E+01 -0.97587485681E+01  0.13385606052E+02  0.51100000000E-03 0. -1.
        -11    1    3    3    0    0  0.10053054257E+02  0.26062838494E+02  0.18360870990E+02  0.33428386651E+02  0.51100000000E-03 0.  1.
         12    1    3    3    0    0 -0.35428957685E+01 -0.20552546326E+02 -0.14927773574E+02  0.25647567034E+02  0.00000000000E+00 0. -1.
</event>
<event>
 7    1  0.3189267E-013  0.7246158E+02  0.7816164E-02  0.1226708E+00
        -11   -1    0    0    0    0  0.00000000000E+00  0.00000000000E+00  0.45593999997E+02  0.45594000000E+02  0.51100000000E-03 0.  1.
         11   -1    0    0    0    0 -0.00000000000E+00 -0.00000000000E+00 -0.45593999997E+02  0.45594000000E+02  0.51100000000E-03 0. -1.
    9900012    2    1    2    0    0  0.29265879286E+01  0.17160888660E+02  0.69005681130E+01  0.72461578645E+02  0.70000010878E+02 0.  0.
         12    1    1    2    0    0 -0.29265879286E+01 -0.17160888660E+02 -0.69005681130E+01  0.18726421355E+02  0.00000000000E+00 0. -1.
         11    1    3    3    0    0 -0.19063746422E+02  0.45327647676E+01  0.62806662998E+01  0.20577151248E+02  0.51100000000E-03 0. -1.
        -11    1    3    3    0    0  0.20475162706E+02  0.13747069624E+02 -0.19646352344E+02  0.31530832082E+02  0.51100000000E-03 0.  1.
         12    1    3    3    0    0  0.15151716442E+01 -0.11189457319E+01  0.20266254157E+02  0.20353595315E+02  0.00000000000E+00 0. -1.
</event>
<event>
 7    1  0.3189267E-013  0.7246152E+02  0.7816164E-02  0.1226708E+00
        -11   -1    0    0    0    0  0.00000000000E+00  0.00000000000E+00  0.45593999997E+02  0.45594000000E+02  0.51100000000E-03 0.  1.
         11   -1    0    0    0    0 -0.00000000000E+00 -0.00000000000E+00 -0.45593999997E+02  0.45594000000E+02  0.51100000000E-03 0. -1.
    9900012    2    1    2    0    0 -0.40190296052E+01 -0.13868203529E+02  0.11924825996E+02  0.72461517599E+02  0.69999931354E+02 0.  0.
         12    1    1    2    0    0  0.40190296052E+01  0.13868203529E+02 -0.11924825996E+02  0.18726482401E+02  0.00000000000E+00 0. -1.
         11    1    3    3    0    0  0.16463302372E+02 -0.12965096272E+00 -0.74174740420E+01  0.18057576133E+02  0.51100000000E-03 0. -1.
        -11    1    3    3    0    0 -0.76225358495E+01 -0.20784989265E+02 -0.78669811507E+01  0.23494855271E+02  0.51100000000E-03 0.  1.
        -12    1    3    3    0    0 -0.12859796128E+02  0.70464366982E+01  0.27209281188E+02  0.30909086195E+02  0.00000000000E+00 0.  1.
</event>
<event>
 7    1  0.3189267E-013  0.7246150E+02  0.7816164E-02  0.1226708E+00
        -11   -1    0    0    0    0  0.00000000000E+00  0.00000000000E+00  0.45593999997E+02  0.45594000000E+02  0.51100000000E-03 0.  1.
         11   -1    0    0    0    0 -0.00000000000E+00 -0.00000000000E+00 -0.45593999997E+02  0.45594000000E+02  0.51100000000E-03 0. -1.
    9900012    2    1    2    0    0 -0.14945103082E+01  0.10404159710E-01  0.18666769144E+02  0.72461496333E+02  0.69999903652E+02 0.  0.
         12    1    1    2    0    0  0.14945103082E+01 -0.10404159710E-01 -0.18666769144E+02  0.18726503667E+02  0.00000000000E+00 0. -1.
         11    1    3    3    0    0 -0.19312853227E+02 -0.23847822671E+02  0.19716399529E+02  0.36475215648E+02  0.51100000000E-03 0. -1.
        -11    1    3    3    0    0  0.12069350374E+02  0.48600795820E+01 -0.76198530656E+01  0.15078187988E+02  0.51100000000E-03 0.  1.
        -12    1    3    3    0    0  0.57489925453E+01  0.18998147249E+02  0.65702226807E+01  0.20908092697E+02  0.00000000000E+00 0.  1.
</event>
<event>
 7    1  0.3189267E-013  0.7246120E+02  0.7816164E-02  0.1226709E+00
        -11   -1    0    0    0    0  0.00000000000E+00  0.00000000000E+00  0.45593999997E+02  0.45594000000E+02  0.51100000000E-03 0.  1.
         11   -1    0    0    0    0 -0.00000000000E+00 -0.00000000000E+00 -0.45593999997E+02  0.45594000000E+02  0.51100000000E-03 0. -1.
    9900012    2    1    2    0    0  0.82357635991E+01  0.15493020188E+02  0.65445744849E+01  0.72461202842E+02  0.69999521323E+02 0.  0.
         12    1    1    2    0    0 -0.82357635991E+01 -0.15493020188E+02 -0.65445744849E+01  0.18726797158E+02  0.00000000000E+00 0. -1.
         11    1    3    3    0    0  0.84336137913E+00 -0.71416416772E+01  0.19154227556E+02  0.20459685672E+02  0.51100000000E-03 0. -1.
        -11    1    3    3    0    0  0.23861824593E+02  0.63583841826E+01  0.17481243597E+01  0.24756244896E+02  0.51100000000E-03 0.  1.
         12    1    3    3    0    0 -0.16469422373E+02  0.16276277683E+02 -0.14357777431E+02  0.27245272274E+02  0.00000000000E+00 0. -1.
</event>
<event>
 7    1  0.3189267E-013  0.7246159E+02  0.7816164E-02  0.1226708E+00
        -11   -1    0    0    0    0  0.00000000000E+00  0.00000000000E+00  0.45593999997E+02  0.45594000000E+02  0.51100000000E-03 0.  1.
         11   -1    0    0    0    0 -0.00000000000E+00 -0.00000000000E+00 -0.45593999997E+02  0.45594000000E+02  0.51100000000E-03 0. -1.
    9900012    2    1    2    0    0  0.12684605114E+02 -0.23606463965E+01  0.13572277536E+02  0.72461586146E+02  0.70000020650E+02 0.  0.
         12    1    1    2    0    0 -0.12684605114E+02  0.23606463965E+01 -0.13572277536E+02  0.18726413854E+02  0.00000000000E+00 0. -1.
         11    1    3    3    0    0  0.40777036955E+01  0.83036835805E+01 -0.11725978222E+01  0.93249029135E+01  0.51100000000E-03 0. -1.
        -11    1    3    3    0    0  0.58901449865E+01  0.78913388615E+01  0.34511831833E+02  0.35889184635E+02  0.51100000000E-03 0.  1.
         12    1    3    3    0    0  0.27167564325E+01 -0.18555668839E+02 -0.19766956475E+02  0.27247498598E+02  0.00000000000E+00 0. -1.
</event>
<event>
 7    1  0.3189267E-013  0.7246192E+02  0.7816164E-02  0.1226707E+00
        -11   -1    0    0    0    0  0.00000000000E+00  0.00000000000E+00  0.45593999997E+02  0.45594000000E+02  0.51100000000E-03 0. -1.
         11   -1    0    0    0    0 -0.00000000000E+00 -0.00000000000E+00 -0.45593999997E+02  0.45594000000E+02  0.51100000000E-03 0.  1.
    9900012    2    1    2    0    0 -0.13263568763E+02  0.12183358231E+01 -0.13162803751E+02  0.72461921897E+02  0.70000458027E+02 0.  0.
         12    1    1    2    0    0  0.13263568763E+02 -0.12183358231E+01  0.13162803751E+02  0.18726078103E+02  0.00000000000E+00 0. -1.
         11    1    3    3    0    0  0.14498177024E+02  0.20205669662E+01 -0.69496382172E+01  0.16204237085E+02  0.51100000000E-03 0. -1.
        -11    1    3    3    0    0  0.79805601692E+00 -0.18244358649E+02 -0.12602803878E+02  0.22188379431E+02  0.51100000000E-03 0.  1.
         12    1    3    3    0    0 -0.28559801804E+02  0.17442127506E+02  0.63896383444E+01  0.34069305382E+02  0.00000000000E+00 0. -1.
</event>
<event>
 7    1  0.3189267E-013  0.7246159E+02  0.7816164E-02  0.1226708E+00
        -11   -1    0    0    0    0  0.00000000000E+00  0.00000000000E+00  0.45593999997E+02  0.45594000000E+02  0.51100000000E-03 0.  1.
         11   -1    0    0    0    0 -0.00000000000E+00 -0.00000000000E+00 -0.45593999997E+02  0.45594000000E+02  0.51100000000E-03 0. -1.
    9900012    2    1    2    0    0 -0.13042538960E+02  0.13427549499E+02 -0.52101099033E+00  0.72461591895E+02  0.70000028139E+02 0.  0.
         12    1    1    2    0    0  0.13042538960E+02 -0.13427549499E+02  0.52101099033E+00  0.18726408105E+02  0.00000000000E+00 0. -1.
         11    1    3    3    0    0 -0.16939920943E+02  0.73885687424E+01  0.35559512739E+01  0.18820113159E+02  0.51100000000E-03 0. -1.
        -11    1    3    3    0    0 -0.67879853781E+01  0.22501403959E+02  0.13663136028E+02  0.27185864194E+02  0.51100000000E-03 0.  1.
         12    1    3    3    0    0  0.10685367361E+02 -0.16462423202E+02 -0.17740098292E+02  0.26455614541E+02  0.00000000000E+00 0. -1.
</event>
<event>
 7    1  0.3189267E-013  0.7246153E+02  0.7816164E-02  0.1226708E+00
        -11   -1    0    0    0    0  0.00000000000E+00  0.00000000000E+00  0.45593999997E+02  0.45594000000E+02  0.51100000000E-03 0. -1.
         11   -1    0    0    0    0 -0.00000000000E+00 -0.00000000000E+00 -0.45593999997E+02  0.45594000000E+02  0.51100000000E-03 0.  1.
    9900012    2    1    2    0    0 -0.32324911568E+01  0.33156701672E+01 -0.18144921524E+02  0.72461525563E+02  0.69999941729E+02 0.  0.
         12    1    1    2    0    0  0.32324911568E+01 -0.33156701672E+01  0.18144921524E+02  0.18726474437E+02  0.00000000000E+00 0. -1.
         11    1    3    3    0    0  0.44857832776E+01  0.76456954163E+01 -0.33721158230E+01  0.94842013579E+01  0.51100000000E-03 0. -1.
        -11    1    3    3    0    0  0.73350204607E+01 -0.28077751488E+02  0.38180334751E+01  0.29270121859E+02  0.51100000000E-03 0.  1.
         12    1    3    3    0    0 -0.15053294895E+02  0.23747726239E+02 -0.18590839176E+02  0.33707202346E+02  0.00000000000E+00 0. -1.
</event>
<event>
 7    1  0.3189267E-013  0.7246165E+02  0.7816164E-02  0.1226708E+00
        -11   -1    0    0    0    0  0.00000000000E+00  0.00000000000E+00  0.45593999997E+02  0.45594000000E+02  0.51100000000E-03 0.  1.
         11   -1    0    0    0    0 -0.00000000000E+00 -0.00000000000E+00 -0.45593999997E+02  0.45594000000E+02  0.51100000000E-03 0. -1.
    9900012    2    1    2    0    0 -0.15111311883E+02  0.73375019643E+01  0.82755955074E+01  0.72461650572E+02  0.70000104576E+02 0.  0.
         12    1    1    2    0    0  0.15111311883E+02 -0.73375019643E+01 -0.82755955074E+01  0.18726349428E+02  0.00000000000E+00 0. -1.
         11    1    3    3    0    0  0.84239385786E+01  0.49348134547E+01  0.88074892116E+01  0.13148649797E+02  0.51100000000E-03 0. -1.
        -11    1    3    3    0    0  0.11127113495E+02  0.82649210898E+01 -0.15772038054E+02  0.20997113134E+02  0.51100000000E-03 0.  1.
        -12    1    3    3    0    0 -0.34662363957E+02 -0.58622325801E+01  0.15240144350E+02  0.38315887640E+02  0.00000000000E+00 0.  1.
</event>
<event>
 7    1  0.3189267E-013  0.7246158E+02  0.7816164E-02  0.1226708E+00
        -11   -1    0    0    0    0  0.00000000000E+00  0.00000000000E+00  0.45593999997E+02  0.45594000000E+02  0.51100000000E-03 0.  1.
         11   -1    0    0    0    0 -0.00000000000E+00 -0.00000000000E+00 -0.45593999997E+02  0.45594000000E+02  0.51100000000E-03 0. -1.
    9900012    2    1    2    0    0  0.18334801433E+02 -0.70974684539E+00 -0.37429913029E+01  0.72461583683E+02  0.70000017442E+02 0.  0.
         12    1    1    2    0    0 -0.18334801433E+02  0.70974684539E+00  0.37429913029E+01  0.18726416317E+02  0.00000000000E+00 0. -1.
         11    1    3    3    0    0 -0.16131112473E+02  0.42820146680E+01  0.37609938191E+01  0.17108287875E+02  0.51100000000E-03 0. -1.
        -11    1    3    3    0    0  0.14340918522E+02  0.70987159460E+01  0.15647526320E+02  0.22380768359E+02  0.51100000000E-03 0.  1.
        -12    1    3    3    0    0  0.20124995384E+02 -0.12090477459E+02 -0.23151511442E+02  0.32972527450E+02  0.00000000000E+00 0.  1.
</event>
<event>
 7    1  0.3189267E-013  0.7246150E+02  0.7816164E-02  0.1226708E+00
        -11   -1    0    0    0    0  0.00000000000E+00  0.00000000000E+00  0.45593999997E+02  0.45594000000E+02  0.51100000000E-03 0.  1.
         11   -1    0    0    0    0 -0.00000000000E+00 -0.00000000000E+00 -0.45593999997E+02  0.45594000000E+02  0.51100000000E-03 0. -1.
    9900012    2    1    2    0    0 -0.44141343573E+01  0.22919577601E+01  0.18053919151E+02  0.72461504086E+02  0.69999913752E+02 0.  0.
         12    1    1    2    0    0  0.44141343573E+01 -0.22919577601E+01 -0.18053919151E+02  0.18726495914E+02  0.00000000000E+00 0. -1.
         11    1    3    3    0    0  0.17532877116E+02  0.43881173037E+01  0.81118328849E+01  0.19810582688E+02  0.51100000000E-03 0. -1.
        -11    1    3    3    0    0  0.13280988737E+02 -0.24383937833E+01 -0.49790091084E+01  0.14391697539E+02  0.51100000000E-03 0.  1.
        -12    1    3    3    0    0 -0.35228000211E+02  0.34223423980E+00  0.14921095374E+02  0.38259223859E+02  0.00000000000E+00 0.  1.
</event>
<event>
 7    1  0.3189267E-013  0.7246158E+02  0.7816164E-02  0.1226708E+00
        -11   -1    0    0    0    0  0.00000000000E+00  0.00000000000E+00  0.45593999997E+02  0.45594000000E+02  0.51100000000E-03 0.  1.
         11   -1    0    0    0    0 -0.00000000000E+00 -0.00000000000E+00 -0.45593999997E+02  0.45594000000E+02  0.51100000000E-03 0. -1.
    9900012    2    1    2    0    0 -0.80271886518E+01 -0.15526722902E+02  0.67204198361E+01  0.72461576836E+02  0.70000008522E+02 0.  0.
         12    1    1    2    0    0  0.80271886518E+01  0.15526722902E+02 -0.67204198361E+01  0.18726423164E+02  0.00000000000E+00 0. -1.
         11    1    3    3    0    0  0.13241941974E+02  0.11607408606E+02  0.13641882572E+02  0.22275141349E+02  0.51100000000E-03 0. -1.
        -11    1    3    3    0    0  0.69543574387E+01  0.22317834458E+01  0.35664147907E+01  0.81279308224E+01  0.51100000000E-03 0.  1.
         12    1    3    3    0    0 -0.28223488064E+02 -0.29365914954E+02 -0.10487877526E+02  0.42058504664E+02  0.00000000000E+00 0. -1.
</event>
<event>
 7    1  0.3189267E-013  0.7246152E+02  0.7816164E-02  0.1226708E+00
        -11   -1    0    0    0    0  0.00000000000E+00  0.00000000000E+00  0.45593999997E+02  0.45594000000E+02  0.51100000000E-03 0.  1.
         11   -1    0    0    0    0 -0.00000000000E+00 -0.00000000000E+00 -0.45593999997E+02  0.45594000000E+02  0.51100000000E-03 0. -1.
    9900012    2    1    2    0    0  0.14749632878E+02  0.28452802575E+01  0.11181849124E+02  0.72461520362E+02  0.69999934954E+02 0.  0.
         12    1    1    2    0    0 -0.14749632878E+02 -0.28452802575E+01 -0.11181849124E+02  0.18726479638E+02  0.00000000000E+00 0. -1.
         11    1    3    3    0    0  0.19647321930E+02  0.26948685256E+02 -0.13260609085E+00  0.33350659374E+02  0.51100000000E-03 0. -1.
        -11    1    3    3    0    0  0.66796156577E+01  0.24575316187E+00  0.10113535723E+02  0.12122758145E+02  0.51100000000E-03 0.  1.
        -12    1    3    3    0    0 -0.11577304710E+02 -0.24349158160E+02  0.12009194919E+01  0.26988102843E+02  0.00000000000E+00 0.  1.
</event>
<event>
 7    1  0.3189267E-013  0.7246158E+02  0.7816164E-02  0.1226708E+00
        -11   -1    0    0    0    0  0.00000000000E+00  0.00000000000E+00  0.45593999997E+02  0.45594000000E+02  0.51100000000E-03 0.  1.
         11   -1    0    0    0    0 -0.00000000000E+00 -0.00000000000E+00 -0.45593999997E+02  0.45594000000E+02  0.51100000000E-03 0. -1.
    9900012    2    1    2    0    0  0.13668976548E+02 -0.12510796553E+02 -0.27051665113E+01  0.72461578129E+02  0.70000010206E+02 0.  0.
         12    1    1    2    0    0 -0.13668976548E+02  0.12510796553E+02  0.27051665113E+01  0.18726421871E+02  0.00000000000E+00 0. -1.
         11    1    3    3    0    0  0.21154897321E+02 -0.54730809363E+01 -0.60095119760E+01  0.22662712327E+02  0.51100000000E-03 0. -1.
        -11    1    3    3    0    0  0.13895260695E+02 -0.63884084671E+01  0.18170072610E+02  0.23749559394E+02  0.51100000000E-03 0.  1.
         12    1    3    3    0    0 -0.21381181468E+02 -0.64930714961E+00 -0.14865727145E+02  0.26049306407E+02  0.00000000000E+00 0. -1.
</event>
<event>
 7    1  0.3189267E-013  0.7246160E+02  0.7816164E-02  0.1226708E+00
        -11   -1    0    0    0    0  0.00000000000E+00  0.00000000000E+00  0.45593999997E+02  0.45594000000E+02  0.51100000000E-03 0. -1.
         11   -1    0    0    0    0 -0.00000000000E+00 -0.00000000000E+00 -0.45593999997E+02  0.45594000000E+02  0.51100000000E-03 0.  1.
    9900012    2    1    2    0    0 -0.28223125352E+01  0.14162760206E+01 -0.18458242319E+02  0.72461601646E+02  0.70000040841E+02 0.  0.
         12    1    1    2    0    0  0.28223125352E+01 -0.14162760206E+01  0.18458242319E+02  0.18726398354E+02  0.00000000000E+00 0. -1.
         11    1    3    3    0    0  0.13031707801E+02 -0.12743828688E+02  0.35244021081E+01  0.18564805097E+02  0.51100000000E-03 0. -1.
        -11    1    3    3    0    0  0.95315101286E+01 -0.75715728652E+01  0.25555482194E+01  0.12438216429E+02  0.51100000000E-03 0.  1.
        -12    1    3    3    0    0 -0.25385530464E+02  0.21731677574E+02 -0.24538192647E+02  0.41458580119E+02  0.00000000000E+00 0.  1.
</event>
<event>
 7    1  0.3189267E-013  0.7246172E+02  0.7816164E-02  0.1226708E+00
        -11   -1    0    0    0    0  0.00000000000E+00  0.00000000000E+00  0.45593999997E+02  0.45594000000E+02  0.51100000000E-03 0.  1.
         11   -1    0    0    0    0 -0.00000000000E+00 -0.00000000000E+00 -0.45593999997E+02  0.45594000000E+02  0.51100000000E-03 0. -1.
    9900012    2    1    2    0    0 -0.18460046436E+02  0.27897931851E+01 -0.14550902061E+01  0.72461720392E+02  0.70000195530E+02 0.  0.
         12    1    1    2    0    0  0.18460046436E+02 -0.27897931851E+01  0.14550902061E+01  0.18726279608E+02  0.00000000000E+00 0. -1.
         11    1    3    3    0    0 -0.31059305037E+01 -0.45593783162E+01  0.32461695558E+01  0.64009649250E+01  0.51100000000E-03 0. -1.
        -11    1    3    3    0    0  0.21903070446E+02  0.13847454739E+02  0.63105693731E+01  0.26670578992E+02  0.51100000000E-03 0.  1.
         12    1    3    3    0    0 -0.37257186378E+02 -0.64982832375E+01 -0.11011829135E+02  0.39390176475E+02  0.00000000000E+00 0. -1.
</event>
<event>
 7    1  0.3189267E-013  0.7246156E+02  0.7816164E-02  0.1226708E+00
        -11   -1    0    0    0    0  0.00000000000E+00  0.00000000000E+00  0.45593999997E+02  0.45594000000E+02  0.51100000000E-03 0.  1.
         11   -1    0    0    0    0 -0.00000000000E+00 -0.00000000000E+00 -0.45593999997E+02  0.45594000000E+02  0.51100000000E-03 0. -1.
    9900012    2    1    2    0    0 -0.54131015267E+01 -0.65389609404E+01  0.16691908690E+02  0.72461561629E+02  0.69999988712E+02 0.  0.
         12    1    1    2    0    0  0.54131015267E+01  0.65389609404E+01 -0.16691908690E+02  0.18726438371E+02  0.00000000000E+00 0. -1.
         11    1    3    3    0    0  0.16296717021E+02 -0.26649208545E+02  0.61709828764E+01  0.31840922281E+02  0.51100000000E-03 0. -1.
        -11    1    3    3    0    0 -0.21222272821E+02  0.23580806216E+01  0.73395385994E+01  0.22579066301E+02  0.51100000000E-03 0.  1.
        -12    1    3    3    0    0 -0.48754572712E+00  0.17752166983E+02  0.31813872146E+01  0.18041573048E+02  0.00000000000E+00 0.  1.
</event>
<event>
 7    1  0.3189267E-013  0.7246158E+02  0.7816164E-02  0.1226708E+00
        -11   -1    0    0    0    0  0.00000000000E+00  0.00000000000E+00  0.45593999997E+02  0.45594000000E+02  0.51100000000E-03 0. -1.
         11   -1    0    0    0    0 -0.00000000000E+00 -0.00000000000E+00 -0.45593999997E+02  0.45594000000E+02  0.51100000000E-03 0.  1.
    9900012    2    1    2    0    0  0.87962793234E+01 -0.15153852188E+02 -0.66079518617E+01  0.72461580324E+02  0.70000013065E+02 0.  0.
         12    1    1    2    0    0 -0.87962793234E+01  0.15153852188E+02  0.66079518617E+01  0.18726419676E+02  0.00000000000E+00 0. -1.
         11    1    3    3    0    0 -0.11066955097E+02 -0.75923048837E+01  0.16661223566E+02  0.21394320731E+02  0.51100000000E-03 0. -1.
        -11    1    3    3    0    0 -0.11892672149E+02 -0.34198999403E+01 -0.17829866091E+01  0.12502416085E+02  0.51100000000E-03 0.  1.
        -12    1    3    3    0    0  0.31755906569E+02 -0.41416473642E+01 -0.21486188818E+02  0.38564843509E+02  0.00000000000E+00 0.  1.
</event>
<event>
 7    1  0.3189267E-013  0.7246163E+02  0.7816164E-02  0.1226708E+00
        -11   -1    0    0    0    0  0.00000000000E+00  0.00000000000E+00  0.45593999997E+02  0.45594000000E+02  0.51100000000E-03 0. -1.
         11   -1    0    0    0    0 -0.00000000000E+00 -0.00000000000E+00 -0.45593999997E+02  0.45594000000E+02  0.51100000000E-03 0.  1.
    9900012    2    1    2    0    0 -0.10691366328E+02 -0.14922900032E+02  0.36984602534E+01  0.72461631757E+02  0.70000080067E+02 0.  0.
         12    1    1    2    0    0  0.10691366328E+02  0.14922900032E+02 -0.36984602534E+01  0.18726368243E+02  0.00000000000E+00 0. -1.
         11    1    3    3    0    0 -0.12138039356E+02 -0.41887215952E+01  0.28189111285E+02  0.30975851616E+02  0.51100000000E-03 0. -1.
        -11    1    3    3    0    0  0.10271929679E+02  0.60857215417E+01 -0.20983185250E+01  0.12122354841E+02  0.51100000000E-03 0.  1.
        -12    1    3    3    0    0 -0.88252566513E+01 -0.16819899978E+02 -0.22392332507E+02  0.29363425300E+02  0.00000000000E+00 0.  1.
</event>
<event>
 7    1  0.3189267E-013  0.7246154E+02  0.7816164E-02  0.1226708E+00
        -11   -1    0    0    0    0  0.00000000000E+00  0.00000000000E+00  0.45593999997E+02  0.45594000000E+02  0.51100000000E-03 0.  1.
         11   -1    0    0    0    0 -0.00000000000E+00 -0.00000000000E+00 -0.45593999997E+02  0.45594000000E+02  0.51100000000E-03 0. -1.
    9900012    2    1    2    0    0  0.50332898244E+01  0.12355018552E+02  0.13141534772E+02  0.72461536745E+02  0.69999956296E+02 0.  0.
         12    1    1    2    0    0 -0.50332898244E+01 -0.12355018552E+02 -0.13141534772E+02  0.18726463255E+02  0.00000000000E+00 0. -1.
         11    1    3    3    0    0  0.31160953688E+01  0.14942033405E+02  0.10228620215E+02  0.18373869609E+02  0.51100000000E-03 0. -1.
        -11    1    3    3    0    0  0.40092865988E-01  0.25428678499E+02  0.50597301692E+01  0.25927209014E+02  0.51100000000E-03 0.  1.
        -12    1    3    3    0    0  0.18771015896E+01 -0.28015693352E+02 -0.21468156123E+01  0.28160458122E+02  0.00000000000E+00 0.  1.
</event>
<event>
 7    1  0.3189267E-013  0.7246156E+02  0.7816164E-02  0.1226708E+00
        -11   -1    0    0    0    0  0.00000000000E+00  0.00000000000E+00  0.45593999997E+02  0.45594000000E+02  0.51100000000E-03 0. -1.
         11   -1    0    0    0    0 -0.00000000000E+00 -0.00000000000E+00 -0.45593999997E+02  0.45594000000E+02  0.51100000000E-03 0.  1.
    9900012    2    1    2    0    0  0.84744606282E+01 -0.12887814603E+02 -0.10619200686E+02  0.72461556895E+02  0.69999982545E+02 0.  0.
         12    1    1    2    0    0 -0.84744606282E+01  0.12887814603E+02  0.10619200686E+02  0.18726443105E+02  0.00000000000E+00 0. -1.
         11    1    3    3    0    0  0.12641593252E+01  0.71195470596E+01  0.19785906793E+02  0.21065805397E+02  0.51100000000E-03 0. -1.
        -11    1    3    3    0    0  0.30157788455E+01  0.17200827377E+01  0.70691496363E+01  0.78756893991E+01  0.51100000000E-03 0.  1.
        -12    1    3    3    0    0  0.41945224575E+01 -0.21727444400E+02 -0.37474257115E+02  0.43520062099E+02  0.00000000000E+00 0.  1.
</event>
<event>
 7    1  0.3189267E-013  0.7246148E+02  0.7816164E-02  0.1226708E+00
        -11   -1    0    0    0    0  0.00000000000E+00  0.00000000000E+00  0.45593999997E+02  0.45594000000E+02  0.51100000000E-03 0.  1.
         11   -1    0    0    0    0 -0.00000000000E+00 -0.00000000000E+00 -0.45593999997E+02  0.45594000000E+02  0.51100000000E-03 0. -1.
    9900012    2    1    2    0    0 -0.59720478180E+01 -0.96916287416E+01  0.14869077565E+02  0.72461481625E+02  0.69999884492E+02 0.  0.
         12    1    1    2    0    0  0.59720478180E+01  0.96916287416E+01 -0.14869077565E+02  0.18726518375E+02  0.00000000000E+00 0. -1.
         11    1    3    3    0    0 -0.27874530802E+02 -0.20485323879E+02  0.17338322813E+02  0.38694384606E+02  0.51100000000E-03 0. -1.
        -11    1    3    3    0    0  0.51318711573E+01  0.59324460707E+01 -0.11646143922E+02  0.14041463117E+02  0.51100000000E-03 0.  1.
        -12    1    3    3    0    0  0.16770611826E+02  0.48612490671E+01  0.91768986748E+01  0.19725633901E+02  0.00000000000E+00 0.  1.
</event>
<event>
 7    1  0.3189267E-013  0.7246153E+02  0.7816164E-02  0.1226708E+00
        -11   -1    0    0    0    0  0.00000000000E+00  0.00000000000E+00  0.45593999997E+02  0.45594000000E+02  0.51100000000E-03 0. -1.
         11   -1    0    0    0    0 -0.00000000000E+00 -0.00000000000E+00 -0.45593999997E+02  0.45594000000E+02  0.51100000000E-03 0.  1.
    9900012    2    1    2    0    0  0.91838690298E+01  0.16015810046E+02 -0.31354492941E+01  0.72461530390E+02  0.69999948017E+02 0.  0.
         12    1    1    2    0    0 -0.91838690298E+01 -0.16015810046E+02  0.31354492941E+01  0.18726469610E+02  0.00000000000E+00 0. -1.
         11    1    3    3    0    0  0.35690470556E+02  0.17474790950E+02 -0.87265433362E+01  0.40685753847E+02  0.51100000000E-03 0. -1.
        -11    1    3    3    0    0 -0.11690382662E+01  0.49965776986E+01  0.10323598023E+01  0.52343295835E+01  0.51100000000E-03 0.  1.
        -12    1    3    3    0    0 -0.25337563260E+02 -0.64555586025E+01  0.45587342399E+01  0.26541446959E+02  0.00000000000E+00 0.  1.
</event>
<event>
 7    1  0.3189267E-013  0.7246159E+02  0.7816164E-02  0.1226708E+00
        -11   -1    0    0    0    0  0.00000000000E+00  0.00000000000E+00  0.45593999997E+02  0.45594000000E+02  0.51100000000E-03 0.  1.
         11   -1    0    0    0    0 -0.00000000000E+00 -0.00000000000E+00 -0.45593999997E+02  0.45594000000E+02  0.51100000000E-03 0. -1.
    9900012    2    1    2    0    0 -0.27691224839E+01 -0.60199775471E+01  0.17514856610E+02  0.72461591613E+02  0.70000027772E+02 0.  0.
         12    1    1    2    0    0  0.27691224839E+01  0.60199775471E+01 -0.17514856610E+02  0.18726408387E+02  0.00000000000E+00 0. -1.
         11    1    3    3    0    0 -0.27287455832E+02 -0.55287535431E+01  0.54571638954E+01  0.28371693632E+02  0.51100000000E-03 0. -1.
        -11    1    3    3    0    0 -0.86702436417E+01 -0.24643323232E+01  0.10844617439E+01  0.90786626846E+01  0.51100000000E-03 0.  1.
         12    1    3    3    0    0  0.33188576990E+02  0.19731083192E+01  0.10973230971E+02  0.35011235296E+02  0.00000000000E+00 0. -1.
</event>
<event>
 7    1  0.3189267E-013  0.7246161E+02  0.7816164E-02  0.1226708E+00
        -11   -1    0    0    0    0  0.00000000000E+00  0.00000000000E+00  0.45593999997E+02  0.45594000000E+02  0.51100000000E-03 0. -1.
         11   -1    0    0    0    0 -0.00000000000E+00 -0.00000000000E+00 -0.45593999997E+02  0.45594000000E+02  0.51100000000E-03 0.  1.
    9900012    2    1    2    0    0 -0.11483202103E+02 -0.36015285096E+01 -0.14347219789E+02  0.72461610764E+02  0.70000052719E+02 0.  0.
         12    1    1    2    0    0  0.11483202103E+02  0.36015285096E+01  0.14347219789E+02  0.18726389236E+02  0.00000000000E+00 0. -1.
         11    1    3    3    0    0 -0.10428530670E+02 -0.12405583067E+02  0.24502691041E+02  0.29377450735E+02  0.51100000000E-03 0. -1.
        -11    1    3    3    0    0  0.61317860661E+01  0.71855571545E+00 -0.64606115424E+01  0.89361414738E+01  0.51100000000E-03 0.  1.
        -12    1    3    3    0    0 -0.71864574995E+01  0.80854988419E+01 -0.32389299288E+02  0.34148018555E+02  0.00000000000E+00 0.  1.
</event>
<event>
 7    1  0.3189267E-013  0.7246159E+02  0.7816164E-02  0.1226708E+00
        -11   -1    0    0    0    0  0.00000000000E+00  0.00000000000E+00  0.45593999997E+02  0.45594000000E+02  0.51100000000E-03 0. -1.
         11   -1    0    0    0    0 -0.00000000000E+00 -0.00000000000E+00 -0.45593999997E+02  0.45594000000E+02  0.51100000000E-03 0.  1.
    9900012    2    1    2    0    0  0.46228040424E+01 -0.13259328532E+02 -0.12389450053E+02  0.72461585955E+02  0.70000020402E+02 0.  0.
         12    1    1    2    0    0 -0.46228040424E+01  0.13259328532E+02  0.12389450053E+02  0.18726414045E+02  0.00000000000E+00 0. -1.
         11    1    3    3    0    0 -0.11985072155E+02 -0.39074786386E+01  0.42860635461E+00  0.12613248889E+02  0.51100000000E-03 0. -1.
        -11    1    3    3    0    0  0.26254729105E+02 -0.15801275003E+02  0.11638251912E+02  0.32778651588E+02  0.51100000000E-03 0.  1.
         12    1    3    3    0    0 -0.96468529071E+01  0.64494251097E+01 -0.24456308320E+02  0.27069685478E+02  0.00000000000E+00 0. -1.
</event>
<event>
 7    1  0.3189267E-013  0.7246152E+02  0.7816164E-02  0.1226708E+00
        -11   -1    0    0    0    0  0.00000000000E+00  0.00000000000E+00  0.45593999997E+02  0.45594000000E+02  0.51100000000E-03 0.  1.
         11   -1    0    0    0    0 -0.00000000000E+00 -0.00000000000E+00 -0.45593999997E+02  0.45594000000E+02  0.51100000000E-03 0. -1.
    9900012    2    1    2    0    0 -0.11574706030E+02 -0.81300352948E+01  0.12272316494E+02  0.72461520200E+02  0.69999934743E+02 0.  0.
         12    1    1    2    0    0  0.11574706030E+02  0.81300352948E+01 -0.12272316494E+02  0.18726479800E+02  0.00000000000E+00 0. -1.
         11    1    3    3    0    0 -0.48300869941E+01 -0.11238566475E+01  0.13215294995E+02  0.14115127212E+02  0.51100000000E-03 0. -1.
        -11    1    3    3    0    0  0.14715449167E+02  0.10823996356E+02  0.17179520237E+02  0.25076667584E+02  0.51100000000E-03 0.  1.
         12    1    3    3    0    0 -0.21460068203E+02 -0.17830175004E+02 -0.18122498738E+02  0.33269725404E+02  0.00000000000E+00 0. -1.
</event>
<event>
 7    1  0.3189267E-013  0.7246141E+02  0.7816164E-02  0.1226708E+00
        -11   -1    0    0    0    0  0.00000000000E+00  0.00000000000E+00  0.45593999997E+02  0.45594000000E+02  0.51100000000E-03 0. -1.
         11   -1    0    0    0    0 -0.00000000000E+00 -0.00000000000E+00 -0.45593999997E+02  0.45594000000E+02  0.51100000000E-03 0.  1.
    9900012    2    1    2    0    0 -0.58382464867E+01 -0.12951927810E+02 -0.12200315123E+02  0.72461408075E+02  0.69999788678E+02 0.  0.
         12    1    1    2    0    0  0.58382464867E+01  0.12951927810E+02  0.12200315123E+02  0.18726591925E+02  0.00000000000E+00 0. -1.
         11    1    3    3    0    0  0.81078124138E+01  0.52917177569E+01  0.26181898695E+01  0.10029646923E+02  0.51100000000E-03 0. -1.
        -11    1    3    3    0    0  0.10195068383E+02 -0.28309566771E+02  0.37969338704E+01  0.30328001866E+02  0.51100000000E-03 0.  1.
         12    1    3    3    0    0 -0.24141127284E+02  0.10065921204E+02 -0.18615438863E+02  0.32103759286E+02  0.00000000000E+00 0. -1.
</event>
<event>
 7    1  0.3189267E-013  0.7246156E+02  0.7816164E-02  0.1226708E+00
        -11   -1    0    0    0    0  0.00000000000E+00  0.00000000000E+00  0.45593999997E+02  0.45594000000E+02  0.51100000000E-03 0.  1.
         11   -1    0    0    0    0 -0.00000000000E+00 -0.00000000000E+00 -0.45593999997E+02  0.45594000000E+02  0.51100000000E-03 0. -1.
    9900012    2    1    2    0    0  0.81470957124E+01 -0.13184650472E+02 -0.10510440066E+02  0.72461560750E+02  0.69999987566E+02 0.  0.
         12    1    1    2    0    0 -0.81470957124E+01  0.13184650472E+02  0.10510440066E+02  0.18726439250E+02  0.00000000000E+00 0. -1.
         11    1    3    3    0    0  0.15482437858E+02 -0.50543997637E+01  0.13556604203E+02  0.21190430783E+02  0.51100000000E-03 0. -1.
        -11    1    3    3    0    0  0.55847581429E+01  0.12308802686E+02  0.41230022747E+01  0.14131358572E+02  0.51100000000E-03 0.  1.
         12    1    3    3    0    0 -0.12920100289E+02 -0.20439053394E+02 -0.28190046544E+02  0.37139771395E+02  0.00000000000E+00 0. -1.
</event>
<event>
 7    1  0.3189267E-013  0.7246154E+02  0.7816164E-02  0.1226708E+00
        -11   -1    0    0    0    0  0.00000000000E+00  0.00000000000E+00  0.45593999997E+02  0.45594000000E+02  0.51100000000E-03 0.  1.
         11   -1    0    0    0    0 -0.00000000000E+00 -0.00000000000E+00 -0.45593999997E+02  0.45594000000E+02  0.51100000000E-03 0. -1.
    9900012    2    1    2    0    0  0.39660034964E+01  0.15659166496E+02  0.94732053831E+01  0.72461540129E+02  0.69999960704E+02 0.  0.
         12    1    1    2    0    0 -0.39660034964E+01 -0.15659166496E+02 -0.94732053831E+01  0.18726459871E+02  0.00000000000E+00 0. -1.
         11    1    3    3    0    0 -0.13161081280E+02 -0.28190646743E+01 -0.23744993775E+01  0.13667458932E+02  0.51100000000E-03 0. -1.
        -11    1    3    3    0    0  0.69497288516E+01 -0.15132634955E+02  0.16412306283E+02  0.23380743563E+02  0.51100000000E-03 0.  1.
         12    1    3    3    0    0  0.10177355925E+02  0.33610866125E+02 -0.45646015220E+01  0.35413337634E+02  0.00000000000E+00 0. -1.
</event>
<event>
 7    1  0.3189267E-013  0.7246159E+02  0.7816164E-02  0.1226708E+00
        -11   -1    0    0    0    0  0.00000000000E+00  0.00000000000E+00  0.45593999997E+02  0.45594000000E+02  0.51100000000E-03 0.  1.
         11   -1    0    0    0    0 -0.00000000000E+00 -0.00000000000E+00 -0.45593999997E+02  0.45594000000E+02  0.51100000000E-03 0. -1.
    9900012    2    1    2    0    0 -0.49503664975E+01 -0.28238143991E+01  0.17838113157E+02  0.72461592517E+02  0.70000028949E+02 0.  0.
         12    1    1    2    0    0  0.49503664975E+01  0.28238143991E+01 -0.17838113157E+02  0.18726407483E+02  0.00000000000E+00 0. -1.
         11    1    3    3    0    0  0.12697325264E+01  0.11883342320E+02 -0.21680999740E+02  0.24756651538E+02  0.51100000000E-03 0. -1.
        -11    1    3    3    0    0 -0.91383661202E+01  0.22767256367E+01  0.12341991568E+02  0.15524753496E+02  0.51100000000E-03 0.  1.
        -12    1    3    3    0    0  0.29182670963E+01 -0.16983882356E+02  0.27177121329E+02  0.32180187483E+02  0.00000000000E+00 0.  1.
</event>
<event>
 7    1  0.3189267E-013  0.7246157E+02  0.7816164E-02  0.1226708E+00
        -11   -1    0    0    0    0  0.00000000000E+00  0.00000000000E+00  0.45593999997E+02  0.45594000000E+02  0.51100000000E-03 0.  1.
         11   -1    0    0    0    0 -0.00000000000E+00 -0.00000000000E+00 -0.45593999997E+02  0.45594000000E+02  0.51100000000E-03 0. -1.
    9900012    2    1    2    0    0  0.89278875396E+01  0.96954956544E+01  0.13302978377E+02  0.72461573603E+02  0.70000004310E+02 0.  0.
         12    1    1    2    0    0 -0.89278875396E+01 -0.96954956544E+01 -0.13302978377E+02  0.18726426397E+02  0.00000000000E+00 0. -1.
         11    1    3    3    0    0  0.17377864888E+02  0.15432565600E+02  0.86652023717E+01  0.24804031960E+02  0.51100000000E-03 0.  1.
        -11    1    3    3    0    0 -0.22366103617E+02  0.11449485079E+02  0.45966173570E+01  0.25543339464E+02  0.51100000000E-03 0. -1.
         12    1    3    3    0    0  0.13916126269E+02 -0.17186555025E+02  0.41158648629E-01  0.22114202178E+02  0.00000000000E+00 0. -1.
</event>
<event>
 7    1  0.3189267E-013  0.7246178E+02  0.7816164E-02  0.1226707E+00
        -11   -1    0    0    0    0  0.00000000000E+00  0.00000000000E+00  0.45593999997E+02  0.45594000000E+02  0.51100000000E-03 0. -1.
         11   -1    0    0    0    0 -0.00000000000E+00 -0.00000000000E+00 -0.45593999997E+02  0.45594000000E+02  0.51100000000E-03 0.  1.
    9900012    2    1    2    0    0 -0.61375676627E+01  0.16971423956E+02  0.49972513289E+01  0.72461775374E+02  0.70000267154E+02 0.  0.
         12    1    1    2    0    0  0.61375676627E+01 -0.16971423956E+02 -0.49972513289E+01  0.18726224626E+02  0.00000000000E+00 0. -1.
         11    1    3    3    0    0 -0.15392546594E+02  0.12921279537E+02 -0.25352860559E+02  0.32352086398E+02  0.51100000000E-03 0. -1.
        -11    1    3    3    0    0 -0.48960734661E+00  0.38716502489E+01 -0.32787317712E+01  0.50970063069E+01  0.51100000000E-03 0.  1.
        -12    1    3    3    0    0  0.97445862775E+01  0.17849416931E+00  0.33628843659E+02  0.35012682669E+02  0.00000000000E+00 0.  1.
</event>
<event>
 7    1  0.3278959E-013  0.7246206E+02  0.7816164E-02  0.1226707E+00
        -11   -1    0    0    0    0  0.00000000000E+00  0.00000000000E+00  0.45593999997E+02  0.45594000000E+02  0.51100000000E-03 0. -1.
         11   -1    0    0    0    0 -0.00000000000E+00 -0.00000000000E+00 -0.45593999997E+02  0.45594000000E+02  0.51100000000E-03 0.  1.
    9900012    2    1    2    0    0 -0.33520037995E+01  0.22939175077E+01 -0.18280117658E+02  0.72462063746E+02  0.70000642809E+02 0.  0.
         12    1    1    2    0    0  0.33520037995E+01 -0.22939175077E+01  0.18280117658E+02  0.18725936254E+02  0.00000000000E+00 0. -1.
         11    1    3    3    0    0 -0.12582209431E+02 -0.11948495264E+01  0.33425270519E+01  0.13073337252E+02  0.51100000000E-03 0. -1.
        -11    1    3    3    0    0 -0.65534428489E+01 -0.15357033838E+02 -0.29224449217E+02  0.33657904477E+02  0.51100000000E-03 0.  1.
         12    1    3    3    0    0  0.15783648480E+02  0.18845800872E+02  0.76018045072E+01  0.25730822016E+02  0.00000000000E+00 0. -1.
</event>
<event>
 7    1  0.3189267E-013  0.7246164E+02  0.7816164E-02  0.1226708E+00
        -11   -1    0    0    0    0  0.00000000000E+00  0.00000000000E+00  0.45593999997E+02  0.45594000000E+02  0.51100000000E-03 0.  1.
         11   -1    0    0    0    0 -0.00000000000E+00 -0.00000000000E+00 -0.45593999997E+02  0.45594000000E+02  0.51100000000E-03 0. -1.
    9900012    2    1    2    0    0  0.97814599809E+01  0.13438737209E+02  0.86255441682E+01  0.72461638119E+02  0.70000088354E+02 0.  0.
         12    1    1    2    0    0 -0.97814599809E+01 -0.13438737209E+02 -0.86255441682E+01  0.18726361881E+02  0.00000000000E+00 0. -1.
         11    1    3    3    0    0  0.66600675006E+01  0.29990569991E+00 -0.15467551059E+01  0.68438946631E+01  0.51100000000E-03 0. -1.
        -11    1    3    3    0    0  0.23319871140E+02 -0.69028857397E+01  0.23835637535E+02  0.34052956384E+02  0.51100000000E-03 0.  1.
        -12    1    3    3    0    0 -0.20198478660E+02  0.20041717248E+02 -0.13663338261E+02  0.31564787071E+02  0.00000000000E+00 0.  1.
</event>
<event>
 7    1  0.3189267E-013  0.7246155E+02  0.7816164E-02  0.1226708E+00
        -11   -1    0    0    0    0  0.00000000000E+00  0.00000000000E+00  0.45593999997E+02  0.45594000000E+02  0.51100000000E-03 0.  1.
         11   -1    0    0    0    0 -0.00000000000E+00 -0.00000000000E+00 -0.45593999997E+02  0.45594000000E+02  0.51100000000E-03 0. -1.
    9900012    2    1    2    0    0 -0.88711524147E+00 -0.10171669697E+02  0.15698094721E+02  0.72461547700E+02  0.69999970566E+02 0.  0.
         12    1    1    2    0    0  0.88711524147E+00  0.10171669697E+02 -0.15698094721E+02  0.18726452300E+02  0.00000000000E+00 0. -1.
         11    1    3    3    0    0 -0.12421685845E+02 -0.90229278582E+01 -0.59041380838E+01  0.16449022863E+02  0.51100000000E-03 0. -1.
        -11    1    3    3    0    0 -0.81774237198E+01 -0.21680773669E+02  0.85356094576E+01  0.24693781296E+02  0.51100000000E-03 0.  1.
         12    1    3    3    0    0  0.19711994324E+02  0.20532031830E+02  0.13066623347E+02  0.31318743541E+02  0.00000000000E+00 0. -1.
</event>
<event>
 7    1  0.3189267E-013  0.7246161E+02  0.7816164E-02  0.1226708E+00
        -11   -1    0    0    0    0  0.00000000000E+00  0.00000000000E+00  0.45593999997E+02  0.45594000000E+02  0.51100000000E-03 0.  1.
         11   -1    0    0    0    0 -0.00000000000E+00 -0.00000000000E+00 -0.45593999997E+02  0.45594000000E+02  0.51100000000E-03 0. -1.
    9900012    2    1    2    0    0  0.12685133521E+02  0.12566046399E+02 -0.56444259716E+01  0.72461610089E+02  0.70000051840E+02 0.  0.
         12    1    1    2    0    0 -0.12685133521E+02 -0.12566046399E+02  0.56444259716E+01  0.18726389911E+02  0.00000000000E+00 0. -1.
         11    1    3    3    0    0 -0.82583932625E+01 -0.91328190683E+01 -0.49041033004E+00  0.12322741009E+02  0.51100000000E-03 0. -1.
        -11    1    3    3    0    0 -0.52628726746E+01  0.12739166108E+02  0.18943447400E+02  0.23427299921E+02  0.51100000000E-03 0.  1.
         12    1    3    3    0    0  0.26206399458E+02  0.89596993592E+01 -0.24097463042E+02  0.36711569160E+02  0.00000000000E+00 0. -1.
</event>
<event>
 7    1  0.3189267E-013  0.7246158E+02  0.7816164E-02  0.1226708E+00
        -11   -1    0    0    0    0  0.00000000000E+00  0.00000000000E+00  0.45593999997E+02  0.45594000000E+02  0.51100000000E-03 0. -1.
         11   -1    0    0    0    0 -0.00000000000E+00 -0.00000000000E+00 -0.45593999997E+02  0.45594000000E+02  0.51100000000E-03 0.  1.
    9900012    2    1    2    0    0  0.12296122971E+02  0.14089966265E+02  0.97818526436E+00  0.72461584542E+02  0.70000018560E+02 0.  0.
         12    1    1    2    0    0 -0.12296122971E+02 -0.14089966265E+02 -0.97818526436E+00  0.18726415458E+02  0.00000000000E+00 0. -1.
         11    1    3    3    0    0 -0.20455494035E+02  0.35672885443E+01 -0.87714422410E+01  0.22540873608E+02  0.51100000000E-03 0.  1.
        -11    1    3    3    0    0 -0.21865289866E+01  0.69988790380E-01  0.13116216070E+02  0.13297403193E+02  0.51100000000E-03 0. -1.
        -12    1    3    3    0    0  0.34938145993E+02  0.10452688931E+02 -0.33665885643E+01  0.36623307741E+02  0.00000000000E+00 0.  1.
</event>
<event>
 7    1  0.3189267E-013  0.7246153E+02  0.7816164E-02  0.1226708E+00
        -11   -1    0    0    0    0  0.00000000000E+00  0.00000000000E+00  0.45593999997E+02  0.45594000000E+02  0.51100000000E-03 0.  1.
         11   -1    0    0    0    0 -0.00000000000E+00 -0.00000000000E+00 -0.45593999997E+02  0.45594000000E+02  0.51100000000E-03 0. -1.
    9900012    2    1    2    0    0  0.43272254703E+01  0.15244321526E+02 -0.99783013934E+01  0.72461528956E+02  0.69999946149E+02 0.  0.
         12    1    1    2    0    0 -0.43272254703E+01 -0.15244321526E+02  0.99783013934E+01  0.18726471044E+02  0.00000000000E+00 0. -1.
         11    1    3    3    0    0 -0.77262966736E+01 -0.83183609099E+01 -0.24000802970E+01  0.11603929257E+02  0.51100000000E-03 0. -1.
        -11    1    3    3    0    0 -0.27416373211E+01  0.52609502157E+01  0.22156275884E+02  0.22936755081E+02  0.51100000000E-03 0.  1.
         12    1    3    3    0    0  0.14795159465E+02  0.18301732220E+02 -0.29734496980E+02  0.37920844617E+02  0.00000000000E+00 0. -1.
</event>
<event>
 7    1  0.3189267E-013  0.7246158E+02  0.7816164E-02  0.1226708E+00
        -11   -1    0    0    0    0  0.00000000000E+00  0.00000000000E+00  0.45593999997E+02  0.45594000000E+02  0.51100000000E-03 0. -1.
         11   -1    0    0    0    0 -0.00000000000E+00 -0.00000000000E+00 -0.45593999997E+02  0.45594000000E+02  0.51100000000E-03 0.  1.
    9900012    2    1    2    0    0 -0.18257644161E+02 -0.20191806343E+01 -0.36414362818E+01  0.72461582325E+02  0.70000015673E+02 0.  0.
         12    1    1    2    0    0  0.18257644161E+02  0.20191806343E+01  0.36414362818E+01  0.18726417675E+02  0.00000000000E+00 0. -1.
         11    1    3    3    0    0 -0.35456546882E+00  0.61504256009E-01 -0.32431246876E+01  0.32630288760E+01  0.51100000000E-03 0. -1.
        -11    1    3    3    0    0 -0.59308175007E+01 -0.14435767259E+02 -0.30651366668E+02  0.34395817354E+02  0.51100000000E-03 0.  1.
         12    1    3    3    0    0 -0.11972261191E+02  0.12355082369E+02  0.30253055074E+02  0.34802736095E+02  0.00000000000E+00 0. -1.
</event>
<event>
 7    1  0.3189267E-013  0.7246158E+02  0.7816164E-02  0.1226708E+00
        -11   -1    0    0    0    0  0.00000000000E+00  0.00000000000E+00  0.45593999997E+02  0.45594000000E+02  0.51100000000E-03 0.  1.
         11   -1    0    0    0    0 -0.00000000000E+00 -0.00000000000E+00 -0.45593999997E+02  0.45594000000E+02  0.51100000000E-03 0. -1.
    9900012    2    1    2    0    0 -0.85724790870E+01  0.12899853669E+02  0.10525454768E+02  0.72461579615E+02  0.70000012141E+02 0.  0.
         12    1    1    2    0    0  0.85724790870E+01 -0.12899853669E+02 -0.10525454768E+02  0.18726420385E+02  0.00000000000E+00 0. -1.
         11    1    3    3    0    0 -0.23815432491E+02  0.21297690878E+01  0.75064675004E+01  0.25061081295E+02  0.51100000000E-03 0. -1.
        -11    1    3    3    0    0 -0.30988762249E+01  0.15036174184E+02  0.17767271221E+02  0.23481173200E+02  0.51100000000E-03 0.  1.
        -12    1    3    3    0    0  0.18341829628E+02 -0.42660896036E+01 -0.14748283953E+02  0.23919325120E+02  0.00000000000E+00 0.  1.
</event>
<event>
 7    1  0.3189267E-013  0.7246156E+02  0.7816164E-02  0.1226708E+00
        -11   -1    0    0    0    0  0.00000000000E+00  0.00000000000E+00  0.45593999997E+02  0.45594000000E+02  0.51100000000E-03 0.  1.
         11   -1    0    0    0    0 -0.00000000000E+00 -0.00000000000E+00 -0.45593999997E+02  0.45594000000E+02  0.51100000000E-03 0. -1.
    9900012    2    1    2    0    0 -0.16004983562E+02  0.13261437691E+01  0.96312729656E+01  0.72461559466E+02  0.69999985895E+02 0.  0.
         12    1    1    2    0    0  0.16004983562E+02 -0.13261437691E+01 -0.96312729656E+01  0.18726440534E+02  0.00000000000E+00 0. -1.
         11    1    3    3    0    0 -0.63288421262E+01 -0.14629950771E+01 -0.22428796195E+02  0.23350492420E+02  0.51100000000E-03 0. -1.
        -11    1    3    3    0    0 -0.14651814295E+01  0.18091365953E+02  0.90454719961E+01  0.20279665740E+02  0.51100000000E-03 0.  1.
        -12    1    3    3    0    0 -0.82109600065E+01 -0.15302227106E+02  0.23014597164E+02  0.28831401306E+02  0.00000000000E+00 0.  1.
</event>
<event>
 7    1  0.3189267E-013  0.7246157E+02  0.7816164E-02  0.1226708E+00
        -11   -1    0    0    0    0  0.00000000000E+00  0.00000000000E+00  0.45593999997E+02  0.45594000000E+02  0.51100000000E-03 0.  1.
         11   -1    0    0    0    0 -0.00000000000E+00 -0.00000000000E+00 -0.45593999997E+02  0.45594000000E+02  0.51100000000E-03 0. -1.
    9900012    2    1    2    0    0  0.11745336531E+02 -0.10045971161E+02  0.10573768325E+02  0.72461573662E+02  0.70000004387E+02 0.  0.
         12    1    1    2    0    0 -0.11745336531E+02  0.10045971161E+02 -0.10573768325E+02  0.18726426338E+02  0.00000000000E+00 0. -1.
         11    1    3    3    0    0 -0.18966120613E+02 -0.12654012595E+02  0.13852232917E+02  0.26678120678E+02  0.51100000000E-03 0. -1.
        -11    1    3    3    0    0 -0.73346130941E+01  0.19863856429E+01 -0.95847346171E-01  0.75994384094E+01  0.51100000000E-03 0.  1.
        -12    1    3    3    0    0  0.38046070238E+02  0.62165579144E+00 -0.31826172455E+01  0.38184014575E+02  0.00000000000E+00 0.  1.
</event>
<event>
 7    1  0.3189267E-013  0.7246158E+02  0.7816164E-02  0.1226708E+00
        -11   -1    0    0    0    0  0.00000000000E+00  0.00000000000E+00  0.45593999997E+02  0.45594000000E+02  0.51100000000E-03 0.  1.
         11   -1    0    0    0    0 -0.00000000000E+00 -0.00000000000E+00 -0.45593999997E+02  0.45594000000E+02  0.51100000000E-03 0. -1.
    9900012    2    1    2    0    0  0.17317644060E+02 -0.28367428488E+01 -0.65368926504E+01  0.72461578257E+02  0.70000010373E+02 0.  0.
         12    1    1    2    0    0 -0.17317644060E+02  0.28367428488E+01  0.65368926504E+01  0.18726421743E+02  0.00000000000E+00 0. -1.
         11    1    3    3    0    0 -0.10843076449E+02  0.47578355570E+01  0.32466010147E+01  0.12278017938E+02  0.51100000000E-03 0. -1.
        -11    1    3    3    0    0 -0.10491725278E+02 -0.16643208573E+02 -0.37975649536E+01  0.20037319950E+02  0.51100000000E-03 0.  1.
        -12    1    3    3    0    0  0.38652445787E+02  0.90486301677E+01 -0.59859287115E+01  0.40146240369E+02  0.00000000000E+00 0.  1.
</event>
<event>
 7    1  0.3189267E-013  0.7246157E+02  0.7816164E-02  0.1226708E+00
        -11   -1    0    0    0    0  0.00000000000E+00  0.00000000000E+00  0.45593999997E+02  0.45594000000E+02  0.51100000000E-03 0.  1.
         11   -1    0    0    0    0 -0.00000000000E+00 -0.00000000000E+00 -0.45593999997E+02  0.45594000000E+02  0.51100000000E-03 0. -1.
    9900012    2    1    2    0    0 -0.14258439106E+02 -0.57965397375E+01  0.10666595976E+02  0.72461568723E+02  0.69999997953E+02 0.  0.
         12    1    1    2    0    0  0.14258439106E+02  0.57965397375E+01 -0.10666595976E+02  0.18726431277E+02  0.00000000000E+00 0. -1.
         11    1    3    3    0    0  0.28447819566E+01  0.14716302984E+02  0.15481450983E+02  0.21548496066E+02  0.51100000000E-03 0. -1.
        -11    1    3    3    0    0  0.23656564667E+01  0.10110002935E+02  0.72596069423E+01  0.12669269240E+02  0.51100000000E-03 0.  1.
        -12    1    3    3    0    0 -0.19468877529E+02 -0.30622845657E+02 -0.12074461950E+02  0.38243803416E+02  0.00000000000E+00 0.  1.
</event>
<event>
 7    1  0.3189267E-013  0.7246155E+02  0.7816164E-02  0.1226708E+00
        -11   -1    0    0    0    0  0.00000000000E+00  0.00000000000E+00  0.45593999997E+02  0.45594000000E+02  0.51100000000E-03 0.  1.
         11   -1    0    0    0    0 -0.00000000000E+00 -0.00000000000E+00 -0.45593999997E+02  0.45594000000E+02  0.51100000000E-03 0. -1.
    9900012    2    1    2    0    0  0.17739455666E+02 -0.56710947316E+01  0.19571070215E+01  0.72461551573E+02  0.69999975612E+02 0.  0.
         12    1    1    2    0    0 -0.17739455666E+02  0.56710947316E+01 -0.19571070215E+01  0.18726448427E+02  0.00000000000E+00 0. -1.
         11    1    3    3    0    0 -0.16318507991E+01 -0.81757768234E+01 -0.39162574877E+01  0.92110442767E+01  0.51100000000E-03 0. -1.
        -11    1    3    3    0    0 -0.17876673004E+02 -0.33703403296E+01 -0.11719668327E+02  0.21639899667E+02  0.51100000000E-03 0.  1.
         12    1    3    3    0    0  0.37247979469E+02  0.58750224214E+01  0.17593032836E+02  0.41610607630E+02  0.00000000000E+00 0. -1.
</event>
<event>
 7    1  0.3189267E-013  0.7246158E+02  0.7816164E-02  0.1226708E+00
        -11   -1    0    0    0    0  0.00000000000E+00  0.00000000000E+00  0.45593999997E+02  0.45594000000E+02  0.51100000000E-03 0. -1.
         11   -1    0    0    0    0 -0.00000000000E+00 -0.00000000000E+00 -0.45593999997E+02  0.45594000000E+02  0.51100000000E-03 0.  1.
    9900012    2    1    2    0    0  0.11193918988E+02  0.72637995515E+01 -0.13138190937E+02  0.72461583703E+02  0.70000017467E+02 0.  0.
         12    1    1    2    0    0 -0.11193918988E+02 -0.72637995515E+01  0.13138190937E+02  0.18726416297E+02  0.00000000000E+00 0. -1.
         11    1    3    3    0    0  0.24517214316E+02  0.93880519674E+01  0.12525910030E+02  0.29088274956E+02  0.51100000000E-03 0. -1.
        -11    1    3    3    0    0 -0.75247361380E+01  0.14297269898E+02 -0.63302284130E+01  0.17352388092E+02  0.51100000000E-03 0.  1.
        -12    1    3    3    0    0 -0.57985591901E+01 -0.16421522313E+02 -0.19333872554E+02  0.26020920655E+02  0.00000000000E+00 0.  1.
</event>
<event>
 7    1  0.3189267E-013  0.7246113E+02  0.7816164E-02  0.1226709E+00
        -11   -1    0    0    0    0  0.00000000000E+00  0.00000000000E+00  0.45593999997E+02  0.45594000000E+02  0.51100000000E-03 0.  1.
         11   -1    0    0    0    0 -0.00000000000E+00 -0.00000000000E+00 -0.45593999997E+02  0.45594000000E+02  0.51100000000E-03 0. -1.
    9900012    2    1    2    0    0 -0.18591448004E+01 -0.83936674748E+01  0.16636875503E+02  0.72461128943E+02  0.69999425056E+02 0.  0.
         12    1    1    2    0    0  0.18591448004E+01  0.83936674748E+01 -0.16636875503E+02  0.18726871057E+02  0.00000000000E+00 0. -1.
         11    1    3    3    0    0  0.15426490508E+01 -0.24599225478E+02 -0.13617208831E+02  0.28159013421E+02  0.51100000000E-03 0. -1.
        -11    1    3    3    0    0  0.19043761552E+01  0.15080556246E+02  0.17663629639E+01  0.15302609699E+02  0.51100000000E-03 0.  1.
        -12    1    3    3    0    0 -0.53061700064E+01  0.11250017579E+01  0.28487721371E+02  0.28999505823E+02  0.00000000000E+00 0.  1.
</event>
<event>
 7    1  0.3189267E-013  0.7246151E+02  0.7816164E-02  0.1226708E+00
        -11   -1    0    0    0    0  0.00000000000E+00  0.00000000000E+00  0.45593999997E+02  0.45594000000E+02  0.51100000000E-03 0.  1.
         11   -1    0    0    0    0 -0.00000000000E+00 -0.00000000000E+00 -0.45593999997E+02  0.45594000000E+02  0.51100000000E-03 0. -1.
    9900012    2    1    2    0    0 -0.87752355035E+01 -0.15840199122E+02  0.47712335880E+01  0.72461512441E+02  0.69999924635E+02 0.  0.
         12    1    1    2    0    0  0.87752355035E+01  0.15840199122E+02 -0.47712335880E+01  0.18726487559E+02  0.00000000000E+00 0. -1.
         11    1    3    3    0    0  0.32039599179E+01  0.10350398404E+01 -0.17929090139E+01  0.38146021575E+01  0.51100000000E-03 0. -1.
        -11    1    3    3    0    0  0.52183011020E+01  0.29629053307E+00  0.32608630139E+02  0.33024857521E+02  0.51100000000E-03 0.  1.
         12    1    3    3    0    0 -0.17197496523E+02 -0.17171529495E+02 -0.26044487537E+02  0.35622052762E+02  0.00000000000E+00 0. -1.
</event>
<event>
 7    1  0.3189267E-013  0.7246158E+02  0.7816164E-02  0.1226708E+00
        -11   -1    0    0    0    0  0.00000000000E+00  0.00000000000E+00  0.45593999997E+02  0.45594000000E+02  0.51100000000E-03 0.  1.
         11   -1    0    0    0    0 -0.00000000000E+00 -0.00000000000E+00 -0.45593999997E+02  0.45594000000E+02  0.51100000000E-03 0. -1.
    9900012    2    1    2    0    0 -0.18202579477E+02 -0.16712760412E+01  0.40683633407E+01  0.72461584339E+02  0.70000018296E+02 0.  0.
         12    1    1    2    0    0  0.18202579477E+02  0.16712760412E+01 -0.40683633407E+01  0.18726415661E+02  0.00000000000E+00 0. -1.
         11    1    3    3    0    0 -0.10150634428E+02 -0.14293343673E+02 -0.22995357554E+02  0.28915765975E+02  0.51100000000E-03 0. -1.
        -11    1    3    3    0    0  0.37874265240E+01 -0.26571582485E+01 -0.45513220421E+01  0.64899631913E+01  0.51100000000E-03 0.  1.
        -12    1    3    3    0    0 -0.11839371573E+02  0.15279225880E+02  0.31615042936E+02  0.37055855173E+02  0.00000000000E+00 0.  1.
</event>
<event>
 7    1  0.3189267E-013  0.7246157E+02  0.7816164E-02  0.1226708E+00
        -11   -1    0    0    0    0  0.00000000000E+00  0.00000000000E+00  0.45593999997E+02  0.45594000000E+02  0.51100000000E-03 0.  1.
         11   -1    0    0    0    0 -0.00000000000E+00 -0.00000000000E+00 -0.45593999997E+02  0.45594000000E+02  0.51100000000E-03 0. -1.
    9900012    2    1    2    0    0 -0.13540085784E+02  0.34769720577E+01  0.12460175444E+02  0.72461568684E+02  0.69999997903E+02 0.  0.
         12    1    1    2    0    0  0.13540085784E+02 -0.34769720577E+01 -0.12460175444E+02  0.18726431316E+02  0.00000000000E+00 0. -1.
         11    1    3    3    0    0 -0.13353029179E+02 -0.18047501299E+01 -0.16081940082E+02  0.20980688938E+02  0.51100000000E-03 0. -1.
        -11    1    3    3    0    0 -0.17481852814E+02 -0.93267185004E+01  0.98758507448E+01  0.22138999164E+02  0.51100000000E-03 0.  1.
        -12    1    3    3    0    0  0.17294796208E+02  0.14608440688E+02  0.18666264780E+02  0.29341880582E+02  0.00000000000E+00 0.  1.
</event>
<event>
 7    1  0.3189267E-013  0.7246155E+02  0.7816164E-02  0.1226708E+00
        -11   -1    0    0    0    0  0.00000000000E+00  0.00000000000E+00  0.45593999997E+02  0.45594000000E+02  0.51100000000E-03 0.  1.
         11   -1    0    0    0    0 -0.00000000000E+00 -0.00000000000E+00 -0.45593999997E+02  0.45594000000E+02  0.51100000000E-03 0. -1.
    9900012    2    1    2    0    0 -0.44182290671E+01 -0.49577924147E+01  0.17509407891E+02  0.72461552969E+02  0.69999977431E+02 0.  0.
         12    1    1    2    0    0  0.44182290671E+01  0.49577924147E+01 -0.17509407891E+02  0.18726447031E+02  0.00000000000E+00 0. -1.
         11    1    3    3    0    0  0.65213981935E+01  0.17352726712E+02  0.31157267800E+02  0.36254945811E+02  0.51100000000E-03 0. -1.
        -11    1    3    3    0    0  0.77834649438E+00 -0.61172478962E+00  0.51211101169E+01  0.52159179033E+01  0.51100000000E-03 0.  1.
        -12    1    3    3    0    0 -0.11717973755E+02 -0.21698794337E+02 -0.18768970027E+02  0.30990689254E+02  0.00000000000E+00 0.  1.
</event>
<event>
 7    1  0.3189267E-013  0.7246155E+02  0.7816164E-02  0.1226708E+00
        -11   -1    0    0    0    0  0.00000000000E+00  0.00000000000E+00  0.45593999997E+02  0.45594000000E+02  0.51100000000E-03 0.  1.
         11   -1    0    0    0    0 -0.00000000000E+00 -0.00000000000E+00 -0.45593999997E+02  0.45594000000E+02  0.51100000000E-03 0. -1.
    9900012    2    1    2    0    0 -0.10213620417E+02 -0.40142850891E+01  0.15173899226E+02  0.72461554941E+02  0.69999980000E+02 0.  0.
         12    1    1    2    0    0  0.10213620417E+02  0.40142850891E+01 -0.15173899226E+02  0.18726445059E+02  0.00000000000E+00 0. -1.
         11    1    3    3    0    0  0.15206059314E+02 -0.98969987892E+01 -0.25262567417E+01  0.18318209473E+02  0.51100000000E-03 0. -1.
        -11    1    3    3    0    0 -0.24614314112E+01 -0.76393732305E+01  0.25213223724E+02  0.26459881307E+02  0.51100000000E-03 0.  1.
        -12    1    3    3    0    0 -0.22958248320E+02  0.13522086931E+02 -0.75130677559E+01  0.27683464162E+02  0.00000000000E+00 0.  1.
</event>
<event>
 7    1  0.3189267E-013  0.7246202E+02  0.7816164E-02  0.1226707E+00
        -11   -1    0    0    0    0  0.00000000000E+00  0.00000000000E+00  0.45593999997E+02  0.45594000000E+02  0.51100000000E-03 0. -1.
         11   -1    0    0    0    0 -0.00000000000E+00 -0.00000000000E+00 -0.45593999997E+02  0.45594000000E+02  0.51100000000E-03 0.  1.
    9900012    2    1    2    0    0  0.14264862725E+02 -0.89476613221E+01 -0.81924049972E+01  0.72462016679E+02  0.70000581496E+02 0.  0.
         12    1    1    2    0    0 -0.14264862725E+02  0.89476613221E+01  0.81924049972E+01  0.18725983321E+02  0.00000000000E+00 0. -1.
         11    1    3    3    0    0  0.81565309958E+01  0.24893944565E+02 -0.26612357396E+01  0.26330963708E+02  0.51100000000E-03 0.  1.
        -11    1    3    3    0    0  0.11001838000E+02 -0.16911843365E+02  0.10111182199E+02  0.22567385562E+02  0.51100000000E-03 0. -1.
        -12    1    3    3    0    0 -0.48935062705E+01 -0.16929762522E+02 -0.15642351456E+02  0.23563667409E+02  0.00000000000E+00 0.  1.
</event>
<event>
 7    1  0.3189267E-013  0.7246157E+02  0.7816164E-02  0.1226708E+00
        -11   -1    0    0    0    0  0.00000000000E+00  0.00000000000E+00  0.45593999997E+02  0.45594000000E+02  0.51100000000E-03 0. -1.
         11   -1    0    0    0    0 -0.00000000000E+00 -0.00000000000E+00 -0.45593999997E+02  0.45594000000E+02  0.51100000000E-03 0.  1.
    9900012    2    1    2    0    0  0.40135631525E-01 -0.17220647357E+02 -0.73570920545E+01  0.72461571890E+02  0.70000002079E+02 0.  0.
         12    1    1    2    0    0 -0.40135631525E-01  0.17220647357E+02  0.73570920545E+01  0.18726428110E+02  0.00000000000E+00 0. -1.
         11    1    3    3    0    0  0.12998178336E+02 -0.25957185966E+02  0.11399729354E+02  0.31187849765E+02  0.51100000000E-03 0. -1.
        -11    1    3    3    0    0  0.91249477727E+01 -0.42845896048E+01 -0.10895870172E+01  0.10139505908E+02  0.51100000000E-03 0.  1.
         12    1    3    3    0    0 -0.22082990478E+02  0.13021128214E+02 -0.17667234392E+02  0.31134216217E+02  0.00000000000E+00 0. -1.
</event>
<event>
 7    1  0.3189267E-013  0.7246157E+02  0.7816164E-02  0.1226708E+00
        -11   -1    0    0    0    0  0.00000000000E+00  0.00000000000E+00  0.45593999997E+02  0.45594000000E+02  0.51100000000E-03 0. -1.
         11   -1    0    0    0    0 -0.00000000000E+00 -0.00000000000E+00 -0.45593999997E+02  0.45594000000E+02  0.51100000000E-03 0.  1.
    9900012    2    1    2    0    0  0.35455788017E+01  0.11101903134E+01 -0.18354168577E+02  0.72461570663E+02  0.70000000480E+02 0.  0.
         12    1    1    2    0    0 -0.35455788017E+01 -0.11101903134E+01  0.18354168577E+02  0.18726429337E+02  0.00000000000E+00 0. -1.
         11    1    3    3    0    0  0.78223398190E+01 -0.23142884576E+02 -0.15464771904E+02  0.28912649084E+02  0.51100000000E-03 0. -1.
        -11    1    3    3    0    0 -0.95396112837E+01  0.17461530301E+02 -0.17566244991E+02  0.26542083326E+02  0.51100000000E-03 0.  1.
         12    1    3    3    0    0  0.52628502664E+01  0.67915445877E+01  0.14676848319E+02  0.17006838254E+02  0.00000000000E+00 0. -1.
</event>
<event>
 7    1  0.3189267E-013  0.7246149E+02  0.7816164E-02  0.1226708E+00
        -11   -1    0    0    0    0  0.00000000000E+00  0.00000000000E+00  0.45593999997E+02  0.45594000000E+02  0.51100000000E-03 0. -1.
         11   -1    0    0    0    0 -0.00000000000E+00 -0.00000000000E+00 -0.45593999997E+02  0.45594000000E+02  0.51100000000E-03 0.  1.
    9900012    2    1    2    0    0  0.52833286473E+01  0.17589176250E+02  0.36591892034E+01  0.72461485418E+02  0.69999889433E+02 0.  0.
         12    1    1    2    0    0 -0.52833286473E+01 -0.17589176250E+02 -0.36591892034E+01  0.18726514582E+02  0.00000000000E+00 0. -1.
         11    1    3    3    0    0  0.17638541308E+02  0.18738105933E+01  0.20806651233E+02  0.27341288218E+02  0.51100000000E-03 0. -1.
        -11    1    3    3    0    0  0.24786030595E+01  0.15571591901E+02  0.66217829458E+01  0.17101636094E+02  0.51100000000E-03 0.  1.
         12    1    3    3    0    0 -0.14833815720E+02  0.14377375614E+00 -0.23769244976E+02  0.28018561106E+02  0.00000000000E+00 0. -1.
</event>
<event>
 7    1  0.3189267E-013  0.7246161E+02  0.7816164E-02  0.1226708E+00
        -11   -1    0    0    0    0  0.00000000000E+00  0.00000000000E+00  0.45593999997E+02  0.45594000000E+02  0.51100000000E-03 0.  1.
         11   -1    0    0    0    0 -0.00000000000E+00 -0.00000000000E+00 -0.45593999997E+02  0.45594000000E+02  0.51100000000E-03 0. -1.
    9900012    2    1    2    0    0  0.37271050987E+01 -0.17951605988E+02  0.38113104294E+01  0.72461613345E+02  0.70000056081E+02 0.  0.
         12    1    1    2    0    0 -0.37271050987E+01  0.17951605988E+02 -0.38113104294E+01  0.18726386655E+02  0.00000000000E+00 0. -1.
         11    1    3    3    0    0  0.24786179834E+01 -0.18892837663E+02  0.13017151008E+02  0.23076591661E+02  0.51100000000E-03 0. -1.
        -11    1    3    3    0    0 -0.18143533973E+02 -0.95323830163E+01 -0.16348398995E+02  0.26216870541E+02  0.51100000000E-03 0.  1.
         12    1    3    3    0    0  0.19392021089E+02  0.10473614692E+02  0.71425584165E+01  0.23168151142E+02  0.00000000000E+00 0. -1.
</event>
<event>
 7    1  0.3189267E-013  0.7246153E+02  0.7816164E-02  0.1226708E+00
        -11   -1    0    0    0    0  0.00000000000E+00  0.00000000000E+00  0.45593999997E+02  0.45594000000E+02  0.51100000000E-03 0. -1.
         11   -1    0    0    0    0 -0.00000000000E+00 -0.00000000000E+00 -0.45593999997E+02  0.45594000000E+02  0.51100000000E-03 0.  1.
    9900012    2    1    2    0    0 -0.68220681368E+01  0.45768692698E+01 -0.16828321748E+02  0.72461527859E+02  0.69999944720E+02 0.  0.
         12    1    1    2    0    0  0.68220681368E+01 -0.45768692698E+01  0.16828321748E+02  0.18726472141E+02  0.00000000000E+00 0. -1.
         11    1    3    3    0    0 -0.10634013696E+02  0.22966161640E+02 -0.67206116875E+01  0.26185748977E+02  0.51100000000E-03 0. -1.
        -11    1    3    3    0    0 -0.11493499620E+02 -0.12105954660E+02 -0.20729123171E+02  0.26614868390E+02  0.51100000000E-03 0.  1.
         12    1    3    3    0    0  0.15305445180E+02 -0.62833377103E+01  0.10621413110E+02  0.19660910492E+02  0.00000000000E+00 0. -1.
</event>
<event>
 7    1  0.3189267E-013  0.7246165E+02  0.7816164E-02  0.1226708E+00
        -11   -1    0    0    0    0  0.00000000000E+00  0.00000000000E+00  0.45593999997E+02  0.45594000000E+02  0.51100000000E-03 0.  1.
         11   -1    0    0    0    0 -0.00000000000E+00 -0.00000000000E+00 -0.45593999997E+02  0.45594000000E+02  0.51100000000E-03 0. -1.
    9900012    2    1    2    0    0  0.30211081691E+01 -0.18453970153E+02  0.10000754645E+01  0.72461647982E+02  0.70000101202E+02 0.  0.
         12    1    1    2    0    0 -0.30211081691E+01  0.18453970153E+02 -0.10000754645E+01  0.18726352018E+02  0.00000000000E+00 0. -1.
         11    1    3    3    0    0 -0.13614872226E+02 -0.19757128996E+02 -0.74397509940E+01  0.25120883484E+02  0.51100000000E-03 0. -1.
        -11    1    3    3    0    0 -0.60620191573E+01 -0.13836103098E+02  0.12689210475E+02  0.19728200322E+02  0.51100000000E-03 0.  1.
         12    1    3    3    0    0  0.22697999552E+02  0.15139261941E+02 -0.42493840169E+01  0.27612564175E+02  0.00000000000E+00 0. -1.
</event>
<event>
 7    1  0.3189267E-013  0.7246156E+02  0.7816164E-02  0.1226708E+00
        -11   -1    0    0    0    0  0.00000000000E+00  0.00000000000E+00  0.45593999997E+02  0.45594000000E+02  0.51100000000E-03 0.  1.
         11   -1    0    0    0    0 -0.00000000000E+00 -0.00000000000E+00 -0.45593999997E+02  0.45594000000E+02  0.51100000000E-03 0. -1.
    9900012    2    1    2    0    0  0.43774093676E+01 -0.13279973304E+02  0.12456327965E+02  0.72461561201E+02  0.69999988154E+02 0.  0.
         12    1    1    2    0    0 -0.43774093676E+01  0.13279973304E+02 -0.12456327965E+02  0.18726438799E+02  0.00000000000E+00 0. -1.
         11    1    3    3    0    0  0.16968527194E+02 -0.54223108685E+01  0.13546949764E+02  0.22379727845E+02  0.51100000000E-03 0. -1.
        -11    1    3    3    0    0 -0.44559961908E+01 -0.27827473264E+02  0.22053739135E+01  0.28268141868E+02  0.51100000000E-03 0.  1.
         12    1    3    3    0    0 -0.81351216354E+01  0.19969810829E+02 -0.32959957119E+01  0.21813691487E+02  0.00000000000E+00 0. -1.
</event>
<event>
 7    1  0.3189267E-013  0.7246158E+02  0.7816164E-02  0.1226708E+00
        -11   -1    0    0    0    0  0.00000000000E+00  0.00000000000E+00  0.45593999997E+02  0.45594000000E+02  0.51100000000E-03 0.  1.
         11   -1    0    0    0    0 -0.00000000000E+00 -0.00000000000E+00 -0.45593999997E+02  0.45594000000E+02  0.51100000000E-03 0. -1.
    9900012    2    1    2    0    0  0.51910782051E+01  0.22068138485E+01  0.17856696856E+02  0.72461576345E+02  0.70000007882E+02 0.  0.
         12    1    1    2    0    0 -0.51910782051E+01 -0.22068138485E+01 -0.17856696856E+02  0.18726423655E+02  0.00000000000E+00 0. -1.
         11    1    3    3    0    0 -0.10401869445E+02 -0.93016654985E+00 -0.16317718638E+02  0.19373488059E+02  0.51100000000E-03 0. -1.
        -11    1    3    3    0    0 -0.53911250627E+01  0.15193135977E+02  0.10539785537E+02  0.19260910926E+02  0.51100000000E-03 0.  1.
        -12    1    3    3    0    0  0.20984072713E+02 -0.12056155578E+02  0.23634629957E+02  0.33827177360E+02  0.00000000000E+00 0.  1.
</event>
<event>
 7    1  0.3189267E-013  0.7246159E+02  0.7816164E-02  0.1226708E+00
        -11   -1    0    0    0    0  0.00000000000E+00  0.00000000000E+00  0.45593999997E+02  0.45594000000E+02  0.51100000000E-03 0. -1.
         11   -1    0    0    0    0 -0.00000000000E+00 -0.00000000000E+00 -0.45593999997E+02  0.45594000000E+02  0.51100000000E-03 0.  1.
    9900012    2    1    2    0    0  0.65831711083E+00  0.18205080075E+02 -0.43382135121E+01  0.72461590349E+02  0.70000026124E+02 0.  0.
         12    1    1    2    0    0 -0.65831711083E+00 -0.18205080075E+02  0.43382135121E+01  0.18726409651E+02  0.00000000000E+00 0. -1.
         11    1    3    3    0    0  0.12059209784E+02  0.16471734100E+02 -0.25755475328E+01  0.20576102892E+02  0.51100000000E-03 0. -1.
        -11    1    3    3    0    0 -0.11778966542E+02  0.96516483023E+01 -0.23918157274E+02  0.28354481398E+02  0.51100000000E-03 0.  1.
         12    1    3    3    0    0  0.37807386894E+00 -0.79183023277E+01  0.22155491295E+02  0.23531006058E+02  0.00000000000E+00 0. -1.
</event>
<event>
 7    1  0.3189267E-013  0.7246181E+02  0.7816164E-02  0.1226707E+00
        -11   -1    0    0    0    0  0.00000000000E+00  0.00000000000E+00  0.45593999997E+02  0.45594000000E+02  0.51100000000E-03 0.  1.
         11   -1    0    0    0    0 -0.00000000000E+00 -0.00000000000E+00 -0.45593999997E+02  0.45594000000E+02  0.51100000000E-03 0. -1.
    9900012    2    1    2    0    0 -0.15901548215E+02  0.89776703082E+01  0.41487788271E+01  0.72461810704E+02  0.70000313177E+02 0.  0.
         12    1    1    2    0    0  0.15901548215E+02 -0.89776703082E+01 -0.41487788271E+01  0.18726189296E+02  0.00000000000E+00 0. -1.
         11    1    3    3    0    0  0.12711689799E+02  0.73131795229E+01 -0.73467605655E+01  0.16402577339E+02  0.51100000000E-03 0. -1.
        -11    1    3    3    0    0  0.81175407535E+01  0.10716052910E+02 -0.55784693562E+01  0.14554984661E+02  0.51100000000E-03 0.  1.
         12    1    3    3    0    0 -0.36730778768E+02 -0.90515621247E+01  0.17074008749E+02  0.41504248705E+02  0.00000000000E+00 0. -1.
</event>
<event>
 7    1  0.3189267E-013  0.7246161E+02  0.7816164E-02  0.1226708E+00
        -11   -1    0    0    0    0  0.00000000000E+00  0.00000000000E+00  0.45593999997E+02  0.45594000000E+02  0.51100000000E-03 0.  1.
         11   -1    0    0    0    0 -0.00000000000E+00 -0.00000000000E+00 -0.45593999997E+02  0.45594000000E+02  0.51100000000E-03 0. -1.
    9900012    2    1    2    0    0  0.56562086178E+01  0.70882052491E+01  0.16384213150E+02  0.72461607124E+02  0.70000047978E+02 0.  0.
         12    1    1    2    0    0 -0.56562086178E+01 -0.70882052491E+01 -0.16384213150E+02  0.18726392876E+02  0.00000000000E+00 0. -1.
         11    1    3    3    0    0  0.20184752990E+02  0.31949994281E+01  0.27438587381E+02  0.34212692854E+02  0.51100000000E-03 0. -1.
        -11    1    3    3    0    0 -0.71799794482E+01  0.91485158676E+01  0.10000191434E+02  0.15337903261E+02  0.51100000000E-03 0.  1.
        -12    1    3    3    0    0 -0.73485649238E+01 -0.52553100466E+01 -0.21054565665E+02  0.22911011009E+02  0.00000000000E+00 0.  1.
</event>
<event>
 7    1  0.3189267E-013  0.7246154E+02  0.7816164E-02  0.1226708E+00
        -11   -1    0    0    0    0  0.00000000000E+00  0.00000000000E+00  0.45593999997E+02  0.45594000000E+02  0.51100000000E-03 0.  1.
         11   -1    0    0    0    0 -0.00000000000E+00 -0.00000000000E+00 -0.45593999997E+02  0.45594000000E+02  0.51100000000E-03 0. -1.
    9900012    2    1    2    0    0 -0.52219936056E+01 -0.20467210243E+01  0.17866781913E+02  0.72461543311E+02  0.69999964850E+02 0.  0.
         12    1    1    2    0    0  0.52219936056E+01  0.20467210243E+01 -0.17866781913E+02  0.18726456689E+02  0.00000000000E+00 0. -1.
         11    1    3    3    0    0 -0.32091962947E+01 -0.11799696480E+02  0.10451367950E+02  0.16086107987E+02  0.51100000000E-03 0. -1.
        -11    1    3    3    0    0  0.38784252232E+01 -0.21953400335E+02  0.91076794290E+01  0.24082022202E+02  0.51100000000E-03 0.  1.
         12    1    3    3    0    0 -0.58912225342E+01  0.31706375791E+02 -0.16922654656E+01  0.32293413123E+02  0.00000000000E+00 0. -1.
</event>
<event>
 7    1  0.3189267E-013  0.7246155E+02  0.7816164E-02  0.1226708E+00
        -11   -1    0    0    0    0  0.00000000000E+00  0.00000000000E+00  0.45593999997E+02  0.45594000000E+02  0.51100000000E-03 0.  1.
         11   -1    0    0    0    0 -0.00000000000E+00 -0.00000000000E+00 -0.45593999997E+02  0.45594000000E+02  0.51100000000E-03 0. -1.
    9900012    2    1    2    0    0 -0.41158389278E+01  0.16150649654E+02  0.85379302966E+01  0.72461551642E+02  0.69999975702E+02 0.  0.
         12    1    1    2    0    0  0.41158389278E+01 -0.16150649654E+02 -0.85379302966E+01  0.18726448358E+02  0.00000000000E+00 0. -1.
         11    1    3    3    0    0 -0.10636369564E+02  0.80508075584E+01 -0.13348714743E+02  0.18871567115E+02  0.51100000000E-03 0. -1.
        -11    1    3    3    0    0  0.16586887482E+01  0.17151861333E+02 -0.10113616749E+02  0.19980561542E+02  0.51100000000E-03 0.  1.
         12    1    3    3    0    0  0.48618418881E+01 -0.90520192366E+01  0.32000261789E+02  0.33609422984E+02  0.00000000000E+00 0. -1.
</event>
<event>
 7    1  0.3189267E-013  0.7246157E+02  0.7816164E-02  0.1226708E+00
        -11   -1    0    0    0    0  0.00000000000E+00  0.00000000000E+00  0.45593999997E+02  0.45594000000E+02  0.51100000000E-03 0.  1.
         11   -1    0    0    0    0 -0.00000000000E+00 -0.00000000000E+00 -0.45593999997E+02  0.45594000000E+02  0.51100000000E-03 0. -1.
    9900012    2    1    2    0    0  0.29807012161E+01 -0.47078178630E+01  0.17878227183E+02  0.72461571190E+02  0.70000001166E+02 0.  0.
         12    1    1    2    0    0 -0.29807012161E+01  0.47078178630E+01 -0.17878227183E+02  0.18726428810E+02  0.00000000000E+00 0. -1.
         11    1    3    3    0    0  0.11760226586E+02  0.16078761686E+02  0.63993890982E+01  0.20923233206E+02  0.51100000000E-03 0. -1.
        -11    1    3    3    0    0  0.39950455830E+01 -0.12108161886E+01  0.24451065472E+02  0.24804859767E+02  0.51100000000E-03 0.  1.
        -12    1    3    3    0    0 -0.12774570953E+02 -0.19575763361E+02 -0.12972227387E+02  0.26733478217E+02  0.00000000000E+00 0.  1.
</event>
<event>
 7    1  0.3733787E-013  0.7246157E+02  0.7816164E-02  0.1226708E+00
        -11   -1    0    0    0    0  0.00000000000E+00  0.00000000000E+00  0.45593999997E+02  0.45594000000E+02  0.51100000000E-03 0. -1.
         11   -1    0    0    0    0 -0.00000000000E+00 -0.00000000000E+00 -0.45593999997E+02  0.45594000000E+02  0.51100000000E-03 0.  1.
    9900012    2    1    2    0    0 -0.49714683262E+01  0.89281490725E+01 -0.15692414536E+02  0.72461569023E+02  0.69999998344E+02 0.  0.
         12    1    1    2    0    0  0.49714683262E+01 -0.89281490725E+01  0.15692414536E+02  0.18726430977E+02  0.00000000000E+00 0. -1.
         11    1    3    3    0    0  0.18331837169E+02 -0.17529878582E+02 -0.27865839058E+01  0.25517012898E+02  0.51100000000E-03 0. -1.
        -11    1    3    3    0    0  0.37377719304E+00 -0.31064805556E+01 -0.81996498297E+01  0.87763425425E+01  0.51100000000E-03 0.  1.
        -12    1    3    3    0    0 -0.23677082688E+02  0.29564508211E+02 -0.47061808003E+01  0.38168213583E+02  0.00000000000E+00 0.  1.
</event>
<event>
 7    1  0.3189267E-013  0.7246156E+02  0.7816164E-02  0.1226708E+00
        -11   -1    0    0    0    0  0.00000000000E+00  0.00000000000E+00  0.45593999997E+02  0.45594000000E+02  0.51100000000E-03 0.  1.
         11   -1    0    0    0    0 -0.00000000000E+00 -0.00000000000E+00 -0.45593999997E+02  0.45594000000E+02  0.51100000000E-03 0. -1.
    9900012    2    1    2    0    0 -0.24572117651E+01  0.54117061164E+01  0.17758242008E+02  0.72461558481E+02  0.69999984610E+02 0.  0.
         12    1    1    2    0    0  0.24572117651E+01 -0.54117061164E+01 -0.17758242008E+02  0.18726441519E+02  0.00000000000E+00 0. -1.
         11    1    3    3    0    0 -0.25323322655E+02  0.61051342275E+01 -0.45977004956E+01  0.26451506277E+02  0.51100000000E-03 0. -1.
        -11    1    3    3    0    0 -0.34912822524E+01  0.11383734383E+01  0.19029412118E+02  0.19380492038E+02  0.51100000000E-03 0.  1.
        -12    1    3    3    0    0  0.26357393142E+02 -0.18318015494E+01  0.33265303865E+01  0.26629560165E+02  0.00000000000E+00 0.  1.
</event>
<event>
 7    1  0.3189267E-013  0.7246172E+02  0.7816164E-02  0.1226708E+00
        -11   -1    0    0    0    0  0.00000000000E+00  0.00000000000E+00  0.45593999997E+02  0.45594000000E+02  0.51100000000E-03 0.  1.
         11   -1    0    0    0    0 -0.00000000000E+00 -0.00000000000E+00 -0.45593999997E+02  0.45594000000E+02  0.51100000000E-03 0. -1.
    9900012    2    1    2    0    0 -0.15489368826E+02 -0.64255424601E+01  0.83345959800E+01  0.72461718130E+02  0.70000192583E+02 0.  0.
         12    1    1    2    0    0  0.15489368826E+02  0.64255424601E+01 -0.83345959800E+01  0.18726281870E+02  0.00000000000E+00 0. -1.
         11    1    3    3    0    0 -0.13953266528E+02  0.27281540543E+02 -0.93049559529E-01  0.30642858216E+02  0.51100000000E-03 0.  1.
        -11    1    3    3    0    0 -0.15883702764E+01  0.30219565876E+01  0.32737088136E+01  0.47299377808E+01  0.51100000000E-03 0. -1.
         12    1    3    3    0    0  0.52267977754E-01 -0.36729039591E+02  0.51539367259E+01  0.37088922133E+02  0.00000000000E+00 0. -1.
</event>
<event>
 7    1  0.3189267E-013  0.7246167E+02  0.7816164E-02  0.1226708E+00
        -11   -1    0    0    0    0  0.00000000000E+00  0.00000000000E+00  0.45593999997E+02  0.45594000000E+02  0.51100000000E-03 0. -1.
         11   -1    0    0    0    0 -0.00000000000E+00 -0.00000000000E+00 -0.45593999997E+02  0.45594000000E+02  0.51100000000E-03 0.  1.
    9900012    2    1    2    0    0 -0.14500318800E+02 -0.64322757324E+01  0.99519928671E+01  0.72461666178E+02  0.70000124906E+02 0.  0.
         12    1    1    2    0    0  0.14500318800E+02  0.64322757324E+01 -0.99519928671E+01  0.18726333822E+02  0.00000000000E+00 0. -1.
         11    1    3    3    0    0 -0.72768878580E+01 -0.25429084827E+01  0.46920272477E+01  0.90241121671E+01  0.51100000000E-03 0. -1.
        -11    1    3    3    0    0 -0.80584895614E+01 -0.30616743769E+02  0.14928824778E+02  0.35002772212E+02  0.51100000000E-03 0.  1.
         12    1    3    3    0    0  0.83505861983E+00  0.26727376519E+02 -0.96688591586E+01  0.28434781799E+02  0.00000000000E+00 0. -1.
</event>
<event>
 7    1  0.3189267E-013  0.7246159E+02  0.7816164E-02  0.1226708E+00
        -11   -1    0    0    0    0  0.00000000000E+00  0.00000000000E+00  0.45593999997E+02  0.45594000000E+02  0.51100000000E-03 0.  1.
         11   -1    0    0    0    0 -0.00000000000E+00 -0.00000000000E+00 -0.45593999997E+02  0.45594000000E+02  0.51100000000E-03 0. -1.
    9900012    2    1    2    0    0  0.59573981798E+01  0.54472714860E+01  0.16897190652E+02  0.72461590529E+02  0.70000026360E+02 0.  0.
         12    1    1    2    0    0 -0.59573981798E+01 -0.54472714860E+01 -0.16897190652E+02  0.18726409471E+02  0.00000000000E+00 0. -1.
         11    1    3    3    0    0 -0.15483875804E+01 -0.11919892156E+02  0.69594791147E+01  0.13889409020E+02  0.51100000000E-03 0. -1.
        -11    1    3    3    0    0 -0.34500071236E+00 -0.13599769501E+02  0.20778914991E+02  0.24836184579E+02  0.51100000000E-03 0.  1.
         12    1    3    3    0    0  0.78507864726E+01  0.30966933143E+02 -0.10841203454E+02  0.33735996930E+02  0.00000000000E+00 0. -1.
</event>
<event>
 7    1  0.3189267E-013  0.7246149E+02  0.7816164E-02  0.1226708E+00
        -11   -1    0    0    0    0  0.00000000000E+00  0.00000000000E+00  0.45593999997E+02  0.45594000000E+02  0.51100000000E-03 0.  1.
         11   -1    0    0    0    0 -0.00000000000E+00 -0.00000000000E+00 -0.45593999997E+02  0.45594000000E+02  0.51100000000E-03 0. -1.
    9900012    2    1    2    0    0 -0.11375035613E+02  0.79182216277E+01  0.12593355127E+02  0.72461487717E+02  0.69999892428E+02 0.  0.
         12    1    1    2    0    0  0.11375035613E+02 -0.79182216277E+01 -0.12593355127E+02  0.18726512283E+02  0.00000000000E+00 0. -1.
         11    1    3    3    0    0 -0.11751058177E+02  0.89418641277E+01 -0.94091972200E+01  0.17509348787E+02  0.51100000000E-03 0. -1.
        -11    1    3    3    0    0 -0.16600193220E+02 -0.12488218244E+02 -0.46990473989E+01  0.21297958977E+02  0.51100000000E-03 0.  1.
         12    1    3    3    0    0  0.16976215784E+02  0.11464575744E+02  0.26701599745E+02  0.33654179953E+02  0.00000000000E+00 0. -1.
</event>
<event>
 7    1  0.3189267E-013  0.7246157E+02  0.7816164E-02  0.1226708E+00
        -11   -1    0    0    0    0  0.00000000000E+00  0.00000000000E+00  0.45593999997E+02  0.45594000000E+02  0.51100000000E-03 0. -1.
         11   -1    0    0    0    0 -0.00000000000E+00 -0.00000000000E+00 -0.45593999997E+02  0.45594000000E+02  0.51100000000E-03 0.  1.
    9900012    2    1    2    0    0 -0.35681377208E+01 -0.96488613538E+01 -0.15647584614E+02  0.72461573847E+02  0.70000004628E+02 0.  0.
         12    1    1    2    0    0  0.35681377208E+01  0.96488613538E+01  0.15647584614E+02  0.18726426153E+02  0.00000000000E+00 0. -1.
         11    1    3    3    0    0 -0.32019761017E+01 -0.95897262500E+01  0.15925509016E+02  0.18863651242E+02  0.51100000000E-03 0. -1.
        -11    1    3    3    0    0 -0.16556006301E+02  0.14111442617E+02 -0.14694041468E+02  0.26251647801E+02  0.51100000000E-03 0.  1.
         12    1    3    3    0    0  0.16189844681E+02 -0.14170577721E+02 -0.16879052162E+02  0.27346274803E+02  0.00000000000E+00 0. -1.
</event>
<event>
 7    1  0.3189267E-013  0.7246166E+02  0.7816164E-02  0.1226708E+00
        -11   -1    0    0    0    0  0.00000000000E+00  0.00000000000E+00  0.45593999997E+02  0.45594000000E+02  0.51100000000E-03 0.  1.
         11   -1    0    0    0    0 -0.00000000000E+00 -0.00000000000E+00 -0.45593999997E+02  0.45594000000E+02  0.51100000000E-03 0. -1.
    9900012    2    1    2    0    0 -0.94132311521E+01 -0.76579318749E+01  0.14262648277E+02  0.72461655531E+02  0.70000111036E+02 0.  0.
         12    1    1    2    0    0  0.94132311521E+01  0.76579318749E+01 -0.14262648277E+02  0.18726344469E+02  0.00000000000E+00 0. -1.
         11    1    3    3    0    0 -0.60105858462E+01  0.11380274095E+02 -0.23920329282E+02  0.27162841050E+02  0.51100000000E-03 0. -1.
        -11    1    3    3    0    0  0.40354086353E+00  0.24233953854E+01  0.26523970284E+01  0.36153700613E+01  0.51100000000E-03 0.  1.
        -12    1    3    3    0    0 -0.38061861694E+01 -0.21461601355E+02  0.35530580530E+02  0.41683444420E+02  0.00000000000E+00 0.  1.
</event>
<event>
 7    1  0.3189267E-013  0.7246150E+02  0.7816164E-02  0.1226708E+00
        -11   -1    0    0    0    0  0.00000000000E+00  0.00000000000E+00  0.45593999997E+02  0.45594000000E+02  0.51100000000E-03 0.  1.
         11   -1    0    0    0    0 -0.00000000000E+00 -0.00000000000E+00 -0.45593999997E+02  0.45594000000E+02  0.51100000000E-03 0. -1.
    9900012    2    1    2    0    0 -0.30059433001E+01  0.96358069117E+01  0.15773307479E+02  0.72461502762E+02  0.69999912027E+02 0.  0.
         12    1    1    2    0    0  0.30059433001E+01 -0.96358069117E+01 -0.15773307479E+02  0.18726497238E+02  0.00000000000E+00 0. -1.
         11    1    3    3    0    0 -0.69477444285E+01 -0.10754694505E+02  0.44826245488E+01  0.13565711542E+02  0.51100000000E-03 0. -1.
        -11    1    3    3    0    0 -0.11113263485E+01 -0.18384267699E+02  0.63524622051E+01  0.19482559417E+02  0.51100000000E-03 0.  1.
        -12    1    3    3    0    0  0.50531274769E+01  0.38774769116E+02  0.49382207251E+01  0.39413231804E+02  0.00000000000E+00 0.  1.
</event>
<event>
 7    1  0.3189267E-013  0.7246154E+02  0.7816164E-02  0.1226708E+00
        -11   -1    0    0    0    0  0.00000000000E+00  0.00000000000E+00  0.45593999997E+02  0.45594000000E+02  0.51100000000E-03 0.  1.
         11   -1    0    0    0    0 -0.00000000000E+00 -0.00000000000E+00 -0.45593999997E+02  0.45594000000E+02  0.51100000000E-03 0. -1.
    9900012    2    1    2    0    0 -0.88427225289E+01  0.10734938964E+00  0.16506816766E+02  0.72461541035E+02  0.69999961885E+02 0.  0.
         12    1    1    2    0    0  0.88427225289E+01 -0.10734938964E+00 -0.16506816766E+02  0.18726458965E+02  0.00000000000E+00 0. -1.
         11    1    3    3    0    0 -0.11927965669E+02  0.19972046536E+02 -0.50253129394E+01  0.23799428107E+02  0.51100000000E-03 0. -1.
        -11    1    3    3    0    0 -0.17231807880E+02 -0.36767699819E+01  0.76604835182E+01  0.19212934401E+02  0.51100000000E-03 0.  1.
         12    1    3    3    0    0  0.20317051019E+02 -0.16187927164E+02  0.13871646187E+02  0.29449178527E+02  0.00000000000E+00 0. -1.
</event>
<event>
 7    1  0.3189267E-013  0.7246160E+02  0.7816164E-02  0.1226708E+00
        -11   -1    0    0    0    0  0.00000000000E+00  0.00000000000E+00  0.45593999997E+02  0.45594000000E+02  0.51100000000E-03 0. -1.
         11   -1    0    0    0    0 -0.00000000000E+00 -0.00000000000E+00 -0.45593999997E+02  0.45594000000E+02  0.51100000000E-03 0.  1.
    9900012    2    1    2    0    0  0.31611778905E+01  0.16508276472E+02 -0.82560202798E+01  0.72461598622E+02  0.70000036902E+02 0.  0.
         12    1    1    2    0    0 -0.31611778905E+01 -0.16508276472E+02  0.82560202798E+01  0.18726401378E+02  0.00000000000E+00 0. -1.
         11    1    3    3    0    0 -0.16791579292E+02  0.36039396101E+02 -0.14074699474E+02  0.42176917526E+02  0.51100000000E-03 0.  1.
        -11    1    3    3    0    0  0.85350163267E+01 -0.79089240973E+01  0.75956339707E+01  0.13895727392E+02  0.51100000000E-03 0. -1.
        -12    1    3    3    0    0  0.11417740856E+02 -0.11622195532E+02 -0.17769547764E+01  0.16388953704E+02  0.00000000000E+00 0.  1.
</event>
<event>
 7    1  0.3189267E-013  0.7246156E+02  0.7816164E-02  0.1226708E+00
        -11   -1    0    0    0    0  0.00000000000E+00  0.00000000000E+00  0.45593999997E+02  0.45594000000E+02  0.51100000000E-03 0.  1.
         11   -1    0    0    0    0 -0.00000000000E+00 -0.00000000000E+00 -0.45593999997E+02  0.45594000000E+02  0.51100000000E-03 0. -1.
    9900012    2    1    2    0    0  0.37600423457E+01 -0.18339060494E+02 -0.46962885589E+00  0.72461558547E+02  0.69999984697E+02 0.  0.
         12    1    1    2    0    0 -0.37600423457E+01  0.18339060494E+02  0.46962885589E+00  0.18726441453E+02  0.00000000000E+00 0. -1.
         11    1    3    3    0    0 -0.33168937397E+01 -0.15844808079E+02 -0.23424235691E+01  0.16356854086E+02  0.51100000000E-03 0. -1.
        -11    1    3    3    0    0 -0.22456585840E+02 -0.77836409876E+01  0.87436614654E+01  0.25324591422E+02  0.51100000000E-03 0.  1.
         12    1    3    3    0    0  0.29533521925E+02  0.52893885729E+01 -0.68708667522E+01  0.30780113039E+02  0.00000000000E+00 0. -1.
</event>
<event>
 7    1  0.3189267E-013  0.7246149E+02  0.7816164E-02  0.1226708E+00
        -11   -1    0    0    0    0  0.00000000000E+00  0.00000000000E+00  0.45593999997E+02  0.45594000000E+02  0.51100000000E-03 0. -1.
         11   -1    0    0    0    0 -0.00000000000E+00 -0.00000000000E+00 -0.45593999997E+02  0.45594000000E+02  0.51100000000E-03 0.  1.
    9900012    2    1    2    0    0 -0.13248910772E+02  0.12624689762E+02  0.39706108273E+01  0.72461489952E+02  0.69999895339E+02 0.  0.
         12    1    1    2    0    0  0.13248910772E+02 -0.12624689762E+02 -0.39706108273E+01  0.18726510048E+02  0.00000000000E+00 0. -1.
         11    1    3    3    0    0  0.10947878946E+02  0.79393857449E+01  0.18089046494E+02  0.22585471055E+02  0.51100000000E-03 0. -1.
        -11    1    3    3    0    0  0.33027875111E+01  0.69924477290E+01 -0.20189540799E+02  0.21619904914E+02  0.51100000000E-03 0.  1.
        -12    1    3    3    0    0 -0.27499577229E+02 -0.23071437118E+01  0.60711051320E+01  0.28256113983E+02  0.00000000000E+00 0.  1.
</event>
<event>
 7    1  0.3189267E-013  0.7246154E+02  0.7816164E-02  0.1226708E+00
        -11   -1    0    0    0    0  0.00000000000E+00  0.00000000000E+00  0.45593999997E+02  0.45594000000E+02  0.51100000000E-03 0. -1.
         11   -1    0    0    0    0 -0.00000000000E+00 -0.00000000000E+00 -0.45593999997E+02  0.45594000000E+02  0.51100000000E-03 0.  1.
    9900012    2    1    2    0    0 -0.55586525630E+01  0.17465732571E+02  0.38379717518E+01  0.72461535846E+02  0.69999955124E+02 0.  0.
         12    1    1    2    0    0  0.55586525630E+01 -0.17465732571E+02 -0.38379717518E+01  0.18726464154E+02  0.00000000000E+00 0. -1.
         11    1    3    3    0    0  0.23141168975E+00 -0.14953383836E+02  0.76402092232E+01  0.16793749932E+02  0.51100000000E-03 0. -1.
        -11    1    3    3    0    0 -0.69350246072E+01  0.86513270323E+01 -0.22711832169E+02  0.25273847084E+02  0.51100000000E-03 0.  1.
        -12    1    3    3    0    0  0.11449603545E+01  0.23767789375E+02  0.18909594697E+02  0.30393938830E+02  0.00000000000E+00 0.  1.
</event>
<event>
 7    1  0.3189267E-013  0.7246159E+02  0.7816164E-02  0.1226708E+00
        -11   -1    0    0    0    0  0.00000000000E+00  0.00000000000E+00  0.45593999997E+02  0.45594000000E+02  0.51100000000E-03 0.  1.
         11   -1    0    0    0    0 -0.00000000000E+00 -0.00000000000E+00 -0.45593999997E+02  0.45594000000E+02  0.51100000000E-03 0. -1.
    9900012    2    1    2    0    0  0.31129872151E+01 -0.12043409751E+02  0.13997997303E+02  0.72461592541E+02  0.70000028980E+02 0.  0.
         12    1    1    2    0    0 -0.31129872151E+01  0.12043409751E+02 -0.13997997303E+02  0.18726407459E+02  0.00000000000E+00 0. -1.
         11    1    3    3    0    0  0.11232678372E+02 -0.45918161507E+01  0.10492622320E+02  0.16042224359E+02  0.51100000000E-03 0. -1.
        -11    1    3    3    0    0  0.15990136667E+02 -0.17948624584E+02 -0.10947147092E+02  0.26413587881E+02  0.51100000000E-03 0.  1.
         12    1    3    3    0    0 -0.24109827823E+02  0.10497030983E+02  0.14452522075E+02  0.30005780301E+02  0.00000000000E+00 0. -1.
</event>
<event>
 7    1  0.3189267E-013  0.7246157E+02  0.7816164E-02  0.1226708E+00
        -11   -1    0    0    0    0  0.00000000000E+00  0.00000000000E+00  0.45593999997E+02  0.45594000000E+02  0.51100000000E-03 0.  1.
         11   -1    0    0    0    0 -0.00000000000E+00 -0.00000000000E+00 -0.45593999997E+02  0.45594000000E+02  0.51100000000E-03 0. -1.
    9900012    2    1    2    0    0  0.23317449330E+01  0.13259664201E+02  0.13016269209E+02  0.72461575000E+02  0.70000006130E+02 0.  0.
         12    1    1    2    0    0 -0.23317449330E+01 -0.13259664201E+02 -0.13016269209E+02  0.18726425000E+02  0.00000000000E+00 0. -1.
         11    1    3    3    0    0 -0.17268285565E+01 -0.11461243927E+02  0.21843091649E+02  0.24727771882E+02  0.51100000000E-03 0. -1.
        -11    1    3    3    0    0  0.18557521676E+02  0.33910166135E+01  0.34370241317E+01  0.19175341967E+02  0.51100000000E-03 0.  1.
         12    1    3    3    0    0 -0.14498948186E+02  0.21329891515E+02 -0.12263846572E+02  0.28558461150E+02  0.00000000000E+00 0. -1.
</event>
<event>
 7    1  0.3189267E-013  0.7246154E+02  0.7816164E-02  0.1226708E+00
        -11   -1    0    0    0    0  0.00000000000E+00  0.00000000000E+00  0.45593999997E+02  0.45594000000E+02  0.51100000000E-03 0.  1.
         11   -1    0    0    0    0 -0.00000000000E+00 -0.00000000000E+00 -0.45593999997E+02  0.45594000000E+02  0.51100000000E-03 0. -1.
    9900012    2    1    2    0    0 -0.82283882373E+01 -0.27380237247E+01  0.16597506029E+02  0.72461538688E+02  0.69999958827E+02 0.  0.
         12    1    1    2    0    0  0.82283882373E+01  0.27380237247E+01 -0.16597506029E+02  0.18726461312E+02  0.00000000000E+00 0. -1.
         11    1    3    3    0    0  0.10498274850E+02 -0.13715242499E+02 -0.35149433004E+01  0.17626017085E+02  0.51100000000E-03 0. -1.
        -11    1    3    3    0    0  0.37205409320E+01  0.69481832138E+01  0.29230465190E+02  0.30274407843E+02  0.51100000000E-03 0.  1.
         12    1    3    3    0    0 -0.22447204020E+02  0.40290355601E+01 -0.91180158604E+01  0.24561113759E+02  0.00000000000E+00 0. -1.
</event>
<event>
 7    1  0.3189267E-013  0.7246162E+02  0.7816164E-02  0.1226708E+00
        -11   -1    0    0    0    0  0.00000000000E+00  0.00000000000E+00  0.45593999997E+02  0.45594000000E+02  0.51100000000E-03 0. -1.
         11   -1    0    0    0    0 -0.00000000000E+00 -0.00000000000E+00 -0.45593999997E+02  0.45594000000E+02  0.51100000000E-03 0.  1.
    9900012    2    1    2    0    0 -0.13254149339E+02 -0.48460633392E+01 -0.12309360650E+02  0.72461623837E+02  0.70000069749E+02 0.  0.
         12    1    1    2    0    0  0.13254149339E+02  0.48460633392E+01  0.12309360650E+02  0.18726376163E+02  0.00000000000E+00 0. -1.
         11    1    3    3    0    0 -0.79177315285E+01 -0.21324113255E+02  0.11455226171E+02  0.25468225018E+02  0.51100000000E-03 0. -1.
        -11    1    3    3    0    0 -0.79320580877E+00 -0.64688276219E+01  0.61891455566E+01  0.89877933464E+01  0.51100000000E-03 0.  1.
        -12    1    3    3    0    0 -0.45432120020E+01  0.22946877537E+02 -0.29953732377E+02  0.38005605473E+02  0.00000000000E+00 0.  1.
</event>
<event>
 7    1  0.3189267E-013  0.7246100E+02  0.7816164E-02  0.1226710E+00
        -11   -1    0    0    0    0  0.00000000000E+00  0.00000000000E+00  0.45593999997E+02  0.45594000000E+02  0.51100000000E-03 0.  1.
         11   -1    0    0    0    0 -0.00000000000E+00 -0.00000000000E+00 -0.45593999997E+02  0.45594000000E+02  0.51100000000E-03 0. -1.
    9900012    2    1    2    0    0 -0.27402782625E+01 -0.17417985054E+01  0.18443362991E+02  0.72460997426E+02  0.69999253729E+02 0.  0.
         12    1    1    2    0    0  0.27402782625E+01  0.17417985054E+01 -0.18443362991E+02  0.18727002574E+02  0.00000000000E+00 0. -1.
         11    1    3    3    0    0 -0.20945483018E+02 -0.98107956355E+01 -0.18430751237E+01  0.23202626921E+02  0.51100000000E-03 0. -1.
        -11    1    3    3    0    0  0.33237415844E+01 -0.12418267899E+02  0.20191518536E+02  0.23936542290E+02  0.51100000000E-03 0.  1.
        -12    1    3    3    0    0  0.14881463171E+02  0.20487265029E+02  0.94919578193E-01  0.25321828216E+02  0.00000000000E+00 0.  1.
</event>
<event>
 7    1  0.3189267E-013  0.7246149E+02  0.7816164E-02  0.1226708E+00
        -11   -1    0    0    0    0  0.00000000000E+00  0.00000000000E+00  0.45593999997E+02  0.45594000000E+02  0.51100000000E-03 0.  1.
         11   -1    0    0    0    0 -0.00000000000E+00 -0.00000000000E+00 -0.45593999997E+02  0.45594000000E+02  0.51100000000E-03 0. -1.
    9900012    2    1    2    0    0 -0.39189416698E+00  0.10762131358E+02 -0.15320086040E+02  0.72461492352E+02  0.69999898466E+02 0.  0.
         12    1    1    2    0    0  0.39189416698E+00 -0.10762131358E+02  0.15320086040E+02  0.18726507648E+02  0.00000000000E+00 0. -1.
         11    1    3    3    0    0  0.35529132372E+01  0.24642247267E+02  0.42980640575E+01  0.25265329955E+02  0.51100000000E-03 0. -1.
        -11    1    3    3    0    0 -0.11311259148E+02 -0.90688215377E+01  0.91290517814E+01  0.17132649949E+02  0.51100000000E-03 0.  1.
         12    1    3    3    0    0  0.73664517442E+01 -0.48112943713E+01 -0.28747201879E+02  0.30063512448E+02  0.00000000000E+00 0. -1.
</event>
<event>
 7    1  0.3189267E-013  0.7246155E+02  0.7816164E-02  0.1226708E+00
        -11   -1    0    0    0    0  0.00000000000E+00  0.00000000000E+00  0.45593999997E+02  0.45594000000E+02  0.51100000000E-03 0.  1.
         11   -1    0    0    0    0 -0.00000000000E+00 -0.00000000000E+00 -0.45593999997E+02  0.45594000000E+02  0.51100000000E-03 0. -1.
    9900012    2    1    2    0    0  0.67388847561E+00  0.23130552138E+01  0.18570827523E+02  0.72461548522E+02  0.69999971637E+02 0.  0.
         12    1    1    2    0    0 -0.67388847561E+00 -0.23130552138E+01 -0.18570827523E+02  0.18726451478E+02  0.00000000000E+00 0. -1.
         11    1    3    3    0    0 -0.22175600261E+02 -0.39112243506E+01 -0.13052086061E+02  0.26027137254E+02  0.51100000000E-03 0. -1.
        -11    1    3    3    0    0  0.14740491314E+01  0.11796938995E+02  0.11895442120E+02  0.16817911106E+02  0.51100000000E-03 0.  1.
        -12    1    3    3    0    0  0.21375439605E+02 -0.55726594305E+01  0.19727471463E+02  0.29616500161E+02  0.00000000000E+00 0.  1.
</event>
<event>
 7    1  0.3189267E-013  0.7246156E+02  0.7816164E-02  0.1226708E+00
        -11   -1    0    0    0    0  0.00000000000E+00  0.00000000000E+00  0.45593999997E+02  0.45594000000E+02  0.51100000000E-03 0.  1.
         11   -1    0    0    0    0 -0.00000000000E+00 -0.00000000000E+00 -0.45593999997E+02  0.45594000000E+02  0.51100000000E-03 0. -1.
    9900012    2    1    2    0    0  0.17665998187E+02 -0.33395871224E+01  0.52382546605E+01  0.72461557572E+02  0.69999983427E+02 0.  0.
         12    1    1    2    0    0 -0.17665998187E+02  0.33395871224E+01 -0.52382546605E+01  0.18726442428E+02  0.00000000000E+00 0. -1.
         11    1    3    3    0    0  0.94209979306E+01 -0.12329892683E+02 -0.96383076508E+01  0.18266867006E+02  0.51100000000E-03 0. -1.
        -11    1    3    3    0    0  0.18420232116E+01 -0.81100303380E+01  0.29595105700E+02  0.30741436584E+02  0.51100000000E-03 0.  1.
         12    1    3    3    0    0  0.64029770452E+01  0.17100335898E+02 -0.14718543389E+02  0.23453253982E+02  0.00000000000E+00 0. -1.
</event>
<event>
 7    1  0.3189267E-013  0.7246155E+02  0.7816164E-02  0.1226708E+00
        -11   -1    0    0    0    0  0.00000000000E+00  0.00000000000E+00  0.45593999997E+02  0.45594000000E+02  0.51100000000E-03 0. -1.
         11   -1    0    0    0    0 -0.00000000000E+00 -0.00000000000E+00 -0.45593999997E+02  0.45594000000E+02  0.51100000000E-03 0.  1.
    9900012    2    1    2    0    0 -0.14408763175E+02  0.11502102424E+02 -0.32816515785E+01  0.72461546692E+02  0.69999969254E+02 0.  0.
         12    1    1    2    0    0  0.14408763175E+02 -0.11502102424E+02  0.32816515785E+01  0.18726453308E+02  0.00000000000E+00 0. -1.
         11    1    3    3    0    0  0.59277685871E+01 -0.69439521572E+01  0.32465696303E+00  0.91357711436E+01  0.51100000000E-03 0. -1.
        -11    1    3    3    0    0  0.14550384793E+02 -0.71214769537E+01 -0.10812854478E+02  0.19476831207E+02  0.51100000000E-03 0.  1.
        -12    1    3    3    0    0 -0.34886916555E+02  0.25567531535E+02  0.72065459370E+01  0.43848944342E+02  0.00000000000E+00 0.  1.
</event>
<event>
 7    1  0.3189267E-013  0.7246155E+02  0.7816164E-02  0.1226708E+00
        -11   -1    0    0    0    0  0.00000000000E+00  0.00000000000E+00  0.45593999997E+02  0.45594000000E+02  0.51100000000E-03 0. -1.
         11   -1    0    0    0    0 -0.00000000000E+00 -0.00000000000E+00 -0.45593999997E+02  0.45594000000E+02  0.51100000000E-03 0.  1.
    9900012    2    1    2    0    0 -0.18699313165E+02  0.10057323792E+01  0.63382026742E-01  0.72461552719E+02  0.69999977106E+02 0.  0.
         12    1    1    2    0    0  0.18699313165E+02 -0.10057323792E+01 -0.63382026742E-01  0.18726447281E+02  0.00000000000E+00 0. -1.
         11    1    3    3    0    0 -0.71118963914E+01 -0.15429477870E+02  0.78008965069E+01  0.18694968419E+02  0.51100000000E-03 0. -1.
        -11    1    3    3    0    0 -0.19616823893E+02 -0.97433297784E+01 -0.13575251793E+02  0.25768968088E+02  0.51100000000E-03 0.  1.
         12    1    3    3    0    0  0.80294071192E+01  0.26178540027E+02  0.58377373125E+01  0.27997616213E+02  0.00000000000E+00 0. -1.
</event>
<event>
 7    1  0.3189267E-013  0.7246156E+02  0.7816164E-02  0.1226708E+00
        -11   -1    0    0    0    0  0.00000000000E+00  0.00000000000E+00  0.45593999997E+02  0.45594000000E+02  0.51100000000E-03 0.  1.
         11   -1    0    0    0    0 -0.00000000000E+00 -0.00000000000E+00 -0.45593999997E+02  0.45594000000E+02  0.51100000000E-03 0. -1.
    9900012    2    1    2    0    0 -0.13868798247E+01 -0.16857897445E+02  0.80353813028E+01  0.72461561615E+02  0.69999988693E+02 0.  0.
         12    1    1    2    0    0  0.13868798247E+01  0.16857897445E+02 -0.80353813028E+01  0.18726438385E+02  0.00000000000E+00 0. -1.
         11    1    3    3    0    0 -0.15165463280E+02  0.19304830291E+02 -0.71638817399E+01  0.25573207678E+02  0.51100000000E-03 0. -1.
        -11    1    3    3    0    0 -0.11340838307E+01  0.19235263371E+01 -0.15202418932E+01  0.27013395528E+01  0.51100000000E-03 0.  1.
        -12    1    3    3    0    0  0.14912667286E+02 -0.38086254073E+02  0.16719504936E+02  0.44187014384E+02  0.00000000000E+00 0.  1.
</event>
<event>
 7    1  0.3189267E-013  0.7246150E+02  0.7816164E-02  0.1226708E+00
        -11   -1    0    0    0    0  0.00000000000E+00  0.00000000000E+00  0.45593999997E+02  0.45594000000E+02  0.51100000000E-03 0. -1.
         11   -1    0    0    0    0 -0.00000000000E+00 -0.00000000000E+00 -0.45593999997E+02  0.45594000000E+02  0.51100000000E-03 0.  1.
    9900012    2    1    2    0    0 -0.87649301164E+01  0.10329809167E+02  0.12928753365E+02  0.72461504841E+02  0.69999914735E+02 0.  0.
         12    1    1    2    0    0  0.87649301164E+01 -0.10329809167E+02 -0.12928753365E+02  0.18726495159E+02  0.00000000000E+00 0. -1.
         11    1    3    3    0    0  0.95083193503E+01  0.14714448121E+02 -0.14567563253E+01  0.17579683149E+02  0.51100000000E-03 0. -1.
        -11    1    3    3    0    0 -0.22507800458E+02  0.14681903536E+02 -0.50328772312E+01  0.27340249201E+02  0.51100000000E-03 0.  1.
         12    1    3    3    0    0  0.42345509911E+01 -0.19066542491E+02  0.19418386921E+02  0.27541572491E+02  0.00000000000E+00 0. -1.
</event>
<event>
 7    1  0.3189267E-013  0.7246169E+02  0.7816164E-02  0.1226708E+00
        -11   -1    0    0    0    0  0.00000000000E+00  0.00000000000E+00  0.45593999997E+02  0.45594000000E+02  0.51100000000E-03 0. -1.
         11   -1    0    0    0    0 -0.00000000000E+00 -0.00000000000E+00 -0.45593999997E+02  0.45594000000E+02  0.51100000000E-03 0.  1.
    9900012    2    1    2    0    0 -0.44861775362E+01  0.77881023308E+01 -0.16428462299E+02  0.72461689623E+02  0.70000155448E+02 0.  0.
         12    1    1    2    0    0  0.44861775362E+01 -0.77881023308E+01  0.16428462299E+02  0.18726310377E+02  0.00000000000E+00 0. -1.
         11    1    3    3    0    0  0.49678885528E+00 -0.27430658882E+01  0.26993898432E+01  0.38804529916E+01  0.51100000000E-03 0. -1.
        -11    1    3    3    0    0 -0.23484678920E+02  0.14807415666E+02 -0.34404751963E+02  0.44209463474E+02  0.51100000000E-03 0.  1.
         12    1    3    3    0    0  0.18501712529E+02 -0.42762474472E+01  0.15276899821E+02  0.24371773158E+02  0.00000000000E+00 0. -1.
</event>
<event>
 7    1  0.3189267E-013  0.7246144E+02  0.7816164E-02  0.1226708E+00
        -11   -1    0    0    0    0  0.00000000000E+00  0.00000000000E+00  0.45593999997E+02  0.45594000000E+02  0.51100000000E-03 0.  1.
         11   -1    0    0    0    0 -0.00000000000E+00 -0.00000000000E+00 -0.45593999997E+02  0.45594000000E+02  0.51100000000E-03 0. -1.
    9900012    2    1    2    0    0  0.72028476315E+01 -0.75689078941E+01  0.15540743222E+02  0.72461439168E+02  0.69999829183E+02 0.  0.
         12    1    1    2    0    0 -0.72028476315E+01  0.75689078941E+01 -0.15540743222E+02  0.18726560832E+02  0.00000000000E+00 0. -1.
         11    1    3    3    0    0  0.31791245740E+01 -0.13495262046E+02 -0.62132131330E+01  0.15193187567E+02  0.51100000000E-03 0. -1.
        -11    1    3    3    0    0  0.86340856980E+01 -0.20465936852E+02 -0.82926261298E+00  0.22228128212E+02  0.51100000000E-03 0.  1.
        -12    1    3    3    0    0 -0.46103626405E+01  0.26392291004E+02  0.22583218968E+02  0.35040123388E+02  0.00000000000E+00 0.  1.
</event>
<event>
 7    1  0.3189267E-013  0.7246153E+02  0.7816164E-02  0.1226708E+00
        -11   -1    0    0    0    0  0.00000000000E+00  0.00000000000E+00  0.45593999997E+02  0.45594000000E+02  0.51100000000E-03 0. -1.
         11   -1    0    0    0    0 -0.00000000000E+00 -0.00000000000E+00 -0.45593999997E+02  0.45594000000E+02  0.51100000000E-03 0.  1.
    9900012    2    1    2    0    0  0.96218164081E+01  0.10034166986E+02 -0.12546584182E+02  0.72461531226E+02  0.69999949107E+02 0.  0.
         12    1    1    2    0    0 -0.96218164081E+01 -0.10034166986E+02  0.12546584182E+02  0.18726468774E+02  0.00000000000E+00 0. -1.
         11    1    3    3    0    0 -0.11098640652E+02  0.17621446050E+02  0.12015851829E+00  0.20825696232E+02  0.51100000000E-03 0. -1.
        -11    1    3    3    0    0  0.51503260381E+00  0.16628207539E+02 -0.11216978362E+02  0.20064474785E+02  0.51100000000E-03 0.  1.
        -12    1    3    3    0    0  0.20205424456E+02 -0.24215486603E+02 -0.14497643377E+01  0.31571360210E+02  0.00000000000E+00 0.  1.
</event>
<event>
 7    1  0.3189267E-013  0.7246152E+02  0.7816164E-02  0.1226708E+00
        -11   -1    0    0    0    0  0.00000000000E+00  0.00000000000E+00  0.45593999997E+02  0.45594000000E+02  0.51100000000E-03 0.  1.
         11   -1    0    0    0    0 -0.00000000000E+00 -0.00000000000E+00 -0.45593999997E+02  0.45594000000E+02  0.51100000000E-03 0. -1.
    9900012    2    1    2    0    0 -0.93105667127E+01  0.16037322839E+02  0.26074391414E+01  0.72461518343E+02  0.69999932324E+02 0.  0.
         12    1    1    2    0    0  0.93105667127E+01 -0.16037322839E+02 -0.26074391414E+01  0.18726481657E+02  0.00000000000E+00 0. -1.
         11    1    3    3    0    0  0.10292327620E+02  0.24249574368E+02 -0.15831008221E+02  0.30734259165E+02  0.51100000000E-03 0. -1.
        -11    1    3    3    0    0 -0.58214493044E+01  0.87799429812E+01  0.16745436450E+02  0.19783485864E+02  0.51100000000E-03 0.  1.
        -12    1    3    3    0    0 -0.13781445028E+02 -0.16992194510E+02  0.16930109123E+01  0.21943773314E+02  0.00000000000E+00 0.  1.
</event>
<event>
 7    1  0.3189267E-013  0.7246159E+02  0.7816164E-02  0.1226708E+00
        -11   -1    0    0    0    0  0.00000000000E+00  0.00000000000E+00  0.45593999997E+02  0.45594000000E+02  0.51100000000E-03 0. -1.
         11   -1    0    0    0    0 -0.00000000000E+00 -0.00000000000E+00 -0.45593999997E+02  0.45594000000E+02  0.51100000000E-03 0.  1.
    9900012    2    1    2    0    0 -0.14794358967E+02 -0.10197381607E+02 -0.52743479009E+01  0.72461590983E+02  0.70000026951E+02 0.  0.
         12    1    1    2    0    0  0.14794358967E+02  0.10197381607E+02  0.52743479009E+01  0.18726409017E+02  0.00000000000E+00 0. -1.
         11    1    3    3    0    0 -0.53221851452E+01  0.53543659155E+01  0.18053221564E+02  0.19568180758E+02  0.51100000000E-03 0. -1.
        -11    1    3    3    0    0  0.12971262457E+02 -0.71197303235E+01  0.51499855387E+01  0.15667372496E+02  0.51100000000E-03 0.  1.
        -12    1    3    3    0    0 -0.22443436279E+02 -0.84320171990E+01 -0.28477555003E+02  0.37226037729E+02  0.00000000000E+00 0.  1.
</event>
<event>
 7    1  0.3189267E-013  0.7246157E+02  0.7816164E-02  0.1226708E+00
        -11   -1    0    0    0    0  0.00000000000E+00  0.00000000000E+00  0.45593999997E+02  0.45594000000E+02  0.51100000000E-03 0.  1.
         11   -1    0    0    0    0 -0.00000000000E+00 -0.00000000000E+00 -0.45593999997E+02  0.45594000000E+02  0.51100000000E-03 0. -1.
    9900012    2    1    2    0    0 -0.69763042039E+01 -0.26560123697E+01  0.17174278221E+02  0.72461573367E+02  0.70000004002E+02 0.  0.
         12    1    1    2    0    0  0.69763042039E+01  0.26560123697E+01 -0.17174278221E+02  0.18726426633E+02  0.00000000000E+00 0. -1.
         11    1    3    3    0    0 -0.11666353130E+02  0.26557894319E+02  0.50429360284E+01  0.29442431116E+02  0.51100000000E-03 0. -1.
        -11    1    3    3    0    0 -0.40276337072E+01  0.47132486655E+01  0.11210744238E+01  0.63002662156E+01  0.51100000000E-03 0.  1.
        -12    1    3    3    0    0  0.87176826330E+01 -0.33927155354E+02  0.11010267769E+02  0.36718876035E+02  0.00000000000E+00 0.  1.
</event>
<event>
 7    1  0.3189267E-013  0.7246164E+02  0.7816164E-02  0.1226708E+00
        -11   -1    0    0    0    0  0.00000000000E+00  0.00000000000E+00  0.45593999997E+02  0.45594000000E+02  0.51100000000E-03 0.  1.
         11   -1    0    0    0    0 -0.00000000000E+00 -0.00000000000E+00 -0.45593999997E+02  0.45594000000E+02  0.51100000000E-03 0. -1.
    9900012    2    1    2    0    0  0.16712476633E+02 -0.84269752036E+01  0.59658889708E+00  0.72461636109E+02  0.70000085735E+02 0.  0.
         12    1    1    2    0    0 -0.16712476633E+02  0.84269752036E+01 -0.59658889708E+00  0.18726363891E+02  0.00000000000E+00 0. -1.
         11    1    3    3    0    0  0.17090191230E+01  0.61276518724E+01  0.18161958108E+01  0.66156958301E+01  0.51100000000E-03 0. -1.
        -11    1    3    3    0    0  0.89967977389E+01 -0.80856055842E+01  0.30557963042E+02  0.32865004074E+02  0.51100000000E-03 0.  1.
         12    1    3    3    0    0  0.60066597709E+01 -0.64690214918E+01 -0.31777569956E+02  0.32980936205E+02  0.00000000000E+00 0. -1.
</event>
<event>
 7    1  0.3189267E-013  0.7246133E+02  0.7816164E-02  0.1226709E+00
        -11   -1    0    0    0    0  0.00000000000E+00  0.00000000000E+00  0.45593999997E+02  0.45594000000E+02  0.51100000000E-03 0. -1.
         11   -1    0    0    0    0 -0.00000000000E+00 -0.00000000000E+00 -0.45593999997E+02  0.45594000000E+02  0.51100000000E-03 0.  1.
    9900012    2    1    2    0    0  0.13963071794E+02 -0.85502814694E+01 -0.90891946811E+01  0.72461330593E+02  0.69999687744E+02 0.  0.
         12    1    1    2    0    0 -0.13963071794E+02  0.85502814694E+01  0.90891946811E+01  0.18726669407E+02  0.00000000000E+00 0. -1.
         11    1    3    3    0    0  0.39072137131E+01  0.86634438076E+01  0.97156715112E+01  0.13591020962E+02  0.51100000000E-03 0. -1.
        -11    1    3    3    0    0  0.99144181551E+01 -0.16303488720E+02  0.15481323295E+02  0.24571748066E+02  0.51100000000E-03 0.  1.
        -12    1    3    3    0    0  0.14143992605E+00 -0.91023655731E+00 -0.34286189488E+02  0.34298561565E+02  0.00000000000E+00 0.  1.
</event>
<event>
 7    1  0.3189267E-013  0.7246157E+02  0.7816164E-02  0.1226708E+00
        -11   -1    0    0    0    0  0.00000000000E+00  0.00000000000E+00  0.45593999997E+02  0.45594000000E+02  0.51100000000E-03 0.  1.
         11   -1    0    0    0    0 -0.00000000000E+00 -0.00000000000E+00 -0.45593999997E+02  0.45594000000E+02  0.51100000000E-03 0. -1.
    9900012    2    1    2    0    0 -0.54518123700E+01 -0.74553679017E+01  0.16290318443E+02  0.72461568315E+02  0.69999997422E+02 0.  0.
         12    1    1    2    0    0  0.54518123700E+01  0.74553679017E+01 -0.16290318443E+02  0.18726431685E+02  0.00000000000E+00 0. -1.
         11    1    3    3    0    0  0.11326584902E+01 -0.23172706956E+02  0.88036624878E+01  0.24814546871E+02  0.51100000000E-03 0. -1.
        -11    1    3    3    0    0 -0.12662270832E+02 -0.43046267434E+01  0.19404495957E+02  0.23566870340E+02  0.51100000000E-03 0.  1.
         12    1    3    3    0    0  0.60777999720E+01  0.20021965798E+02 -0.11917840001E+02  0.24080151105E+02  0.00000000000E+00 0. -1.
</event>
<event>
 7    1  0.3189267E-013  0.7246151E+02  0.7816164E-02  0.1226708E+00
        -11   -1    0    0    0    0  0.00000000000E+00  0.00000000000E+00  0.45593999997E+02  0.45594000000E+02  0.51100000000E-03 0. -1.
         11   -1    0    0    0    0 -0.00000000000E+00 -0.00000000000E+00 -0.45593999997E+02  0.45594000000E+02  0.51100000000E-03 0.  1.
    9900012    2    1    2    0    0 -0.13649449134E+02  0.12311763502E+02 -0.35769568552E+01  0.72461505333E+02  0.69999915375E+02 0.  0.
         12    1    1    2    0    0  0.13649449134E+02 -0.12311763502E+02  0.35769568552E+01  0.18726494667E+02  0.00000000000E+00 0. -1.
         11    1    3    3    0    0 -0.10805803259E+02 -0.56769074411E+01  0.12417299424E+02  0.17412121853E+02  0.51100000000E-03 0. -1.
        -11    1    3    3    0    0 -0.20537934110E+02  0.24284443811E+02 -0.17332248251E+02  0.36220819682E+02  0.51100000000E-03 0.  1.
         12    1    3    3    0    0  0.17694288236E+02 -0.62957728674E+01  0.13379919713E+01  0.18828563798E+02  0.00000000000E+00 0. -1.
</event>
<event>
 7    1  0.3189267E-013  0.7246157E+02  0.7816164E-02  0.1226708E+00
        -11   -1    0    0    0    0  0.00000000000E+00  0.00000000000E+00  0.45593999997E+02  0.45594000000E+02  0.51100000000E-03 0.  1.
         11   -1    0    0    0    0 -0.00000000000E+00 -0.00000000000E+00 -0.45593999997E+02  0.45594000000E+02  0.51100000000E-03 0. -1.
    9900012    2    1    2    0    0  0.99950676454E-01  0.18042879913E+02  0.50123338618E+01  0.72461574915E+02  0.70000006020E+02 0.  0.
         12    1    1    2    0    0 -0.99950676454E-01 -0.18042879913E+02 -0.50123338618E+01  0.18726425085E+02  0.00000000000E+00 0. -1.
         11    1    3    3    0    0 -0.11017757452E+02  0.73088137198E+01 -0.23055373115E+02  0.26577433416E+02  0.51100000000E-03 0. -1.
        -11    1    3    3    0    0 -0.13485009436E+00  0.18739049480E+02  0.56826034618E+01  0.19582189416E+02  0.51100000000E-03 0.  1.
        -12    1    3    3    0    0  0.11252558223E+02 -0.80049832864E+01  0.22385103515E+02  0.26301952083E+02  0.00000000000E+00 0.  1.
</event>
<event>
 7    1  0.3189267E-013  0.7246165E+02  0.7816164E-02  0.1226708E+00
        -11   -1    0    0    0    0  0.00000000000E+00  0.00000000000E+00  0.45593999997E+02  0.45594000000E+02  0.51100000000E-03 0. -1.
         11   -1    0    0    0    0 -0.00000000000E+00 -0.00000000000E+00 -0.45593999997E+02  0.45594000000E+02  0.51100000000E-03 0.  1.
    9900012    2    1    2    0    0 -0.17680579918E+01 -0.20804647393E+01 -0.18526250814E+02  0.72461646062E+02  0.70000098701E+02 0.  0.
         12    1    1    2    0    0  0.17680579918E+01  0.20804647393E+01  0.18526250814E+02  0.18726353938E+02  0.00000000000E+00 0. -1.
         11    1    3    3    0    0  0.16329099362E-01 -0.13687703566E+02  0.22599969099E+01  0.13873034342E+02  0.51100000000E-03 0. -1.
        -11    1    3    3    0    0  0.65963389356E+01 -0.20499224286E+02 -0.68383202135E+01  0.22594081244E+02  0.51100000000E-03 0.  1.
         12    1    3    3    0    0 -0.83807260267E+01  0.32106463113E+02 -0.13947927510E+02  0.35994530476E+02  0.00000000000E+00 0. -1.
</event>
<event>
 7    1  0.3189267E-013  0.7246158E+02  0.7816164E-02  0.1226708E+00
        -11   -1    0    0    0    0  0.00000000000E+00  0.00000000000E+00  0.45593999997E+02  0.45594000000E+02  0.51100000000E-03 0. -1.
         11   -1    0    0    0    0 -0.00000000000E+00 -0.00000000000E+00 -0.45593999997E+02  0.45594000000E+02  0.51100000000E-03 0.  1.
    9900012    2    1    2    0    0 -0.15839196111E+02 -0.99505884087E+01 -0.88564534478E+00  0.72461582542E+02  0.70000015955E+02 0.  0.
         12    1    1    2    0    0  0.15839196111E+02  0.99505884087E+01  0.88564534478E+00  0.18726417458E+02  0.00000000000E+00 0. -1.
         11    1    3    3    0    0 -0.95142210406E+01 -0.16160352903E+02  0.12202351480E+02  0.22373528775E+02  0.51100000000E-03 0. -1.
        -11    1    3    3    0    0 -0.43842175260E+01 -0.20426233232E+02 -0.14073989233E+01  0.20938795079E+02  0.51100000000E-03 0.  1.
         12    1    3    3    0    0 -0.19407575444E+01  0.26635997727E+02 -0.11680597901E+02  0.29149258688E+02  0.00000000000E+00 0. -1.
</event>
<event>
 7    1  0.3189267E-013  0.7246157E+02  0.7816164E-02  0.1226708E+00
        -11   -1    0    0    0    0  0.00000000000E+00  0.00000000000E+00  0.45593999997E+02  0.45594000000E+02  0.51100000000E-03 0.  1.
         11   -1    0    0    0    0 -0.00000000000E+00 -0.00000000000E+00 -0.45593999997E+02  0.45594000000E+02  0.51100000000E-03 0. -1.
    9900012    2    1    2    0    0  0.17737634739E+02  0.31275201784E+01  0.51258175030E+01  0.72461572854E+02  0.70000003334E+02 0.  0.
         12    1    1    2    0    0 -0.17737634739E+02 -0.31275201784E+01 -0.51258175030E+01  0.18726427146E+02  0.00000000000E+00 0. -1.
         11    1    3    3    0    0 -0.14562206666E+02  0.80742845004E-01  0.27401984692E+01  0.14817998188E+02  0.51100000000E-03 0. -1.
        -11    1    3    3    0    0 -0.75454516697E+01 -0.78304489547E+01  0.10982319250E+02  0.15455132096E+02  0.51100000000E-03 0.  1.
         12    1    3    3    0    0  0.39845293074E+02  0.10877226288E+02 -0.85967002160E+01  0.42188442570E+02  0.00000000000E+00 0. -1.
</event>
<event>
 7    1  0.3189267E-013  0.7246157E+02  0.7816164E-02  0.1226708E+00
        -11   -1    0    0    0    0  0.00000000000E+00  0.00000000000E+00  0.45593999997E+02  0.45594000000E+02  0.51100000000E-03 0.  1.
         11   -1    0    0    0    0 -0.00000000000E+00 -0.00000000000E+00 -0.45593999997E+02  0.45594000000E+02  0.51100000000E-03 0. -1.
    9900012    2    1    2    0    0  0.17471748190E+02  0.40342668672E+01  0.53983298105E+01  0.72461567913E+02  0.69999996898E+02 0.  0.
         12    1    1    2    0    0 -0.17471748190E+02 -0.40342668672E+01 -0.53983298105E+01  0.18726432087E+02  0.00000000000E+00 0. -1.
         11    1    3    3    0    0  0.48092889726E+01 -0.94936453530E+01  0.92966662737E+01  0.14131049734E+02  0.51100000000E-03 0.  1.
        -11    1    3    3    0    0  0.50008144464E+01  0.33686308018E+02 -0.10735201438E+02  0.35707422803E+02  0.51100000000E-03 0. -1.
         12    1    3    3    0    0  0.76616447708E+01 -0.20158395798E+02  0.68368649750E+01  0.22623095377E+02  0.00000000000E+00 0. -1.
</event>
<event>
 7    1  0.3189267E-013  0.7246156E+02  0.7816164E-02  0.1226708E+00
        -11   -1    0    0    0    0  0.00000000000E+00  0.00000000000E+00  0.45593999997E+02  0.45594000000E+02  0.51100000000E-03 0.  1.
         11   -1    0    0    0    0 -0.00000000000E+00 -0.00000000000E+00 -0.45593999997E+02  0.45594000000E+02  0.51100000000E-03 0. -1.
    9900012    2    1    2    0    0 -0.40751450468E+01  0.53572451437E+01  0.17474915536E+02  0.72461559984E+02  0.69999986569E+02 0.  0.
         12    1    1    2    0    0  0.40751450468E+01 -0.53572451437E+01 -0.17474915536E+02  0.18726440016E+02  0.00000000000E+00 0. -1.
         11    1    3    3    0    0 -0.41977035149E+01 -0.63837946277E+00  0.14990933018E+02  0.15580639144E+02  0.51100000000E-03 0. -1.
        -11    1    3    3    0    0  0.28957488011E+01 -0.52062432450E+01  0.28132240343E+02  0.28756099819E+02  0.51100000000E-03 0.  1.
         12    1    3    3    0    0 -0.27731903330E+01  0.11201867851E+02 -0.25648257825E+02  0.28124821021E+02  0.00000000000E+00 0. -1.
</event>
<event>
 7    1  0.3189267E-013  0.7246162E+02  0.7816164E-02  0.1226708E+00
        -11   -1    0    0    0    0  0.00000000000E+00  0.00000000000E+00  0.45593999997E+02  0.45594000000E+02  0.51100000000E-03 0. -1.
         11   -1    0    0    0    0 -0.00000000000E+00 -0.00000000000E+00 -0.45593999997E+02  0.45594000000E+02  0.51100000000E-03 0.  1.
    9900012    2    1    2    0    0 -0.15567810617E+02 -0.38541771737E+01  0.96677820407E+01  0.72461617042E+02  0.70000060898E+02 0.  0.
         12    1    1    2    0    0  0.15567810617E+02  0.38541771737E+01 -0.96677820407E+01  0.18726382958E+02  0.00000000000E+00 0. -1.
         11    1    3    3    0    0 -0.16296674030E+01 -0.21823148205E+01  0.55981682683E+01  0.62255764425E+01  0.51100000000E-03 0. -1.
        -11    1    3    3    0    0  0.15150216156E+02 -0.23677542865E+02  0.88028046471E+01  0.29455805126E+02  0.51100000000E-03 0.  1.
         12    1    3    3    0    0 -0.29088359370E+02  0.22005680512E+02 -0.47331908747E+01  0.36780235474E+02  0.00000000000E+00 0. -1.
</event>
<event>
 7    1  0.3189267E-013  0.7246154E+02  0.7816164E-02  0.1226708E+00
        -11   -1    0    0    0    0  0.00000000000E+00  0.00000000000E+00  0.45593999997E+02  0.45594000000E+02  0.51100000000E-03 0.  1.
         11   -1    0    0    0    0 -0.00000000000E+00 -0.00000000000E+00 -0.45593999997E+02  0.45594000000E+02  0.51100000000E-03 0. -1.
    9900012    2    1    2    0    0 -0.19242196335E+01  0.11154508897E+01  0.18593907254E+02  0.72461541743E+02  0.69999962807E+02 0.  0.
         12    1    1    2    0    0  0.19242196335E+01 -0.11154508897E+01 -0.18593907254E+02  0.18726458257E+02  0.00000000000E+00 0. -1.
         11    1    3    3    0    0 -0.11240834198E+02  0.31982264922E+01 -0.39350656524E+01  0.12331656341E+02  0.51100000000E-03 0. -1.
        -11    1    3    3    0    0  0.11348364709E+02 -0.58458414093E+00  0.40458248702E+02  0.42023767186E+02  0.51100000000E-03 0.  1.
         12    1    3    3    0    0 -0.20317501444E+01 -0.14981914616E+01 -0.17929275796E+02  0.18106118217E+02  0.00000000000E+00 0. -1.
</event>
<event>
 7    1  0.3189267E-013  0.7246161E+02  0.7816164E-02  0.1226708E+00
        -11   -1    0    0    0    0  0.00000000000E+00  0.00000000000E+00  0.45593999997E+02  0.45594000000E+02  0.51100000000E-03 0.  1.
         11   -1    0    0    0    0 -0.00000000000E+00 -0.00000000000E+00 -0.45593999997E+02  0.45594000000E+02  0.51100000000E-03 0. -1.
    9900012    2    1    2    0    0  0.30589079056E+01 -0.16514390177E+02  0.82822572745E+01  0.72461607233E+02  0.70000048120E+02 0.  0.
         12    1    1    2    0    0 -0.30589079056E+01  0.16514390177E+02 -0.82822572745E+01  0.18726392767E+02  0.00000000000E+00 0. -1.
         11    1    3    3    0    0  0.10798887494E+01  0.18122290366E+02  0.51600626949E+01  0.18873521534E+02  0.51100000000E-03 0. -1.
        -11    1    3    3    0    0 -0.18249183031E+02 -0.77552101429E+01  0.34741876939E+00  0.19831708593E+02  0.51100000000E-03 0.  1.
        -12    1    3    3    0    0  0.20228202187E+02 -0.26881470400E+02  0.27747758103E+01  0.33756377107E+02  0.00000000000E+00 0.  1.
</event>
<event>
 7    1  0.3189267E-013  0.7246156E+02  0.7816164E-02  0.1226708E+00
        -11   -1    0    0    0    0  0.00000000000E+00  0.00000000000E+00  0.45593999997E+02  0.45594000000E+02  0.51100000000E-03 0. -1.
         11   -1    0    0    0    0 -0.00000000000E+00 -0.00000000000E+00 -0.45593999997E+02  0.45594000000E+02  0.51100000000E-03 0.  1.
    9900012    2    1    2    0    0  0.15846208213E+02 -0.98108322730E+01 -0.18233606382E+01  0.72461564444E+02  0.69999992378E+02 0.  0.
         12    1    1    2    0    0 -0.15846208213E+02  0.98108322730E+01  0.18233606382E+01  0.18726435556E+02  0.00000000000E+00 0. -1.
         11    1    3    3    0    0 -0.14763490468E+02 -0.10023145527E+01 -0.73460001648E+01  0.16520563064E+02  0.51100000000E-03 0. -1.
        -11    1    3    3    0    0  0.67242208497E+01  0.10395383423E+02  0.18824381971E+02  0.22530790030E+02  0.51100000000E-03 0.  1.
        -12    1    3    3    0    0  0.23885477832E+02 -0.19203901143E+02 -0.13301742444E+02  0.33410211349E+02  0.00000000000E+00 0.  1.
</event>
<event>
 7    1  0.3189267E-013  0.7246157E+02  0.7816164E-02  0.1226708E+00
        -11   -1    0    0    0    0  0.00000000000E+00  0.00000000000E+00  0.45593999997E+02  0.45594000000E+02  0.51100000000E-03 0.  1.
         11   -1    0    0    0    0 -0.00000000000E+00 -0.00000000000E+00 -0.45593999997E+02  0.45594000000E+02  0.51100000000E-03 0. -1.
    9900012    2    1    2    0    0 -0.12939187633E+02  0.85135914897E+01  0.10524982841E+02  0.72461572672E+02  0.70000003097E+02 0.  0.
         12    1    1    2    0    0  0.12939187633E+02 -0.85135914897E+01 -0.10524982841E+02  0.18726427328E+02  0.00000000000E+00 0. -1.
         11    1    3    3    0    0 -0.14827612988E+02  0.11936519986E+02 -0.18582919701E+02  0.26601945815E+02  0.51100000000E-03 0. -1.
        -11    1    3    3    0    0  0.13154934700E+02 -0.54980578142E+01 -0.34014243763E+00  0.14261719526E+02  0.51100000000E-03 0.  1.
        -12    1    3    3    0    0 -0.11266509346E+02  0.20751293177E+01  0.29448044980E+02  0.31597907331E+02  0.00000000000E+00 0.  1.
</event>
<event>
 7    1  0.3189267E-013  0.7246160E+02  0.7816164E-02  0.1226708E+00
        -11   -1    0    0    0    0  0.00000000000E+00  0.00000000000E+00  0.45593999997E+02  0.45594000000E+02  0.51100000000E-03 0. -1.
         11   -1    0    0    0    0 -0.00000000000E+00 -0.00000000000E+00 -0.45593999997E+02  0.45594000000E+02  0.51100000000E-03 0.  1.
    9900012    2    1    2    0    0  0.11568392803E+02  0.70197759402E+01 -0.12945005361E+02  0.72461598048E+02  0.70000036154E+02 0.  0.
         12    1    1    2    0    0 -0.11568392803E+02 -0.70197759402E+01  0.12945005361E+02  0.18726401952E+02  0.00000000000E+00 0. -1.
         11    1    3    3    0    0  0.28249289866E+01  0.20366998059E+01 -0.96395642609E+00  0.36135276575E+01  0.51100000000E-03 0. -1.
        -11    1    3    3    0    0 -0.82893612987E+01  0.22779990621E+02 -0.29822128530E+02  0.38431768548E+02  0.51100000000E-03 0.  1.
        -12    1    3    3    0    0  0.17032825115E+02 -0.17796914486E+02  0.17841079595E+02  0.30416301842E+02  0.00000000000E+00 0.  1.
</event>
<event>
 7    1  0.3189267E-013  0.7246156E+02  0.7816164E-02  0.1226708E+00
        -11   -1    0    0    0    0  0.00000000000E+00  0.00000000000E+00  0.45593999997E+02  0.45594000000E+02  0.51100000000E-03 0.  1.
         11   -1    0    0    0    0 -0.00000000000E+00 -0.00000000000E+00 -0.45593999997E+02  0.45594000000E+02  0.51100000000E-03 0. -1.
    9900012    2    1    2    0    0  0.18332552508E+02 -0.11029816586E+01 -0.36579292926E+01  0.72461561558E+02  0.69999988619E+02 0.  0.
         12    1    1    2    0    0 -0.18332552508E+02  0.11029816586E+01  0.36579292926E+01  0.18726438442E+02  0.00000000000E+00 0. -1.
         11    1    3    3    0    0  0.17518144686E+02 -0.42822365844E+01  0.87839701939E-01  0.18034152586E+02  0.51100000000E-03 0. -1.
        -11    1    3    3    0    0  0.18581522203E+02  0.39512066636E+01 -0.21915434022E+02  0.29002952438E+02  0.51100000000E-03 0.  1.
        -12    1    3    3    0    0 -0.17767114381E+02 -0.77195173784E+00  0.18169665027E+02  0.25424456535E+02  0.00000000000E+00 0.  1.
</event>
<event>
 7    1  0.3189267E-013  0.7246159E+02  0.7816164E-02  0.1226708E+00
        -11   -1    0    0    0    0  0.00000000000E+00  0.00000000000E+00  0.45593999997E+02  0.45594000000E+02  0.51100000000E-03 0. -1.
         11   -1    0    0    0    0 -0.00000000000E+00 -0.00000000000E+00 -0.45593999997E+02  0.45594000000E+02  0.51100000000E-03 0.  1.
    9900012    2    1    2    0    0 -0.14136432127E+02 -0.45171385931E+01 -0.11420815677E+02  0.72461593909E+02  0.70000030763E+02 0.  0.
         12    1    1    2    0    0  0.14136432127E+02  0.45171385931E+01  0.11420815677E+02  0.18726406091E+02  0.00000000000E+00 0. -1.
         11    1    3    3    0    0 -0.35185958102E+02  0.10656186214E+02 -0.33371719698E+00  0.36765708474E+02  0.51100000000E-03 0. -1.
        -11    1    3    3    0    0 -0.38615146891E+01 -0.59282807477E+01 -0.49841776678E+00  0.70925474160E+01  0.51100000000E-03 0.  1.
        -12    1    3    3    0    0  0.24911040664E+02 -0.92450440592E+01 -0.10588680713E+02  0.28603338019E+02  0.00000000000E+00 0.  1.
</event>
<event>
 7    1  0.3189267E-013  0.7246153E+02  0.7816164E-02  0.1226708E+00
        -11   -1    0    0    0    0  0.00000000000E+00  0.00000000000E+00  0.45593999997E+02  0.45594000000E+02  0.51100000000E-03 0.  1.
         11   -1    0    0    0    0 -0.00000000000E+00 -0.00000000000E+00 -0.45593999997E+02  0.45594000000E+02  0.51100000000E-03 0. -1.
    9900012    2    1    2    0    0  0.11052279190E+02 -0.15096766954E+02 -0.78443064260E+00  0.72461532656E+02  0.69999950969E+02 0.  0.
         12    1    1    2    0    0 -0.11052279190E+02  0.15096766954E+02  0.78443064260E+00  0.18726467344E+02  0.00000000000E+00 0. -1.
         11    1    3    3    0    0  0.21900851197E+02 -0.19677391464E+02  0.39792901863E+01  0.29709960764E+02  0.51100000000E-03 0. -1.
        -11    1    3    3    0    0 -0.92376972076E+00 -0.15936737296E+02  0.66119826265E+01  0.17278635960E+02  0.51100000000E-03 0.  1.
         12    1    3    3    0    0 -0.99248022861E+01  0.20517361805E+02 -0.11375703455E+02  0.25472935932E+02  0.00000000000E+00 0. -1.
</event>
<event>
 7    1  0.3189267E-013  0.7246149E+02  0.7816164E-02  0.1226708E+00
        -11   -1    0    0    0    0  0.00000000000E+00  0.00000000000E+00  0.45593999997E+02  0.45594000000E+02  0.51100000000E-03 0.  1.
         11   -1    0    0    0    0 -0.00000000000E+00 -0.00000000000E+00 -0.45593999997E+02  0.45594000000E+02  0.51100000000E-03 0. -1.
    9900012    2    1    2    0    0  0.46977835512E+01 -0.12502346942E+02  0.13126469350E+02  0.72461493466E+02  0.69999899917E+02 0.  0.
         12    1    1    2    0    0 -0.46977835512E+01  0.12502346942E+02 -0.13126469350E+02  0.18726506534E+02  0.00000000000E+00 0. -1.
         11    1    3    3    0    0  0.53058064938E+01 -0.20362381965E+02  0.19767251327E+02  0.28870788128E+02  0.51100000000E-03 0. -1.
        -11    1    3    3    0    0 -0.13741727476E+02  0.17272894785E+02  0.62277553860E+01  0.22934099191E+02  0.51100000000E-03 0.  1.
         12    1    3    3    0    0  0.13133704534E+02 -0.94128597625E+01 -0.12868537363E+02  0.20656606148E+02  0.00000000000E+00 0. -1.
</event>
<event>
 7    1  0.3189267E-013  0.7246155E+02  0.7816164E-02  0.1226708E+00
        -11   -1    0    0    0    0  0.00000000000E+00  0.00000000000E+00  0.45593999997E+02  0.45594000000E+02  0.51100000000E-03 0. -1.
         11   -1    0    0    0    0 -0.00000000000E+00 -0.00000000000E+00 -0.45593999997E+02  0.45594000000E+02  0.51100000000E-03 0.  1.
    9900012    2    1    2    0    0 -0.11756262112E+02 -0.51138133301E+00  0.14567390324E+02  0.72461546236E+02  0.69999968660E+02 0.  0.
         12    1    1    2    0    0  0.11756262112E+02  0.51138133301E+00 -0.14567390324E+02  0.18726453764E+02  0.00000000000E+00 0. -1.
         11    1    3    3    0    0  0.17259899177E+02 -0.88107466110E+01  0.26656329727E+02  0.32955929515E+02  0.51100000000E-03 0. -1.
        -11    1    3    3    0    0 -0.14032130220E+01  0.97975434440E+01 -0.41739707646E+01  0.10741643102E+02  0.51100000000E-03 0.  1.
        -12    1    3    3    0    0 -0.27612948267E+02 -0.14981781660E+01 -0.79149686381E+01  0.28763973619E+02  0.00000000000E+00 0.  1.
</event>
<event>
 7    1  0.3189267E-013  0.7246139E+02  0.7816164E-02  0.1226708E+00
        -11   -1    0    0    0    0  0.00000000000E+00  0.00000000000E+00  0.45593999997E+02  0.45594000000E+02  0.51100000000E-03 0.  1.
         11   -1    0    0    0    0 -0.00000000000E+00 -0.00000000000E+00 -0.45593999997E+02  0.45594000000E+02  0.51100000000E-03 0. -1.
    9900012    2    1    2    0    0  0.10352765220E+02  0.10774728159E+02  0.11287663050E+02  0.72461391879E+02  0.69999767580E+02 0.  0.
         12    1    1    2    0    0 -0.10352765220E+02 -0.10774728159E+02 -0.11287663050E+02  0.18726608121E+02  0.00000000000E+00 0. -1.
         11    1    3    3    0    0  0.11938645047E+01  0.26658518740E+02 -0.13811737246E+00  0.26685595562E+02  0.51100000000E-03 0. -1.
        -11    1    3    3    0    0 -0.67639272217E+01  0.94418585874E+01  0.10790847357E+02  0.15853762708E+02  0.51100000000E-03 0.  1.
         12    1    3    3    0    0  0.15922827937E+02 -0.25325649168E+02  0.63493306504E+00  0.29922033609E+02  0.00000000000E+00 0. -1.
</event>
<event>
 7    1  0.3189267E-013  0.7246148E+02  0.7816164E-02  0.1226708E+00
        -11   -1    0    0    0    0  0.00000000000E+00  0.00000000000E+00  0.45593999997E+02  0.45594000000E+02  0.51100000000E-03 0.  1.
         11   -1    0    0    0    0 -0.00000000000E+00 -0.00000000000E+00 -0.45593999997E+02  0.45594000000E+02  0.51100000000E-03 0. -1.
    9900012    2    1    2    0    0 -0.12588198790E+02 -0.12001883117E+02  0.69407824601E+01  0.72461483819E+02  0.69999887349E+02 0.  0.
         12    1    1    2    0    0  0.12588198790E+02  0.12001883117E+02 -0.69407824601E+01  0.18726516181E+02  0.00000000000E+00 0. -1.
         11    1    3    3    0    0  0.46496904346E+00  0.11126990147E+02 -0.49531687773E+01  0.12188518660E+02  0.51100000000E-03 0. -1.
        -11    1    3    3    0    0  0.92582415174E+00  0.14671825726E+02  0.13470801882E+02  0.19939461480E+02  0.51100000000E-03 0.  1.
         12    1    3    3    0    0 -0.13978991985E+02 -0.37800698990E+02 -0.15768506447E+01  0.40333503679E+02  0.00000000000E+00 0. -1.
</event>
<event>
 7    1  0.3189267E-013  0.7246160E+02  0.7816164E-02  0.1226708E+00
        -11   -1    0    0    0    0  0.00000000000E+00  0.00000000000E+00  0.45593999997E+02  0.45594000000E+02  0.51100000000E-03 0.  1.
         11   -1    0    0    0    0 -0.00000000000E+00 -0.00000000000E+00 -0.45593999997E+02  0.45594000000E+02  0.51100000000E-03 0. -1.
    9900012    2    1    2    0    0 -0.22260379575E+01  0.14326875483E+02  0.11851734630E+02  0.72461595652E+02  0.70000033032E+02 0.  0.
         12    1    1    2    0    0  0.22260379575E+01 -0.14326875483E+02 -0.11851734630E+02  0.18726404348E+02  0.00000000000E+00 0. -1.
         11    1    3    3    0    0 -0.10326125743E+02 -0.26319775507E+02  0.98962522994E+01  0.29954887171E+02  0.51100000000E-03 0.  1.
        -11    1    3    3    0    0  0.56545717291E+01  0.13684011214E+02 -0.26583992103E+01  0.15043052581E+02  0.51100000000E-03 0. -1.
        -12    1    3    3    0    0  0.24455160562E+01  0.26962639776E+02  0.46138815408E+01  0.27463655899E+02  0.00000000000E+00 0.  1.
</event>
<event>
 7    1  0.3189267E-013  0.7246125E+02  0.7816164E-02  0.1226709E+00
        -11   -1    0    0    0    0  0.00000000000E+00  0.00000000000E+00  0.45593999997E+02  0.45594000000E+02  0.51100000000E-03 0. -1.
         11   -1    0    0    0    0 -0.00000000000E+00 -0.00000000000E+00 -0.45593999997E+02  0.45594000000E+02  0.51100000000E-03 0.  1.
    9900012    2    1    2    0    0 -0.18606786713E+02 -0.18684059731E+01 -0.99378191336E+00  0.72461252948E+02  0.69999586596E+02 0.  0.
         12    1    1    2    0    0  0.18606786713E+02  0.18684059731E+01  0.99378191336E+00  0.18726747052E+02  0.00000000000E+00 0. -1.
         11    1    3    3    0    0 -0.33521893137E+01  0.34770641395E+01 -0.11258218942E+01  0.49592966662E+01  0.51100000000E-03 0. -1.
        -11    1    3    3    0    0 -0.10621229692E+02 -0.91095748599E+01 -0.31944465145E+02  0.34874686063E+02  0.51100000000E-03 0.  1.
         12    1    3    3    0    0 -0.46333677069E+01  0.37641047473E+01  0.32076505126E+02  0.32627270219E+02  0.00000000000E+00 0. -1.
</event>
<event>
 7    1  0.3189267E-013  0.7246161E+02  0.7816164E-02  0.1226708E+00
        -11   -1    0    0    0    0  0.00000000000E+00  0.00000000000E+00  0.45593999997E+02  0.45594000000E+02  0.51100000000E-03 0. -1.
         11   -1    0    0    0    0 -0.00000000000E+00 -0.00000000000E+00 -0.45593999997E+02  0.45594000000E+02  0.51100000000E-03 0.  1.
    9900012    2    1    2    0    0 -0.62934350530E+01 -0.12333412745E+02 -0.12607825518E+02  0.72461610625E+02  0.70000052538E+02 0.  0.
         12    1    1    2    0    0  0.62934350530E+01  0.12333412745E+02  0.12607825518E+02  0.18726389375E+02  0.00000000000E+00 0. -1.
         11    1    3    3    0    0  0.50332658784E+01  0.75119903875E+01 -0.27837575251E+02  0.29269341658E+02  0.51100000000E-03 0. -1.
        -11    1    3    3    0    0  0.18497274559E+01  0.76341337532E+01  0.92510902475E+01  0.12136068591E+02  0.51100000000E-03 0.  1.
        -12    1    3    3    0    0 -0.13176428387E+02 -0.27479536886E+02  0.59786594853E+01  0.31056200376E+02  0.00000000000E+00 0.  1.
</event>
<event>
 7    1  0.3189267E-013  0.7246157E+02  0.7816164E-02  0.1226708E+00
        -11   -1    0    0    0    0  0.00000000000E+00  0.00000000000E+00  0.45593999997E+02  0.45594000000E+02  0.51100000000E-03 0.  1.
         11   -1    0    0    0    0 -0.00000000000E+00 -0.00000000000E+00 -0.45593999997E+02  0.45594000000E+02  0.51100000000E-03 0. -1.
    9900012    2    1    2    0    0  0.19933653177E+01  0.17475065701E+02  0.64286726202E+01  0.72461567927E+02  0.69999996916E+02 0.  0.
         12    1    1    2    0    0 -0.19933653177E+01 -0.17475065701E+02 -0.64286726202E+01  0.18726432073E+02  0.00000000000E+00 0. -1.
         11    1    3    3    0    0 -0.10288211010E+02  0.16062242062E+02 -0.14976221686E+02  0.24251394230E+02  0.51100000000E-03 0. -1.
        -11    1    3    3    0    0  0.47242666489E+01  0.15863087173E+02 -0.48991110514E+01  0.17261446039E+02  0.51100000000E-03 0.  1.
        -12    1    3    3    0    0  0.75573096787E+01 -0.14450263534E+02  0.26304005357E+02  0.30948727658E+02  0.00000000000E+00 0.  1.
</event>
<event>
 7    1  0.3189267E-013  0.7246154E+02  0.7816164E-02  0.1226708E+00
        -11   -1    0    0    0    0  0.00000000000E+00  0.00000000000E+00  0.45593999997E+02  0.45594000000E+02  0.51100000000E-03 0.  1.
         11   -1    0    0    0    0 -0.00000000000E+00 -0.00000000000E+00 -0.45593999997E+02  0.45594000000E+02  0.51100000000E-03 0. -1.
    9900012    2    1    2    0    0  0.14898385997E+02 -0.10660289887E+02 -0.38828747751E+01  0.72461537379E+02  0.69999957122E+02 0.  0.
         12    1    1    2    0    0 -0.14898385997E+02  0.10660289887E+02  0.38828747751E+01  0.18726462621E+02  0.00000000000E+00 0. -1.
         11    1    3    3    0    0  0.71623012918E+01 -0.11078080982E+02 -0.20901692018E+02  0.24716455399E+02  0.51100000000E-03 0. -1.
        -11    1    3    3    0    0  0.92911052379E+01  0.41946039902E+01 -0.13521025639E+02  0.16933324357E+02  0.51100000000E-03 0.  1.
        -12    1    3    3    0    0 -0.15550205330E+01 -0.37768128951E+01  0.30539842883E+02  0.30811757623E+02  0.00000000000E+00 0.  1.
</event>
<event>
 7    1  0.3189267E-013  0.7246159E+02  0.7816164E-02  0.1226708E+00
        -11   -1    0    0    0    0  0.00000000000E+00  0.00000000000E+00  0.45593999997E+02  0.45594000000E+02  0.51100000000E-03 0. -1.
         11   -1    0    0    0    0 -0.00000000000E+00 -0.00000000000E+00 -0.45593999997E+02  0.45594000000E+02  0.51100000000E-03 0.  1.
    9900012    2    1    2    0    0  0.17887242116E+02 -0.98723307563E+00 -0.54543885019E+01  0.72461590478E+02  0.70000026293E+02 0.  0.
         12    1    1    2    0    0 -0.17887242116E+02  0.98723307563E+00  0.54543885019E+01  0.18726409522E+02  0.00000000000E+00 0. -1.
         11    1    3    3    0    0  0.31418877450E+00  0.24971934338E+02 -0.69413823016E+01  0.25920628999E+02  0.51100000000E-03 0. -1.
        -11    1    3    3    0    0  0.40521791906E+01  0.85442263887E+01  0.99143619453E-01  0.94569440356E+01  0.51100000000E-03 0.  1.
        -12    1    3    3    0    0  0.13520874151E+02 -0.34503393802E+02  0.13878501802E+01  0.37084017444E+02  0.00000000000E+00 0.  1.
</event>
<event>
 7    1  0.3189267E-013  0.7246157E+02  0.7816164E-02  0.1226708E+00
        -11   -1    0    0    0    0  0.00000000000E+00  0.00000000000E+00  0.45593999997E+02  0.45594000000E+02  0.51100000000E-03 0. -1.
         11   -1    0    0    0    0 -0.00000000000E+00 -0.00000000000E+00 -0.45593999997E+02  0.45594000000E+02  0.51100000000E-03 0.  1.
    9900012    2    1    2    0    0 -0.14049832630E+02  0.69805446237E+01  0.10225136031E+02  0.72461569293E+02  0.69999998695E+02 0.  0.
         12    1    1    2    0    0  0.14049832630E+02 -0.69805446237E+01 -0.10225136031E+02  0.18726430707E+02  0.00000000000E+00 0. -1.
         11    1    3    3    0    0  0.13511270970E+02 -0.64879138365E+01  0.29951134749E+01  0.15284573078E+02  0.51100000000E-03 0. -1.
        -11    1    3    3    0    0 -0.12550124253E+02 -0.17888718934E+02  0.11325898353E+01  0.21881376644E+02  0.51100000000E-03 0.  1.
         12    1    3    3    0    0 -0.15010979348E+02  0.31357177394E+02  0.60974327208E+01  0.35295619571E+02  0.00000000000E+00 0. -1.
</event>
<event>
 7    1  0.3189267E-013  0.7246153E+02  0.7816164E-02  0.1226708E+00
        -11   -1    0    0    0    0  0.00000000000E+00  0.00000000000E+00  0.45593999997E+02  0.45594000000E+02  0.51100000000E-03 0.  1.
         11   -1    0    0    0    0 -0.00000000000E+00 -0.00000000000E+00 -0.45593999997E+02  0.45594000000E+02  0.51100000000E-03 0. -1.
    9900012    2    1    2    0    0 -0.16452748139E+02  0.37869048167E+01 -0.81022942103E+01  0.72461528339E+02  0.69999945345E+02 0.  0.
         12    1    1    2    0    0  0.16452748139E+02 -0.37869048167E+01  0.81022942103E+01  0.18726471661E+02  0.00000000000E+00 0. -1.
         11    1    3    3    0    0 -0.12315505699E+02  0.19602795760E+02 -0.66934673723E+00  0.23160080042E+02  0.51100000000E-03 0. -1.
        -11    1    3    3    0    0 -0.23839835115E+02 -0.26177538857E+01 -0.88020685067E+01  0.25547343971E+02  0.51100000000E-03 0.  1.
         12    1    3    3    0    0  0.19702592675E+02 -0.13198137057E+02  0.13691210336E+01  0.23754104326E+02  0.00000000000E+00 0. -1.
</event>
<event>
 7    1  0.3189267E-013  0.7246167E+02  0.7816164E-02  0.1226708E+00
        -11   -1    0    0    0    0  0.00000000000E+00  0.00000000000E+00  0.45593999997E+02  0.45594000000E+02  0.51100000000E-03 0.  1.
         11   -1    0    0    0    0 -0.00000000000E+00 -0.00000000000E+00 -0.45593999997E+02  0.45594000000E+02  0.51100000000E-03 0. -1.
    9900012    2    1    2    0    0 -0.87177616244E+01  0.14622193902E+02  0.78017697904E+01  0.72461667361E+02  0.70000126447E+02 0.  0.
         12    1    1    2    0    0  0.87177616244E+01 -0.14622193902E+02 -0.78017697904E+01  0.18726332639E+02  0.00000000000E+00 0. -1.
         11    1    3    3    0    0 -0.83555442857E+01 -0.60150545672E+01 -0.94381863819E+01  0.13966938254E+02  0.51100000000E-03 0. -1.
        -11    1    3    3    0    0 -0.17649464212E+02  0.60568460814E+01 -0.11503836873E+02  0.21920931424E+02  0.51100000000E-03 0.  1.
        -12    1    3    3    0    0  0.17287246874E+02  0.14580402388E+02  0.28743793046E+02  0.36573797682E+02  0.00000000000E+00 0.  1.
</event>
<event>
 7    1  0.3189267E-013  0.7246151E+02  0.7816164E-02  0.1226708E+00
        -11   -1    0    0    0    0  0.00000000000E+00  0.00000000000E+00  0.45593999997E+02  0.45594000000E+02  0.51100000000E-03 0.  1.
         11   -1    0    0    0    0 -0.00000000000E+00 -0.00000000000E+00 -0.45593999997E+02  0.45594000000E+02  0.51100000000E-03 0. -1.
    9900012    2    1    2    0    0 -0.29004812231E+01 -0.14832015658E+02  0.11058021920E+02  0.72461512647E+02  0.69999924904E+02 0.  0.
         12    1    1    2    0    0  0.29004812231E+01  0.14832015658E+02 -0.11058021920E+02  0.18726487353E+02  0.00000000000E+00 0. -1.
         11    1    3    3    0    0 -0.41852220638E+01  0.27043186885E+01  0.20397079860E+02  0.20996911448E+02  0.51100000000E-03 0.  1.
        -11    1    3    3    0    0  0.12092229106E+02 -0.24825303198E+02  0.89298361454E+01  0.29021710106E+02  0.51100000000E-03 0. -1.
        -12    1    3    3    0    0 -0.10807488265E+02  0.72889688517E+01 -0.18268894085E+02  0.22442891093E+02  0.00000000000E+00 0.  1.
</event>
<event>
 7    1  0.3189267E-013  0.7246151E+02  0.7816164E-02  0.1226708E+00
        -11   -1    0    0    0    0  0.00000000000E+00  0.00000000000E+00  0.45593999997E+02  0.45594000000E+02  0.51100000000E-03 0. -1.
         11   -1    0    0    0    0 -0.00000000000E+00 -0.00000000000E+00 -0.45593999997E+02  0.45594000000E+02  0.51100000000E-03 0.  1.
    9900012    2    1    2    0    0  0.15768450459E+02 -0.41970748242E+01 -0.91881524067E+01  0.72461505090E+02  0.69999915059E+02 0.  0.
         12    1    1    2    0    0 -0.15768450459E+02  0.41970748242E+01  0.91881524067E+01  0.18726494910E+02  0.00000000000E+00 0. -1.
         11    1    3    3    0    0 -0.16237255996E+02 -0.16455740221E+01 -0.47818902040E+01  0.17006553746E+02  0.51100000000E-03 0. -1.
        -11    1    3    3    0    0  0.18434594154E+02 -0.23653630422E+02 -0.47535193213E+01  0.30363208657E+02  0.51100000000E-03 0.  1.
        -12    1    3    3    0    0  0.13571112301E+02  0.21102129619E+02  0.34725711863E+00  0.25091742687E+02  0.00000000000E+00 0.  1.
</event>
<event>
 7    1  0.3189267E-013  0.7246163E+02  0.7816164E-02  0.1226708E+00
        -11   -1    0    0    0    0  0.00000000000E+00  0.00000000000E+00  0.45593999997E+02  0.45594000000E+02  0.51100000000E-03 0. -1.
         11   -1    0    0    0    0 -0.00000000000E+00 -0.00000000000E+00 -0.45593999997E+02  0.45594000000E+02  0.51100000000E-03 0.  1.
    9900012    2    1    2    0    0  0.11588406076E+02 -0.10421616796E+02 -0.10381510014E+02  0.72461628162E+02  0.70000075384E+02 0.  0.
         12    1    1    2    0    0 -0.11588406076E+02  0.10421616796E+02  0.10381510014E+02  0.18726371838E+02  0.00000000000E+00 0. -1.
         11    1    3    3    0    0  0.52008079909E+01  0.50253104521E+01  0.13668066448E+02  0.15463446885E+02  0.51100000000E-03 0. -1.
        -11    1    3    3    0    0  0.20062368215E+02 -0.24226270096E+02 -0.48205018627E+01  0.31822130973E+02  0.51100000000E-03 0.  1.
        -12    1    3    3    0    0 -0.13674770130E+02  0.87793428478E+01 -0.19229074599E+02  0.25176050304E+02  0.00000000000E+00 0.  1.
</event>
<event>
 7    1  0.3189267E-013  0.7246156E+02  0.7816164E-02  0.1226708E+00
        -11   -1    0    0    0    0  0.00000000000E+00  0.00000000000E+00  0.45593999997E+02  0.45594000000E+02  0.51100000000E-03 0. -1.
         11   -1    0    0    0    0 -0.00000000000E+00 -0.00000000000E+00 -0.45593999997E+02  0.45594000000E+02  0.51100000000E-03 0.  1.
    9900012    2    1    2    0    0  0.35090609968E+01  0.16819001053E+02 -0.74489739073E+01  0.72461560996E+02  0.69999987887E+02 0.  0.
         12    1    1    2    0    0 -0.35090609968E+01 -0.16819001053E+02  0.74489739073E+01  0.18726439004E+02  0.00000000000E+00 0. -1.
         11    1    3    3    0    0  0.18508806878E+02 -0.18695369349E+02 -0.52470009431E+01  0.26825804486E+02  0.51100000000E-03 0. -1.
        -11    1    3    3    0    0  0.49939887047E+00  0.14001150353E+02 -0.10878140206E+02  0.17737405251E+02  0.51100000000E-03 0.  1.
        -12    1    3    3    0    0 -0.15499144752E+02  0.21513220050E+02  0.86761672418E+01  0.27898351259E+02  0.00000000000E+00 0.  1.
</event>
<event>
 7    1  0.3189267E-013  0.7246158E+02  0.7816164E-02  0.1226708E+00
        -11   -1    0    0    0    0  0.00000000000E+00  0.00000000000E+00  0.45593999997E+02  0.45594000000E+02  0.51100000000E-03 0.  1.
         11   -1    0    0    0    0 -0.00000000000E+00 -0.00000000000E+00 -0.45593999997E+02  0.45594000000E+02  0.51100000000E-03 0. -1.
    9900012    2    1    2    0    0  0.57590065213E+01 -0.45985046845E+01  0.17215299495E+02  0.72461576472E+02  0.70000008048E+02 0.  0.
         12    1    1    2    0    0 -0.57590065213E+01  0.45985046845E+01 -0.17215299495E+02  0.18726423528E+02  0.00000000000E+00 0. -1.
         11    1    3    3    0    0  0.14316896859E+02 -0.72541919596E+01  0.25461833918E+02  0.30098202993E+02  0.51100000000E-03 0. -1.
        -11    1    3    3    0    0  0.10001994166E+02 -0.32496638632E+01  0.10833276480E+02  0.15098346998E+02  0.51100000000E-03 0.  1.
        -12    1    3    3    0    0 -0.18559884504E+02  0.59053511383E+01 -0.19079810904E+02  0.27265026481E+02  0.00000000000E+00 0.  1.
</event>
<event>
 7    1  0.3189267E-013  0.7246159E+02  0.7816164E-02  0.1226708E+00
        -11   -1    0    0    0    0  0.00000000000E+00  0.00000000000E+00  0.45593999997E+02  0.45594000000E+02  0.51100000000E-03 0.  1.
         11   -1    0    0    0    0 -0.00000000000E+00 -0.00000000000E+00 -0.45593999997E+02  0.45594000000E+02  0.51100000000E-03 0. -1.
    9900012    2    1    2    0    0  0.11736384872E+02 -0.12849522653E+02 -0.69156081636E+01  0.72461585540E+02  0.70000019860E+02 0.  0.
         12    1    1    2    0    0 -0.11736384872E+02  0.12849522653E+02  0.69156081636E+01  0.18726414460E+02  0.00000000000E+00 0. -1.
         11    1    3    3    0    0  0.11128598855E+02  0.70901541795E+01 -0.11361416712E+02  0.17412575591E+02  0.51100000000E-03 0. -1.
        -11    1    3    3    0    0 -0.24871680237E+01  0.17297828228E+02  0.22305949158E+01  0.17617503232E+02  0.51100000000E-03 0.  1.
        -12    1    3    3    0    0  0.30949540403E+01 -0.37237505060E+02  0.22152136322E+01  0.37431506717E+02  0.00000000000E+00 0.  1.
</event>
<event>
 7    1  0.3189267E-013  0.7246158E+02  0.7816164E-02  0.1226708E+00
        -11   -1    0    0    0    0  0.00000000000E+00  0.00000000000E+00  0.45593999997E+02  0.45594000000E+02  0.51100000000E-03 0.  1.
         11   -1    0    0    0    0 -0.00000000000E+00 -0.00000000000E+00 -0.45593999997E+02  0.45594000000E+02  0.51100000000E-03 0. -1.
    9900012    2    1    2    0    0  0.67989746387E+01  0.12503140031E+01  0.17403721715E+02  0.72461578271E+02  0.70000010391E+02 0.  0.
         12    1    1    2    0    0 -0.67989746387E+01 -0.12503140031E+01 -0.17403721715E+02  0.18726421729E+02  0.00000000000E+00 0. -1.
         11    1    3    3    0    0 -0.90383239460E+00  0.27299324956E+01  0.26021740577E+01  0.38782411627E+01  0.51100000000E-03 0. -1.
        -11    1    3    3    0    0 -0.18892773628E+02  0.55360069868E+01  0.30955230204E+02  0.36685290594E+02  0.51100000000E-03 0.  1.
         12    1    3    3    0    0  0.26595580662E+02 -0.70156254793E+01 -0.16153682547E+02  0.31898046514E+02  0.00000000000E+00 0. -1.
</event>
<event>
 7    1  0.3189267E-013  0.7246168E+02  0.7816164E-02  0.1226708E+00
        -11   -1    0    0    0    0  0.00000000000E+00  0.00000000000E+00  0.45593999997E+02  0.45594000000E+02  0.51100000000E-03 0.  1.
         11   -1    0    0    0    0 -0.00000000000E+00 -0.00000000000E+00 -0.45593999997E+02  0.45594000000E+02  0.51100000000E-03 0. -1.
    9900012    2    1    2    0    0  0.81562982401E+01  0.12305230612E+02  0.11520894594E+02  0.72461683927E+02  0.70000148028E+02 0.  0.
         12    1    1    2    0    0 -0.81562982401E+01 -0.12305230612E+02 -0.11520894594E+02  0.18726316073E+02  0.00000000000E+00 0. -1.
         11    1    3    3    0    0 -0.17617503949E+02  0.79661778227E+01  0.52595635817E+01  0.20037451031E+02  0.51100000000E-03 0. -1.
        -11    1    3    3    0    0  0.16213252044E+01  0.17339897065E+02  0.15668629582E+02  0.23426623292E+02  0.51100000000E-03 0.  1.
         12    1    3    3    0    0  0.24152476985E+02 -0.13000844275E+02 -0.94072985689E+01  0.28997609604E+02  0.00000000000E+00 0. -1.
</event>
<event>
 7    1  0.3189267E-013  0.7246160E+02  0.7816164E-02  0.1226708E+00
        -11   -1    0    0    0    0  0.00000000000E+00  0.00000000000E+00  0.45593999997E+02  0.45594000000E+02  0.51100000000E-03 0.  1.
         11   -1    0    0    0    0 -0.00000000000E+00 -0.00000000000E+00 -0.45593999997E+02  0.45594000000E+02  0.51100000000E-03 0. -1.
    9900012    2    1    2    0    0 -0.12318087486E+02  0.31236689992E+01  0.13754476339E+02  0.72461596003E+02  0.70000033490E+02 0.  0.
         12    1    1    2    0    0  0.12318087486E+02 -0.31236689992E+01 -0.13754476339E+02  0.18726403997E+02  0.00000000000E+00 0. -1.
         11    1    3    3    0    0 -0.34484533675E+01 -0.45686763613E+01  0.14344798199E+02  0.15444671248E+02  0.51100000000E-03 0. -1.
        -11    1    3    3    0    0 -0.22662002445E+01 -0.15717609788E+02  0.19726788224E+02  0.25324397227E+02  0.51100000000E-03 0.  1.
         12    1    3    3    0    0 -0.66034338737E+01  0.23409955148E+02 -0.20317110084E+02  0.31692527528E+02  0.00000000000E+00 0. -1.
</event>
<event>
 7    1  0.3189267E-013  0.7246166E+02  0.7816164E-02  0.1226708E+00
        -11   -1    0    0    0    0  0.00000000000E+00  0.00000000000E+00  0.45593999997E+02  0.45594000000E+02  0.51100000000E-03 0. -1.
         11   -1    0    0    0    0 -0.00000000000E+00 -0.00000000000E+00 -0.45593999997E+02  0.45594000000E+02  0.51100000000E-03 0.  1.
    9900012    2    1    2    0    0  0.18272015251E+02  0.68914539946E+00  0.40415771821E+01  0.72461660026E+02  0.70000116892E+02 0.  0.
         12    1    1    2    0    0 -0.18272015251E+02 -0.68914539946E+00 -0.40415771821E+01  0.18726339974E+02  0.00000000000E+00 0. -1.
         11    1    3    3    0    0 -0.16114048896E+02 -0.48872965106E+01 -0.52158215078E+01  0.17628188598E+02  0.51100000000E-03 0. -1.
        -11    1    3    3    0    0 -0.67059444045E+01 -0.72675229306E+01  0.62019529707E+01  0.11672651833E+02  0.51100000000E-03 0.  1.
        -12    1    3    3    0    0  0.41092008551E+02  0.12843964841E+02  0.30554457193E+01  0.43160819595E+02  0.00000000000E+00 0.  1.
</event>
<event>
 7    1  0.3189267E-013  0.7246157E+02  0.7816164E-02  0.1226708E+00
        -11   -1    0    0    0    0  0.00000000000E+00  0.00000000000E+00  0.45593999997E+02  0.45594000000E+02  0.51100000000E-03 0.  1.
         11   -1    0    0    0    0 -0.00000000000E+00 -0.00000000000E+00 -0.45593999997E+02  0.45594000000E+02  0.51100000000E-03 0. -1.
    9900012    2    1    2    0    0  0.16533815991E+02  0.38721859691E+01  0.78941840953E+01  0.72461573807E+02  0.70000004577E+02 0.  0.
         12    1    1    2    0    0 -0.16533815991E+02 -0.38721859691E+01 -0.78941840953E+01  0.18726426193E+02  0.00000000000E+00 0. -1.
         11    1    3    3    0    0 -0.14307624797E+02  0.16073610911E+02 -0.12765265868E+02  0.25020413826E+02  0.51100000000E-03 0. -1.
        -11    1    3    3    0    0 -0.46866561600E+01  0.59318727901E+00  0.39064861289E+01  0.61300286497E+01  0.51100000000E-03 0.  1.
        -12    1    3    3    0    0  0.35528096949E+02 -0.12794612221E+02  0.16752963835E+02  0.41311131332E+02  0.00000000000E+00 0.  1.
</event>
<event>
 7    1  0.3189267E-013  0.7246195E+02  0.7816164E-02  0.1226707E+00
        -11   -1    0    0    0    0  0.00000000000E+00  0.00000000000E+00  0.45593999997E+02  0.45594000000E+02  0.51100000000E-03 0.  1.
         11   -1    0    0    0    0 -0.00000000000E+00 -0.00000000000E+00 -0.45593999997E+02  0.45594000000E+02  0.51100000000E-03 0. -1.
    9900012    2    1    2    0    0 -0.41916887752E+01 -0.17410085947E+01  0.18167650306E+02  0.72461951742E+02  0.70000496904E+02 0.  0.
         12    1    1    2    0    0  0.41916887752E+01  0.17410085947E+01 -0.18167650306E+02  0.18726048258E+02  0.00000000000E+00 0. -1.
         11    1    3    3    0    0  0.10338673416E+01 -0.70949439317E+01 -0.11724187682E+02  0.13742768576E+02  0.51100000000E-03 0. -1.
        -11    1    3    3    0    0 -0.80052115251E+01  0.20894226762E+02 -0.26681987422E+01  0.22533783711E+02  0.51100000000E-03 0.  1.
         12    1    3    3    0    0  0.27796554082E+01 -0.15540291425E+02  0.32560036731E+02  0.36185399454E+02  0.00000000000E+00 0. -1.
</event>
<event>
 7    1  0.3189267E-013  0.7246158E+02  0.7816164E-02  0.1226708E+00
        -11   -1    0    0    0    0  0.00000000000E+00  0.00000000000E+00  0.45593999997E+02  0.45594000000E+02  0.51100000000E-03 0.  1.
         11   -1    0    0    0    0 -0.00000000000E+00 -0.00000000000E+00 -0.45593999997E+02  0.45594000000E+02  0.51100000000E-03 0. -1.
    9900012    2    1    2    0    0  0.40620555730E+01 -0.30485627086E+01  0.18024561542E+02  0.72461578857E+02  0.70000011154E+02 0.  0.
         12    1    1    2    0    0 -0.40620555730E+01  0.30485627086E+01 -0.18024561542E+02  0.18726421143E+02  0.00000000000E+00 0. -1.
         11    1    3    3    0    0  0.84813300060E+01 -0.17709234297E+02 -0.17593522648E+02  0.26364407399E+02  0.51100000000E-03 0. -1.
        -11    1    3    3    0    0 -0.60440499386E+01 -0.54549275821E+01  0.54358962981E+01  0.97895731986E+01  0.51100000000E-03 0.  1.
        -12    1    3    3    0    0  0.16247755056E+01  0.20115599170E+02  0.30182187892E+02  0.36307598259E+02  0.00000000000E+00 0.  1.
</event>
<event>
 7    1  0.3189267E-013  0.7246153E+02  0.7816164E-02  0.1226708E+00
        -11   -1    0    0    0    0  0.00000000000E+00  0.00000000000E+00  0.45593999997E+02  0.45594000000E+02  0.51100000000E-03 0. -1.
         11   -1    0    0    0    0 -0.00000000000E+00 -0.00000000000E+00 -0.45593999997E+02  0.45594000000E+02  0.51100000000E-03 0.  1.
    9900012    2    1    2    0    0  0.13932211315E+02 -0.10960550199E+02 -0.60365851761E+01  0.72461533878E+02  0.69999952562E+02 0.  0.
         12    1    1    2    0    0 -0.13932211315E+02  0.10960550199E+02  0.60365851761E+01  0.18726466122E+02  0.00000000000E+00 0. -1.
         11    1    3    3    0    0  0.16422036097E+02 -0.16304973145E+02 -0.15026230973E+02  0.27592082856E+02  0.51100000000E-03 0. -1.
        -11    1    3    3    0    0  0.16499359637E+02 -0.10167453585E+02  0.28102809041E+01  0.19583249472E+02  0.51100000000E-03 0.  1.
         12    1    3    3    0    0 -0.18989184419E+02  0.15511876530E+02  0.61793648930E+01  0.25286201551E+02  0.00000000000E+00 0. -1.
</event>
<event>
 7    1  0.3189267E-013  0.7246155E+02  0.7816164E-02  0.1226708E+00
        -11   -1    0    0    0    0  0.00000000000E+00  0.00000000000E+00  0.45593999997E+02  0.45594000000E+02  0.51100000000E-03 0. -1.
         11   -1    0    0    0    0 -0.00000000000E+00 -0.00000000000E+00 -0.45593999997E+02  0.45594000000E+02  0.51100000000E-03 0.  1.
    9900012    2    1    2    0    0  0.74518549658E+01  0.15726788986E+02  0.69150474937E+01  0.72461550361E+02  0.69999974033E+02 0.  0.
         12    1    1    2    0    0 -0.74518549658E+01 -0.15726788986E+02 -0.69150474937E+01  0.18726449639E+02  0.00000000000E+00 0. -1.
         11    1    3    3    0    0  0.43895732675E+01 -0.73632032527E+01  0.70886801681E+01  0.11123601143E+02  0.51100000000E-03 0. -1.
        -11    1    3    3    0    0 -0.15470876438E+01 -0.18695086505E+02 -0.38115196901E+01  0.19142294069E+02  0.51100000000E-03 0.  1.
        -12    1    3    3    0    0  0.46093693420E+01  0.41785078745E+02  0.36378870157E+01  0.42195655148E+02  0.00000000000E+00 0.  1.
</event>
<event>
 7    1  0.3189267E-013  0.7246157E+02  0.7816164E-02  0.1226708E+00
        -11   -1    0    0    0    0  0.00000000000E+00  0.00000000000E+00  0.45593999997E+02  0.45594000000E+02  0.51100000000E-03 0.  1.
         11   -1    0    0    0    0 -0.00000000000E+00 -0.00000000000E+00 -0.45593999997E+02  0.45594000000E+02  0.51100000000E-03 0. -1.
    9900012    2    1    2    0    0 -0.59371836456E+01  0.13283058709E+02  0.11789378998E+02  0.72461567999E+02  0.69999997010E+02 0.  0.
         12    1    1    2    0    0  0.59371836456E+01 -0.13283058709E+02 -0.11789378998E+02  0.18726432001E+02  0.00000000000E+00 0. -1.
         11    1    3    3    0    0  0.27608330419E+01  0.23181761673E+02 -0.63014877592E+01  0.24181088098E+02  0.51100000000E-03 0. -1.
        -11    1    3    3    0    0  0.30832132109E+01  0.14145035363E+02 -0.22557767964E+01  0.14651851703E+02  0.51100000000E-03 0.  1.
         12    1    3    3    0    0 -0.11781229898E+02 -0.24043738326E+02  0.20346643554E+02  0.33628628199E+02  0.00000000000E+00 0. -1.
</event>
<event>
 7    1  0.3189267E-013  0.7246159E+02  0.7816164E-02  0.1226708E+00
        -11   -1    0    0    0    0  0.00000000000E+00  0.00000000000E+00  0.45593999997E+02  0.45594000000E+02  0.51100000000E-03 0. -1.
         11   -1    0    0    0    0 -0.00000000000E+00 -0.00000000000E+00 -0.45593999997E+02  0.45594000000E+02  0.51100000000E-03 0.  1.
    9900012    2    1    2    0    0 -0.17660819540E+02  0.48664127381E+01 -0.38848276880E+01  0.72461590683E+02  0.70000026560E+02 0.  0.
         12    1    1    2    0    0  0.17660819540E+02 -0.48664127381E+01  0.38848276880E+01  0.18726409317E+02  0.00000000000E+00 0. -1.
         11    1    3    3    0    0 -0.92630627290E+01 -0.29118449054E+02 -0.72387648151E+01  0.31402040105E+02  0.51100000000E-03 0. -1.
        -11    1    3    3    0    0 -0.30744550710E+01  0.19446859772E+01  0.74813794760E+01  0.83189612728E+01  0.51100000000E-03 0.  1.
        -12    1    3    3    0    0 -0.53233017395E+01  0.32040175815E+02 -0.41274423489E+01  0.32740589305E+02  0.00000000000E+00 0.  1.
</event>
<event>
 7    1  0.3189267E-013  0.7246154E+02  0.7816164E-02  0.1226708E+00
        -11   -1    0    0    0    0  0.00000000000E+00  0.00000000000E+00  0.45593999997E+02  0.45594000000E+02  0.51100000000E-03 0. -1.
         11   -1    0    0    0    0 -0.00000000000E+00 -0.00000000000E+00 -0.45593999997E+02  0.45594000000E+02  0.51100000000E-03 0.  1.
    9900012    2    1    2    0    0  0.32384940326E+01 -0.15692066465E+02 -0.96928539708E+01  0.72461542470E+02  0.69999963753E+02 0.  0.
         12    1    1    2    0    0 -0.32384940326E+01  0.15692066465E+02  0.96928539708E+01  0.18726457530E+02  0.00000000000E+00 0. -1.
         11    1    3    3    0    0  0.18357678014E+02  0.68147439896E+01 -0.94668543813E+01  0.21750089881E+02  0.51100000000E-03 0. -1.
        -11    1    3    3    0    0 -0.16849649825E+00  0.11666957399E+02  0.56267425093E+01  0.12954015499E+02  0.51100000000E-03 0.  1.
         12    1    3    3    0    0 -0.14950687483E+02 -0.34173767853E+02 -0.58527420988E+01  0.37757437090E+02  0.00000000000E+00 0. -1.
</event>
<event>
 7    1  0.3189267E-013  0.7246168E+02  0.7816164E-02  0.1226708E+00
        -11   -1    0    0    0    0  0.00000000000E+00  0.00000000000E+00  0.45593999997E+02  0.45594000000E+02  0.51100000000E-03 0.  1.
         11   -1    0    0    0    0 -0.00000000000E+00 -0.00000000000E+00 -0.45593999997E+02  0.45594000000E+02  0.51100000000E-03 0. -1.
    9900012    2    1    2    0    0 -0.59033197861E+01 -0.16750734015E+02  0.59362383748E+01  0.72461676266E+02  0.70000138048E+02 0.  0.
         12    1    1    2    0    0  0.59033197861E+01  0.16750734015E+02 -0.59362383748E+01  0.18726323734E+02  0.00000000000E+00 0. -1.
         11    1    3    3    0    0  0.88861964380E+01  0.11385623319E+02 -0.17304806730E+02  0.22540036418E+02  0.51100000000E-03 0. -1.
        -11    1    3    3    0    0 -0.46416627752E+01  0.62191752529E+01  0.75019746558E+01  0.10793646193E+02  0.51100000000E-03 0.  1.
        -12    1    3    3    0    0 -0.10147853449E+02 -0.34355532587E+02  0.15739070449E+02  0.39127993656E+02  0.00000000000E+00 0.  1.
</event>
<event>
 7    1  0.3189267E-013  0.7246156E+02  0.7816164E-02  0.1226708E+00
        -11   -1    0    0    0    0  0.00000000000E+00  0.00000000000E+00  0.45593999997E+02  0.45594000000E+02  0.51100000000E-03 0.  1.
         11   -1    0    0    0    0 -0.00000000000E+00 -0.00000000000E+00 -0.45593999997E+02  0.45594000000E+02  0.51100000000E-03 0. -1.
    9900012    2    1    2    0    0 -0.68596524660E+01  0.36968333965E+01  0.17028158705E+02  0.72461558854E+02  0.69999985097E+02 0.  0.
         12    1    1    2    0    0  0.68596524660E+01 -0.36968333965E+01 -0.17028158705E+02  0.18726441146E+02  0.00000000000E+00 0. -1.
         11    1    3    3    0    0  0.10495638340E+02  0.45611268748E+01 -0.71864737927E+01  0.13513241963E+02  0.51100000000E-03 0. -1.
        -11    1    3    3    0    0 -0.20034016984E+02  0.14936745385E+02 -0.51318353955E+01  0.25510859139E+02  0.51100000000E-03 0.  1.
         12    1    3    3    0    0  0.26787261782E+01 -0.15801038864E+02  0.29346467893E+02  0.33437457752E+02  0.00000000000E+00 0. -1.
</event>
<event>
 7    1  0.3189267E-013  0.7246158E+02  0.7816164E-02  0.1226708E+00
        -11   -1    0    0    0    0  0.00000000000E+00  0.00000000000E+00  0.45593999997E+02  0.45594000000E+02  0.51100000000E-03 0. -1.
         11   -1    0    0    0    0 -0.00000000000E+00 -0.00000000000E+00 -0.45593999997E+02  0.45594000000E+02  0.51100000000E-03 0.  1.
    9900012    2    1    2    0    0 -0.10381162485E+02  0.80523892986E+01 -0.13344260899E+02  0.72461579977E+02  0.70000012613E+02 0.  0.
         12    1    1    2    0    0  0.10381162485E+02 -0.80523892986E+01  0.13344260899E+02  0.18726420023E+02  0.00000000000E+00 0. -1.
         11    1    3    3    0    0  0.59989026843E+01 -0.64763300235E+01  0.68773649225E+01  0.11190524229E+02  0.51100000000E-03 0. -1.
        -11    1    3    3    0    0 -0.89889681605E+01 -0.16692970675E+02 -0.22116330831E+02  0.29130549399E+02  0.51100000000E-03 0.  1.
         12    1    3    3    0    0 -0.73910970090E+01  0.31221689997E+02  0.18947050104E+01  0.32140506349E+02  0.00000000000E+00 0. -1.
</event>
<event>
 7    1  0.3189267E-013  0.7246155E+02  0.7816164E-02  0.1226708E+00
        -11   -1    0    0    0    0  0.00000000000E+00  0.00000000000E+00  0.45593999997E+02  0.45594000000E+02  0.51100000000E-03 0.  1.
         11   -1    0    0    0    0 -0.00000000000E+00 -0.00000000000E+00 -0.45593999997E+02  0.45594000000E+02  0.51100000000E-03 0. -1.
    9900012    2    1    2    0    0 -0.14914623544E+02 -0.54861444260E+01  0.99063616668E+01  0.72461554059E+02  0.69999978850E+02 0.  0.
         12    1    1    2    0    0  0.14914623544E+02  0.54861444260E+01 -0.99063616668E+01  0.18726445941E+02  0.00000000000E+00 0. -1.
         11    1    3    3    0    0  0.98913648809E+01 -0.12692235928E+02  0.99230648851E+01  0.18905003809E+02  0.51100000000E-03 0. -1.
        -11    1    3    3    0    0  0.67841089803E+01  0.16132586593E+02  0.87677911871E+01  0.19574438623E+02  0.51100000000E-03 0.  1.
         12    1    3    3    0    0 -0.31590097405E+02 -0.89264950908E+01 -0.87844944054E+01  0.33982111627E+02  0.00000000000E+00 0. -1.
</event>
<event>
 7    1  0.3189267E-013  0.7246160E+02  0.7816164E-02  0.1226708E+00
        -11   -1    0    0    0    0  0.00000000000E+00  0.00000000000E+00  0.45593999997E+02  0.45594000000E+02  0.51100000000E-03 0.  1.
         11   -1    0    0    0    0 -0.00000000000E+00 -0.00000000000E+00 -0.45593999997E+02  0.45594000000E+02  0.51100000000E-03 0. -1.
    9900012    2    1    2    0    0 -0.10293810554E+02  0.10690971732E+02 -0.11420102393E+02  0.72461597490E+02  0.70000035428E+02 0.  0.
         12    1    1    2    0    0  0.10293810554E+02 -0.10690971732E+02  0.11420102393E+02  0.18726402510E+02  0.00000000000E+00 0. -1.
         11    1    3    3    0    0 -0.68025341730E+01  0.32101808422E+02 -0.24798513299E+02  0.41131093314E+02  0.51100000000E-03 0. -1.
        -11    1    3    3    0    0 -0.96484370512E+00  0.86508355513E+00 -0.31969783101E+01  0.34496323730E+01  0.51100000000E-03 0.  1.
        -12    1    3    3    0    0 -0.25264326760E+01 -0.22275920245E+02  0.16575389216E+02  0.27880871803E+02  0.00000000000E+00 0.  1.
</event>
<event>
 7    1  0.3189267E-013  0.7246158E+02  0.7816164E-02  0.1226708E+00
        -11   -1    0    0    0    0  0.00000000000E+00  0.00000000000E+00  0.45593999997E+02  0.45594000000E+02  0.51100000000E-03 0.  1.
         11   -1    0    0    0    0 -0.00000000000E+00 -0.00000000000E+00 -0.45593999997E+02  0.45594000000E+02  0.51100000000E-03 0. -1.
    9900012    2    1    2    0    0  0.16504535763E+02  0.54157753047E+01  0.69963320807E+01  0.72461575208E+02  0.70000006401E+02 0.  0.
         12    1    1    2    0    0 -0.16504535763E+02 -0.54157753047E+01 -0.69963320807E+01  0.18726424792E+02  0.00000000000E+00 0. -1.
         11    1    3    3    0    0 -0.97169960016E+01  0.63540449181E+01 -0.50402747190E+01  0.12656945430E+02  0.51100000000E-03 0. -1.
        -11    1    3    3    0    0  0.35376563948E+01  0.60341314516E+01  0.29514341521E+02  0.30331866260E+02  0.51100000000E-03 0.  1.
         12    1    3    3    0    0  0.22683875370E+02 -0.69724010649E+01 -0.17477734721E+02  0.29472763518E+02  0.00000000000E+00 0. -1.
</event>
<event>
 7    1  0.3189267E-013  0.7246156E+02  0.7816164E-02  0.1226708E+00
        -11   -1    0    0    0    0  0.00000000000E+00  0.00000000000E+00  0.45593999997E+02  0.45594000000E+02  0.51100000000E-03 0. -1.
         11   -1    0    0    0    0 -0.00000000000E+00 -0.00000000000E+00 -0.45593999997E+02  0.45594000000E+02  0.51100000000E-03 0.  1.
    9900012    2    1    2    0    0  0.38247636468E+01  0.18241160633E+02  0.18195925524E+01  0.72461556791E+02  0.69999982410E+02 0.  0.
         12    1    1    2    0    0 -0.38247636468E+01 -0.18241160633E+02 -0.18195925524E+01  0.18726443209E+02  0.00000000000E+00 0. -1.
         11    1    3    3    0    0  0.52525376056E+01  0.94327606871E+01 -0.18073045586E+02  0.21052341972E+02  0.51100000000E-03 0. -1.
        -11    1    3    3    0    0 -0.14844761999E+02 -0.14112757015E+02  0.55337679536E+01  0.21216961550E+02  0.51100000000E-03 0.  1.
         12    1    3    3    0    0  0.13416988041E+02  0.22921156961E+02  0.14358870185E+02  0.30192253270E+02  0.00000000000E+00 0. -1.
</event>
<event>
 7    1  0.3189267E-013  0.7246154E+02  0.7816164E-02  0.1226708E+00
        -11   -1    0    0    0    0  0.00000000000E+00  0.00000000000E+00  0.45593999997E+02  0.45594000000E+02  0.51100000000E-03 0.  1.
         11   -1    0    0    0    0 -0.00000000000E+00 -0.00000000000E+00 -0.45593999997E+02  0.45594000000E+02  0.51100000000E-03 0. -1.
    9900012    2    1    2    0    0 -0.12341701963E+02  0.18357091257E+01  0.13963981883E+02  0.72461542103E+02  0.69999963276E+02 0.  0.
         12    1    1    2    0    0  0.12341701963E+02 -0.18357091257E+01 -0.13963981883E+02  0.18726457897E+02  0.00000000000E+00 0. -1.
         11    1    3    3    0    0 -0.12132712516E+02  0.11341558674E+02  0.13219682251E+02  0.21227191647E+02  0.51100000000E-03 0. -1.
        -11    1    3    3    0    0 -0.12275783656E+02  0.57727599208E+01 -0.19104736908E+02  0.23430975098E+02  0.51100000000E-03 0.  1.
        -12    1    3    3    0    0  0.12066794209E+02 -0.15278609469E+02  0.19849036539E+02  0.27803375358E+02  0.00000000000E+00 0.  1.
</event>
<event>
 7    1  0.3189267E-013  0.7246155E+02  0.7816164E-02  0.1226708E+00
        -11   -1    0    0    0    0  0.00000000000E+00  0.00000000000E+00  0.45593999997E+02  0.45594000000E+02  0.51100000000E-03 0. -1.
         11   -1    0    0    0    0 -0.00000000000E+00 -0.00000000000E+00 -0.45593999997E+02  0.45594000000E+02  0.51100000000E-03 0.  1.
    9900012    2    1    2    0    0  0.14559522910E+02 -0.69007825900E+01 -0.95435546019E+01  0.72461549665E+02  0.69999973126E+02 0.  0.
         12    1    1    2    0    0 -0.14559522910E+02  0.69007825900E+01  0.95435546019E+01  0.18726450335E+02  0.00000000000E+00 0. -1.
         11    1    3    3    0    0  0.91716228000E+01  0.28047211891E+02  0.85462423606E+01  0.30721377221E+02  0.51100000000E-03 0. -1.
        -11    1    3    3    0    0 -0.10958808346E+01  0.55670930987E+00  0.25247082693E+00  0.12548393677E+01  0.51100000000E-03 0.  1.
        -12    1    3    3    0    0  0.64837809444E+01 -0.35504703791E+02 -0.18342267789E+02  0.40485333076E+02  0.00000000000E+00 0.  1.
</event>
<event>
 7    1  0.3189267E-013  0.7246165E+02  0.7816164E-02  0.1226708E+00
        -11   -1    0    0    0    0  0.00000000000E+00  0.00000000000E+00  0.45593999997E+02  0.45594000000E+02  0.51100000000E-03 0. -1.
         11   -1    0    0    0    0 -0.00000000000E+00 -0.00000000000E+00 -0.45593999997E+02  0.45594000000E+02  0.51100000000E-03 0.  1.
    9900012    2    1    2    0    0  0.74326726769E+01 -0.87042723322E+01 -0.14821168687E+02  0.72461654355E+02  0.70000109505E+02 0.  0.
         12    1    1    2    0    0 -0.74326726769E+01  0.87042723322E+01  0.14821168687E+02  0.18726345645E+02  0.00000000000E+00 0. -1.
         11    1    3    3    0    0 -0.32163779519E+01  0.10204186166E+02  0.20467573732E+02  0.23095282574E+02  0.51100000000E-03 0. -1.
        -11    1    3    3    0    0  0.63595258842E+00  0.64129207359E+01 -0.29406771146E+01  0.70836127938E+01  0.51100000000E-03 0.  1.
        -12    1    3    3    0    0  0.10013098040E+02 -0.25321379234E+02 -0.32348065304E+02  0.42282758988E+02  0.00000000000E+00 0.  1.
</event>
<event>
 7    1  0.3189267E-013  0.7246158E+02  0.7816164E-02  0.1226708E+00
        -11   -1    0    0    0    0  0.00000000000E+00  0.00000000000E+00  0.45593999997E+02  0.45594000000E+02  0.51100000000E-03 0.  1.
         11   -1    0    0    0    0 -0.00000000000E+00 -0.00000000000E+00 -0.45593999997E+02  0.45594000000E+02  0.51100000000E-03 0. -1.
    9900012    2    1    2    0    0 -0.10962044635E+02  0.15164464675E+02 -0.74249837720E+00  0.72461582422E+02  0.70000015799E+02 0.  0.
         12    1    1    2    0    0  0.10962044635E+02 -0.15164464675E+02  0.74249837720E+00  0.18726417578E+02  0.00000000000E+00 0. -1.
         11    1    3    3    0    0  0.91592138131E+01  0.65483420306E+01 -0.31883616607E+01  0.11702035351E+02  0.51100000000E-03 0. -1.
        -11    1    3    3    0    0 -0.35039897458E+02 -0.44176304253E+01 -0.10796766066E+02  0.36930746407E+02  0.51100000000E-03 0.  1.
         12    1    3    3    0    0  0.14918639010E+02  0.13033753070E+02  0.13242629349E+02  0.23828800664E+02  0.00000000000E+00 0. -1.
</event>
<event>
 7    1  0.3189267E-013  0.7246160E+02  0.7816164E-02  0.1226708E+00
        -11   -1    0    0    0    0  0.00000000000E+00  0.00000000000E+00  0.45593999997E+02  0.45594000000E+02  0.51100000000E-03 0. -1.
         11   -1    0    0    0    0 -0.00000000000E+00 -0.00000000000E+00 -0.45593999997E+02  0.45594000000E+02  0.51100000000E-03 0.  1.
    9900012    2    1    2    0    0 -0.12731426376E+02  0.46939114574E+01 -0.12905653775E+02  0.72461603611E+02  0.70000043401E+02 0.  0.
         12    1    1    2    0    0  0.12731426376E+02 -0.46939114574E+01  0.12905653775E+02  0.18726396389E+02  0.00000000000E+00 0. -1.
         11    1    3    3    0    0  0.82919978352E+01  0.21344461079E+01 -0.20332624977E+02  0.22061929358E+02  0.51100000000E-03 0. -1.
        -11    1    3    3    0    0 -0.21914028988E+02  0.17967847065E+02 -0.70891620892E+01  0.29211717068E+02  0.51100000000E-03 0.  1.
         12    1    3    3    0    0  0.89060477674E+00 -0.15408381715E+02  0.14516133291E+02  0.21187957185E+02  0.00000000000E+00 0. -1.
</event>
<event>
 7    1  0.3189267E-013  0.7246158E+02  0.7816164E-02  0.1226708E+00
        -11   -1    0    0    0    0  0.00000000000E+00  0.00000000000E+00  0.45593999997E+02  0.45594000000E+02  0.51100000000E-03 0.  1.
         11   -1    0    0    0    0 -0.00000000000E+00 -0.00000000000E+00 -0.45593999997E+02  0.45594000000E+02  0.51100000000E-03 0. -1.
    9900012    2    1    2    0    0 -0.16198936867E+02  0.93246015856E+01  0.11510717700E+01  0.72461582388E+02  0.70000015754E+02 0.  0.
         12    1    1    2    0    0  0.16198936867E+02 -0.93246015856E+01 -0.11510717700E+01  0.18726417612E+02  0.00000000000E+00 0. -1.
         11    1    3    3    0    0 -0.25071900706E+02  0.17393619617E+02 -0.18156807405E+02  0.35507856367E+02  0.51100000000E-03 0. -1.
        -11    1    3    3    0    0 -0.28535184583E+01  0.96283382649E+01  0.83634626344E+01  0.13068855070E+02  0.51100000000E-03 0.  1.
        -12    1    3    3    0    0  0.11726482297E+02 -0.17697356297E+02  0.10944416540E+02  0.23884870951E+02  0.00000000000E+00 0.  1.
</event>
<event>
 7    1  0.3189267E-013  0.7246158E+02  0.7816164E-02  0.1226708E+00
        -11   -1    0    0    0    0  0.00000000000E+00  0.00000000000E+00  0.45593999997E+02  0.45594000000E+02  0.51100000000E-03 0. -1.
         11   -1    0    0    0    0 -0.00000000000E+00 -0.00000000000E+00 -0.45593999997E+02  0.45594000000E+02  0.51100000000E-03 0.  1.
    9900012    2    1    2    0    0  0.15238072102E+02 -0.99513895781E+01 -0.44102060916E+01  0.72461577125E+02  0.70000008898E+02 0.  0.
         12    1    1    2    0    0 -0.15238072102E+02  0.99513895781E+01  0.44102060916E+01  0.18726422875E+02  0.00000000000E+00 0. -1.
         11    1    3    3    0    0 -0.52981266342E+00 -0.20307064123E+02 -0.57007654087E+00  0.20321971909E+02  0.51100000000E-03 0. -1.
        -11    1    3    3    0    0  0.24304980216E+02  0.15331252933E+02 -0.18706677408E+02  0.34288761420E+02  0.51100000000E-03 0.  1.
         12    1    3    3    0    0 -0.85370954503E+01 -0.49755783885E+01  0.14866547857E+02  0.17850843796E+02  0.00000000000E+00 0. -1.
</event>
<event>
 7    1  0.3189267E-013  0.7246153E+02  0.7816164E-02  0.1226708E+00
        -11   -1    0    0    0    0  0.00000000000E+00  0.00000000000E+00  0.45593999997E+02  0.45594000000E+02  0.51100000000E-03 0.  1.
         11   -1    0    0    0    0 -0.00000000000E+00 -0.00000000000E+00 -0.45593999997E+02  0.45594000000E+02  0.51100000000E-03 0. -1.
    9900012    2    1    2    0    0 -0.18360452370E+02  0.23202298821E+01 -0.28620105945E+01  0.72461527225E+02  0.69999943894E+02 0.  0.
         12    1    1    2    0    0  0.18360452370E+02 -0.23202298821E+01  0.28620105945E+01  0.18726472775E+02  0.00000000000E+00 0. -1.
         11    1    3    3    0    0 -0.38608834880E+01 -0.21262120289E+01 -0.70600340404E+01  0.83229369703E+01  0.51100000000E-03 0. -1.
        -11    1    3    3    0    0 -0.35440079423E+02 -0.20142709832E+00  0.16842338940E+02  0.39239064510E+02  0.51100000000E-03 0.  1.
        -12    1    3    3    0    0  0.20940510541E+02  0.46478690093E+01 -0.12644315494E+02  0.24899525745E+02  0.00000000000E+00 0.  1.
</event>
<event>
 7    1  0.3189267E-013  0.7246154E+02  0.7816164E-02  0.1226708E+00
        -11   -1    0    0    0    0  0.00000000000E+00  0.00000000000E+00  0.45593999997E+02  0.45594000000E+02  0.51100000000E-03 0. -1.
         11   -1    0    0    0    0 -0.00000000000E+00 -0.00000000000E+00 -0.45593999997E+02  0.45594000000E+02  0.51100000000E-03 0.  1.
    9900012    2    1    2    0    0  0.14387249052E+02 -0.15874108616E+01  0.11881394154E+02  0.72461539161E+02  0.69999959443E+02 0.  0.
         12    1    1    2    0    0 -0.14387249052E+02  0.15874108616E+01 -0.11881394154E+02  0.18726460839E+02  0.00000000000E+00 0. -1.
         11    1    3    3    0    0 -0.15165685389E+02 -0.22533488731E+01 -0.69127131926E+01  0.16818477886E+02  0.51100000000E-03 0.  1.
        -11    1    3    3    0    0  0.20179115611E+01 -0.75104012772E+01 -0.11509004287E+02  0.13890114267E+02  0.51100000000E-03 0. -1.
         12    1    3    3    0    0  0.27535022880E+02  0.81763392886E+01  0.30303111634E+02  0.41752947008E+02  0.00000000000E+00 0. -1.
</event>
<event>
 7    1  0.3189267E-013  0.7246151E+02  0.7816164E-02  0.1226708E+00
        -11   -1    0    0    0    0  0.00000000000E+00  0.00000000000E+00  0.45593999997E+02  0.45594000000E+02  0.51100000000E-03 0. -1.
         11   -1    0    0    0    0 -0.00000000000E+00 -0.00000000000E+00 -0.45593999997E+02  0.45594000000E+02  0.51100000000E-03 0.  1.
    9900012    2    1    2    0    0  0.11826051826E+01 -0.44466669616E+01 -0.18152407602E+02  0.72461513308E+02  0.69999925764E+02 0.  0.
         12    1    1    2    0    0 -0.11826051826E+01  0.44466669616E+01  0.18152407602E+02  0.18726486692E+02  0.00000000000E+00 0. -1.
         11    1    3    3    0    0  0.19530488565E+02 -0.21275439924E+02  0.10521992904E+02  0.30737544835E+02  0.51100000000E-03 0. -1.
        -11    1    3    3    0    0 -0.75957295639E+01  0.11406680712E+01 -0.45587991584E+00  0.76944173279E+01  0.51100000000E-03 0.  1.
        -12    1    3    3    0    0 -0.10752153818E+02  0.15688104891E+02 -0.28218520590E+02  0.34029551145E+02  0.00000000000E+00 0.  1.
</event>
<event>
 7    1  0.3189267E-013  0.7246156E+02  0.7816164E-02  0.1226708E+00
        -11   -1    0    0    0    0  0.00000000000E+00  0.00000000000E+00  0.45593999997E+02  0.45594000000E+02  0.51100000000E-03 0.  1.
         11   -1    0    0    0    0 -0.00000000000E+00 -0.00000000000E+00 -0.45593999997E+02  0.45594000000E+02  0.51100000000E-03 0. -1.
    9900012    2    1    2    0    0  0.22486050609E+01  0.13611955169E+02  0.12662460749E+02  0.72461562526E+02  0.69999989881E+02 0.  0.
         12    1    1    2    0    0 -0.22486050609E+01 -0.13611955169E+02 -0.12662460749E+02  0.18726437474E+02  0.00000000000E+00 0. -1.
         11    1    3    3    0    0  0.40844436667E+00  0.21778694540E+02 -0.75647273870E+01  0.23058696046E+02  0.51100000000E-03 0. -1.
        -11    1    3    3    0    0  0.11867558678E+02 -0.18322846692E+01  0.31084445745E+02  0.33323249896E+02  0.51100000000E-03 0.  1.
         12    1    3    3    0    0 -0.10027397984E+02 -0.63344547017E+01 -0.10857257609E+02  0.16079616584E+02  0.00000000000E+00 0. -1.
</event>
<event>
 7    1  0.3189267E-013  0.7246144E+02  0.7816164E-02  0.1226708E+00
        -11   -1    0    0    0    0  0.00000000000E+00  0.00000000000E+00  0.45593999997E+02  0.45594000000E+02  0.51100000000E-03 0.  1.
         11   -1    0    0    0    0 -0.00000000000E+00 -0.00000000000E+00 -0.45593999997E+02  0.45594000000E+02  0.51100000000E-03 0. -1.
    9900012    2    1    2    0    0  0.61673188445E+01 -0.17663675522E+02 -0.80183514706E+00  0.72461436133E+02  0.69999825230E+02 0.  0.
         12    1    1    2    0    0 -0.61673188445E+01  0.17663675522E+02  0.80183514706E+00  0.18726563867E+02  0.00000000000E+00 0. -1.
         11    1    3    3    0    0  0.24838504071E+01 -0.37503979801E+02 -0.91854715660E+01  0.38692258941E+02  0.51100000000E-03 0. -1.
        -11    1    3    3    0    0  0.14689330974E+02  0.88115971358E+01  0.42221239854E+01  0.17642194301E+02  0.51100000000E-03 0.  1.
        -12    1    3    3    0    0 -0.11005862537E+02  0.11028707144E+02  0.41615124336E+01  0.16126982891E+02  0.00000000000E+00 0.  1.
</event>
<event>
 7    1  0.3189267E-013  0.7246158E+02  0.7816164E-02  0.1226708E+00
        -11   -1    0    0    0    0  0.00000000000E+00  0.00000000000E+00  0.45593999997E+02  0.45594000000E+02  0.51100000000E-03 0. -1.
         11   -1    0    0    0    0 -0.00000000000E+00 -0.00000000000E+00 -0.45593999997E+02  0.45594000000E+02  0.51100000000E-03 0.  1.
    9900012    2    1    2    0    0 -0.15008510738E+02  0.44299817518E+00 -0.11190488956E+02  0.72461583231E+02  0.70000016852E+02 0.  0.
         12    1    1    2    0    0  0.15008510738E+02 -0.44299817518E+00  0.11190488956E+02  0.18726416769E+02  0.00000000000E+00 0. -1.
         11    1    3    3    0    0 -0.77302854711E+01  0.20087617631E+01  0.15366327598E+02  0.17318096356E+02  0.51100000000E-03 0. -1.
        -11    1    3    3    0    0  0.16077266486E+02 -0.12363301232E+02 -0.20231303283E+02  0.28646733633E+02  0.51100000000E-03 0.  1.
         12    1    3    3    0    0 -0.23355491753E+02  0.10797537644E+02 -0.63255132707E+01  0.26496753241E+02  0.00000000000E+00 0. -1.
</event>
<event>
 7    1  0.3189267E-013  0.7246161E+02  0.7816164E-02  0.1226708E+00
        -11   -1    0    0    0    0  0.00000000000E+00  0.00000000000E+00  0.45593999997E+02  0.45594000000E+02  0.51100000000E-03 0. -1.
         11   -1    0    0    0    0 -0.00000000000E+00 -0.00000000000E+00 -0.45593999997E+02  0.45594000000E+02  0.51100000000E-03 0.  1.
    9900012    2    1    2    0    0 -0.15837296538E+02  0.77873808233E+01 -0.62621563295E+01  0.72461605163E+02  0.70000045423E+02 0.  0.
         12    1    1    2    0    0  0.15837296538E+02 -0.77873808233E+01  0.62621563295E+01  0.18726394837E+02  0.00000000000E+00 0. -1.
         11    1    3    3    0    0  0.12405702631E+02 -0.21045357752E+02  0.51333995706E+01  0.24963179527E+02  0.51100000000E-03 0. -1.
        -11    1    3    3    0    0 -0.68776290811E+01  0.58634078950E+00  0.49478220130E+01  0.84927333781E+01  0.51100000000E-03 0.  1.
        -12    1    3    3    0    0 -0.21365370088E+02  0.28246397786E+02 -0.16343377913E+02  0.39005692257E+02  0.00000000000E+00 0.  1.
</event>
<event>
 7    1  0.3189267E-013  0.7246154E+02  0.7816164E-02  0.1226708E+00
        -11   -1    0    0    0    0  0.00000000000E+00  0.00000000000E+00  0.45593999997E+02  0.45594000000E+02  0.51100000000E-03 0.  1.
         11   -1    0    0    0    0 -0.00000000000E+00 -0.00000000000E+00 -0.45593999997E+02  0.45594000000E+02  0.51100000000E-03 0. -1.
    9900012    2    1    2    0    0  0.14900724488E+02  0.74460691123E+01  0.85559742270E+01  0.72461541967E+02  0.69999963099E+02 0.  0.
         12    1    1    2    0    0 -0.14900724488E+02 -0.74460691123E+01 -0.85559742270E+01  0.18726458033E+02  0.00000000000E+00 0. -1.
         11    1    3    3    0    0  0.89758164598E+01 -0.27785890366E+01  0.14795372060E+01  0.95118278349E+01  0.51100000000E-03 0. -1.
        -11    1    3    3    0    0  0.68603841676E+01  0.29057361889E+02  0.23459826704E+02  0.37970496706E+02  0.51100000000E-03 0.  1.
         12    1    3    3    0    0 -0.93547613978E+00 -0.18832703740E+02 -0.16383389683E+02  0.24979217427E+02  0.00000000000E+00 0. -1.
</event>
<event>
 7    1  0.3189267E-013  0.7246156E+02  0.7816164E-02  0.1226708E+00
        -11   -1    0    0    0    0  0.00000000000E+00  0.00000000000E+00  0.45593999997E+02  0.45594000000E+02  0.51100000000E-03 0.  1.
         11   -1    0    0    0    0 -0.00000000000E+00 -0.00000000000E+00 -0.45593999997E+02  0.45594000000E+02  0.51100000000E-03 0. -1.
    9900012    2    1    2    0    0  0.18255553067E+02  0.41688298868E+01  0.18728371063E+00  0.72461563190E+02  0.69999990745E+02 0.  0.
         12    1    1    2    0    0 -0.18255553067E+02 -0.41688298868E+01 -0.18728371063E+00  0.18726436810E+02  0.00000000000E+00 0. -1.
         11    1    3    3    0    0  0.12407338399E+02  0.15659949956E+02 -0.51710016844E+01  0.20637716382E+02  0.51100000000E-03 0. -1.
        -11    1    3    3    0    0  0.20532383441E+02 -0.24253270223E+02  0.60875025602E+01  0.32355178472E+02  0.51100000000E-03 0.  1.
         12    1    3    3    0    0 -0.14684168773E+02  0.12762150154E+02 -0.72921716516E+00  0.19468668336E+02  0.00000000000E+00 0. -1.
</event>
<event>
 7    1  0.3189267E-013  0.7246164E+02  0.7816164E-02  0.1226708E+00
        -11   -1    0    0    0    0  0.00000000000E+00  0.00000000000E+00  0.45593999997E+02  0.45594000000E+02  0.51100000000E-03 0. -1.
         11   -1    0    0    0    0 -0.00000000000E+00 -0.00000000000E+00 -0.45593999997E+02  0.45594000000E+02  0.51100000000E-03 0.  1.
    9900012    2    1    2    0    0 -0.33064698122E+01  0.15503429111E+02 -0.99693272733E+01  0.72461640421E+02  0.70000091353E+02 0.  0.
         12    1    1    2    0    0  0.33064698122E+01 -0.15503429111E+02  0.99693272733E+01  0.18726359579E+02  0.00000000000E+00 0. -1.
         11    1    3    3    0    0 -0.19705835572E+02  0.38990377152E+01 -0.15304321536E+01  0.20146083329E+02  0.51100000000E-03 0. -1.
        -11    1    3    3    0    0 -0.11101980074E+02  0.63270558437E+01 -0.18565181416E+02  0.22537780691E+02  0.51100000000E-03 0.  1.
         12    1    3    3    0    0  0.27501345833E+02  0.52773355516E+01  0.10126286297E+02  0.29777776400E+02  0.00000000000E+00 0. -1.
</event>
<event>
 7    1  0.3189267E-013  0.7246155E+02  0.7816164E-02  0.1226708E+00
        -11   -1    0    0    0    0  0.00000000000E+00  0.00000000000E+00  0.45593999997E+02  0.45594000000E+02  0.51100000000E-03 0. -1.
         11   -1    0    0    0    0 -0.00000000000E+00 -0.00000000000E+00 -0.45593999997E+02  0.45594000000E+02  0.51100000000E-03 0.  1.
    9900012    2    1    2    0    0 -0.10333154925E+02  0.15561103974E+02 -0.13258005518E+01  0.72461553602E+02  0.69999978255E+02 0.  0.
         12    1    1    2    0    0  0.10333154925E+02 -0.15561103974E+02  0.13258005518E+01  0.18726446398E+02  0.00000000000E+00 0. -1.
         11    1    3    3    0    0 -0.19422670033E+02 -0.17268362138E+02 -0.14338458840E+02  0.29682113205E+02  0.51100000000E-03 0. -1.
        -11    1    3    3    0    0 -0.73012951184E+01  0.13918852412E+02  0.54658818569E+01  0.16640890228E+02  0.51100000000E-03 0.  1.
        -12    1    3    3    0    0  0.16390810226E+02  0.18910613701E+02  0.75467764310E+01  0.26138550169E+02  0.00000000000E+00 0.  1.
</event>
<event>
 7    1  0.3189267E-013  0.7246148E+02  0.7816164E-02  0.1226708E+00
        -11   -1    0    0    0    0  0.00000000000E+00  0.00000000000E+00  0.45593999997E+02  0.45594000000E+02  0.51100000000E-03 0.  1.
         11   -1    0    0    0    0 -0.00000000000E+00 -0.00000000000E+00 -0.45593999997E+02  0.45594000000E+02  0.51100000000E-03 0. -1.
    9900012    2    1    2    0    0  0.11991099778E+02 -0.14375688467E+02 -0.48553660423E+00  0.72461477670E+02  0.69999879340E+02 0.  0.
         12    1    1    2    0    0 -0.11991099778E+02  0.14375688467E+02  0.48553660423E+00  0.18726522330E+02  0.00000000000E+00 0. -1.
         11    1    3    3    0    0 -0.10191875665E+02  0.64427999369E+01 -0.23111189292E+02  0.26067433156E+02  0.51100000000E-03 0. -1.
        -11    1    3    3    0    0  0.25328720496E+02 -0.12018969921E+02  0.82075287761E+01  0.29212381772E+02  0.51100000000E-03 0.  1.
        -12    1    3    3    0    0 -0.31457450525E+01 -0.87995184824E+01  0.14418123912E+02  0.17181662742E+02  0.00000000000E+00 0.  1.
</event>
<event>
 7    1  0.3189267E-013  0.7246156E+02  0.7816164E-02  0.1226708E+00
        -11   -1    0    0    0    0  0.00000000000E+00  0.00000000000E+00  0.45593999997E+02  0.45594000000E+02  0.51100000000E-03 0. -1.
         11   -1    0    0    0    0 -0.00000000000E+00 -0.00000000000E+00 -0.45593999997E+02  0.45594000000E+02  0.51100000000E-03 0.  1.
    9900012    2    1    2    0    0  0.19438102657E+01 -0.16914423557E+02 -0.77976538094E+01  0.72461560735E+02  0.69999987547E+02 0.  0.
         12    1    1    2    0    0 -0.19438102657E+01  0.16914423557E+02  0.77976538094E+01  0.18726439265E+02  0.00000000000E+00 0. -1.
         11    1    3    3    0    0 -0.21603648952E+02 -0.59558195455E+01 -0.30580041687E+01  0.22617268276E+02  0.51100000000E-03 0.  1.
        -11    1    3    3    0    0  0.13757568403E+01  0.14125409315E+02  0.48859861350E+01  0.15009755360E+02  0.51100000000E-03 0. -1.
        -12    1    3    3    0    0  0.22171702377E+02 -0.25084013326E+02 -0.96256357757E+01  0.34834537100E+02  0.00000000000E+00 0.  1.
</event>
<event>
 7    1  0.3189267E-013  0.7246154E+02  0.7816164E-02  0.1226708E+00
        -11   -1    0    0    0    0  0.00000000000E+00  0.00000000000E+00  0.45593999997E+02  0.45594000000E+02  0.51100000000E-03 0. -1.
         11   -1    0    0    0    0 -0.00000000000E+00 -0.00000000000E+00 -0.45593999997E+02  0.45594000000E+02  0.51100000000E-03 0.  1.
    9900012    2    1    2    0    0  0.49143772416E+01 -0.56113530109E+01 -0.17176779630E+02  0.72461544256E+02  0.69999966080E+02 0.  0.
         12    1    1    2    0    0 -0.49143772416E+01  0.56113530109E+01  0.17176779630E+02  0.18726455744E+02  0.00000000000E+00 0. -1.
         11    1    3    3    0    0  0.19261937640E+01  0.10348552533E+02 -0.17153856529E+02  0.20126041738E+02  0.51100000000E-03 0. -1.
        -11    1    3    3    0    0 -0.43447089512E+01  0.11397193938E+02 -0.15764446342E+02  0.19932142239E+02  0.51100000000E-03 0.  1.
         12    1    3    3    0    0  0.73328924288E+01 -0.27357099482E+02  0.15741523240E+02  0.32403360279E+02  0.00000000000E+00 0. -1.
</event>
<event>
 7    1  0.3588286E-013  0.7246158E+02  0.7816164E-02  0.1226708E+00
        -11   -1    0    0    0    0  0.00000000000E+00  0.00000000000E+00  0.45593999997E+02  0.45594000000E+02  0.51100000000E-03 0. -1.
         11   -1    0    0    0    0 -0.00000000000E+00 -0.00000000000E+00 -0.45593999997E+02  0.45594000000E+02  0.51100000000E-03 0.  1.
    9900012    2    1    2    0    0  0.71001824920E+01 -0.55710787486E+01 -0.16408211937E+02  0.72461576722E+02  0.70000008373E+02 0.  0.
         12    1    1    2    0    0 -0.71001824920E+01  0.55710787486E+01  0.16408211937E+02  0.18726423278E+02  0.00000000000E+00 0. -1.
         11    1    3    3    0    0  0.34293623366E+01  0.18165364561E+02 -0.13090970345E+02  0.22652030825E+02  0.51100000000E-03 0. -1.
        -11    1    3    3    0    0 -0.77697917632E+01 -0.20603477627E+02 -0.19725339997E+02  0.29562848182E+02  0.51100000000E-03 0.  1.
         12    1    3    3    0    0  0.11440611919E+02 -0.31329656826E+01  0.16408098406E+02  0.20246697715E+02  0.00000000000E+00 0. -1.
</event>
