<event>
 7    1  0.1891413E-013  0.7246132E+02  0.7816164E-02  0.1226709E+00
        -11   -1    0    0    0    0  0.00000000000E+00  0.00000000000E+00  0.45593999997E+02  0.45594000000E+02  0.51100000000E-03 0.  1.
         11   -1    0    0    0    0 -0.00000000000E+00 -0.00000000000E+00 -0.45593999997E+02  0.45594000000E+02  0.51100000000E-03 0. -1.
    9900012    2    1    2    0    0 -0.42998176313E+01  0.12775589075E+02 -0.12999401493E+02  0.72461319914E+02  0.69999673832E+02 0.  0.
        -12    1    1    2    0    0  0.42998176313E+01 -0.12775589075E+02  0.12999401493E+02  0.18726680086E+02  0.00000000000E+00 0.  1.
         11    1    3    3    0    0 -0.88839856038E+01 -0.68662967119E+01 -0.24356039080E+01  0.11489273145E+02  0.51100000000E-03 0. -1.
        -11    1    3    3    0    0 -0.16575734906E+02  0.21516871583E+02  0.12253202322E+02  0.29797176339E+02  0.51100000000E-03 0.  1.
        -12    1    3    3    0    0  0.21159902878E+02 -0.18749857959E+01 -0.22816999907E+02  0.31174870430E+02  0.00000000000E+00 0.  1.
</event>
<event>
 7    1  0.1891413E-013  0.7246155E+02  0.7816164E-02  0.1226708E+00
        -11   -1    0    0    0    0  0.00000000000E+00  0.00000000000E+00  0.45593999997E+02  0.45594000000E+02  0.51100000000E-03 0. -1.
         11   -1    0    0    0    0 -0.00000000000E+00 -0.00000000000E+00 -0.45593999997E+02  0.45594000000E+02  0.51100000000E-03 0.  1.
    9900012    2    1    2    0    0 -0.98624799319E+01  0.88813665917E+01  0.13211086843E+02  0.72461548160E+02  0.69999971166E+02 0.  0.
        -12    1    1    2    0    0  0.98624799319E+01 -0.88813665917E+01 -0.13211086843E+02  0.18726451840E+02  0.00000000000E+00 0.  1.
         11    1    3    3    0    0 -0.23780880694E+02  0.28339172454E+02  0.14106144300E+02  0.39593210140E+02  0.51100000000E-03 0. -1.
        -11    1    3    3    0    0 -0.47639959815E+01 -0.39299798083E+01 -0.53493634089E+01  0.81704398992E+01  0.51100000000E-03 0.  1.
         12    1    3    3    0    0  0.18682396743E+02 -0.15527826054E+02  0.44543059518E+01  0.24697898120E+02  0.00000000000E+00 0. -1.
</event>
<event>
 7    1  0.1891413E-013  0.7246159E+02  0.7816164E-02  0.1226708E+00
        -11   -1    0    0    0    0  0.00000000000E+00  0.00000000000E+00  0.45593999997E+02  0.45594000000E+02  0.51100000000E-03 0.  1.
         11   -1    0    0    0    0 -0.00000000000E+00 -0.00000000000E+00 -0.45593999997E+02  0.45594000000E+02  0.51100000000E-03 0. -1.
    9900012    2    1    2    0    0  0.30742022709E+01 -0.16906894820E+01 -0.18394812252E+02  0.72461594357E+02  0.70000031346E+02 0.  0.
        -12    1    1    2    0    0 -0.30742022709E+01  0.16906894820E+01  0.18394812252E+02  0.18726405643E+02  0.00000000000E+00 0.  1.
         11    1    3    3    0    0 -0.44414782310E-01  0.71931255917E+01 -0.22972969463E+02  0.24072813601E+02  0.51100000000E-03 0. -1.
        -11    1    3    3    0    0  0.11979749803E+02  0.12712072151E+02  0.14810820154E+02  0.22901344450E+02  0.51100000000E-03 0.  1.
        -12    1    3    3    0    0 -0.88611327501E+01 -0.21595887224E+02 -0.10232662942E+02  0.25487436307E+02  0.00000000000E+00 0.  1.
</event>
<event>
 7    1  0.1891413E-013  0.7246159E+02  0.7816164E-02  0.1226708E+00
        -11   -1    0    0    0    0  0.00000000000E+00  0.00000000000E+00  0.45593999997E+02  0.45594000000E+02  0.51100000000E-03 0. -1.
         11   -1    0    0    0    0 -0.00000000000E+00 -0.00000000000E+00 -0.45593999997E+02  0.45594000000E+02  0.51100000000E-03 0.  1.
    9900012    2    1    2    0    0 -0.48223794373E+01  0.17234087844E+02  0.55144662398E+01  0.72461589101E+02  0.70000024499E+02 0.  0.
        -12    1    1    2    0    0  0.48223794373E+01 -0.17234087844E+02 -0.55144662398E+01  0.18726410899E+02  0.00000000000E+00 0.  1.
         11    1    3    3    0    0 -0.76135122010E+01 -0.29615936172E+01  0.20554202032E+02  0.22118133425E+02  0.51100000000E-03 0. -1.
        -11    1    3    3    0    0 -0.22499751917E+01 -0.66818804364E+01 -0.21174569770E+02  0.22317533908E+02  0.51100000000E-03 0.  1.
        -12    1    3    3    0    0  0.50411079554E+01  0.26877561898E+02  0.61348339780E+01  0.28025921767E+02  0.00000000000E+00 0.  1.
</event>
<event>
 7    1  0.1891413E-013  0.7246160E+02  0.7816164E-02  0.1226708E+00
        -11   -1    0    0    0    0  0.00000000000E+00  0.00000000000E+00  0.45593999997E+02  0.45594000000E+02  0.51100000000E-03 0. -1.
         11   -1    0    0    0    0 -0.00000000000E+00 -0.00000000000E+00 -0.45593999997E+02  0.45594000000E+02  0.51100000000E-03 0.  1.
    9900012    2    1    2    0    0 -0.33587243894E+01 -0.14399637043E+02 -0.11491190216E+02  0.72461600745E+02  0.70000039667E+02 0.  0.
        -12    1    1    2    0    0  0.33587243894E+01  0.14399637043E+02  0.11491190216E+02  0.18726399255E+02  0.00000000000E+00 0.  1.
         11    1    3    3    0    0  0.92043001359E+00  0.12984732124E+02  0.58166073128E+01  0.14257748091E+02  0.51100000000E-03 0. -1.
        -11    1    3    3    0    0 -0.25331349525E+02 -0.15371605507E+02 -0.16581547022E+02  0.33954546478E+02  0.51100000000E-03 0.  1.
         12    1    3    3    0    0  0.21052195122E+02 -0.12012763660E+02 -0.72625050645E+00  0.24249306175E+02  0.00000000000E+00 0. -1.
</event>
<event>
 7    1  0.1891413E-013  0.7246158E+02  0.7816164E-02  0.1226708E+00
        -11   -1    0    0    0    0  0.00000000000E+00  0.00000000000E+00  0.45593999997E+02  0.45594000000E+02  0.51100000000E-03 0.  1.
         11   -1    0    0    0    0 -0.00000000000E+00 -0.00000000000E+00 -0.45593999997E+02  0.45594000000E+02  0.51100000000E-03 0. -1.
    9900012    2    1    2    0    0  0.39092019639E+01  0.14233087399E+02 -0.11524592579E+02  0.72461578264E+02  0.70000010382E+02 0.  0.
        -12    1    1    2    0    0 -0.39092019639E+01 -0.14233087399E+02  0.11524592579E+02  0.18726421736E+02  0.00000000000E+00 0.  1.
         11    1    3    3    0    0 -0.74536090524E+01  0.17407814680E+01 -0.22999717390E+02  0.24239917663E+02  0.51100000000E-03 0. -1.
        -11    1    3    3    0    0 -0.63328265491E+01 -0.13736134120E+02  0.24748617208E+01  0.15326807021E+02  0.51100000000E-03 0.  1.
         12    1    3    3    0    0  0.17695637565E+02  0.26228440051E+02  0.90002630899E+01  0.32894853580E+02  0.00000000000E+00 0. -1.
</event>
<event>
 7    1  0.1891413E-013  0.7246157E+02  0.7816164E-02  0.1226708E+00
        -11   -1    0    0    0    0  0.00000000000E+00  0.00000000000E+00  0.45593999997E+02  0.45594000000E+02  0.51100000000E-03 0.  1.
         11   -1    0    0    0    0 -0.00000000000E+00 -0.00000000000E+00 -0.45593999997E+02  0.45594000000E+02  0.51100000000E-03 0. -1.
    9900012    2    1    2    0    0 -0.70883832894E+01  0.99323428955E+01 -0.14205018042E+02  0.72461570799E+02  0.70000000657E+02 0.  0.
        -12    1    1    2    0    0  0.70883832894E+01 -0.99323428955E+01  0.14205018042E+02  0.18726429201E+02  0.00000000000E+00 0.  1.
         11    1    3    3    0    0  0.18795088353E+02 -0.14288299379E+02  0.40107047306E+01  0.23947789000E+02  0.51100000000E-03 0. -1.
        -11    1    3    3    0    0 -0.77494691896E+01  0.19655816555E+02 -0.20785238416E+02  0.29638345660E+02  0.51100000000E-03 0.  1.
        -12    1    3    3    0    0 -0.18134002452E+02  0.45648257186E+01  0.25695156432E+01  0.18875436139E+02  0.00000000000E+00 0.  1.
</event>
<event>
 7    1  0.1891413E-013  0.7246164E+02  0.7816164E-02  0.1226708E+00
        -11   -1    0    0    0    0  0.00000000000E+00  0.00000000000E+00  0.45593999997E+02  0.45594000000E+02  0.51100000000E-03 0. -1.
         11   -1    0    0    0    0 -0.00000000000E+00 -0.00000000000E+00 -0.45593999997E+02  0.45594000000E+02  0.51100000000E-03 0.  1.
    9900012    2    1    2    0    0  0.89382051139E+01 -0.13493586242E+02  0.94185109910E+01  0.72461635440E+02  0.70000084865E+02 0.  0.
        -12    1    1    2    0    0 -0.89382051139E+01  0.13493586242E+02 -0.94185109910E+01  0.18726364560E+02  0.00000000000E+00 0.  1.
         11    1    3    3    0    0  0.34868576561E+01  0.88836964250E+01  0.40817564961E+01  0.10379738669E+02  0.51100000000E-03 0. -1.
        -11    1    3    3    0    0  0.31125332261E+02 -0.12483081302E+02  0.78845490783E+01  0.34449669688E+02  0.51100000000E-03 0.  1.
         12    1    3    3    0    0 -0.25673984803E+02 -0.98942013656E+01 -0.25477945834E+01  0.27632227083E+02  0.00000000000E+00 0. -1.
</event>
<event>
 7    1  0.1891413E-013  0.7246156E+02  0.7816164E-02  0.1226708E+00
        -11   -1    0    0    0    0  0.00000000000E+00  0.00000000000E+00  0.45593999997E+02  0.45594000000E+02  0.51100000000E-03 0. -1.
         11   -1    0    0    0    0 -0.00000000000E+00 -0.00000000000E+00 -0.45593999997E+02  0.45594000000E+02  0.51100000000E-03 0.  1.
    9900012    2    1    2    0    0  0.22749984392E+00 -0.74705638568E+01  0.17170279014E+02  0.72461559817E+02  0.69999986351E+02 0.  0.
        -12    1    1    2    0    0 -0.22749984392E+00  0.74705638568E+01 -0.17170279014E+02  0.18726440183E+02  0.00000000000E+00 0.  1.
         11    1    3    3    0    0 -0.19919913441E+01  0.67971204719E+01  0.80796784502E+01  0.10744769907E+02  0.51100000000E-03 0. -1.
        -11    1    3    3    0    0 -0.96735993808E+01 -0.38996197108E+01  0.32136850953E+02  0.33787020412E+02  0.51100000000E-03 0.  1.
        -12    1    3    3    0    0  0.11893090569E+02 -0.10368064618E+02 -0.23046250390E+02  0.27929769498E+02  0.00000000000E+00 0.  1.
</event>
<event>
 7    1  0.2157582E-013  0.7246174E+02  0.7816164E-02  0.1226708E+00
        -11   -1    0    0    0    0  0.00000000000E+00  0.00000000000E+00  0.45593999997E+02  0.45594000000E+02  0.51100000000E-03 0. -1.
         11   -1    0    0    0    0 -0.00000000000E+00 -0.00000000000E+00 -0.45593999997E+02  0.45594000000E+02  0.51100000000E-03 0.  1.
    9900012    2    1    2    0    0  0.13386487723E+01 -0.10580027625E+02  0.15392984309E+02  0.72461736865E+02  0.70000216988E+02 0.  0.
        -12    1    1    2    0    0 -0.13386487723E+01  0.10580027625E+02 -0.15392984309E+02  0.18726263135E+02  0.00000000000E+00 0.  1.
         11    1    3    3    0    0  0.51974747607E+01 -0.63451927456E+01 -0.59619554880E+01  0.10140026054E+02  0.51100000000E-03 0. -1.
        -11    1    3    3    0    0 -0.14227246652E+02 -0.53186233627E+01 -0.16870289188E+02  0.22700417603E+02  0.51100000000E-03 0.  1.
         12    1    3    3    0    0  0.10368420664E+02  0.10837884829E+01  0.38225228985E+02  0.39621293208E+02  0.00000000000E+00 0. -1.
</event>
<event>
 7    1  0.1891413E-013  0.7246158E+02  0.7816164E-02  0.1226708E+00
        -11   -1    0    0    0    0  0.00000000000E+00  0.00000000000E+00  0.45593999997E+02  0.45594000000E+02  0.51100000000E-03 0.  1.
         11   -1    0    0    0    0 -0.00000000000E+00 -0.00000000000E+00 -0.45593999997E+02  0.45594000000E+02  0.51100000000E-03 0. -1.
    9900012    2    1    2    0    0 -0.39012784487E+01  0.11772766997E+02 -0.14030712536E+02  0.72461577209E+02  0.70000009007E+02 0.  0.
        -12    1    1    2    0    0  0.39012784487E+01 -0.11772766997E+02  0.14030712536E+02  0.18726422791E+02  0.00000000000E+00 0.  1.
         11    1    3    3    0    0  0.52847883156E+01 -0.70501623708E+01  0.73218938763E+01  0.11456173322E+02  0.51100000000E-03 0. -1.
        -11    1    3    3    0    0 -0.30512952114E+02  0.10166199365E+02 -0.44928586559E+01  0.32474261122E+02  0.51100000000E-03 0.  1.
         12    1    3    3    0    0  0.21326885350E+02  0.86567300031E+01 -0.16859747756E+02  0.28531142765E+02  0.00000000000E+00 0. -1.
</event>
<event>
 7    1  0.1891413E-013  0.7246159E+02  0.7816164E-02  0.1226708E+00
        -11   -1    0    0    0    0  0.00000000000E+00  0.00000000000E+00  0.45593999997E+02  0.45594000000E+02  0.51100000000E-03 0.  1.
         11   -1    0    0    0    0 -0.00000000000E+00 -0.00000000000E+00 -0.45593999997E+02  0.45594000000E+02  0.51100000000E-03 0. -1.
    9900012    2    1    2    0    0 -0.37018636243E+01  0.10273151051E+02 -0.15213059769E+02  0.72461585117E+02  0.70000019310E+02 0.  0.
        -12    1    1    2    0    0  0.37018636243E+01 -0.10273151051E+02  0.15213059769E+02  0.18726414883E+02  0.00000000000E+00 0.  1.
         11    1    3    3    0    0  0.74778076506E+01  0.27440981172E+02 -0.13254352654E+02  0.31378382997E+02  0.51100000000E-03 0. -1.
        -11    1    3    3    0    0  0.11062645676E+02 -0.12046723122E+02  0.52005032492E+01  0.17162485299E+02  0.51100000000E-03 0.  1.
         12    1    3    3    0    0 -0.22242316951E+02 -0.51211069994E+01 -0.71592103645E+01  0.23920716822E+02  0.00000000000E+00 0. -1.
</event>
<event>
 7    1  0.1891413E-013  0.7246162E+02  0.7816164E-02  0.1226708E+00
        -11   -1    0    0    0    0  0.00000000000E+00  0.00000000000E+00  0.45593999997E+02  0.45594000000E+02  0.51100000000E-03 0.  1.
         11   -1    0    0    0    0 -0.00000000000E+00 -0.00000000000E+00 -0.45593999997E+02  0.45594000000E+02  0.51100000000E-03 0. -1.
    9900012    2    1    2    0    0  0.54172868991E+01  0.14821622678E+02 -0.10082153924E+02  0.72461619572E+02  0.70000064194E+02 0.  0.
        -12    1    1    2    0    0 -0.54172868991E+01 -0.14821622678E+02  0.10082153924E+02  0.18726380428E+02  0.00000000000E+00 0.  1.
         11    1    3    3    0    0  0.61791294411E+01  0.87155029682E+01 -0.37313455389E+02  0.38812827595E+02  0.51100000000E-03 0. -1.
        -11    1    3    3    0    0  0.62010553617E+01 -0.10153946497E+01  0.21153995731E+01  0.66301605945E+01  0.51100000000E-03 0.  1.
        -12    1    3    3    0    0 -0.69628979037E+01  0.71215143597E+01  0.25115901891E+02  0.27018631383E+02  0.00000000000E+00 0.  1.
</event>
<event>
 7    1  0.1891413E-013  0.7246163E+02  0.7816164E-02  0.1226708E+00
        -11   -1    0    0    0    0  0.00000000000E+00  0.00000000000E+00  0.45593999997E+02  0.45594000000E+02  0.51100000000E-03 0. -1.
         11   -1    0    0    0    0 -0.00000000000E+00 -0.00000000000E+00 -0.45593999997E+02  0.45594000000E+02  0.51100000000E-03 0.  1.
    9900012    2    1    2    0    0  0.13716522475E+02 -0.45334973421E+01  0.11915591211E+02  0.72461630868E+02  0.70000078908E+02 0.  0.
        -12    1    1    2    0    0 -0.13716522475E+02  0.45334973421E+01 -0.11915591211E+02  0.18726369132E+02  0.00000000000E+00 0.  1.
         11    1    3    3    0    0  0.74948848396E+01 -0.54203833720E+01  0.35771041518E+01  0.99171331055E+01  0.51100000000E-03 0. -1.
        -11    1    3    3    0    0 -0.21052065650E+02 -0.18496691058E+02 -0.15222427710E+00  0.28023922294E+02  0.51100000000E-03 0.  1.
         12    1    3    3    0    0  0.27273703286E+02  0.19383577088E+02  0.84907113366E+01  0.34520575468E+02  0.00000000000E+00 0. -1.
</event>
<event>
 7    1  0.1891413E-013  0.7246158E+02  0.7816164E-02  0.1226708E+00
        -11   -1    0    0    0    0  0.00000000000E+00  0.00000000000E+00  0.45593999997E+02  0.45594000000E+02  0.51100000000E-03 0.  1.
         11   -1    0    0    0    0 -0.00000000000E+00 -0.00000000000E+00 -0.45593999997E+02  0.45594000000E+02  0.51100000000E-03 0. -1.
    9900012    2    1    2    0    0  0.75627251327E+01  0.14679867811E+02 -0.88309397861E+01  0.72461579416E+02  0.70000011883E+02 0.  0.
        -12    1    1    2    0    0 -0.75627251327E+01 -0.14679867811E+02  0.88309397861E+01  0.18726420584E+02  0.00000000000E+00 0.  1.
         11    1    3    3    0    0  0.31643040104E+02  0.51758607414E+01 -0.12509587868E+02  0.34417456476E+02  0.51100000000E-03 0. -1.
        -11    1    3    3    0    0  0.51893649637E+01  0.34982329460E+01  0.51842652486E+01  0.81267305172E+01  0.51100000000E-03 0.  1.
        -12    1    3    3    0    0 -0.29269679935E+02  0.60057741237E+01 -0.15056171670E+01  0.29917392422E+02  0.00000000000E+00 0.  1.
</event>
<event>
 7    1  0.1891413E-013  0.7246157E+02  0.7816164E-02  0.1226708E+00
        -11   -1    0    0    0    0  0.00000000000E+00  0.00000000000E+00  0.45593999997E+02  0.45594000000E+02  0.51100000000E-03 0. -1.
         11   -1    0    0    0    0 -0.00000000000E+00 -0.00000000000E+00 -0.45593999997E+02  0.45594000000E+02  0.51100000000E-03 0.  1.
    9900012    2    1    2    0    0 -0.67721365473E+01 -0.14769419451E+02  0.93102853449E+01  0.72461574886E+02  0.70000005982E+02 0.  0.
        -12    1    1    2    0    0  0.67721365473E+01  0.14769419451E+02 -0.93102853449E+01  0.18726425114E+02  0.00000000000E+00 0.  1.
         11    1    3    3    0    0  0.21815381041E+02  0.10137334762E+02  0.12181416324E+02  0.26964111518E+02  0.51100000000E-03 0. -1.
        -11    1    3    3    0    0 -0.11757474721E+02  0.35559392348E+01  0.23482381181E+00  0.12285685091E+02  0.51100000000E-03 0.  1.
        -12    1    3    3    0    0 -0.16830042867E+02 -0.28462693448E+02 -0.31059547904E+01  0.33211778278E+02  0.00000000000E+00 0.  1.
</event>
<event>
 7    1  0.1891413E-013  0.7246158E+02  0.7816164E-02  0.1226708E+00
        -11   -1    0    0    0    0  0.00000000000E+00  0.00000000000E+00  0.45593999997E+02  0.45594000000E+02  0.51100000000E-03 0.  1.
         11   -1    0    0    0    0 -0.00000000000E+00 -0.00000000000E+00 -0.45593999997E+02  0.45594000000E+02  0.51100000000E-03 0. -1.
    9900012    2    1    2    0    0 -0.11662359334E+01 -0.17430822969E+02 -0.67442612089E+01  0.72461581366E+02  0.70000014422E+02 0.  0.
        -12    1    1    2    0    0  0.11662359334E+01  0.17430822969E+02  0.67442612089E+01  0.18726418634E+02  0.00000000000E+00 0.  1.
         11    1    3    3    0    0  0.24328580930E+01  0.63701228708E+00  0.20147248494E+01  0.32223748439E+01  0.51100000000E-03 0. -1.
        -11    1    3    3    0    0 -0.33688991154E+01  0.23989582538E+02  0.54783729274E+01  0.24836709158E+02  0.51100000000E-03 0.  1.
         12    1    3    3    0    0 -0.23019491105E+00 -0.42057417794E+02 -0.14237358986E+02  0.44402497363E+02  0.00000000000E+00 0. -1.
</event>
<event>
 7    1  0.1891413E-013  0.7246156E+02  0.7816164E-02  0.1226708E+00
        -11   -1    0    0    0    0  0.00000000000E+00  0.00000000000E+00  0.45593999997E+02  0.45594000000E+02  0.51100000000E-03 0.  1.
         11   -1    0    0    0    0 -0.00000000000E+00 -0.00000000000E+00 -0.45593999997E+02  0.45594000000E+02  0.51100000000E-03 0. -1.
    9900012    2    1    2    0    0  0.25019902223E+01 -0.17564698865E+02 -0.59917473805E+01  0.72461557787E+02  0.69999983706E+02 0.  0.
        -12    1    1    2    0    0 -0.25019902223E+01  0.17564698865E+02  0.59917473805E+01  0.18726442213E+02  0.00000000000E+00 0.  1.
         11    1    3    3    0    0 -0.64829821467E+01  0.52807887974E+01 -0.26400883110E+01  0.87684579253E+01  0.51100000000E-03 0. -1.
        -11    1    3    3    0    0  0.10634931802E+02  0.18889346459E+02  0.99423649260E+00  0.21700177201E+02  0.51100000000E-03 0.  1.
         12    1    3    3    0    0 -0.16499594333E+01 -0.41734834122E+02 -0.43458955622E+01  0.41992922660E+02  0.00000000000E+00 0. -1.
</event>
<event>
 7    1  0.1891413E-013  0.7246156E+02  0.7816164E-02  0.1226708E+00
        -11   -1    0    0    0    0  0.00000000000E+00  0.00000000000E+00  0.45593999997E+02  0.45594000000E+02  0.51100000000E-03 0. -1.
         11   -1    0    0    0    0 -0.00000000000E+00 -0.00000000000E+00 -0.45593999997E+02  0.45594000000E+02  0.51100000000E-03 0.  1.
    9900012    2    1    2    0    0  0.91637702777E+01 -0.16047541987E+02  0.30300547937E+01  0.72461560894E+02  0.69999987755E+02 0.  0.
        -12    1    1    2    0    0 -0.91637702777E+01  0.16047541987E+02 -0.30300547937E+01  0.18726439106E+02  0.00000000000E+00 0.  1.
         11    1    3    3    0    0 -0.24892304739E+02  0.34264582077E+01  0.33707052381E+01  0.25352102578E+02  0.51100000000E-03 0. -1.
        -11    1    3    3    0    0 -0.17526528907E+01 -0.79902847555E+01 -0.43955613589E+01  0.92864095619E+01  0.51100000000E-03 0.  1.
         12    1    3    3    0    0  0.35808727907E+02 -0.11483715439E+02  0.40549109145E+01  0.37823048755E+02  0.00000000000E+00 0. -1.
</event>
<event>
 7    1  0.1891413E-013  0.7246155E+02  0.7816164E-02  0.1226708E+00
        -11   -1    0    0    0    0  0.00000000000E+00  0.00000000000E+00  0.45593999997E+02  0.45594000000E+02  0.51100000000E-03 0.  1.
         11   -1    0    0    0    0 -0.00000000000E+00 -0.00000000000E+00 -0.45593999997E+02  0.45594000000E+02  0.51100000000E-03 0. -1.
    9900012    2    1    2    0    0  0.98831256279E+01 -0.12002929191E+02 -0.10437120131E+02  0.72461549243E+02  0.69999972576E+02 0.  0.
        -12    1    1    2    0    0 -0.98831256279E+01  0.12002929191E+02  0.10437120131E+02  0.18726450757E+02  0.00000000000E+00 0.  1.
         11    1    3    3    0    0  0.11394855288E+02 -0.17549797596E+01 -0.55954386084E+01  0.12815288310E+02  0.51100000000E-03 0. -1.
        -11    1    3    3    0    0  0.96769905536E+01 -0.31955253279E+01 -0.29748507899E+02  0.31445655515E+02  0.51100000000E-03 0.  1.
        -12    1    3    3    0    0 -0.11188720213E+02 -0.70524241035E+01  0.24906826377E+02  0.28200605417E+02  0.00000000000E+00 0.  1.
</event>
<event>
 7    1  0.1891413E-013  0.7246170E+02  0.7816164E-02  0.1226708E+00
        -11   -1    0    0    0    0  0.00000000000E+00  0.00000000000E+00  0.45593999997E+02  0.45594000000E+02  0.51100000000E-03 0.  1.
         11   -1    0    0    0    0 -0.00000000000E+00 -0.00000000000E+00 -0.45593999997E+02  0.45594000000E+02  0.51100000000E-03 0. -1.
    9900012    2    1    2    0    0 -0.15834900136E+02 -0.96721483730E+01  0.25258102913E+01  0.72461702072E+02  0.70000171665E+02 0.  0.
        -12    1    1    2    0    0  0.15834900136E+02  0.96721483730E+01 -0.25258102913E+01  0.18726297928E+02  0.00000000000E+00 0.  1.
         11    1    3    3    0    0 -0.12809397814E+01 -0.17209189892E+02 -0.17473105253E+02  0.24558225321E+02  0.51100000000E-03 0. -1.
        -11    1    3    3    0    0  0.41990369934E+01 -0.92274322616E+01  0.20362776254E+02  0.22746869562E+02  0.51100000000E-03 0.  1.
         12    1    3    3    0    0 -0.18752997348E+02  0.16764473781E+02 -0.36386071000E+00  0.25156607189E+02  0.00000000000E+00 0. -1.
</event>
<event>
 7    1  0.1891413E-013  0.7246166E+02  0.7816164E-02  0.1226708E+00
        -11   -1    0    0    0    0  0.00000000000E+00  0.00000000000E+00  0.45593999997E+02  0.45594000000E+02  0.51100000000E-03 0. -1.
         11   -1    0    0    0    0 -0.00000000000E+00 -0.00000000000E+00 -0.45593999997E+02  0.45594000000E+02  0.51100000000E-03 0.  1.
    9900012    2    1    2    0    0  0.26981955281E+01 -0.13293574699E+02 -0.12910315762E+02  0.72461664521E+02  0.70000122748E+02 0.  0.
        -12    1    1    2    0    0 -0.26981955281E+01  0.13293574699E+02  0.12910315762E+02  0.18726335479E+02  0.00000000000E+00 0.  1.
         11    1    3    3    0    0 -0.54621204506E+01 -0.46861205393E+01 -0.11752261564E+02  0.13780788717E+02  0.51100000000E-03 0. -1.
        -11    1    3    3    0    0 -0.17545032719E+02  0.11883169114E+02 -0.11640285046E+02  0.24177140392E+02  0.51100000000E-03 0.  1.
         12    1    3    3    0    0  0.25705348698E+02 -0.20490623274E+02  0.10482230849E+02  0.34503735413E+02  0.00000000000E+00 0. -1.
</event>
<event>
 7    1  0.1891413E-013  0.7246167E+02  0.7816164E-02  0.1226708E+00
        -11   -1    0    0    0    0  0.00000000000E+00  0.00000000000E+00  0.45593999997E+02  0.45594000000E+02  0.51100000000E-03 0. -1.
         11   -1    0    0    0    0 -0.00000000000E+00 -0.00000000000E+00 -0.45593999997E+02  0.45594000000E+02  0.51100000000E-03 0.  1.
    9900012    2    1    2    0    0  0.17109073136E+02  0.51220653559E+01  0.56320160190E+01  0.72461667163E+02  0.70000126189E+02 0.  0.
        -12    1    1    2    0    0 -0.17109073136E+02 -0.51220653559E+01 -0.56320160190E+01  0.18726332837E+02  0.00000000000E+00 0.  1.
         11    1    3    3    0    0  0.33694318311E+02  0.19788337705E+02  0.18650650155E+02  0.43298177179E+02  0.51100000000E-03 0. -1.
        -11    1    3    3    0    0  0.66309757660E+00 -0.29720182661E+01  0.18508348015E+01  0.35634506723E+01  0.51100000000E-03 0.  1.
        -12    1    3    3    0    0 -0.17248342752E+02 -0.11694254083E+02 -0.14869468938E+02  0.25600039311E+02  0.00000000000E+00 0.  1.
</event>
<event>
 7    1  0.1891413E-013  0.7246154E+02  0.7816164E-02  0.1226708E+00
        -11   -1    0    0    0    0  0.00000000000E+00  0.00000000000E+00  0.45593999997E+02  0.45594000000E+02  0.51100000000E-03 0.  1.
         11   -1    0    0    0    0 -0.00000000000E+00 -0.00000000000E+00 -0.45593999997E+02  0.45594000000E+02  0.51100000000E-03 0. -1.
    9900012    2    1    2    0    0 -0.83545989969E+01 -0.11892672342E+02 -0.11808695082E+02  0.72461541195E+02  0.69999962093E+02 0.  0.
        -12    1    1    2    0    0  0.83545989969E+01  0.11892672342E+02  0.11808695082E+02  0.18726458805E+02  0.00000000000E+00 0.  1.
         11    1    3    3    0    0 -0.42321992167E+00 -0.13240734073E+02  0.13814178217E+01  0.13319326910E+02  0.51100000000E-03 0. -1.
        -11    1    3    3    0    0  0.10124781994E+01 -0.26774026179E+02 -0.12644828586E+02  0.29627103810E+02  0.51100000000E-03 0.  1.
         12    1    3    3    0    0 -0.89438572746E+01  0.28122087910E+02 -0.54528431773E+00  0.29515110475E+02  0.00000000000E+00 0. -1.
</event>
<event>
 7    1  0.1891413E-013  0.7246165E+02  0.7816164E-02  0.1226708E+00
        -11   -1    0    0    0    0  0.00000000000E+00  0.00000000000E+00  0.45593999997E+02  0.45594000000E+02  0.51100000000E-03 0.  1.
         11   -1    0    0    0    0 -0.00000000000E+00 -0.00000000000E+00 -0.45593999997E+02  0.45594000000E+02  0.51100000000E-03 0. -1.
    9900012    2    1    2    0    0 -0.17645753590E+02  0.29742953608E+01 -0.55188144786E+01  0.72461645152E+02  0.70000097516E+02 0.  0.
        -12    1    1    2    0    0  0.17645753590E+02 -0.29742953608E+01  0.55188144786E+01  0.18726354848E+02  0.00000000000E+00 0.  1.
         11    1    3    3    0    0 -0.88507701696E+01  0.92558842889E+01 -0.25448531041E+02  0.28489213028E+02  0.51100000000E-03 0. -1.
        -11    1    3    3    0    0  0.63394759904E+00  0.15424579364E+02  0.93616127100E+01  0.18054343824E+02  0.51100000000E-03 0.  1.
        -12    1    3    3    0    0 -0.94289310191E+01 -0.21706168292E+02  0.10568103852E+02  0.25918088300E+02  0.00000000000E+00 0.  1.
</event>
<event>
 7    1  0.1891413E-013  0.7246156E+02  0.7816164E-02  0.1226708E+00
        -11   -1    0    0    0    0  0.00000000000E+00  0.00000000000E+00  0.45593999997E+02  0.45594000000E+02  0.51100000000E-03 0.  1.
         11   -1    0    0    0    0 -0.00000000000E+00 -0.00000000000E+00 -0.45593999997E+02  0.45594000000E+02  0.51100000000E-03 0. -1.
    9900012    2    1    2    0    0  0.11355023053E+02 -0.14378499778E+02 -0.38732156353E+01  0.72461558700E+02  0.69999984896E+02 0.  0.
        -12    1    1    2    0    0 -0.11355023053E+02  0.14378499778E+02  0.38732156353E+01  0.18726441300E+02  0.00000000000E+00 0.  1.
         11    1    3    3    0    0  0.25765053531E+01 -0.32134578547E+01  0.37365926115E+01  0.55611883464E+01  0.51100000000E-03 0. -1.
        -11    1    3    3    0    0 -0.22778870566E+02 -0.14136233475E+02  0.12271921257E+02  0.29484065064E+02  0.51100000000E-03 0.  1.
         12    1    3    3    0    0  0.31557388266E+02  0.29711915514E+01 -0.19881729504E+02  0.37416305289E+02  0.00000000000E+00 0. -1.
</event>
<event>
 7    1  0.1891413E-013  0.7246148E+02  0.7816164E-02  0.1226708E+00
        -11   -1    0    0    0    0  0.00000000000E+00  0.00000000000E+00  0.45593999997E+02  0.45594000000E+02  0.51100000000E-03 0. -1.
         11   -1    0    0    0    0 -0.00000000000E+00 -0.00000000000E+00 -0.45593999997E+02  0.45594000000E+02  0.51100000000E-03 0.  1.
    9900012    2    1    2    0    0  0.13948124803E+02  0.89167034791E+01  0.87535533859E+01  0.72461481815E+02  0.69999884739E+02 0.  0.
        -12    1    1    2    0    0 -0.13948124803E+02 -0.89167034791E+01 -0.87535533859E+01  0.18726518185E+02  0.00000000000E+00 0.  1.
         11    1    3    3    0    0  0.19969079328E+01  0.21647656910E+01  0.17460226517E+01  0.34238059452E+01  0.51100000000E-03 0. -1.
        -11    1    3    3    0    0 -0.21995327387E+01 -0.11279951742E+02  0.32667994639E+02  0.34630523091E+02  0.51100000000E-03 0.  1.
        -12    1    3    3    0    0  0.14150749609E+02  0.18031889530E+02 -0.25660463905E+02  0.34407152779E+02  0.00000000000E+00 0.  1.
</event>
<event>
 7    1  0.1891413E-013  0.7246169E+02  0.7816164E-02  0.1226708E+00
        -11   -1    0    0    0    0  0.00000000000E+00  0.00000000000E+00  0.45593999997E+02  0.45594000000E+02  0.51100000000E-03 0. -1.
         11   -1    0    0    0    0 -0.00000000000E+00 -0.00000000000E+00 -0.45593999997E+02  0.45594000000E+02  0.51100000000E-03 0.  1.
    9900012    2    1    2    0    0  0.15196265333E+02 -0.16108390424E+01  0.10823735071E+02  0.72461694348E+02  0.70000161602E+02 0.  0.
        -12    1    1    2    0    0 -0.15196265333E+02  0.16108390424E+01 -0.10823735071E+02  0.18726305652E+02  0.00000000000E+00 0.  1.
         11    1    3    3    0    0  0.10439750997E+02 -0.35483123920E+01 -0.11901244977E+02  0.16224011649E+02  0.51100000000E-03 0. -1.
        -11    1    3    3    0    0 -0.18323201112E+02 -0.98167303432E+01 -0.14103807323E+01  0.20834996225E+02  0.51100000000E-03 0.  1.
         12    1    3    3    0    0  0.23079715448E+02  0.11754203693E+02  0.24135360780E+02  0.35402686474E+02  0.00000000000E+00 0. -1.
</event>
<event>
 7    1  0.1891413E-013  0.7246157E+02  0.7816164E-02  0.1226708E+00
        -11   -1    0    0    0    0  0.00000000000E+00  0.00000000000E+00  0.45593999997E+02  0.45594000000E+02  0.51100000000E-03 0.  1.
         11   -1    0    0    0    0 -0.00000000000E+00 -0.00000000000E+00 -0.45593999997E+02  0.45594000000E+02  0.51100000000E-03 0. -1.
    9900012    2    1    2    0    0  0.14560103655E+02 -0.86424803460E+01 -0.79993788579E+01  0.72461570894E+02  0.70000000781E+02 0.  0.
        -12    1    1    2    0    0 -0.14560103655E+02  0.86424803460E+01  0.79993788579E+01  0.18726429106E+02  0.00000000000E+00 0.  1.
         11    1    3    3    0    0  0.13009857068E+02 -0.10993537603E+02 -0.24210801095E+01  0.17203949521E+02  0.51100000000E-03 0. -1.
        -11    1    3    3    0    0 -0.19421310784E+01 -0.19702883521E+02  0.15041738017E+02  0.24864218770E+02  0.51100000000E-03 0.  1.
         12    1    3    3    0    0  0.34923776649E+01  0.22053940778E+02 -0.20620036766E+02  0.30393402603E+02  0.00000000000E+00 0. -1.
</event>
<event>
 7    1  0.1891413E-013  0.7246149E+02  0.7816164E-02  0.1226708E+00
        -11   -1    0    0    0    0  0.00000000000E+00  0.00000000000E+00  0.45593999997E+02  0.45594000000E+02  0.51100000000E-03 0.  1.
         11   -1    0    0    0    0 -0.00000000000E+00 -0.00000000000E+00 -0.45593999997E+02  0.45594000000E+02  0.51100000000E-03 0. -1.
    9900012    2    1    2    0    0  0.76168881254E+01  0.85814664513E-01 -0.17107241231E+02  0.72461493348E+02  0.69999899763E+02 0.  0.
        -12    1    1    2    0    0 -0.76168881254E+01 -0.85814664513E-01  0.17107241231E+02  0.18726506652E+02  0.00000000000E+00 0.  1.
         11    1    3    3    0    0  0.12250242155E+02  0.24650882739E+02 -0.10668375480E+02  0.29522003460E+02  0.51100000000E-03 0. -1.
        -11    1    3    3    0    0  0.88323267849E+01  0.59249043865E+00 -0.10917650375E+02  0.14055466244E+02  0.51100000000E-03 0.  1.
        -12    1    3    3    0    0 -0.13465680815E+02 -0.25157558513E+02  0.44787846246E+01  0.28884023644E+02  0.00000000000E+00 0.  1.
</event>
<event>
 7    1  0.1891413E-013  0.7246151E+02  0.7816164E-02  0.1226708E+00
        -11   -1    0    0    0    0  0.00000000000E+00  0.00000000000E+00  0.45593999997E+02  0.45594000000E+02  0.51100000000E-03 0. -1.
         11   -1    0    0    0    0 -0.00000000000E+00 -0.00000000000E+00 -0.45593999997E+02  0.45594000000E+02  0.51100000000E-03 0.  1.
    9900012    2    1    2    0    0 -0.38958001364E+01 -0.15206165253E+02  0.10211591324E+02  0.72461512936E+02  0.69999925280E+02 0.  0.
        -12    1    1    2    0    0  0.38958001364E+01  0.15206165253E+02 -0.10211591324E+02  0.18726487064E+02  0.00000000000E+00 0.  1.
         11    1    3    3    0    0 -0.22431573109E+02 -0.55795624518E+01  0.13883103741E+02  0.26963819445E+02  0.51100000000E-03 0. -1.
        -11    1    3    3    0    0 -0.12660996030E+02 -0.57709546601E+01 -0.12653358749E+01  0.13971607398E+02  0.51100000000E-03 0.  1.
         12    1    3    3    0    0  0.31196769003E+02 -0.38556481406E+01 -0.24061765420E+01  0.31526086093E+02  0.00000000000E+00 0. -1.
</event>
<event>
 7    1  0.1891413E-013  0.7246189E+02  0.7816164E-02  0.1226707E+00
        -11   -1    0    0    0    0  0.00000000000E+00  0.00000000000E+00  0.45593999997E+02  0.45594000000E+02  0.51100000000E-03 0.  1.
         11   -1    0    0    0    0 -0.00000000000E+00 -0.00000000000E+00 -0.45593999997E+02  0.45594000000E+02  0.51100000000E-03 0. -1.
    9900012    2    1    2    0    0  0.28257916201E+01 -0.61311349842E+00 -0.18501522745E+02  0.72461885872E+02  0.70000411097E+02 0.  0.
        -12    1    1    2    0    0 -0.28257916201E+01  0.61311349842E+00  0.18501522745E+02  0.18726114128E+02  0.00000000000E+00 0.  1.
         11    1    3    3    0    0 -0.14703522746E+02 -0.18057589940E+02 -0.13543619756E+02  0.26938815340E+02  0.51100000000E-03 0. -1.
        -11    1    3    3    0    0  0.37344206017E+01 -0.11904811861E+02  0.11267632434E+01  0.12527571127E+02  0.51100000000E-03 0.  1.
        -12    1    3    3    0    0  0.13794893764E+02  0.29349288302E+02 -0.60846662327E+01  0.32995499405E+02  0.00000000000E+00 0.  1.
</event>
<event>
 7    1  0.1891413E-013  0.7246151E+02  0.7816164E-02  0.1226708E+00
        -11   -1    0    0    0    0  0.00000000000E+00  0.00000000000E+00  0.45593999997E+02  0.45594000000E+02  0.51100000000E-03 0. -1.
         11   -1    0    0    0    0 -0.00000000000E+00 -0.00000000000E+00 -0.45593999997E+02  0.45594000000E+02  0.51100000000E-03 0.  1.
    9900012    2    1    2    0    0  0.77312885665E+01  0.10646541136E+02  0.13325157023E+02  0.72461508851E+02  0.69999919959E+02 0.  0.
        -12    1    1    2    0    0 -0.77312885665E+01 -0.10646541136E+02 -0.13325157023E+02  0.18726491149E+02  0.00000000000E+00 0.  1.
         11    1    3    3    0    0 -0.77998059102E+01  0.71710075717E+01  0.12416883464E+02  0.16322969002E+02  0.51100000000E-03 0. -1.
        -11    1    3    3    0    0 -0.13451100104E+02  0.18404642342E+02 -0.40783283071E+01  0.23158059413E+02  0.51100000000E-03 0.  1.
         12    1    3    3    0    0  0.28982194581E+02 -0.14929108777E+02  0.49866018659E+01  0.32980480436E+02  0.00000000000E+00 0. -1.
</event>
<event>
 7    1  0.1891413E-013  0.7246158E+02  0.7816164E-02  0.1226708E+00
        -11   -1    0    0    0    0  0.00000000000E+00  0.00000000000E+00  0.45593999997E+02  0.45594000000E+02  0.51100000000E-03 0. -1.
         11   -1    0    0    0    0 -0.00000000000E+00 -0.00000000000E+00 -0.45593999997E+02  0.45594000000E+02  0.51100000000E-03 0.  1.
    9900012    2    1    2    0    0 -0.10703549878E+02  0.13982564901E+02 -0.63718804118E+01  0.72461575857E+02  0.70000007247E+02 0.  0.
        -12    1    1    2    0    0  0.10703549878E+02 -0.13982564901E+02  0.63718804118E+01  0.18726424143E+02  0.00000000000E+00 0.  1.
         11    1    3    3    0    0  0.88517081403E+00 -0.66785893568E+01  0.69307416151E+01  0.96655192702E+01  0.51100000000E-03 0. -1.
        -11    1    3    3    0    0  0.12859659831E+02 -0.36883981516E+01 -0.23303476448E+02  0.26870562828E+02  0.51100000000E-03 0.  1.
         12    1    3    3    0    0 -0.24448380523E+02  0.24349552409E+02  0.10000854421E+02  0.35925493759E+02  0.00000000000E+00 0. -1.
</event>
<event>
 7    1  0.1891413E-013  0.7246158E+02  0.7816164E-02  0.1226708E+00
        -11   -1    0    0    0    0  0.00000000000E+00  0.00000000000E+00  0.45593999997E+02  0.45594000000E+02  0.51100000000E-03 0. -1.
         11   -1    0    0    0    0 -0.00000000000E+00 -0.00000000000E+00 -0.45593999997E+02  0.45594000000E+02  0.51100000000E-03 0.  1.
    9900012    2    1    2    0    0  0.11693295636E+02 -0.81978402281E+01  0.12113668878E+02  0.72461582272E+02  0.70000015603E+02 0.  0.
        -12    1    1    2    0    0 -0.11693295636E+02  0.81978402281E+01 -0.12113668878E+02  0.18726417728E+02  0.00000000000E+00 0.  1.
         11    1    3    3    0    0 -0.56798441400E+01 -0.30347184675E+01  0.13383727080E+02  0.14852417192E+02  0.51100000000E-03 0. -1.
        -11    1    3    3    0    0  0.35318570496E+02 -0.13420558126E+02 -0.20677964864E+01  0.37838982344E+02  0.51100000000E-03 0.  1.
         12    1    3    3    0    0 -0.17945430719E+02  0.82574363655E+01  0.79773828484E+00  0.19770182736E+02  0.00000000000E+00 0. -1.
</event>
<event>
 7    1  0.1891413E-013  0.7246158E+02  0.7816164E-02  0.1226708E+00
        -11   -1    0    0    0    0  0.00000000000E+00  0.00000000000E+00  0.45593999997E+02  0.45594000000E+02  0.51100000000E-03 0. -1.
         11   -1    0    0    0    0 -0.00000000000E+00 -0.00000000000E+00 -0.45593999997E+02  0.45594000000E+02  0.51100000000E-03 0.  1.
    9900012    2    1    2    0    0  0.25775813863E+01  0.16477170350E+02 -0.85169025455E+01  0.72461582897E+02  0.70000016418E+02 0.  0.
        -12    1    1    2    0    0 -0.25775813863E+01 -0.16477170350E+02  0.85169025455E+01  0.18726417103E+02  0.00000000000E+00 0.  1.
         11    1    3    3    0    0  0.59953202556E+01 -0.49542286378E+01  0.19094671574E+02  0.20617825520E+02  0.51100000000E-03 0. -1.
        -11    1    3    3    0    0 -0.14362100499E+02 -0.42340316458E+01 -0.45615094368E+01  0.15652613945E+02  0.51100000000E-03 0.  1.
        -12    1    3    3    0    0  0.10944361629E+02  0.25665430633E+02 -0.23050064683E+02  0.36191143433E+02  0.00000000000E+00 0.  1.
</event>
<event>
 7    1  0.1891413E-013  0.7246156E+02  0.7816164E-02  0.1226708E+00
        -11   -1    0    0    0    0  0.00000000000E+00  0.00000000000E+00  0.45593999997E+02  0.45594000000E+02  0.51100000000E-03 0. -1.
         11   -1    0    0    0    0 -0.00000000000E+00 -0.00000000000E+00 -0.45593999997E+02  0.45594000000E+02  0.51100000000E-03 0.  1.
    9900012    2    1    2    0    0 -0.73172914761E+01 -0.17236932896E+02 -0.15786697835E+00  0.72461560611E+02  0.69999987386E+02 0.  0.
        -12    1    1    2    0    0  0.73172914761E+01  0.17236932896E+02  0.15786697835E+00  0.18726439389E+02  0.00000000000E+00 0.  1.
         11    1    3    3    0    0  0.10996252961E+02 -0.96967589970E+01  0.18279946539E+02  0.23432907629E+02  0.51100000000E-03 0. -1.
        -11    1    3    3    0    0  0.91999754052E+01 -0.14386700758E+02 -0.68425720435E+01  0.18396670856E+02  0.51100000000E-03 0.  1.
         12    1    3    3    0    0 -0.27513519842E+02  0.68465268594E+01 -0.11595241474E+02  0.30631982126E+02  0.00000000000E+00 0. -1.
</event>
<event>
 7    1  0.1891413E-013  0.7246156E+02  0.7816164E-02  0.1226708E+00
        -11   -1    0    0    0    0  0.00000000000E+00  0.00000000000E+00  0.45593999997E+02  0.45594000000E+02  0.51100000000E-03 0.  1.
         11   -1    0    0    0    0 -0.00000000000E+00 -0.00000000000E+00 -0.45593999997E+02  0.45594000000E+02  0.51100000000E-03 0. -1.
    9900012    2    1    2    0    0  0.54892948949E+01 -0.89616496289E+00 -0.17881392588E+02  0.72461556906E+02  0.69999982559E+02 0.  0.
        -12    1    1    2    0    0 -0.54892948949E+01  0.89616496289E+00  0.17881392588E+02  0.18726443094E+02  0.00000000000E+00 0.  1.
         11    1    3    3    0    0  0.98751089940E+01 -0.64494583175E+01 -0.12584488818E+02  0.17247685332E+02  0.51100000000E-03 0. -1.
        -11    1    3    3    0    0 -0.66842879043E+01  0.26198065790E+02  0.10616086684E+02  0.29046852716E+02  0.51100000000E-03 0.  1.
         12    1    3    3    0    0  0.22984738052E+01 -0.20644772436E+02 -0.15912990453E+02  0.26167018858E+02  0.00000000000E+00 0. -1.
</event>
<event>
 7    1  0.1891413E-013  0.7246156E+02  0.7816164E-02  0.1226708E+00
        -11   -1    0    0    0    0  0.00000000000E+00  0.00000000000E+00  0.45593999997E+02  0.45594000000E+02  0.51100000000E-03 0.  1.
         11   -1    0    0    0    0 -0.00000000000E+00 -0.00000000000E+00 -0.45593999997E+02  0.45594000000E+02  0.51100000000E-03 0. -1.
    9900012    2    1    2    0    0  0.16661931955E+02 -0.47887620553E+01  0.70800625038E+01  0.72461561375E+02  0.69999988381E+02 0.  0.
        -12    1    1    2    0    0 -0.16661931955E+02  0.47887620553E+01 -0.70800625038E+01  0.18726438625E+02  0.00000000000E+00 0.  1.
         11    1    3    3    0    0  0.16173909379E+02  0.17284587580E+02 -0.10495695604E+02  0.25894245285E+02  0.51100000000E-03 0. -1.
        -11    1    3    3    0    0  0.55613550713E+00  0.36638225747E+01 -0.89016787833E+01  0.96422387434E+01  0.51100000000E-03 0.  1.
        -12    1    3    3    0    0 -0.68112931097E-01 -0.25737172210E+02  0.26477436891E+02  0.36925077347E+02  0.00000000000E+00 0.  1.
</event>
<event>
 7    1  0.1891413E-013  0.7246140E+02  0.7816164E-02  0.1226708E+00
        -11   -1    0    0    0    0  0.00000000000E+00  0.00000000000E+00  0.45593999997E+02  0.45594000000E+02  0.51100000000E-03 0.  1.
         11   -1    0    0    0    0 -0.00000000000E+00 -0.00000000000E+00 -0.45593999997E+02  0.45594000000E+02  0.51100000000E-03 0. -1.
    9900012    2    1    2    0    0 -0.79619890387E+00  0.14354707561E+02  0.11999749200E+02  0.72461400129E+02  0.69999778328E+02 0.  0.
        -12    1    1    2    0    0  0.79619890387E+00 -0.14354707561E+02 -0.11999749200E+02  0.18726599871E+02  0.00000000000E+00 0.  1.
         11    1    3    3    0    0 -0.25522007631E+02  0.12309616504E+02 -0.72629916205E+00  0.28344788635E+02  0.51100000000E-03 0. -1.
        -11    1    3    3    0    0 -0.78343533510E+01 -0.13364557012E+01 -0.20399254839E+01  0.82051509742E+01  0.51100000000E-03 0.  1.
         12    1    3    3    0    0  0.32560162078E+02  0.33815467578E+01  0.14765973846E+02  0.35911460520E+02  0.00000000000E+00 0. -1.
</event>
<event>
 7    1  0.1891413E-013  0.7246160E+02  0.7816164E-02  0.1226708E+00
        -11   -1    0    0    0    0  0.00000000000E+00  0.00000000000E+00  0.45593999997E+02  0.45594000000E+02  0.51100000000E-03 0.  1.
         11   -1    0    0    0    0 -0.00000000000E+00 -0.00000000000E+00 -0.45593999997E+02  0.45594000000E+02  0.51100000000E-03 0. -1.
    9900012    2    1    2    0    0 -0.92736346039E+01  0.16216546999E+02  0.13043143217E+01  0.72461603358E+02  0.70000043072E+02 0.  0.
        -12    1    1    2    0    0  0.92736346039E+01 -0.16216546999E+02 -0.13043143217E+01  0.18726396642E+02  0.00000000000E+00 0.  1.
         11    1    3    3    0    0 -0.20326848465E+01  0.12304248644E+02 -0.20274896177E+02  0.23803314005E+02  0.51100000000E-03 0. -1.
        -11    1    3    3    0    0 -0.56893819147E+01 -0.81082825213E+01 -0.10458466223E+02  0.14404611345E+02  0.51100000000E-03 0.  1.
        -12    1    3    3    0    0 -0.15515678428E+01  0.12020580877E+02  0.32037676721E+02  0.34253678008E+02  0.00000000000E+00 0.  1.
</event>
<event>
 7    1  0.1891413E-013  0.7246158E+02  0.7816164E-02  0.1226708E+00
        -11   -1    0    0    0    0  0.00000000000E+00  0.00000000000E+00  0.45593999997E+02  0.45594000000E+02  0.51100000000E-03 0.  1.
         11   -1    0    0    0    0 -0.00000000000E+00 -0.00000000000E+00 -0.45593999997E+02  0.45594000000E+02  0.51100000000E-03 0. -1.
    9900012    2    1    2    0    0  0.14668975743E+02  0.83556759657E+01  0.81044846520E+01  0.72461579048E+02  0.70000011404E+02 0.  0.
        -12    1    1    2    0    0 -0.14668975743E+02 -0.83556759657E+01 -0.81044846520E+01  0.18726420952E+02  0.00000000000E+00 0.  1.
         11    1    3    3    0    0  0.21562718182E+02  0.14384298143E+02 -0.17220645375E+01  0.25977381604E+02  0.51100000000E-03 0. -1.
        -11    1    3    3    0    0 -0.54453484915E+01  0.12505891433E+02 -0.11749991875E+02  0.18003095568E+02  0.51100000000E-03 0.  1.
         12    1    3    3    0    0 -0.14483939479E+01 -0.18534513610E+02  0.21576541064E+02  0.28481101876E+02  0.00000000000E+00 0. -1.
</event>
<event>
 7    1  0.1891413E-013  0.7246226E+02  0.7816164E-02  0.1226706E+00
        -11   -1    0    0    0    0  0.00000000000E+00  0.00000000000E+00  0.45593999997E+02  0.45594000000E+02  0.51100000000E-03 0.  1.
         11   -1    0    0    0    0 -0.00000000000E+00 -0.00000000000E+00 -0.45593999997E+02  0.45594000000E+02  0.51100000000E-03 0. -1.
    9900012    2    1    2    0    0 -0.15762691871E+02 -0.97752557754E+01  0.25759236418E+01  0.72462256674E+02  0.70000894131E+02 0.  0.
        -12    1    1    2    0    0  0.15762691871E+02  0.97752557754E+01 -0.25759236418E+01  0.18725743326E+02  0.00000000000E+00 0.  1.
         11    1    3    3    0    0 -0.27084247376E+01 -0.18460435922E+02  0.10605666379E+02  0.21461673248E+02  0.51100000000E-03 0. -1.
        -11    1    3    3    0    0 -0.24063112658E+02 -0.81734337943E+01  0.64269327447E+01  0.26213429298E+02  0.51100000000E-03 0.  1.
         12    1    3    3    0    0  0.11008845524E+02  0.16858613941E+02 -0.14456675482E+02  0.24787154128E+02  0.00000000000E+00 0. -1.
</event>
<event>
 7    1  0.1891413E-013  0.7246160E+02  0.7816164E-02  0.1226708E+00
        -11   -1    0    0    0    0  0.00000000000E+00  0.00000000000E+00  0.45593999997E+02  0.45594000000E+02  0.51100000000E-03 0.  1.
         11   -1    0    0    0    0 -0.00000000000E+00 -0.00000000000E+00 -0.45593999997E+02  0.45594000000E+02  0.51100000000E-03 0. -1.
    9900012    2    1    2    0    0 -0.35177170907E+01  0.15549980957E+02 -0.98235314862E+01  0.72461601196E+02  0.70000040256E+02 0.  0.
        -12    1    1    2    0    0  0.35177170907E+01 -0.15549980957E+02  0.98235314862E+01  0.18726398804E+02  0.00000000000E+00 0.  1.
         11    1    3    3    0    0  0.48650127694E+01  0.67792943648E+01  0.49390529738E+01  0.96964646068E+01  0.51100000000E-03 0. -1.
        -11    1    3    3    0    0 -0.18028337111E+02 -0.21951903067E+02 -0.33573092053E+01  0.28603819896E+02  0.51100000000E-03 0.  1.
         12    1    3    3    0    0  0.96456072512E+01  0.30722589659E+02 -0.11405275255E+02  0.34161316694E+02  0.00000000000E+00 0. -1.
</event>
<event>
 7    1  0.1891413E-013  0.7246159E+02  0.7816164E-02  0.1226708E+00
        -11   -1    0    0    0    0  0.00000000000E+00  0.00000000000E+00  0.45593999997E+02  0.45594000000E+02  0.51100000000E-03 0.  1.
         11   -1    0    0    0    0 -0.00000000000E+00 -0.00000000000E+00 -0.45593999997E+02  0.45594000000E+02  0.51100000000E-03 0. -1.
    9900012    2    1    2    0    0  0.82852059285E+01  0.11935400872E+02 -0.11814392148E+02  0.72461593696E+02  0.70000030485E+02 0.  0.
        -12    1    1    2    0    0 -0.82852059285E+01 -0.11935400872E+02  0.11814392148E+02  0.18726406304E+02  0.00000000000E+00 0.  1.
         11    1    3    3    0    0  0.17535672541E+01  0.60009596603E+01 -0.39943523439E+01  0.74189868491E+01  0.51100000000E-03 0. -1.
        -11    1    3    3    0    0 -0.32912146219E+01  0.23335280857E+02  0.19918461799E+02  0.30856321023E+02  0.51100000000E-03 0.  1.
         12    1    3    3    0    0  0.98228532963E+01 -0.17400839645E+02 -0.27738501603E+02  0.34186285824E+02  0.00000000000E+00 0. -1.
</event>
<event>
 7    1  0.1891413E-013  0.7246152E+02  0.7816164E-02  0.1226708E+00
        -11   -1    0    0    0    0  0.00000000000E+00  0.00000000000E+00  0.45593999997E+02  0.45594000000E+02  0.51100000000E-03 0.  1.
         11   -1    0    0    0    0 -0.00000000000E+00 -0.00000000000E+00 -0.45593999997E+02  0.45594000000E+02  0.51100000000E-03 0. -1.
    9900012    2    1    2    0    0  0.17975341275E+02  0.29956129510E+01 -0.43121241224E+01  0.72461521278E+02  0.69999936146E+02 0.  0.
        -12    1    1    2    0    0 -0.17975341275E+02 -0.29956129510E+01  0.43121241224E+01  0.18726478722E+02  0.00000000000E+00 0.  1.
         11    1    3    3    0    0 -0.77528899829E+01 -0.17544749299E+01 -0.10057418032E+02  0.12819404943E+02  0.51100000000E-03 0. -1.
        -11    1    3    3    0    0  0.77968472471E+01  0.28223572168E+02 -0.11721830000E+01  0.29304178305E+02  0.51100000000E-03 0.  1.
         12    1    3    3    0    0  0.17931384011E+02 -0.23473484287E+02  0.69174769093E+01  0.30337938029E+02  0.00000000000E+00 0. -1.
</event>
<event>
 7    1  0.1891413E-013  0.7246149E+02  0.7816164E-02  0.1226708E+00
        -11   -1    0    0    0    0  0.00000000000E+00  0.00000000000E+00  0.45593999997E+02  0.45594000000E+02  0.51100000000E-03 0.  1.
         11   -1    0    0    0    0 -0.00000000000E+00 -0.00000000000E+00 -0.45593999997E+02  0.45594000000E+02  0.51100000000E-03 0. -1.
    9900012    2    1    2    0    0  0.12616417174E+02 -0.51025242282E+01 -0.12863611216E+02  0.72461488597E+02  0.69999893574E+02 0.  0.
        -12    1    1    2    0    0 -0.12616417174E+02  0.51025242282E+01  0.12863611216E+02  0.18726511403E+02  0.00000000000E+00 0.  1.
         11    1    3    3    0    0 -0.10815877216E+02 -0.53876478231E+01  0.31263608963E+01  0.12481349355E+02  0.51100000000E-03 0. -1.
        -11    1    3    3    0    0 -0.24368944333E+01 -0.12469663253E+02  0.13632514997E+02  0.18635354076E+02  0.51100000000E-03 0.  1.
         12    1    3    3    0    0  0.25869188823E+02  0.12754786848E+02 -0.29622487109E+02  0.41344785166E+02  0.00000000000E+00 0. -1.
</event>
<event>
 7    1  0.1891413E-013  0.7246158E+02  0.7816164E-02  0.1226708E+00
        -11   -1    0    0    0    0  0.00000000000E+00  0.00000000000E+00  0.45593999997E+02  0.45594000000E+02  0.51100000000E-03 0. -1.
         11   -1    0    0    0    0 -0.00000000000E+00 -0.00000000000E+00 -0.45593999997E+02  0.45594000000E+02  0.51100000000E-03 0.  1.
    9900012    2    1    2    0    0 -0.18856273868E+01  0.59583404075E+01  0.17652804216E+02  0.72461577284E+02  0.70000009105E+02 0.  0.
        -12    1    1    2    0    0  0.18856273868E+01 -0.59583404075E+01 -0.17652804216E+02  0.18726422716E+02  0.00000000000E+00 0.  1.
         11    1    3    3    0    0 -0.11907906974E+02  0.15792140997E+02 -0.10699723611E+02  0.22487197500E+02  0.51100000000E-03 0. -1.
        -11    1    3    3    0    0  0.18134399718E+02  0.29101940271E+01  0.59953915750E+00  0.18376210977E+02  0.51100000000E-03 0.  1.
         12    1    3    3    0    0 -0.81121201314E+01 -0.12743994617E+02  0.27752988670E+02  0.31598168807E+02  0.00000000000E+00 0. -1.
</event>
<event>
 7    1  0.1891413E-013  0.7246151E+02  0.7816164E-02  0.1226708E+00
        -11   -1    0    0    0    0  0.00000000000E+00  0.00000000000E+00  0.45593999997E+02  0.45594000000E+02  0.51100000000E-03 0.  1.
         11   -1    0    0    0    0 -0.00000000000E+00 -0.00000000000E+00 -0.45593999997E+02  0.45594000000E+02  0.51100000000E-03 0. -1.
    9900012    2    1    2    0    0  0.10346128166E+02 -0.14812288708E+02 -0.49229253979E+01  0.72461509158E+02  0.69999920358E+02 0.  0.
        -12    1    1    2    0    0 -0.10346128166E+02  0.14812288708E+02  0.49229253979E+01  0.18726490842E+02  0.00000000000E+00 0.  1.
         11    1    3    3    0    0  0.22659052931E+02  0.33992747572E+00 -0.21307827968E+02  0.31105815588E+02  0.51100000000E-03 0. -1.
        -11    1    3    3    0    0  0.25216557985E+01  0.43443520721E+01  0.16089428224E+02  0.16855320933E+02  0.51100000000E-03 0.  1.
        -12    1    3    3    0    0 -0.14834580564E+02 -0.19496568256E+02  0.29547434620E+00  0.24500372637E+02  0.00000000000E+00 0.  1.
</event>
<event>
 7    1  0.1891413E-013  0.7246147E+02  0.7816164E-02  0.1226708E+00
        -11   -1    0    0    0    0  0.00000000000E+00  0.00000000000E+00  0.45593999997E+02  0.45594000000E+02  0.51100000000E-03 0.  1.
         11   -1    0    0    0    0 -0.00000000000E+00 -0.00000000000E+00 -0.45593999997E+02  0.45594000000E+02  0.51100000000E-03 0. -1.
    9900012    2    1    2    0    0  0.29080115699E+01  0.30289283478E+01 -0.18249713007E+02  0.72461469006E+02  0.69999868053E+02 0.  0.
        -12    1    1    2    0    0 -0.29080115699E+01 -0.30289283478E+01  0.18249713007E+02  0.18726530994E+02  0.00000000000E+00 0.  1.
         11    1    3    3    0    0 -0.19303529691E+02  0.10946482882E+02 -0.24495680273E+02  0.33052837977E+02  0.51100000000E-03 0. -1.
        -11    1    3    3    0    0  0.46718440149E+00  0.41366907034E+01  0.12996055396E+02  0.13646535361E+02  0.51100000000E-03 0.  1.
        -12    1    3    3    0    0  0.21744356860E+02 -0.12054245237E+02 -0.67500881299E+01  0.25762095669E+02  0.00000000000E+00 0.  1.
</event>
<event>
 7    1  0.1891413E-013  0.7246158E+02  0.7816164E-02  0.1226708E+00
        -11   -1    0    0    0    0  0.00000000000E+00  0.00000000000E+00  0.45593999997E+02  0.45594000000E+02  0.51100000000E-03 0. -1.
         11   -1    0    0    0    0 -0.00000000000E+00 -0.00000000000E+00 -0.45593999997E+02  0.45594000000E+02  0.51100000000E-03 0.  1.
    9900012    2    1    2    0    0 -0.18091246008E+02  0.48020495431E+01 -0.57098271117E+00  0.72461577939E+02  0.70000009959E+02 0.  0.
        -12    1    1    2    0    0  0.18091246008E+02 -0.48020495431E+01  0.57098271117E+00  0.18726422061E+02  0.00000000000E+00 0.  1.
         11    1    3    3    0    0 -0.60069242932E+01  0.17575005767E+02  0.17995535640E+02  0.25861231031E+02  0.51100000000E-03 0. -1.
        -11    1    3    3    0    0  0.46263212799E+01  0.11475635010E+02 -0.12465066771E+01  0.12435707725E+02  0.51100000000E-03 0.  1.
         12    1    3    3    0    0 -0.16710642995E+02 -0.24248591234E+02 -0.17320011675E+02  0.34164639183E+02  0.00000000000E+00 0. -1.
</event>
<event>
 7    1  0.1891413E-013  0.7246162E+02  0.7816164E-02  0.1226708E+00
        -11   -1    0    0    0    0  0.00000000000E+00  0.00000000000E+00  0.45593999997E+02  0.45594000000E+02  0.51100000000E-03 0.  1.
         11   -1    0    0    0    0 -0.00000000000E+00 -0.00000000000E+00 -0.45593999997E+02  0.45594000000E+02  0.51100000000E-03 0. -1.
    9900012    2    1    2    0    0 -0.45822307483E+01 -0.15118747591E+02 -0.10055052748E+02  0.72461616123E+02  0.70000059701E+02 0.  0.
        -12    1    1    2    0    0  0.45822307483E+01  0.15118747591E+02  0.10055052748E+02  0.18726383877E+02  0.00000000000E+00 0.  1.
         11    1    3    3    0    0 -0.20625579610E+02  0.70178930488E+01  0.90890533078E+01  0.23606699206E+02  0.51100000000E-03 0. -1.
        -11    1    3    3    0    0  0.70885569149E+01  0.46145992294E+01  0.65495428041E+01  0.10697601432E+02  0.51100000000E-03 0.  1.
         12    1    3    3    0    0  0.89547919473E+01 -0.26751239869E+02 -0.25693648860E+02  0.38157315486E+02  0.00000000000E+00 0. -1.
</event>
<event>
 7    1  0.1891413E-013  0.7246157E+02  0.7816164E-02  0.1226708E+00
        -11   -1    0    0    0    0  0.00000000000E+00  0.00000000000E+00  0.45593999997E+02  0.45594000000E+02  0.51100000000E-03 0. -1.
         11   -1    0    0    0    0 -0.00000000000E+00 -0.00000000000E+00 -0.45593999997E+02  0.45594000000E+02  0.51100000000E-03 0.  1.
    9900012    2    1    2    0    0  0.15370404385E+02  0.95190798979E+01 -0.48802773673E+01  0.72461566270E+02  0.69999994758E+02 0.  0.
        -12    1    1    2    0    0 -0.15370404385E+02 -0.95190798979E+01  0.48802773673E+01  0.18726433730E+02  0.00000000000E+00 0.  1.
         11    1    3    3    0    0  0.15866016115E+02  0.11597980571E+02  0.16685462125E+02  0.25780773210E+02  0.51100000000E-03 0. -1.
        -11    1    3    3    0    0  0.12523513249E+02  0.22217475707E+01  0.73421580883E+01  0.14686110173E+02  0.51100000000E-03 0.  1.
        -12    1    3    3    0    0 -0.13019124979E+02 -0.43006482439E+01 -0.28907897581E+02  0.31994682888E+02  0.00000000000E+00 0.  1.
</event>
<event>
 7    1  0.1891413E-013  0.7246131E+02  0.7816164E-02  0.1226709E+00
        -11   -1    0    0    0    0  0.00000000000E+00  0.00000000000E+00  0.45593999997E+02  0.45594000000E+02  0.51100000000E-03 0. -1.
         11   -1    0    0    0    0 -0.00000000000E+00 -0.00000000000E+00 -0.45593999997E+02  0.45594000000E+02  0.51100000000E-03 0.  1.
    9900012    2    1    2    0    0 -0.11631666087E+02 -0.11062916400E+02  0.96439208881E+01  0.72461308212E+02  0.69999658588E+02 0.  0.
        -12    1    1    2    0    0  0.11631666087E+02  0.11062916400E+02 -0.96439208881E+01  0.18726691788E+02  0.00000000000E+00 0.  1.
         11    1    3    3    0    0 -0.58850939039E+01 -0.69336582822E+01 -0.15566976694E+02  0.18028885464E+02  0.51100000000E-03 0. -1.
        -11    1    3    3    0    0  0.14396872251E+02  0.14742391746E+02  0.11783132818E+02  0.23737107327E+02  0.51100000000E-03 0.  1.
         12    1    3    3    0    0 -0.20143444434E+02 -0.18871649863E+02  0.13427764764E+02  0.30695315421E+02  0.00000000000E+00 0. -1.
</event>
<event>
 7    1  0.1891413E-013  0.7246151E+02  0.7816164E-02  0.1226708E+00
        -11   -1    0    0    0    0  0.00000000000E+00  0.00000000000E+00  0.45593999997E+02  0.45594000000E+02  0.51100000000E-03 0.  1.
         11   -1    0    0    0    0 -0.00000000000E+00 -0.00000000000E+00 -0.45593999997E+02  0.45594000000E+02  0.51100000000E-03 0. -1.
    9900012    2    1    2    0    0  0.14828228397E+02  0.48857313290E+01 -0.10340924380E+02  0.72461509538E+02  0.69999920853E+02 0.  0.
        -12    1    1    2    0    0 -0.14828228397E+02 -0.48857313290E+01  0.10340924380E+02  0.18726490462E+02  0.00000000000E+00 0.  1.
         11    1    3    3    0    0 -0.31798500112E+01 -0.22385124697E+02 -0.23929189841E+02  0.32921290687E+02  0.51100000000E-03 0. -1.
        -11    1    3    3    0    0  0.49094346868E+01 -0.12303919777E+01 -0.63139683831E+00  0.51004975827E+01  0.51100000000E-03 0.  1.
        -12    1    3    3    0    0  0.13098643721E+02  0.28501248004E+02  0.14219662300E+02  0.34439721268E+02  0.00000000000E+00 0.  1.
</event>
<event>
 7    1  0.1891413E-013  0.7246159E+02  0.7816164E-02  0.1226708E+00
        -11   -1    0    0    0    0  0.00000000000E+00  0.00000000000E+00  0.45593999997E+02  0.45594000000E+02  0.51100000000E-03 0.  1.
         11   -1    0    0    0    0 -0.00000000000E+00 -0.00000000000E+00 -0.45593999997E+02  0.45594000000E+02  0.51100000000E-03 0. -1.
    9900012    2    1    2    0    0 -0.17469910604E+01  0.18283372021E+02  0.36530380895E+01  0.72461591975E+02  0.70000028243E+02 0.  0.
        -12    1    1    2    0    0  0.17469910604E+01 -0.18283372021E+02 -0.36530380895E+01  0.18726408025E+02  0.00000000000E+00 0.  1.
         11    1    3    3    0    0  0.11732033008E+02  0.93147930930E+01  0.17817374679E+01  0.15085773349E+02  0.51100000000E-03 0. -1.
        -11    1    3    3    0    0 -0.21973187792E+01  0.21652425931E+02 -0.20090065820E+02  0.29618685039E+02  0.51100000000E-03 0.  1.
        -12    1    3    3    0    0 -0.11281705289E+02 -0.12683847003E+02  0.21961366441E+02  0.27757133587E+02  0.00000000000E+00 0.  1.
</event>
<event>
 7    1  0.1891413E-013  0.7246153E+02  0.7816164E-02  0.1226708E+00
        -11   -1    0    0    0    0  0.00000000000E+00  0.00000000000E+00  0.45593999997E+02  0.45594000000E+02  0.51100000000E-03 0.  1.
         11   -1    0    0    0    0 -0.00000000000E+00 -0.00000000000E+00 -0.45593999997E+02  0.45594000000E+02  0.51100000000E-03 0. -1.
    9900012    2    1    2    0    0 -0.13781024921E+02  0.14565448706E+01 -0.12595338481E+02  0.72461528835E+02  0.69999945991E+02 0.  0.
        -12    1    1    2    0    0  0.13781024921E+02 -0.14565448706E+01  0.12595338481E+02  0.18726471165E+02  0.00000000000E+00 0.  1.
         11    1    3    3    0    0 -0.22571940725E+02 -0.13131847280E+02 -0.10608195631E+02  0.28186375005E+02  0.51100000000E-03 0. -1.
        -11    1    3    3    0    0 -0.21154118604E+01 -0.11135353845E+02  0.87745338029E+01  0.14333998616E+02  0.51100000000E-03 0.  1.
         12    1    3    3    0    0  0.10906327665E+02  0.25723745996E+02 -0.10761676653E+02  0.29941155215E+02  0.00000000000E+00 0. -1.
</event>
<event>
 7    1  0.1891413E-013  0.7246162E+02  0.7816164E-02  0.1226708E+00
        -11   -1    0    0    0    0  0.00000000000E+00  0.00000000000E+00  0.45593999997E+02  0.45594000000E+02  0.51100000000E-03 0. -1.
         11   -1    0    0    0    0 -0.00000000000E+00 -0.00000000000E+00 -0.45593999997E+02  0.45594000000E+02  0.51100000000E-03 0.  1.
    9900012    2    1    2    0    0 -0.17473967456E+02  0.21431175218E+01 -0.63831544415E+01  0.72461624163E+02  0.70000070174E+02 0.  0.
        -12    1    1    2    0    0  0.17473967456E+02 -0.21431175218E+01  0.63831544415E+01  0.18726375837E+02  0.00000000000E+00 0.  1.
         11    1    3    3    0    0  0.13182057808E+01  0.17975540194E+01  0.41227761544E+01  0.46868059928E+01  0.51100000000E-03 0. -1.
        -11    1    3    3    0    0 -0.32371179542E+02 -0.81729109283E+01  0.15825627867E+02  0.36947804206E+02  0.51100000000E-03 0.  1.
        -12    1    3    3    0    0  0.13579006306E+02  0.85184744307E+01 -0.26331558463E+02  0.30827013964E+02  0.00000000000E+00 0.  1.
</event>
<event>
 7    1  0.2004529E-013  0.7246156E+02  0.7816164E-02  0.1226708E+00
        -11   -1    0    0    0    0  0.00000000000E+00  0.00000000000E+00  0.45593999997E+02  0.45594000000E+02  0.51100000000E-03 0. -1.
         11   -1    0    0    0    0 -0.00000000000E+00 -0.00000000000E+00 -0.45593999997E+02  0.45594000000E+02  0.51100000000E-03 0.  1.
    9900012    2    1    2    0    0  0.60035604287E+01 -0.96702563227E+01  0.14870199770E+02  0.72461563169E+02  0.69999990718E+02 0.  0.
        -12    1    1    2    0    0 -0.60035604287E+01  0.96702563227E+01 -0.14870199770E+02  0.18726436831E+02  0.00000000000E+00 0.  1.
         11    1    3    3    0    0  0.40243859182E+01 -0.13913470684E+02  0.15734981112E+01  0.14569016613E+02  0.51100000000E-03 0. -1.
        -11    1    3    3    0    0 -0.51920067939E+01 -0.12853211860E+02 -0.17268526972E+02  0.22144164326E+02  0.51100000000E-03 0.  1.
         12    1    3    3    0    0  0.71711813044E+01  0.17096426221E+02  0.30565228631E+02  0.35748382230E+02  0.00000000000E+00 0. -1.
</event>
<event>
 7    1  0.1891413E-013  0.7246153E+02  0.7816164E-02  0.1226708E+00
        -11   -1    0    0    0    0  0.00000000000E+00  0.00000000000E+00  0.45593999997E+02  0.45594000000E+02  0.51100000000E-03 0. -1.
         11   -1    0    0    0    0 -0.00000000000E+00 -0.00000000000E+00 -0.45593999997E+02  0.45594000000E+02  0.51100000000E-03 0.  1.
    9900012    2    1    2    0    0  0.28598385115E+01  0.14091613659E+01  0.18453085870E+02  0.72461527022E+02  0.69999943629E+02 0.  0.
        -12    1    1    2    0    0 -0.28598385115E+01 -0.14091613659E+01 -0.18453085870E+02  0.18726472978E+02  0.00000000000E+00 0.  1.
         11    1    3    3    0    0  0.17280790660E+02  0.61507524735E+01  0.25761823166E+02  0.31624816441E+02  0.51100000000E-03 0. -1.
        -11    1    3    3    0    0 -0.15111185280E+01  0.15745137332E+02 -0.11996733769E+01  0.15862914149E+02  0.51100000000E-03 0.  1.
        -12    1    3    3    0    0 -0.12909833620E+02 -0.20486728440E+02 -0.61090639185E+01  0.24973796432E+02  0.00000000000E+00 0.  1.
</event>
<event>
 7    1  0.1891413E-013  0.7246157E+02  0.7816164E-02  0.1226708E+00
        -11   -1    0    0    0    0  0.00000000000E+00  0.00000000000E+00  0.45593999997E+02  0.45594000000E+02  0.51100000000E-03 0.  1.
         11   -1    0    0    0    0 -0.00000000000E+00 -0.00000000000E+00 -0.45593999997E+02  0.45594000000E+02  0.51100000000E-03 0. -1.
    9900012    2    1    2    0    0 -0.11549501972E+02 -0.11792515815E+02 -0.88444814258E+01  0.72461567431E+02  0.69999996270E+02 0.  0.
        -12    1    1    2    0    0  0.11549501972E+02  0.11792515815E+02  0.88444814258E+01  0.18726432569E+02  0.00000000000E+00 0.  1.
         11    1    3    3    0    0 -0.94276004827E+01 -0.24879466621E+02 -0.30967404466E+01  0.26785393629E+02  0.51100000000E-03 0. -1.
        -11    1    3    3    0    0 -0.25463937022E+01 -0.13474312298E+02 -0.12183149879E+02  0.18343128251E+02  0.51100000000E-03 0.  1.
        -12    1    3    3    0    0  0.42449221242E+00  0.26561263104E+02  0.64354089002E+01  0.27333045550E+02  0.00000000000E+00 0.  1.
</event>
<event>
 7    1  0.1891413E-013  0.7246164E+02  0.7816164E-02  0.1226708E+00
        -11   -1    0    0    0    0  0.00000000000E+00  0.00000000000E+00  0.45593999997E+02  0.45594000000E+02  0.51100000000E-03 0. -1.
         11   -1    0    0    0    0 -0.00000000000E+00 -0.00000000000E+00 -0.45593999997E+02  0.45594000000E+02  0.51100000000E-03 0.  1.
    9900012    2    1    2    0    0  0.14214561813E+02  0.12104597806E+02  0.14496439183E+01  0.72461640955E+02  0.70000092049E+02 0.  0.
        -12    1    1    2    0    0 -0.14214561813E+02 -0.12104597806E+02 -0.14496439183E+01  0.18726359045E+02  0.00000000000E+00 0.  1.
         11    1    3    3    0    0 -0.12663638107E+02 -0.31529926196E+01 -0.68107560984E+01  0.14720580541E+02  0.51100000000E-03 0. -1.
        -11    1    3    3    0    0 -0.31717878216E+01  0.95554680065E+01 -0.15861767818E+02  0.18787306496E+02  0.51100000000E-03 0.  1.
         12    1    3    3    0    0  0.30049987742E+02  0.57021224186E+01  0.24122167834E+02  0.38953753919E+02  0.00000000000E+00 0. -1.
</event>
<event>
 7    1  0.1891413E-013  0.7246157E+02  0.7816164E-02  0.1226708E+00
        -11   -1    0    0    0    0  0.00000000000E+00  0.00000000000E+00  0.45593999997E+02  0.45594000000E+02  0.51100000000E-03 0. -1.
         11   -1    0    0    0    0 -0.00000000000E+00 -0.00000000000E+00 -0.45593999997E+02  0.45594000000E+02  0.51100000000E-03 0.  1.
    9900012    2    1    2    0    0 -0.16432708842E+02  0.71687311261E+01  0.54087518999E+01  0.72461568868E+02  0.69999998141E+02 0.  0.
        -12    1    1    2    0    0  0.16432708842E+02 -0.71687311261E+01 -0.54087518999E+01  0.18726431132E+02  0.00000000000E+00 0.  1.
         11    1    3    3    0    0 -0.18340273783E+02 -0.10064745067E+01  0.17000880769E+02  0.25028155756E+02  0.51100000000E-03 0. -1.
        -11    1    3    3    0    0 -0.21388240151E+02  0.46065988554E+01 -0.19352590021E+01  0.21964125237E+02  0.51100000000E-03 0.  1.
        -12    1    3    3    0    0  0.23295805092E+02  0.35686067773E+01 -0.96568698666E+01  0.25469287874E+02  0.00000000000E+00 0.  1.
</event>
<event>
 7    1  0.1891413E-013  0.7246159E+02  0.7816164E-02  0.1226708E+00
        -11   -1    0    0    0    0  0.00000000000E+00  0.00000000000E+00  0.45593999997E+02  0.45594000000E+02  0.51100000000E-03 0. -1.
         11   -1    0    0    0    0 -0.00000000000E+00 -0.00000000000E+00 -0.45593999997E+02  0.45594000000E+02  0.51100000000E-03 0.  1.
    9900012    2    1    2    0    0  0.46889566196E+01  0.50463403049E+01  0.17413397753E+02  0.72461593886E+02  0.70000030732E+02 0.  0.
        -12    1    1    2    0    0 -0.46889566196E+01 -0.50463403049E+01 -0.17413397753E+02  0.18726406114E+02  0.00000000000E+00 0.  1.
         11    1    3    3    0    0  0.25711716637E+02  0.39647607746E+01  0.32778488575E+02  0.41847831652E+02  0.51100000000E-03 0. -1.
        -11    1    3    3    0    0 -0.98750880620E+01  0.37965392951E+01  0.10004585348E+01  0.10626946523E+02  0.51100000000E-03 0.  1.
        -12    1    3    3    0    0 -0.11147671956E+02 -0.27149597647E+01 -0.16365549356E+02  0.19986815712E+02  0.00000000000E+00 0.  1.
</event>
<event>
 7    1  0.1891413E-013  0.7246151E+02  0.7816164E-02  0.1226708E+00
        -11   -1    0    0    0    0  0.00000000000E+00  0.00000000000E+00  0.45593999997E+02  0.45594000000E+02  0.51100000000E-03 0.  1.
         11   -1    0    0    0    0 -0.00000000000E+00 -0.00000000000E+00 -0.45593999997E+02  0.45594000000E+02  0.51100000000E-03 0. -1.
    9900012    2    1    2    0    0  0.89663515351E+01  0.11175401962E+02 -0.12058047193E+02  0.72461506175E+02  0.69999916473E+02 0.  0.
        -12    1    1    2    0    0 -0.89663515351E+01 -0.11175401962E+02  0.12058047193E+02  0.18726493825E+02  0.00000000000E+00 0.  1.
         11    1    3    3    0    0 -0.41205901800E+01  0.16787397434E+02 -0.37134313651E+02  0.40960386066E+02  0.51100000000E-03 0. -1.
        -11    1    3    3    0    0  0.19634849943E+01  0.39409654044E+01  0.57375494826E+01  0.72322856669E+01  0.51100000000E-03 0.  1.
        -12    1    3    3    0    0  0.11123456721E+02 -0.95529608766E+01  0.19338716976E+02  0.24268834443E+02  0.00000000000E+00 0.  1.
</event>
<event>
 7    1  0.1891413E-013  0.7246152E+02  0.7816164E-02  0.1226708E+00
        -11   -1    0    0    0    0  0.00000000000E+00  0.00000000000E+00  0.45593999997E+02  0.45594000000E+02  0.51100000000E-03 0.  1.
         11   -1    0    0    0    0 -0.00000000000E+00 -0.00000000000E+00 -0.45593999997E+02  0.45594000000E+02  0.51100000000E-03 0. -1.
    9900012    2    1    2    0    0 -0.34044160342E+01  0.18381623366E+02  0.10985425996E+01  0.72461523505E+02  0.69999939048E+02 0.  0.
        -12    1    1    2    0    0  0.34044160342E+01 -0.18381623366E+02 -0.10985425996E+01  0.18726476495E+02  0.00000000000E+00 0.  1.
         11    1    3    3    0    0 -0.19706158648E+02  0.10790856319E+02 -0.73706312466E+01  0.23645326683E+02  0.51100000000E-03 0. -1.
        -11    1    3    3    0    0 -0.14172269821E+02 -0.48296673101E+01  0.47007867892E+01  0.15693193267E+02  0.51100000000E-03 0.  1.
         12    1    3    3    0    0  0.30474012434E+02  0.12420434357E+02  0.37683870570E+01  0.33123003555E+02  0.00000000000E+00 0. -1.
</event>
<event>
 7    1  0.1891413E-013  0.7246156E+02  0.7816164E-02  0.1226708E+00
        -11   -1    0    0    0    0  0.00000000000E+00  0.00000000000E+00  0.45593999997E+02  0.45594000000E+02  0.51100000000E-03 0. -1.
         11   -1    0    0    0    0 -0.00000000000E+00 -0.00000000000E+00 -0.45593999997E+02  0.45594000000E+02  0.51100000000E-03 0.  1.
    9900012    2    1    2    0    0  0.14059831414E+02 -0.54957701813E+01  0.11081384149E+02  0.72461563502E+02  0.69999991151E+02 0.  0.
        -12    1    1    2    0    0 -0.14059831414E+02  0.54957701813E+01 -0.11081384149E+02  0.18726436498E+02  0.00000000000E+00 0.  1.
         11    1    3    3    0    0  0.23984568496E+01 -0.16297412049E+02  0.32257251009E+02  0.36220001072E+02  0.51100000000E-03 0. -1.
        -11    1    3    3    0    0 -0.48746080456E+01  0.75083518343E+01  0.27654979025E+00  0.89562062791E+01  0.51100000000E-03 0.  1.
        -12    1    3    3    0    0  0.16535982610E+02  0.32932900334E+01 -0.21452416651E+02  0.27285356151E+02  0.00000000000E+00 0.  1.
</event>
<event>
 7    1  0.1891413E-013  0.7246160E+02  0.7816164E-02  0.1226708E+00
        -11   -1    0    0    0    0  0.00000000000E+00  0.00000000000E+00  0.45593999997E+02  0.45594000000E+02  0.51100000000E-03 0.  1.
         11   -1    0    0    0    0 -0.00000000000E+00 -0.00000000000E+00 -0.45593999997E+02  0.45594000000E+02  0.51100000000E-03 0. -1.
    9900012    2    1    2    0    0  0.10670603663E+02 -0.10032181794E+02 -0.11669254475E+02  0.72461602747E+02  0.70000042276E+02 0.  0.
        -12    1    1    2    0    0 -0.10670603663E+02  0.10032181794E+02  0.11669254475E+02  0.18726397253E+02  0.00000000000E+00 0.  1.
         11    1    3    3    0    0  0.95922510462E+01  0.67294258147E+01 -0.17811464935E+02  0.21320054768E+02  0.51100000000E-03 0. -1.
        -11    1    3    3    0    0  0.19533951187E+02 -0.55755647061E+00  0.15414661501E+02  0.24889714897E+02  0.51100000000E-03 0.  1.
         12    1    3    3    0    0 -0.18455598570E+02 -0.16204051138E+02 -0.92724510411E+01  0.26251833082E+02  0.00000000000E+00 0. -1.
</event>
<event>
 7    1  0.1891413E-013  0.7246213E+02  0.7816164E-02  0.1226707E+00
        -11   -1    0    0    0    0  0.00000000000E+00  0.00000000000E+00  0.45593999997E+02  0.45594000000E+02  0.51100000000E-03 0.  1.
         11   -1    0    0    0    0 -0.00000000000E+00 -0.00000000000E+00 -0.45593999997E+02  0.45594000000E+02  0.51100000000E-03 0. -1.
    9900012    2    1    2    0    0  0.34740273427E+01 -0.17397704571E+02 -0.59924409465E+01  0.72462126487E+02  0.70000724541E+02 0.  0.
        -12    1    1    2    0    0 -0.34740273427E+01  0.17397704571E+02  0.59924409465E+01  0.18725873513E+02  0.00000000000E+00 0.  1.
         11    1    3    3    0    0  0.10568991565E+01  0.15242955269E+01 -0.32766478523E+01  0.37652269639E+01  0.51100000000E-03 0. -1.
        -11    1    3    3    0    0  0.20571554596E+02 -0.32882451512E+02 -0.16296354089E+02  0.42071553725E+02  0.51100000000E-03 0.  1.
         12    1    3    3    0    0 -0.18154426410E+02  0.13960451415E+02  0.13580560995E+02  0.26625345799E+02  0.00000000000E+00 0. -1.
</event>
<event>
 7    1  0.1891413E-013  0.7246154E+02  0.7816164E-02  0.1226708E+00
        -11   -1    0    0    0    0  0.00000000000E+00  0.00000000000E+00  0.45593999997E+02  0.45594000000E+02  0.51100000000E-03 0.  1.
         11   -1    0    0    0    0 -0.00000000000E+00 -0.00000000000E+00 -0.45593999997E+02  0.45594000000E+02  0.51100000000E-03 0. -1.
    9900012    2    1    2    0    0  0.13743168711E+02 -0.73068776972E+01 -0.10412262432E+02  0.72461538592E+02  0.69999958702E+02 0.  0.
        -12    1    1    2    0    0 -0.13743168711E+02  0.73068776972E+01  0.10412262432E+02  0.18726461408E+02  0.00000000000E+00 0.  1.
         11    1    3    3    0    0  0.29065165852E+01  0.14131716286E+00 -0.27116123797E+02  0.27271816574E+02  0.51100000000E-03 0. -1.
        -11    1    3    3    0    0  0.21737089057E+02 -0.26366629262E+01 -0.30628311350E+01  0.22109589930E+02  0.51100000000E-03 0.  1.
        -12    1    3    3    0    0 -0.10900436931E+02 -0.48115319338E+01  0.19766692500E+02  0.23080132089E+02  0.00000000000E+00 0.  1.
</event>
<event>
 7    1  0.1891413E-013  0.7246158E+02  0.7816164E-02  0.1226708E+00
        -11   -1    0    0    0    0  0.00000000000E+00  0.00000000000E+00  0.45593999997E+02  0.45594000000E+02  0.51100000000E-03 0.  1.
         11   -1    0    0    0    0 -0.00000000000E+00 -0.00000000000E+00 -0.45593999997E+02  0.45594000000E+02  0.51100000000E-03 0. -1.
    9900012    2    1    2    0    0 -0.52738658236E+01  0.15592339999E+02  0.89299553649E+01  0.72461579355E+02  0.70000011803E+02 0.  0.
        -12    1    1    2    0    0  0.52738658236E+01 -0.15592339999E+02 -0.89299553649E+01  0.18726420645E+02  0.00000000000E+00 0.  1.
         11    1    3    3    0    0 -0.94336375273E+01 -0.93785281436E+01  0.51972907048E+00  0.13312416223E+02  0.51100000000E-03 0.  1.
        -11    1    3    3    0    0 -0.72926293715E+01  0.34700690934E+02  0.19505393014E+02  0.40469503967E+02  0.51100000000E-03 0. -1.
         12    1    3    3    0    0  0.11452401075E+02 -0.97298227919E+01 -0.11095166720E+02  0.18679659164E+02  0.00000000000E+00 0. -1.
</event>
<event>
 7    1  0.1891413E-013  0.7246159E+02  0.7816164E-02  0.1226708E+00
        -11   -1    0    0    0    0  0.00000000000E+00  0.00000000000E+00  0.45593999997E+02  0.45594000000E+02  0.51100000000E-03 0. -1.
         11   -1    0    0    0    0 -0.00000000000E+00 -0.00000000000E+00 -0.45593999997E+02  0.45594000000E+02  0.51100000000E-03 0.  1.
    9900012    2    1    2    0    0 -0.10223020233E+02 -0.11942380335E+02  0.10175847309E+02  0.72461589260E+02  0.70000024707E+02 0.  0.
        -12    1    1    2    0    0  0.10223020233E+02  0.11942380335E+02 -0.10175847309E+02  0.18726410740E+02  0.00000000000E+00 0.  1.
         11    1    3    3    0    0  0.10015146304E+02  0.15235411709E+02  0.24076379404E+02  0.30200876989E+02  0.51100000000E-03 0. -1.
        -11    1    3    3    0    0 -0.41808492346E+01 -0.82772171697E+01 -0.14775829451E+02  0.17444682875E+02  0.51100000000E-03 0.  1.
        -12    1    3    3    0    0 -0.16057317302E+02 -0.18900574875E+02  0.87529735512E+00  0.24816029396E+02  0.00000000000E+00 0.  1.
</event>
<event>
 7    1  0.1891413E-013  0.7246152E+02  0.7816164E-02  0.1226708E+00
        -11   -1    0    0    0    0  0.00000000000E+00  0.00000000000E+00  0.45593999997E+02  0.45594000000E+02  0.51100000000E-03 0. -1.
         11   -1    0    0    0    0 -0.00000000000E+00 -0.00000000000E+00 -0.45593999997E+02  0.45594000000E+02  0.51100000000E-03 0.  1.
    9900012    2    1    2    0    0 -0.16873945020E+02  0.29949861317E+01  0.75485828366E+01  0.72461519677E+02  0.69999934061E+02 0.  0.
        -12    1    1    2    0    0  0.16873945020E+02 -0.29949861317E+01 -0.75485828366E+01  0.18726480323E+02  0.00000000000E+00 0.  1.
         11    1    3    3    0    0 -0.56461782371E+01 -0.47949066353E+01  0.49947959235E+01  0.89341169068E+01  0.51100000000E-03 0. -1.
        -11    1    3    3    0    0 -0.74787046568E+01  0.29659573048E+01 -0.29663896280E+02  0.30735560331E+02  0.51100000000E-03 0.  1.
         12    1    3    3    0    0 -0.37490621256E+01  0.48239354622E+01  0.32217683194E+02  0.32791842439E+02  0.00000000000E+00 0. -1.
</event>
<event>
 7    1  0.1891413E-013  0.7246158E+02  0.7816164E-02  0.1226708E+00
        -11   -1    0    0    0    0  0.00000000000E+00  0.00000000000E+00  0.45593999997E+02  0.45594000000E+02  0.51100000000E-03 0. -1.
         11   -1    0    0    0    0 -0.00000000000E+00 -0.00000000000E+00 -0.45593999997E+02  0.45594000000E+02  0.51100000000E-03 0.  1.
    9900012    2    1    2    0    0  0.58449656263E+01  0.16920316743E+02  0.54971073638E+01  0.72461576657E+02  0.70000008289E+02 0.  0.
        -12    1    1    2    0    0 -0.58449656263E+01 -0.16920316743E+02 -0.54971073638E+01  0.18726423343E+02  0.00000000000E+00 0.  1.
         11    1    3    3    0    0 -0.45641575273E+01  0.23283005309E+02  0.15353324132E+02  0.28260474736E+02  0.51100000000E-03 0. -1.
        -11    1    3    3    0    0  0.25878982490E+02 -0.29531469870E+01 -0.11095193675E+02  0.28311590114E+02  0.51100000000E-03 0.  1.
         12    1    3    3    0    0 -0.15469859337E+02 -0.34095415795E+01  0.12389769061E+01  0.15889511807E+02  0.00000000000E+00 0. -1.
</event>
<event>
 7    1  0.1891413E-013  0.7246157E+02  0.7816164E-02  0.1226708E+00
        -11   -1    0    0    0    0  0.00000000000E+00  0.00000000000E+00  0.45593999997E+02  0.45594000000E+02  0.51100000000E-03 0.  1.
         11   -1    0    0    0    0 -0.00000000000E+00 -0.00000000000E+00 -0.45593999997E+02  0.45594000000E+02  0.51100000000E-03 0. -1.
    9900012    2    1    2    0    0 -0.72014772771E+01 -0.12069816776E+02 -0.12374876898E+02  0.72461566004E+02  0.69999994410E+02 0.  0.
        -12    1    1    2    0    0  0.72014772771E+01  0.12069816776E+02  0.12374876898E+02  0.18726433996E+02  0.00000000000E+00 0.  1.
         11    1    3    3    0    0 -0.11027764071E+02  0.15595290218E+02  0.96033863999E+01  0.21378720448E+02  0.51100000000E-03 0. -1.
        -11    1    3    3    0    0  0.30787514318E+01  0.88931790393E+01 -0.61218103196E+01  0.11226927703E+02  0.51100000000E-03 0.  1.
        -12    1    3    3    0    0  0.74753536227E+00 -0.36558286033E+02 -0.15856452978E+02  0.39855917852E+02  0.00000000000E+00 0.  1.
</event>
<event>
 7    1  0.1891413E-013  0.7246154E+02  0.7816164E-02  0.1226708E+00
        -11   -1    0    0    0    0  0.00000000000E+00  0.00000000000E+00  0.45593999997E+02  0.45594000000E+02  0.51100000000E-03 0. -1.
         11   -1    0    0    0    0 -0.00000000000E+00 -0.00000000000E+00 -0.45593999997E+02  0.45594000000E+02  0.51100000000E-03 0.  1.
    9900012    2    1    2    0    0  0.55639674549E+01 -0.71673746008E+00  0.17866416191E+02  0.72461540807E+02  0.69999961587E+02 0.  0.
        -12    1    1    2    0    0 -0.55639674549E+01  0.71673746008E+00 -0.17866416191E+02  0.18726459193E+02  0.00000000000E+00 0.  1.
         11    1    3    3    0    0  0.12631224666E+02 -0.80617571572E+01 -0.69105167181E+01  0.16501363780E+02  0.51100000000E-03 0. -1.
        -11    1    3    3    0    0  0.20741493904E+02 -0.28859371742E+00  0.61732046073E+01  0.21642580971E+02  0.51100000000E-03 0.  1.
         12    1    3    3    0    0 -0.27808751115E+02  0.76336134146E+01  0.18603728302E+02  0.34317596056E+02  0.00000000000E+00 0. -1.
</event>
<event>
 7    1  0.1891413E-013  0.7246165E+02  0.7816164E-02  0.1226708E+00
        -11   -1    0    0    0    0  0.00000000000E+00  0.00000000000E+00  0.45593999997E+02  0.45594000000E+02  0.51100000000E-03 0.  1.
         11   -1    0    0    0    0 -0.00000000000E+00 -0.00000000000E+00 -0.45593999997E+02  0.45594000000E+02  0.51100000000E-03 0. -1.
    9900012    2    1    2    0    0  0.17128326477E+02  0.27148199138E+01 -0.70658683062E+01  0.72461646645E+02  0.70000099461E+02 0.  0.
        -12    1    1    2    0    0 -0.17128326477E+02 -0.27148199138E+01  0.70658683062E+01  0.18726353355E+02  0.00000000000E+00 0.  1.
         11    1    3    3    0    0 -0.37724373160E+01  0.35167343402E+00  0.14693739257E+02  0.15174351093E+02  0.51100000000E-03 0. -1.
        -11    1    3    3    0    0 -0.58188253470E+01 -0.15605336762E+02  0.26723913700E+01  0.16867926362E+02  0.51100000000E-03 0.  1.
         12    1    3    3    0    0  0.26719589140E+02  0.17968483242E+02 -0.24431998933E+02  0.40419369189E+02  0.00000000000E+00 0. -1.
</event>
<event>
 7    1  0.1891413E-013  0.7246133E+02  0.7816164E-02  0.1226709E+00
        -11   -1    0    0    0    0  0.00000000000E+00  0.00000000000E+00  0.45593999997E+02  0.45594000000E+02  0.51100000000E-03 0.  1.
         11   -1    0    0    0    0 -0.00000000000E+00 -0.00000000000E+00 -0.45593999997E+02  0.45594000000E+02  0.51100000000E-03 0. -1.
    9900012    2    1    2    0    0  0.46333868251E+01  0.11893810585E+02 -0.13702457845E+02  0.72461325050E+02  0.69999680522E+02 0.  0.
        -12    1    1    2    0    0 -0.46333868251E+01 -0.11893810585E+02  0.13702457845E+02  0.18726674950E+02  0.00000000000E+00 0.  1.
         11    1    3    3    0    0  0.37503325338E+01  0.43275384479E+01 -0.36447755038E+01  0.67880020526E+01  0.51100000000E-03 0. -1.
        -11    1    3    3    0    0  0.15011123169E+02  0.93854857521E+00 -0.33952108602E+02  0.37134355669E+02  0.51100000000E-03 0.  1.
        -12    1    3    3    0    0 -0.14128068877E+02  0.66277235616E+01  0.23894426260E+02  0.28538967327E+02  0.00000000000E+00 0.  1.
</event>
<event>
 7    1  0.1891413E-013  0.7246164E+02  0.7816164E-02  0.1226708E+00
        -11   -1    0    0    0    0  0.00000000000E+00  0.00000000000E+00  0.45593999997E+02  0.45594000000E+02  0.51100000000E-03 0.  1.
         11   -1    0    0    0    0 -0.00000000000E+00 -0.00000000000E+00 -0.45593999997E+02  0.45594000000E+02  0.51100000000E-03 0. -1.
    9900012    2    1    2    0    0  0.64974533511E+01  0.14449930380E+02 -0.99829396891E+01  0.72461642296E+02  0.70000093795E+02 0.  0.
        -12    1    1    2    0    0 -0.64974533511E+01 -0.14449930380E+02  0.99829396891E+01  0.18726357704E+02  0.00000000000E+00 0.  1.
         11    1    3    3    0    0  0.27852374343E+02  0.10545918267E+02  0.15912976831E+02  0.33766758513E+02  0.51100000000E-03 0. -1.
        -11    1    3    3    0    0 -0.11321340249E+02  0.16248171312E+01 -0.67654547643E+00  0.11457333450E+02  0.51100000000E-03 0.  1.
        -12    1    3    3    0    0 -0.10033580743E+02  0.22791949816E+01 -0.25219371043E+02  0.27237550333E+02  0.00000000000E+00 0.  1.
</event>
<event>
 7    1  0.1891413E-013  0.7246155E+02  0.7816164E-02  0.1226708E+00
        -11   -1    0    0    0    0  0.00000000000E+00  0.00000000000E+00  0.45593999997E+02  0.45594000000E+02  0.51100000000E-03 0. -1.
         11   -1    0    0    0    0 -0.00000000000E+00 -0.00000000000E+00 -0.45593999997E+02  0.45594000000E+02  0.51100000000E-03 0.  1.
    9900012    2    1    2    0    0  0.86032924969E+01 -0.15571404892E+02  0.58476222278E+01  0.72461548713E+02  0.69999971886E+02 0.  0.
        -12    1    1    2    0    0 -0.86032924969E+01  0.15571404892E+02 -0.58476222278E+01  0.18726451287E+02  0.00000000000E+00 0.  1.
         11    1    3    3    0    0 -0.21207827157E+02 -0.21055371632E+01 -0.63047677014E+00  0.21321414603E+02  0.51100000000E-03 0. -1.
        -11    1    3    3    0    0  0.15688331478E+01 -0.20951653817E+02 -0.81508710401E+00  0.21026112393E+02  0.51100000000E-03 0.  1.
        -12    1    3    3    0    0  0.28242286506E+02  0.74857860881E+01  0.72931861020E+01  0.30114021717E+02  0.00000000000E+00 0.  1.
</event>
<event>
 7    1  0.1891413E-013  0.7246152E+02  0.7816164E-02  0.1226708E+00
        -11   -1    0    0    0    0  0.00000000000E+00  0.00000000000E+00  0.45593999997E+02  0.45594000000E+02  0.51100000000E-03 0. -1.
         11   -1    0    0    0    0 -0.00000000000E+00 -0.00000000000E+00 -0.45593999997E+02  0.45594000000E+02  0.51100000000E-03 0.  1.
    9900012    2    1    2    0    0  0.12412780589E+02 -0.55177667694E+01  0.12890240310E+02  0.72461516953E+02  0.69999930512E+02 0.  0.
        -12    1    1    2    0    0 -0.12412780589E+02  0.55177667694E+01 -0.12890240310E+02  0.18726483047E+02  0.00000000000E+00 0.  1.
         11    1    3    3    0    0 -0.17174224168E+02  0.65413670497E+01  0.76639579751E+01  0.19911798280E+02  0.51100000000E-03 0. -1.
        -11    1    3    3    0    0  0.16762905412E+02  0.55367765855E+00  0.22196501950E+02  0.27820608475E+02  0.51100000000E-03 0.  1.
        -12    1    3    3    0    0  0.12824099345E+02 -0.12612811478E+02 -0.16970219616E+02  0.24729110198E+02  0.00000000000E+00 0.  1.
</event>
<event>
 7    1  0.1891413E-013  0.7246149E+02  0.7816164E-02  0.1226708E+00
        -11   -1    0    0    0    0  0.00000000000E+00  0.00000000000E+00  0.45593999997E+02  0.45594000000E+02  0.51100000000E-03 0.  1.
         11   -1    0    0    0    0 -0.00000000000E+00 -0.00000000000E+00 -0.45593999997E+02  0.45594000000E+02  0.51100000000E-03 0. -1.
    9900012    2    1    2    0    0 -0.15761234187E+00 -0.14690418629E+02 -0.11612443404E+02  0.72461492505E+02  0.69999898665E+02 0.  0.
        -12    1    1    2    0    0  0.15761234187E+00  0.14690418629E+02  0.11612443404E+02  0.18726507495E+02  0.00000000000E+00 0.  1.
         11    1    3    3    0    0 -0.68743977060E+01  0.60133854614E+01 -0.65272635366E+01  0.11226010781E+02  0.51100000000E-03 0. -1.
        -11    1    3    3    0    0  0.22824458171E+02 -0.19621946924E+02 -0.22431790915E+02  0.37538805733E+02  0.51100000000E-03 0.  1.
         12    1    3    3    0    0 -0.16107672807E+02 -0.10818571662E+01  0.17346611048E+02  0.23696675991E+02  0.00000000000E+00 0. -1.
</event>
<event>
 7    1  0.1891413E-013  0.7246144E+02  0.7816164E-02  0.1226708E+00
        -11   -1    0    0    0    0  0.00000000000E+00  0.00000000000E+00  0.45593999997E+02  0.45594000000E+02  0.51100000000E-03 0.  1.
         11   -1    0    0    0    0 -0.00000000000E+00 -0.00000000000E+00 -0.45593999997E+02  0.45594000000E+02  0.51100000000E-03 0. -1.
    9900012    2    1    2    0    0  0.17803833201E+02  0.51955545991E+01 -0.25910859561E+01  0.72461441569E+02  0.69999832311E+02 0.  0.
        -12    1    1    2    0    0 -0.17803833201E+02 -0.51955545991E+01  0.25910859561E+01  0.18726558431E+02  0.00000000000E+00 0.  1.
         11    1    3    3    0    0 -0.34320856106E+01 -0.12878958443E+02 -0.91306362396E+01  0.16155967957E+02  0.51100000000E-03 0. -1.
        -11    1    3    3    0    0  0.12990381633E+02 -0.16146351786E+02  0.25773185759E+01  0.20882941897E+02  0.51100000000E-03 0.  1.
         12    1    3    3    0    0  0.82455371786E+01  0.34220864829E+02  0.39622317076E+01  0.35422531715E+02  0.00000000000E+00 0. -1.
</event>
<event>
 7    1  0.1891413E-013  0.7246126E+02  0.7816164E-02  0.1226709E+00
        -11   -1    0    0    0    0  0.00000000000E+00  0.00000000000E+00  0.45593999997E+02  0.45594000000E+02  0.51100000000E-03 0. -1.
         11   -1    0    0    0    0 -0.00000000000E+00 -0.00000000000E+00 -0.45593999997E+02  0.45594000000E+02  0.51100000000E-03 0.  1.
    9900012    2    1    2    0    0 -0.35607418755E+01  0.95259416750E+01  0.15724773076E+02  0.72461256135E+02  0.69999590748E+02 0.  0.
        -12    1    1    2    0    0  0.35607418755E+01 -0.95259416750E+01 -0.15724773076E+02  0.18726743865E+02  0.00000000000E+00 0.  1.
         11    1    3    3    0    0 -0.63316236759E+01 -0.62114757327E+01  0.61553708489E+00  0.88910502931E+01  0.51100000000E-03 0. -1.
        -11    1    3    3    0    0 -0.20897172578E+02 -0.28078074050E+01 -0.10969877258E+02  0.23767915590E+02  0.51100000000E-03 0.  1.
         12    1    3    3    0    0  0.23668054379E+02  0.18545224813E+02  0.26079113249E+02  0.39802290252E+02  0.00000000000E+00 0. -1.
</event>
<event>
 7    1  0.1891413E-013  0.7246156E+02  0.7816164E-02  0.1226708E+00
        -11   -1    0    0    0    0  0.00000000000E+00  0.00000000000E+00  0.45593999997E+02  0.45594000000E+02  0.51100000000E-03 0.  1.
         11   -1    0    0    0    0 -0.00000000000E+00 -0.00000000000E+00 -0.45593999997E+02  0.45594000000E+02  0.51100000000E-03 0. -1.
    9900012    2    1    2    0    0 -0.35467994411E+01 -0.30235032194E+01 -0.18137208195E+02  0.72461556688E+02  0.69999982275E+02 0.  0.
        -12    1    1    2    0    0  0.35467994411E+01  0.30235032194E+01  0.18137208195E+02  0.18726443312E+02  0.00000000000E+00 0.  1.
         11    1    3    3    0    0  0.20700357610E+02  0.67653265500E+01 -0.13974616395E+02  0.25875941571E+02  0.51100000000E-03 0. -1.
        -11    1    3    3    0    0  0.75000973897E+01  0.46042970631E+01 -0.75076916999E+01  0.11567905913E+02  0.51100000000E-03 0.  1.
         12    1    3    3    0    0 -0.31747254441E+02 -0.14393126833E+02  0.33450998992E+01  0.35017709204E+02  0.00000000000E+00 0. -1.
</event>
<event>
 7    1  0.1891413E-013  0.7246171E+02  0.7816164E-02  0.1226708E+00
        -11   -1    0    0    0    0  0.00000000000E+00  0.00000000000E+00  0.45593999997E+02  0.45594000000E+02  0.51100000000E-03 0.  1.
         11   -1    0    0    0    0 -0.00000000000E+00 -0.00000000000E+00 -0.45593999997E+02  0.45594000000E+02  0.51100000000E-03 0. -1.
    9900012    2    1    2    0    0 -0.16752708131E+02 -0.69753886093E+01 -0.46221981079E+01  0.72461708554E+02  0.70000180108E+02 0.  0.
        -12    1    1    2    0    0  0.16752708131E+02  0.69753886093E+01  0.46221981079E+01  0.18726291446E+02  0.00000000000E+00 0.  1.
         11    1    3    3    0    0  0.51262536792E+00  0.15046717800E+01 -0.46903957190E+01  0.49524371975E+01  0.51100000000E-03 0. -1.
        -11    1    3    3    0    0  0.17071234662E+02  0.16515593976E+02  0.63237059676E+01  0.24580096719E+02  0.51100000000E-03 0.  1.
        -12    1    3    3    0    0 -0.34336568161E+02 -0.24995654366E+02 -0.62555083565E+01  0.42929174637E+02  0.00000000000E+00 0.  1.
</event>
<event>
 7    1  0.1891413E-013  0.7246159E+02  0.7816164E-02  0.1226708E+00
        -11   -1    0    0    0    0  0.00000000000E+00  0.00000000000E+00  0.45593999997E+02  0.45594000000E+02  0.51100000000E-03 0.  1.
         11   -1    0    0    0    0 -0.00000000000E+00 -0.00000000000E+00 -0.45593999997E+02  0.45594000000E+02  0.51100000000E-03 0. -1.
    9900012    2    1    2    0    0 -0.26822235465E+01  0.45951011583E+01 -0.17954639578E+02  0.72461591904E+02  0.70000028150E+02 0.  0.
        -12    1    1    2    0    0  0.26822235465E+01 -0.45951011583E+01  0.17954639578E+02  0.18726408096E+02  0.00000000000E+00 0.  1.
         11    1    3    3    0    0  0.51125221379E+01 -0.68206689065E+01 -0.21752840633E+01  0.87972306983E+01  0.51100000000E-03 0. -1.
        -11    1    3    3    0    0 -0.67308182610E+01  0.11370249962E+01  0.22761059800E+02  0.23762629985E+02  0.51100000000E-03 0.  1.
         12    1    3    3    0    0 -0.10639274233E+01  0.10278745069E+02 -0.38540415315E+02  0.39901731221E+02  0.00000000000E+00 0. -1.
</event>
<event>
 7    1  0.1891413E-013  0.7246156E+02  0.7816164E-02  0.1226708E+00
        -11   -1    0    0    0    0  0.00000000000E+00  0.00000000000E+00  0.45593999997E+02  0.45594000000E+02  0.51100000000E-03 0.  1.
         11   -1    0    0    0    0 -0.00000000000E+00 -0.00000000000E+00 -0.45593999997E+02  0.45594000000E+02  0.51100000000E-03 0. -1.
    9900012    2    1    2    0    0  0.14978818966E+02 -0.42756717721E+01 -0.10393899527E+02  0.72461560560E+02  0.69999987319E+02 0.  0.
        -12    1    1    2    0    0 -0.14978818966E+02  0.42756717721E+01  0.10393899527E+02  0.18726439440E+02  0.00000000000E+00 0.  1.
         11    1    3    3    0    0  0.13135805069E+01 -0.11818375626E+02 -0.16092438966E+02  0.20009150115E+02  0.51100000000E-03 0. -1.
        -11    1    3    3    0    0  0.11973191114E+02 -0.17863833409E+02 -0.87024917484E+01  0.23199293360E+02  0.51100000000E-03 0.  1.
        -12    1    3    3    0    0  0.16920473450E+01  0.25406537263E+02  0.14401031187E+02  0.29253117085E+02  0.00000000000E+00 0.  1.
</event>
<event>
 7    1  0.1891413E-013  0.7246152E+02  0.7816164E-02  0.1226708E+00
        -11   -1    0    0    0    0  0.00000000000E+00  0.00000000000E+00  0.45593999997E+02  0.45594000000E+02  0.51100000000E-03 0.  1.
         11   -1    0    0    0    0 -0.00000000000E+00 -0.00000000000E+00 -0.45593999997E+02  0.45594000000E+02  0.51100000000E-03 0. -1.
    9900012    2    1    2    0    0  0.16598764517E+02  0.50403973385E+01 -0.70538382412E+01  0.72461515472E+02  0.69999928584E+02 0.  0.
        -12    1    1    2    0    0 -0.16598764517E+02 -0.50403973385E+01  0.70538382412E+01  0.18726484528E+02  0.00000000000E+00 0.  1.
         11    1    3    3    0    0 -0.97722233346E+01 -0.15939282622E+02 -0.45015294075E-01  0.18696499834E+02  0.51100000000E-03 0. -1.
        -11    1    3    3    0    0 -0.75182741851E+01  0.15573072655E+02 -0.87945604445E+01  0.19400755973E+02  0.51100000000E-03 0.  1.
         12    1    3    3    0    0  0.33889262037E+02  0.54066073047E+01  0.17857374974E+01  0.34364259666E+02  0.00000000000E+00 0. -1.
</event>
<event>
 7    1  0.1891413E-013  0.7246157E+02  0.7816164E-02  0.1226708E+00
        -11   -1    0    0    0    0  0.00000000000E+00  0.00000000000E+00  0.45593999997E+02  0.45594000000E+02  0.51100000000E-03 0. -1.
         11   -1    0    0    0    0 -0.00000000000E+00 -0.00000000000E+00 -0.45593999997E+02  0.45594000000E+02  0.51100000000E-03 0.  1.
    9900012    2    1    2    0    0 -0.11039202032E+02 -0.14201070245E+02  0.52100798124E+01  0.72461566563E+02  0.69999995139E+02 0.  0.
        -12    1    1    2    0    0  0.11039202032E+02  0.14201070245E+02 -0.52100798124E+01  0.18726433437E+02  0.00000000000E+00 0.  1.
         11    1    3    3    0    0 -0.21592093264E+02 -0.30360735891E+02  0.15516896907E+02  0.40357983910E+02  0.51100000000E-03 0. -1.
        -11    1    3    3    0    0 -0.67419384531E+01  0.19059984983E+01  0.86937281996E+00  0.70599131540E+01  0.51100000000E-03 0.  1.
        -12    1    3    3    0    0  0.17294829684E+02  0.14253667148E+02 -0.11176189915E+02  0.25043669499E+02  0.00000000000E+00 0.  1.
</event>
<event>
 7    1  0.1891413E-013  0.7246157E+02  0.7816164E-02  0.1226708E+00
        -11   -1    0    0    0    0  0.00000000000E+00  0.00000000000E+00  0.45593999997E+02  0.45594000000E+02  0.51100000000E-03 0. -1.
         11   -1    0    0    0    0 -0.00000000000E+00 -0.00000000000E+00 -0.45593999997E+02  0.45594000000E+02  0.51100000000E-03 0.  1.
    9900012    2    1    2    0    0 -0.10412938035E+02 -0.13884442417E+01  0.15502330564E+02  0.72461566574E+02  0.69999995154E+02 0.  0.
        -12    1    1    2    0    0  0.10412938035E+02  0.13884442417E+01 -0.15502330564E+02  0.18726433426E+02  0.00000000000E+00 0.  1.
         11    1    3    3    0    0 -0.10215163202E+02  0.82940008075E+01 -0.13284021689E+02  0.18697733583E+02  0.51100000000E-03 0. -1.
        -11    1    3    3    0    0  0.71557962155E+01 -0.18848797080E+02 -0.25259152427E+01  0.20319026033E+02  0.51100000000E-03 0.  1.
         12    1    3    3    0    0 -0.73535710482E+01  0.91663520307E+01  0.31312267496E+02  0.33444806958E+02  0.00000000000E+00 0. -1.
</event>
<event>
 7    1  0.1891413E-013  0.7246156E+02  0.7816164E-02  0.1226708E+00
        -11   -1    0    0    0    0  0.00000000000E+00  0.00000000000E+00  0.45593999997E+02  0.45594000000E+02  0.51100000000E-03 0.  1.
         11   -1    0    0    0    0 -0.00000000000E+00 -0.00000000000E+00 -0.45593999997E+02  0.45594000000E+02  0.51100000000E-03 0. -1.
    9900012    2    1    2    0    0  0.18140447853E+01  0.17371803343E+01 -0.18557237139E+02  0.72461558688E+02  0.69999984880E+02 0.  0.
        -12    1    1    2    0    0 -0.18140447853E+01 -0.17371803343E+01  0.18557237139E+02  0.18726441312E+02  0.00000000000E+00 0.  1.
         11    1    3    3    0    0 -0.41295977234E+01  0.27204662075E+02 -0.20640243834E+02  0.34397192934E+02  0.51100000000E-03 0. -1.
        -11    1    3    3    0    0  0.80028949641E+01  0.30453385858E+01  0.39219799629E+01  0.94181920770E+01  0.51100000000E-03 0.  1.
        -12    1    3    3    0    0 -0.20592524554E+01 -0.28512820326E+02 -0.18389732678E+01  0.28646173677E+02  0.00000000000E+00 0.  1.
</event>
<event>
 7    1  0.1891413E-013  0.7246142E+02  0.7816164E-02  0.1226708E+00
        -11   -1    0    0    0    0  0.00000000000E+00  0.00000000000E+00  0.45593999997E+02  0.45594000000E+02  0.51100000000E-03 0. -1.
         11   -1    0    0    0    0 -0.00000000000E+00 -0.00000000000E+00 -0.45593999997E+02  0.45594000000E+02  0.51100000000E-03 0.  1.
    9900012    2    1    2    0    0  0.28798508721E+01  0.69626652952E+01  0.17143873156E+02  0.72461424343E+02  0.69999809871E+02 0.  0.
        -12    1    1    2    0    0 -0.28798508721E+01 -0.69626652952E+01 -0.17143873156E+02  0.18726575657E+02  0.00000000000E+00 0.  1.
         11    1    3    3    0    0  0.65606586094E+01  0.54500092452E+01  0.26576117566E+02  0.27911196092E+02  0.51100000000E-03 0. -1.
        -11    1    3    3    0    0  0.17385105679E+02  0.88854041874E+01  0.17208634130E+01  0.19599838729E+02  0.51100000000E-03 0.  1.
         12    1    3    3    0    0 -0.21065913417E+02 -0.73727481373E+01 -0.11153107823E+02  0.24950389522E+02  0.00000000000E+00 0. -1.
</event>
<event>
 7    1  0.1891413E-013  0.7246154E+02  0.7816164E-02  0.1226708E+00
        -11   -1    0    0    0    0  0.00000000000E+00  0.00000000000E+00  0.45593999997E+02  0.45594000000E+02  0.51100000000E-03 0.  1.
         11   -1    0    0    0    0 -0.00000000000E+00 -0.00000000000E+00 -0.45593999997E+02  0.45594000000E+02  0.51100000000E-03 0. -1.
    9900012    2    1    2    0    0 -0.16461219230E+02  0.83792991171E+01 -0.30815618090E+01  0.72461537028E+02  0.69999956665E+02 0.  0.
        -12    1    1    2    0    0  0.16461219230E+02 -0.83792991171E+01  0.30815618090E+01  0.18726462972E+02  0.00000000000E+00 0.  1.
         11    1    3    3    0    0  0.15992153190E+00 -0.68509596214E+00  0.59320938336E+01  0.59736646111E+01  0.51100000000E-03 0. -1.
        -11    1    3    3    0    0 -0.21178335515E+02 -0.90287655345E+01  0.20990717897E+02  0.31155268260E+02  0.51100000000E-03 0.  1.
         12    1    3    3    0    0  0.45571947528E+01  0.18093160614E+02 -0.30004373540E+02  0.35332604157E+02  0.00000000000E+00 0. -1.
</event>
<event>
 7    1  0.1891413E-013  0.7246147E+02  0.7816164E-02  0.1226708E+00
        -11   -1    0    0    0    0  0.00000000000E+00  0.00000000000E+00  0.45593999997E+02  0.45594000000E+02  0.51100000000E-03 0.  1.
         11   -1    0    0    0    0 -0.00000000000E+00 -0.00000000000E+00 -0.45593999997E+02  0.45594000000E+02  0.51100000000E-03 0. -1.
    9900012    2    1    2    0    0  0.13138395939E+02  0.26908213812E+01 -0.13070006918E+02  0.72461466729E+02  0.69999865086E+02 0.  0.
        -12    1    1    2    0    0 -0.13138395939E+02 -0.26908213812E+01  0.13070006918E+02  0.18726533271E+02  0.00000000000E+00 0.  1.
         11    1    3    3    0    0  0.91571197592E+01 -0.53862984044E+01  0.34289667776E+01  0.11163461211E+02  0.51100000000E-03 0. -1.
        -11    1    3    3    0    0  0.16193017598E+02  0.92015344559E+01  0.17252530035E+02  0.25387631795E+02  0.51100000000E-03 0.  1.
         12    1    3    3    0    0 -0.12211741419E+02 -0.11244146703E+01 -0.33751503730E+02  0.35910373723E+02  0.00000000000E+00 0. -1.
</event>
<event>
 7    1  0.1891413E-013  0.7246156E+02  0.7816164E-02  0.1226708E+00
        -11   -1    0    0    0    0  0.00000000000E+00  0.00000000000E+00  0.45593999997E+02  0.45594000000E+02  0.51100000000E-03 0.  1.
         11   -1    0    0    0    0 -0.00000000000E+00 -0.00000000000E+00 -0.45593999997E+02  0.45594000000E+02  0.51100000000E-03 0. -1.
    9900012    2    1    2    0    0 -0.11474554459E+02  0.12037836755E+02 -0.86084112772E+01  0.72461557238E+02  0.69999982992E+02 0.  0.
        -12    1    1    2    0    0  0.11474554459E+02 -0.12037836755E+02  0.86084112772E+01  0.18726442762E+02  0.00000000000E+00 0.  1.
         11    1    3    3    0    0  0.36613703500E+01  0.10261226692E+02  0.73272442957E+01  0.13129619769E+02  0.51100000000E-03 0. -1.
        -11    1    3    3    0    0  0.46571257897E+01  0.27587658399E+01  0.18678079380E+02  0.19446600196E+02  0.51100000000E-03 0.  1.
         12    1    3    3    0    0 -0.19793050599E+02 -0.98215577646E+00 -0.34613734953E+02  0.39885337273E+02  0.00000000000E+00 0. -1.
</event>
<event>
 7    1  0.1891413E-013  0.7246188E+02  0.7816164E-02  0.1226707E+00
        -11   -1    0    0    0    0  0.00000000000E+00  0.00000000000E+00  0.45593999997E+02  0.45594000000E+02  0.51100000000E-03 0.  1.
         11   -1    0    0    0    0 -0.00000000000E+00 -0.00000000000E+00 -0.45593999997E+02  0.45594000000E+02  0.51100000000E-03 0. -1.
    9900012    2    1    2    0    0  0.14590074458E+02  0.11258255395E+02 -0.33240002561E+01  0.72461880142E+02  0.70000403633E+02 0.  0.
        -12    1    1    2    0    0 -0.14590074458E+02 -0.11258255395E+02  0.33240002561E+01  0.18726119858E+02  0.00000000000E+00 0.  1.
         11    1    3    3    0    0  0.10084962460E+02  0.52485428589E+00 -0.14105127596E+02  0.17347523299E+02  0.51100000000E-03 0. -1.
        -11    1    3    3    0    0  0.66730558462E+01  0.31378329345E+02  0.12166671274E+02  0.34309723359E+02  0.51100000000E-03 0.  1.
         12    1    3    3    0    0 -0.21679438482E+01 -0.20644928236E+02 -0.13855439337E+01  0.20804633484E+02  0.00000000000E+00 0. -1.
</event>
<event>
 7    1  0.1891413E-013  0.7246156E+02  0.7816164E-02  0.1226708E+00
        -11   -1    0    0    0    0  0.00000000000E+00  0.00000000000E+00  0.45593999997E+02  0.45594000000E+02  0.51100000000E-03 0. -1.
         11   -1    0    0    0    0 -0.00000000000E+00 -0.00000000000E+00 -0.45593999997E+02  0.45594000000E+02  0.51100000000E-03 0.  1.
    9900012    2    1    2    0    0  0.11571550197E+02  0.91909848197E+00  0.14694689311E+02  0.72461563875E+02  0.69999991638E+02 0.  0.
        -12    1    1    2    0    0 -0.11571550197E+02 -0.91909848197E+00 -0.14694689311E+02  0.18726436125E+02  0.00000000000E+00 0.  1.
         11    1    3    3    0    0 -0.77946803615E+01  0.10504572848E+02  0.56304955683E+01  0.14240982173E+02  0.51100000000E-03 0. -1.
        -11    1    3    3    0    0  0.25440840121E+02  0.86045018989E+01  0.22309186645E+02  0.34913802542E+02  0.51100000000E-03 0.  1.
         12    1    3    3    0    0 -0.60746095616E+01 -0.18189976265E+02 -0.13244992902E+02  0.23306779160E+02  0.00000000000E+00 0. -1.
</event>
<event>
 7    1  0.1891413E-013  0.7246156E+02  0.7816164E-02  0.1226708E+00
        -11   -1    0    0    0    0  0.00000000000E+00  0.00000000000E+00  0.45593999997E+02  0.45594000000E+02  0.51100000000E-03 0.  1.
         11   -1    0    0    0    0 -0.00000000000E+00 -0.00000000000E+00 -0.45593999997E+02  0.45594000000E+02  0.51100000000E-03 0. -1.
    9900012    2    1    2    0    0  0.84240179102E+01 -0.87415204814E+01 -0.14258370326E+02  0.72461564610E+02  0.69999992595E+02 0.  0.
        -12    1    1    2    0    0 -0.84240179102E+01  0.87415204814E+01  0.14258370326E+02  0.18726435390E+02  0.00000000000E+00 0.  1.
         11    1    3    3    0    0  0.17657443489E+02 -0.27192614881E+00 -0.96563166258E+01  0.20127188215E+02  0.51100000000E-03 0. -1.
        -11    1    3    3    0    0  0.11756707575E+02 -0.19189722783E+02 -0.14499624156E+02  0.26771341663E+02  0.51100000000E-03 0.  1.
         12    1    3    3    0    0 -0.20990133154E+02  0.10720128450E+02  0.98975704556E+01  0.25563034732E+02  0.00000000000E+00 0. -1.
</event>
<event>
 7    1  0.1891413E-013  0.7246163E+02  0.7816164E-02  0.1226708E+00
        -11   -1    0    0    0    0  0.00000000000E+00  0.00000000000E+00  0.45593999997E+02  0.45594000000E+02  0.51100000000E-03 0.  1.
         11   -1    0    0    0    0 -0.00000000000E+00 -0.00000000000E+00 -0.45593999997E+02  0.45594000000E+02  0.51100000000E-03 0. -1.
    9900012    2    1    2    0    0 -0.10384336048E+02 -0.52433186120E+01 -0.14674816237E+02  0.72461626704E+02  0.70000073484E+02 0.  0.
        -12    1    1    2    0    0  0.10384336048E+02  0.52433186120E+01  0.14674816237E+02  0.18726373296E+02  0.00000000000E+00 0.  1.
         11    1    3    3    0    0 -0.32284696154E+02 -0.15962816305E+02 -0.58982559222E+01  0.36495239872E+02  0.51100000000E-03 0. -1.
        -11    1    3    3    0    0 -0.40323973451E+01  0.19590425164E+01 -0.72842196095E+01  0.85532409945E+01  0.51100000000E-03 0.  1.
        -12    1    3    3    0    0  0.25932757451E+02  0.87604551765E+01 -0.14923407053E+01  0.27413145838E+02  0.00000000000E+00 0.  1.
</event>
<event>
 7    1  0.1891413E-013  0.7246150E+02  0.7816164E-02  0.1226708E+00
        -11   -1    0    0    0    0  0.00000000000E+00  0.00000000000E+00  0.45593999997E+02  0.45594000000E+02  0.51100000000E-03 0.  1.
         11   -1    0    0    0    0 -0.00000000000E+00 -0.00000000000E+00 -0.45593999997E+02  0.45594000000E+02  0.51100000000E-03 0. -1.
    9900012    2    1    2    0    0 -0.11852839863E+01  0.18152031106E+02 -0.44475663148E+01  0.72461495320E+02  0.69999902332E+02 0.  0.
        -12    1    1    2    0    0  0.11852839863E+01 -0.18152031106E+02  0.44475663148E+01  0.18726504680E+02  0.00000000000E+00 0.  1.
         11    1    3    3    0    0 -0.51993980230E+01 -0.67890396391E+00  0.57598825883E+01  0.77891525910E+01  0.51100000000E-03 0. -1.
        -11    1    3    3    0    0  0.10075761208E+02 -0.16236115341E+02 -0.20102455882E+02  0.27735196737E+02  0.51100000000E-03 0.  1.
         12    1    3    3    0    0 -0.60616471715E+01  0.35067050411E+02  0.98950069787E+01  0.36937145992E+02  0.00000000000E+00 0. -1.
</event>
<event>
 7    1  0.1891413E-013  0.7246157E+02  0.7816164E-02  0.1226708E+00
        -11   -1    0    0    0    0  0.00000000000E+00  0.00000000000E+00  0.45593999997E+02  0.45594000000E+02  0.51100000000E-03 0. -1.
         11   -1    0    0    0    0 -0.00000000000E+00 -0.00000000000E+00 -0.45593999997E+02  0.45594000000E+02  0.51100000000E-03 0.  1.
    9900012    2    1    2    0    0  0.11401904693E+01 -0.99578002861E+01  0.15818389738E+02  0.72461567485E+02  0.69999996340E+02 0.  0.
        -12    1    1    2    0    0 -0.11401904693E+01  0.99578002861E+01 -0.15818389738E+02  0.18726432515E+02  0.00000000000E+00 0.  1.
         11    1    3    3    0    0  0.22043858901E+02  0.24877244663E+00  0.14967711217E+02  0.26646312734E+02  0.51100000000E-03 0. -1.
        -11    1    3    3    0    0  0.62776758106E+01  0.35631129205E+00 -0.12308895437E+02  0.13821905747E+02  0.51100000000E-03 0.  1.
         12    1    3    3    0    0 -0.27181344243E+02 -0.10562884025E+02  0.13159573959E+02  0.31993349004E+02  0.00000000000E+00 0. -1.
</event>
<event>
 7    1  0.1891413E-013  0.7246157E+02  0.7816164E-02  0.1226708E+00
        -11   -1    0    0    0    0  0.00000000000E+00  0.00000000000E+00  0.45593999997E+02  0.45594000000E+02  0.51100000000E-03 0. -1.
         11   -1    0    0    0    0 -0.00000000000E+00 -0.00000000000E+00 -0.45593999997E+02  0.45594000000E+02  0.51100000000E-03 0.  1.
    9900012    2    1    2    0    0  0.22216463194E+01  0.10104889574E+02  0.15608799735E+02  0.72461571220E+02  0.70000001206E+02 0.  0.
        -12    1    1    2    0    0 -0.22216463194E+01 -0.10104889574E+02 -0.15608799735E+02  0.18726428780E+02  0.00000000000E+00 0.  1.
         11    1    3    3    0    0 -0.19239946672E+02  0.19444668040E+02  0.23343494992E+02  0.35960943005E+02  0.51100000000E-03 0. -1.
        -11    1    3    3    0    0  0.77321892372E+01  0.90798325905E+01 -0.62867963749E+01  0.13481614117E+02  0.51100000000E-03 0.  1.
        -12    1    3    3    0    0  0.13729403754E+02 -0.18419611056E+02 -0.14478988822E+01  0.23019014098E+02  0.00000000000E+00 0.  1.
</event>
<event>
 7    1  0.1891413E-013  0.7246164E+02  0.7816164E-02  0.1226708E+00
        -11   -1    0    0    0    0  0.00000000000E+00  0.00000000000E+00  0.45593999997E+02  0.45594000000E+02  0.51100000000E-03 0. -1.
         11   -1    0    0    0    0 -0.00000000000E+00 -0.00000000000E+00 -0.45593999997E+02  0.45594000000E+02  0.51100000000E-03 0.  1.
    9900012    2    1    2    0    0  0.10370153295E+02  0.32315941565E+01  0.15254288654E+02  0.72461638834E+02  0.70000089286E+02 0.  0.
        -12    1    1    2    0    0 -0.10370153295E+02 -0.32315941565E+01 -0.15254288654E+02  0.18726361166E+02  0.00000000000E+00 0.  1.
         11    1    3    3    0    0 -0.13473313967E+02  0.79601795058E+01  0.78086619501E+01  0.17489135163E+02  0.51100000000E-03 0. -1.
        -11    1    3    3    0    0 -0.12861103026E+02 -0.27591922498E+01 -0.76721195776E+01  0.15227689647E+02  0.51100000000E-03 0.  1.
        -12    1    3    3    0    0  0.36704570288E+02 -0.19693930996E+01  0.15117746282E+02  0.39744814025E+02  0.00000000000E+00 0.  1.
</event>
<event>
 7    1  0.1891413E-013  0.7246161E+02  0.7816164E-02  0.1226708E+00
        -11   -1    0    0    0    0  0.00000000000E+00  0.00000000000E+00  0.45593999997E+02  0.45594000000E+02  0.51100000000E-03 0. -1.
         11   -1    0    0    0    0 -0.00000000000E+00 -0.00000000000E+00 -0.45593999997E+02  0.45594000000E+02  0.51100000000E-03 0.  1.
    9900012    2    1    2    0    0 -0.17776273357E+02  0.34219628634E+01 -0.47929131207E+01  0.72461608450E+02  0.70000049705E+02 0.  0.
        -12    1    1    2    0    0  0.17776273357E+02 -0.34219628634E+01  0.47929131207E+01  0.18726391550E+02  0.00000000000E+00 0.  1.
         11    1    3    3    0    0 -0.34860861747E+01  0.10132717792E+02 -0.23790440439E+01  0.10976548524E+02  0.51100000000E-03 0. -1.
        -11    1    3    3    0    0  0.27586313544E+01  0.24464683230E+02 -0.71529109012E+01  0.25637763302E+02  0.51100000000E-03 0.  1.
         12    1    3    3    0    0 -0.17048818536E+02 -0.31175438159E+02  0.47390418243E+01  0.35847296625E+02  0.00000000000E+00 0. -1.
</event>
<event>
 7    1  0.1891413E-013  0.7246160E+02  0.7816164E-02  0.1226708E+00
        -11   -1    0    0    0    0  0.00000000000E+00  0.00000000000E+00  0.45593999997E+02  0.45594000000E+02  0.51100000000E-03 0.  1.
         11   -1    0    0    0    0 -0.00000000000E+00 -0.00000000000E+00 -0.45593999997E+02  0.45594000000E+02  0.51100000000E-03 0. -1.
    9900012    2    1    2    0    0 -0.16284914527E+02  0.77452549575E+01 -0.50488133664E+01  0.72461603339E+02  0.70000043047E+02 0.  0.
        -12    1    1    2    0    0  0.16284914527E+02 -0.77452549575E+01  0.50488133664E+01  0.18726396661E+02  0.00000000000E+00 0.  1.
         11    1    3    3    0    0  0.88481452006E+01 -0.38317378229E+00 -0.68532894247E+01  0.11198395949E+02  0.51100000000E-03 0. -1.
        -11    1    3    3    0    0  0.77895521899E+01 -0.15398629430E+02  0.10045291083E+02  0.19967543285E+02  0.51100000000E-03 0.  1.
         12    1    3    3    0    0 -0.32922611917E+02  0.23527058169E+02 -0.82408150250E+01  0.41295664105E+02  0.00000000000E+00 0. -1.
</event>
<event>
 7    1  0.1891413E-013  0.7246159E+02  0.7816164E-02  0.1226708E+00
        -11   -1    0    0    0    0  0.00000000000E+00  0.00000000000E+00  0.45593999997E+02  0.45594000000E+02  0.51100000000E-03 0.  1.
         11   -1    0    0    0    0 -0.00000000000E+00 -0.00000000000E+00 -0.45593999997E+02  0.45594000000E+02  0.51100000000E-03 0. -1.
    9900012    2    1    2    0    0 -0.10861271649E+02 -0.12252432517E+02  0.90878581904E+01  0.72461588414E+02  0.70000023604E+02 0.  0.
        -12    1    1    2    0    0  0.10861271649E+02  0.12252432517E+02 -0.90878581904E+01  0.18726411586E+02  0.00000000000E+00 0.  1.
         11    1    3    3    0    0 -0.32056884202E+01 -0.26012607575E+02  0.17218083201E+02  0.31359122763E+02  0.51100000000E-03 0. -1.
        -11    1    3    3    0    0 -0.70605748752E+01 -0.11960197352E+02 -0.64695910882E+01  0.15321672473E+02  0.51100000000E-03 0.  1.
        -12    1    3    3    0    0 -0.59500835326E+00  0.25720372410E+02 -0.16606339224E+01  0.25780793177E+02  0.00000000000E+00 0.  1.
</event>
<event>
 7    1  0.1891413E-013  0.7246157E+02  0.7816164E-02  0.1226708E+00
        -11   -1    0    0    0    0  0.00000000000E+00  0.00000000000E+00  0.45593999997E+02  0.45594000000E+02  0.51100000000E-03 0.  1.
         11   -1    0    0    0    0 -0.00000000000E+00 -0.00000000000E+00 -0.45593999997E+02  0.45594000000E+02  0.51100000000E-03 0. -1.
    9900012    2    1    2    0    0 -0.13474145338E+02 -0.90064949489E+01 -0.93813456838E+01  0.72461569729E+02  0.69999999263E+02 0.  0.
        -12    1    1    2    0    0  0.13474145338E+02  0.90064949489E+01  0.93813456838E+01  0.18726430271E+02  0.00000000000E+00 0.  1.
         11    1    3    3    0    0  0.67993343760E+01 -0.24243496274E+01 -0.14095021858E+01  0.73549381877E+01  0.51100000000E-03 0. -1.
        -11    1    3    3    0    0  0.18400660308E+02  0.11587135238E+02 -0.65285084133E+00  0.21754820552E+02  0.51100000000E-03 0.  1.
         12    1    3    3    0    0 -0.38674140022E+02 -0.18169280559E+02 -0.73189926566E+01  0.43351810989E+02  0.00000000000E+00 0. -1.
</event>
<event>
 7    1  0.1891413E-013  0.7246154E+02  0.7816164E-02  0.1226708E+00
        -11   -1    0    0    0    0  0.00000000000E+00  0.00000000000E+00  0.45593999997E+02  0.45594000000E+02  0.51100000000E-03 0.  1.
         11   -1    0    0    0    0 -0.00000000000E+00 -0.00000000000E+00 -0.45593999997E+02  0.45594000000E+02  0.51100000000E-03 0. -1.
    9900012    2    1    2    0    0 -0.90614556746E+00  0.13396126885E+01 -0.18656492393E+02  0.72461538232E+02  0.69999958232E+02 0.  0.
        -12    1    1    2    0    0  0.90614556746E+00 -0.13396126885E+01  0.18656492393E+02  0.18726461768E+02  0.00000000000E+00 0.  1.
         11    1    3    3    0    0 -0.72801168961E+00  0.23174567587E+01 -0.61490302314E+01  0.66114431025E+01  0.51100000000E-03 0. -1.
        -11    1    3    3    0    0  0.64545263661E+01  0.31031202905E+02 -0.31692346889E+01  0.31853422314E+02  0.51100000000E-03 0.  1.
         12    1    3    3    0    0 -0.66326602439E+01 -0.32009046975E+02 -0.93382274729E+01  0.33996672815E+02  0.00000000000E+00 0. -1.
</event>
<event>
 7    1  0.1891413E-013  0.7246159E+02  0.7816164E-02  0.1226708E+00
        -11   -1    0    0    0    0  0.00000000000E+00  0.00000000000E+00  0.45593999997E+02  0.45594000000E+02  0.51100000000E-03 0.  1.
         11   -1    0    0    0    0 -0.00000000000E+00 -0.00000000000E+00 -0.45593999997E+02  0.45594000000E+02  0.51100000000E-03 0. -1.
    9900012    2    1    2    0    0  0.17422415658E+02 -0.44145204059E+01 -0.52583122683E+01  0.72461590689E+02  0.70000026567E+02 0.  0.
        -12    1    1    2    0    0 -0.17422415658E+02  0.44145204059E+01  0.52583122683E+01  0.18726409311E+02  0.00000000000E+00 0.  1.
         11    1    3    3    0    0  0.25064917467E+02 -0.70902775536E+01 -0.79522652694E+01  0.27235283119E+02  0.51100000000E-03 0. -1.
        -11    1    3    3    0    0 -0.11267222270E+02 -0.14116791203E+02 -0.12763509673E+02  0.22116538404E+02  0.51100000000E-03 0.  1.
         12    1    3    3    0    0  0.36247204607E+01  0.16792548351E+02  0.15457462674E+02  0.23109769165E+02  0.00000000000E+00 0. -1.
</event>
<event>
 7    1  0.1891413E-013  0.7246156E+02  0.7816164E-02  0.1226708E+00
        -11   -1    0    0    0    0  0.00000000000E+00  0.00000000000E+00  0.45593999997E+02  0.45594000000E+02  0.51100000000E-03 0. -1.
         11   -1    0    0    0    0 -0.00000000000E+00 -0.00000000000E+00 -0.45593999997E+02  0.45594000000E+02  0.51100000000E-03 0.  1.
    9900012    2    1    2    0    0 -0.66612854733E+01  0.99874630476E+00  0.17473101289E+02  0.72461561818E+02  0.69999988958E+02 0.  0.
        -12    1    1    2    0    0  0.66612854733E+01 -0.99874630476E+00 -0.17473101289E+02  0.18726438182E+02  0.00000000000E+00 0.  1.
         11    1    3    3    0    0 -0.11431828952E+02  0.21842541690E+02 -0.10953590928E+02  0.26977110578E+02  0.51100000000E-03 0. -1.
        -11    1    3    3    0    0  0.14574838450E+01 -0.19492074595E+02  0.29620591902E+01  0.19769649113E+02  0.51100000000E-03 0.  1.
        -12    1    3    3    0    0  0.33130596336E+01 -0.13517207902E+01  0.25464633027E+02  0.25714802127E+02  0.00000000000E+00 0.  1.
</event>
<event>
 7    1  0.1891413E-013  0.7246157E+02  0.7816164E-02  0.1226708E+00
        -11   -1    0    0    0    0  0.00000000000E+00  0.00000000000E+00  0.45593999997E+02  0.45594000000E+02  0.51100000000E-03 0.  1.
         11   -1    0    0    0    0 -0.00000000000E+00 -0.00000000000E+00 -0.45593999997E+02  0.45594000000E+02  0.51100000000E-03 0. -1.
    9900012    2    1    2    0    0 -0.44316144278E+01 -0.99426587285E+01 -0.15237574683E+02  0.72461565442E+02  0.69999993679E+02 0.  0.
        -12    1    1    2    0    0  0.44316144278E+01  0.99426587285E+01  0.15237574683E+02  0.18726434558E+02  0.00000000000E+00 0.  1.
         11    1    3    3    0    0  0.15721700614E+02 -0.21043751138E+01 -0.16377496874E+02  0.22799619929E+02  0.51100000000E-03 0.  1.
        -11    1    3    3    0    0 -0.82172297025E+01 -0.25993142695E+02 -0.33794429319E+01  0.27469746376E+02  0.51100000000E-03 0. -1.
         12    1    3    3    0    0 -0.11936085339E+02  0.18154859080E+02  0.45193651225E+01  0.22192199137E+02  0.00000000000E+00 0. -1.
</event>
<event>
 7    1  0.1891413E-013  0.7246158E+02  0.7816164E-02  0.1226708E+00
        -11   -1    0    0    0    0  0.00000000000E+00  0.00000000000E+00  0.45593999997E+02  0.45594000000E+02  0.51100000000E-03 0. -1.
         11   -1    0    0    0    0 -0.00000000000E+00 -0.00000000000E+00 -0.45593999997E+02  0.45594000000E+02  0.51100000000E-03 0.  1.
    9900012    2    1    2    0    0 -0.89773399434E+01 -0.16301653086E+02  0.20838350414E+01  0.72461577643E+02  0.70000009574E+02 0.  0.
        -12    1    1    2    0    0  0.89773399434E+01  0.16301653086E+02 -0.20838350414E+01  0.18726422357E+02  0.00000000000E+00 0.  1.
         11    1    3    3    0    0 -0.12968437206E+02 -0.29586908632E+02  0.35862222761E+01  0.32502715524E+02  0.51100000000E-03 0. -1.
        -11    1    3    3    0    0  0.40047487380E+01 -0.11620711355E+02 -0.74228357168E+01  0.14358880012E+02  0.51100000000E-03 0.  1.
         12    1    3    3    0    0 -0.13651475784E-01  0.24905966902E+02  0.59204484820E+01  0.25599982107E+02  0.00000000000E+00 0. -1.
</event>
<event>
 7    1  0.1891413E-013  0.7246151E+02  0.7816164E-02  0.1226708E+00
        -11   -1    0    0    0    0  0.00000000000E+00  0.00000000000E+00  0.45593999997E+02  0.45594000000E+02  0.51100000000E-03 0. -1.
         11   -1    0    0    0    0 -0.00000000000E+00 -0.00000000000E+00 -0.45593999997E+02  0.45594000000E+02  0.51100000000E-03 0.  1.
    9900012    2    1    2    0    0 -0.12146424539E+02 -0.12212079603E+02  0.73492019537E+01  0.72461513766E+02  0.69999926361E+02 0.  0.
        -12    1    1    2    0    0  0.12146424539E+02  0.12212079603E+02 -0.73492019537E+01  0.18726486234E+02  0.00000000000E+00 0.  1.
         11    1    3    3    0    0  0.49406495419E+01 -0.14568304851E+01  0.55213506680E+01  0.75510056561E+01  0.51100000000E-03 0. -1.
        -11    1    3    3    0    0  0.17776735785E+02  0.46560853426E+01 -0.14533906582E+02  0.23429167861E+02  0.51100000000E-03 0.  1.
         12    1    3    3    0    0 -0.34863809866E+02 -0.15411334461E+02  0.16361757868E+02  0.41481340248E+02  0.00000000000E+00 0. -1.
</event>
<event>
 7    1  0.1891413E-013  0.7246158E+02  0.7816164E-02  0.1226708E+00
        -11   -1    0    0    0    0  0.00000000000E+00  0.00000000000E+00  0.45593999997E+02  0.45594000000E+02  0.51100000000E-03 0.  1.
         11   -1    0    0    0    0 -0.00000000000E+00 -0.00000000000E+00 -0.45593999997E+02  0.45594000000E+02  0.51100000000E-03 0. -1.
    9900012    2    1    2    0    0  0.14096984132E+02 -0.12261149467E+02 -0.12719832774E+01  0.72461583115E+02  0.70000016702E+02 0.  0.
        -12    1    1    2    0    0 -0.14096984132E+02  0.12261149467E+02  0.12719832774E+01  0.18726416885E+02  0.00000000000E+00 0.  1.
         11    1    3    3    0    0  0.56276903886E+00 -0.12461093844E+02  0.10883161299E+02  0.16554116373E+02  0.51100000000E-03 0. -1.
        -11    1    3    3    0    0  0.31948058130E+00  0.55565404986E+01  0.19985377647E+02  0.20745903935E+02  0.51100000000E-03 0.  1.
         12    1    3    3    0    0  0.13214734512E+02 -0.53565961220E+01 -0.32140522223E+02  0.35161562807E+02  0.00000000000E+00 0. -1.
</event>
<event>
 7    1  0.1891413E-013  0.7246159E+02  0.7816164E-02  0.1226708E+00
        -11   -1    0    0    0    0  0.00000000000E+00  0.00000000000E+00  0.45593999997E+02  0.45594000000E+02  0.51100000000E-03 0. -1.
         11   -1    0    0    0    0 -0.00000000000E+00 -0.00000000000E+00 -0.45593999997E+02  0.45594000000E+02  0.51100000000E-03 0.  1.
    9900012    2    1    2    0    0  0.35632475825E+01 -0.90131388530E+01  0.16023270138E+02  0.72461585734E+02  0.70000020113E+02 0.  0.
        -12    1    1    2    0    0 -0.35632475825E+01  0.90131388530E+01 -0.16023270138E+02  0.18726414266E+02  0.00000000000E+00 0.  1.
         11    1    3    3    0    0 -0.20391450634E+02  0.18044764632E+02 -0.17056696652E+01  0.27282487036E+02  0.51100000000E-03 0. -1.
        -11    1    3    3    0    0 -0.30266838243E+01 -0.16534475939E+01  0.48389075635E+01  0.59421991373E+01  0.51100000000E-03 0.  1.
        -12    1    3    3    0    0  0.26981382041E+02 -0.25404455891E+02  0.12890032240E+02  0.39236899561E+02  0.00000000000E+00 0.  1.
</event>
<event>
 7    1  0.1891413E-013  0.7246187E+02  0.7816164E-02  0.1226707E+00
        -11   -1    0    0    0    0  0.00000000000E+00  0.00000000000E+00  0.45593999997E+02  0.45594000000E+02  0.51100000000E-03 0. -1.
         11   -1    0    0    0    0 -0.00000000000E+00 -0.00000000000E+00 -0.45593999997E+02  0.45594000000E+02  0.51100000000E-03 0.  1.
    9900012    2    1    2    0    0 -0.11704636736E+02  0.19263457300E+00  0.14616169552E+02  0.72461867415E+02  0.70000387054E+02 0.  0.
        -12    1    1    2    0    0  0.11704636736E+02 -0.19263457300E+00 -0.14616169552E+02  0.18726132585E+02  0.00000000000E+00 0.  1.
         11    1    3    3    0    0  0.88675902312E+01  0.44814624638E-01  0.30603743911E+01  0.93809411326E+01  0.51100000000E-03 0. -1.
        -11    1    3    3    0    0 -0.42701299467E+01  0.28753461953E+02  0.46222518279E+01  0.29434007479E+02  0.51100000000E-03 0.  1.
         12    1    3    3    0    0 -0.16302097021E+02 -0.28605642005E+02  0.69335433331E+01  0.33646918803E+02  0.00000000000E+00 0. -1.
</event>
<event>
 7    1  0.1891413E-013  0.7246158E+02  0.7816164E-02  0.1226708E+00
        -11   -1    0    0    0    0  0.00000000000E+00  0.00000000000E+00  0.45593999997E+02  0.45594000000E+02  0.51100000000E-03 0. -1.
         11   -1    0    0    0    0 -0.00000000000E+00 -0.00000000000E+00 -0.45593999997E+02  0.45594000000E+02  0.51100000000E-03 0.  1.
    9900012    2    1    2    0    0 -0.25495644634E+01  0.18432965925E+02 -0.20986519874E+01  0.72461578775E+02  0.70000011047E+02 0.  0.
        -12    1    1    2    0    0  0.25495644634E+01 -0.18432965925E+02  0.20986519874E+01  0.18726421225E+02  0.00000000000E+00 0.  1.
         11    1    3    3    0    0  0.71760721839E+01  0.15136834033E+02  0.14206933334E+02  0.21964897258E+02  0.51100000000E-03 0. -1.
        -11    1    3    3    0    0  0.16447099619E+02 -0.89692230803E+01 -0.44463111755E+01  0.19254187385E+02  0.51100000000E-03 0.  1.
        -12    1    3    3    0    0 -0.26172736266E+02  0.12265354972E+02 -0.11859274146E+02  0.31242494131E+02  0.00000000000E+00 0.  1.
</event>
<event>
 7    1  0.1891413E-013  0.7246156E+02  0.7816164E-02  0.1226708E+00
        -11   -1    0    0    0    0  0.00000000000E+00  0.00000000000E+00  0.45593999997E+02  0.45594000000E+02  0.51100000000E-03 0.  1.
         11   -1    0    0    0    0 -0.00000000000E+00 -0.00000000000E+00 -0.45593999997E+02  0.45594000000E+02  0.51100000000E-03 0. -1.
    9900012    2    1    2    0    0  0.89314846270E+01 -0.59515253563E+01 -0.15345605447E+02  0.72461556712E+02  0.69999982306E+02 0.  0.
        -12    1    1    2    0    0 -0.89314846270E+01  0.59515253563E+01  0.15345605447E+02  0.18726443288E+02  0.00000000000E+00 0.  1.
         11    1    3    3    0    0  0.67704041106E+01 -0.32154097650E+01 -0.81319324466E+01  0.11059184299E+02  0.51100000000E-03 0. -1.
        -11    1    3    3    0    0 -0.98536260920E+01  0.25371665092E+02 -0.13206154196E+02  0.30252567587E+02  0.51100000000E-03 0.  1.
         12    1    3    3    0    0  0.12014706608E+02 -0.28107780683E+02  0.59924811956E+01  0.31149804826E+02  0.00000000000E+00 0. -1.
</event>
<event>
 7    1  0.1891413E-013  0.7246142E+02  0.7816164E-02  0.1226708E+00
        -11   -1    0    0    0    0  0.00000000000E+00  0.00000000000E+00  0.45593999997E+02  0.45594000000E+02  0.51100000000E-03 0.  1.
         11   -1    0    0    0    0 -0.00000000000E+00 -0.00000000000E+00 -0.45593999997E+02  0.45594000000E+02  0.51100000000E-03 0. -1.
    9900012    2    1    2    0    0 -0.42472378607E+01 -0.15675041643E+02 -0.93240909113E+01  0.72461424465E+02  0.69999810030E+02 0.  0.
        -12    1    1    2    0    0  0.42472378607E+01  0.15675041643E+02  0.93240909113E+01  0.18726575535E+02  0.00000000000E+00 0.  1.
         11    1    3    3    0    0  0.85277551477E+01 -0.20178188901E+02 -0.16380446619E+02  0.27353262089E+02  0.51100000000E-03 0. -1.
        -11    1    3    3    0    0 -0.23352783385E+02 -0.58480069793E+01 -0.66086229984E+01  0.24964486288E+02  0.51100000000E-03 0.  1.
        -12    1    3    3    0    0  0.10577790376E+02  0.10351154238E+02  0.13664978706E+02  0.20143676088E+02  0.00000000000E+00 0.  1.
</event>
<event>
 7    1  0.1891413E-013  0.7246182E+02  0.7816164E-02  0.1226707E+00
        -11   -1    0    0    0    0  0.00000000000E+00  0.00000000000E+00  0.45593999997E+02  0.45594000000E+02  0.51100000000E-03 0. -1.
         11   -1    0    0    0    0 -0.00000000000E+00 -0.00000000000E+00 -0.45593999997E+02  0.45594000000E+02  0.51100000000E-03 0.  1.
    9900012    2    1    2    0    0 -0.16366794519E+02  0.80648920932E+01  0.42137096385E+01  0.72461820565E+02  0.70000326023E+02 0.  0.
        -12    1    1    2    0    0  0.16366794519E+02 -0.80648920932E+01 -0.42137096385E+01  0.18726179435E+02  0.00000000000E+00 0.  1.
         11    1    3    3    0    0 -0.11011796762E+02 -0.25352479310E+01  0.14417034126E+02  0.18317696996E+02  0.51100000000E-03 0. -1.
        -11    1    3    3    0    0 -0.72811805231E+01 -0.20610591812E+02 -0.31034009827E+01  0.22078115467E+02  0.51100000000E-03 0.  1.
        -12    1    3    3    0    0  0.19261827662E+01  0.31210731836E+02 -0.70999235045E+01  0.32066008102E+02  0.00000000000E+00 0.  1.
</event>
<event>
 7    1  0.1891413E-013  0.7246142E+02  0.7816164E-02  0.1226708E+00
        -11   -1    0    0    0    0  0.00000000000E+00  0.00000000000E+00  0.45593999997E+02  0.45594000000E+02  0.51100000000E-03 0. -1.
         11   -1    0    0    0    0 -0.00000000000E+00 -0.00000000000E+00 -0.45593999997E+02  0.45594000000E+02  0.51100000000E-03 0.  1.
    9900012    2    1    2    0    0  0.15438227767E+02  0.29088551696E+01 -0.10192369565E+02  0.72461422300E+02  0.69999807210E+02 0.  0.
        -12    1    1    2    0    0 -0.15438227767E+02 -0.29088551696E+01  0.10192369565E+02  0.18726577700E+02  0.00000000000E+00 0.  1.
         11    1    3    3    0    0 -0.80513537093E+00  0.31682929985E+01  0.24865704479E+01  0.41072321999E+01  0.51100000000E-03 0. -1.
        -11    1    3    3    0    0  0.28181551251E+02 -0.20802184250E+02  0.90272915560E+01  0.36172125920E+02  0.51100000000E-03 0.  1.
         12    1    3    3    0    0 -0.11938188113E+02  0.20542746421E+02 -0.21706231569E+02  0.32182064180E+02  0.00000000000E+00 0. -1.
</event>
<event>
 7    1  0.1891413E-013  0.7246155E+02  0.7816164E-02  0.1226708E+00
        -11   -1    0    0    0    0  0.00000000000E+00  0.00000000000E+00  0.45593999997E+02  0.45594000000E+02  0.51100000000E-03 0. -1.
         11   -1    0    0    0    0 -0.00000000000E+00 -0.00000000000E+00 -0.45593999997E+02  0.45594000000E+02  0.51100000000E-03 0.  1.
    9900012    2    1    2    0    0 -0.16797254206E+02  0.82778367385E+01 -0.98847375932E-01  0.72461545431E+02  0.69999967610E+02 0.  0.
        -12    1    1    2    0    0  0.16797254206E+02 -0.82778367385E+01  0.98847375932E-01  0.18726454569E+02  0.00000000000E+00 0.  1.
         11    1    3    3    0    0  0.17775383894E+02 -0.78452924919E+00 -0.15045397235E+02  0.23301153125E+02  0.51100000000E-03 0. -1.
        -11    1    3    3    0    0 -0.51532612331E+01  0.24482561651E+01 -0.89991657947E+01  0.10655282486E+02  0.51100000000E-03 0.  1.
         12    1    3    3    0    0 -0.29419376868E+02  0.66141098226E+01  0.23945715654E+02  0.38505109820E+02  0.00000000000E+00 0. -1.
</event>
<event>
 7    1  0.1891413E-013  0.7246142E+02  0.7816164E-02  0.1226708E+00
        -11   -1    0    0    0    0  0.00000000000E+00  0.00000000000E+00  0.45593999997E+02  0.45594000000E+02  0.51100000000E-03 0.  1.
         11   -1    0    0    0    0 -0.00000000000E+00 -0.00000000000E+00 -0.45593999997E+02  0.45594000000E+02  0.51100000000E-03 0. -1.
    9900012    2    1    2    0    0 -0.16894948939E+02 -0.36518923851E+01  0.72047945857E+01  0.72461423093E+02  0.69999808243E+02 0.  0.
        -12    1    1    2    0    0  0.16894948939E+02  0.36518923851E+01 -0.72047945857E+01  0.18726576907E+02  0.00000000000E+00 0.  1.
         11    1    3    3    0    0 -0.16622194017E+02  0.78987465923E+01 -0.18182597963E+02  0.25870724779E+02  0.51100000000E-03 0. -1.
        -11    1    3    3    0    0 -0.84411217889E+01 -0.11339150603E+02 -0.50995131803E+01  0.15027771238E+02  0.51100000000E-03 0.  1.
        -12    1    3    3    0    0  0.81683668668E+01 -0.21148837443E+00  0.30486905729E+02  0.31562927075E+02  0.00000000000E+00 0.  1.
</event>
<event>
 7    1  0.1891413E-013  0.7246156E+02  0.7816164E-02  0.1226708E+00
        -11   -1    0    0    0    0  0.00000000000E+00  0.00000000000E+00  0.45593999997E+02  0.45594000000E+02  0.51100000000E-03 0.  1.
         11   -1    0    0    0    0 -0.00000000000E+00 -0.00000000000E+00 -0.45593999997E+02  0.45594000000E+02  0.51100000000E-03 0. -1.
    9900012    2    1    2    0    0  0.89695798288E+01 -0.12397769288E+02 -0.10794520993E+02  0.72461555354E+02  0.69999980537E+02 0.  0.
        -12    1    1    2    0    0 -0.89695798288E+01  0.12397769288E+02  0.10794520993E+02  0.18726444646E+02  0.00000000000E+00 0.  1.
         11    1    3    3    0    0  0.22157736273E+02 -0.29650866502E+02 -0.36632806597E-01  0.37015408998E+02  0.51100000000E-03 0. -1.
        -11    1    3    3    0    0  0.58928156561E+01  0.68146246285E+01 -0.10310425625E+02  0.13691941499E+02  0.51100000000E-03 0.  1.
        -12    1    3    3    0    0 -0.19080972100E+02  0.10438472585E+02 -0.44746256138E+00  0.21754204857E+02  0.00000000000E+00 0.  1.
</event>
<event>
 7    1  0.1891413E-013  0.7246151E+02  0.7816164E-02  0.1226708E+00
        -11   -1    0    0    0    0  0.00000000000E+00  0.00000000000E+00  0.45593999997E+02  0.45594000000E+02  0.51100000000E-03 0.  1.
         11   -1    0    0    0    0 -0.00000000000E+00 -0.00000000000E+00 -0.45593999997E+02  0.45594000000E+02  0.51100000000E-03 0. -1.
    9900012    2    1    2    0    0  0.22052530440E+01 -0.11240294561E+02 -0.14814662263E+02  0.72461505913E+02  0.69999916132E+02 0.  0.
        -12    1    1    2    0    0 -0.22052530440E+01  0.11240294561E+02  0.14814662263E+02  0.18726494087E+02  0.00000000000E+00 0.  1.
         11    1    3    3    0    0  0.22251180763E+02  0.13787296525E+02 -0.18071982140E+02  0.31808821568E+02  0.51100000000E-03 0. -1.
        -11    1    3    3    0    0 -0.25588349502E+01 -0.19431675902E+01 -0.87354266807E+01  0.93075891691E+01  0.51100000000E-03 0.  1.
        -12    1    3    3    0    0 -0.17487092769E+02 -0.23084423496E+02  0.11992746557E+02  0.31345095176E+02  0.00000000000E+00 0.  1.
</event>
<event>
 7    1  0.1891413E-013  0.7246146E+02  0.7816164E-02  0.1226708E+00
        -11   -1    0    0    0    0  0.00000000000E+00  0.00000000000E+00  0.45593999997E+02  0.45594000000E+02  0.51100000000E-03 0. -1.
         11   -1    0    0    0    0 -0.00000000000E+00 -0.00000000000E+00 -0.45593999997E+02  0.45594000000E+02  0.51100000000E-03 0.  1.
    9900012    2    1    2    0    0  0.52901019636E+01 -0.10341437824E+02  0.14688529424E+02  0.72461457028E+02  0.69999852449E+02 0.  0.
        -12    1    1    2    0    0 -0.52901019636E+01  0.10341437824E+02 -0.14688529424E+02  0.18726542972E+02  0.00000000000E+00 0.  1.
         11    1    3    3    0    0  0.20628403266E+02  0.20707709744E+01 -0.15231511943E+02  0.25725824964E+02  0.51100000000E-03 0. -1.
        -11    1    3    3    0    0 -0.23927514549E+01 -0.15896590448E+02  0.25743257218E+01  0.16280479126E+02  0.51100000000E-03 0.  1.
        -12    1    3    3    0    0 -0.12945549848E+02  0.34843816496E+01  0.27345715645E+02  0.30455152938E+02  0.00000000000E+00 0.  1.
</event>
<event>
 7    1  0.1891413E-013  0.7246155E+02  0.7816164E-02  0.1226708E+00
        -11   -1    0    0    0    0  0.00000000000E+00  0.00000000000E+00  0.45593999997E+02  0.45594000000E+02  0.51100000000E-03 0. -1.
         11   -1    0    0    0    0 -0.00000000000E+00 -0.00000000000E+00 -0.45593999997E+02  0.45594000000E+02  0.51100000000E-03 0.  1.
    9900012    2    1    2    0    0  0.15313852051E+02  0.10212867744E+02  0.34442741996E+01  0.72461554610E+02  0.69999979568E+02 0.  0.
        -12    1    1    2    0    0 -0.15313852051E+02 -0.10212867744E+02 -0.34442741996E+01  0.18726445390E+02  0.00000000000E+00 0.  1.
         11    1    3    3    0    0  0.19254913840E+02 -0.49950659279E+01  0.94535657958E+01  0.22024356906E+02  0.51100000000E-03 0. -1.
        -11    1    3    3    0    0 -0.44169756677E+01 -0.15159296383E+02  0.71559467947E+01  0.17335556399E+02  0.51100000000E-03 0.  1.
         12    1    3    3    0    0  0.47591387853E+00  0.30367230054E+02 -0.13165238391E+02  0.33101641305E+02  0.00000000000E+00 0. -1.
</event>
<event>
 7    1  0.1891413E-013  0.7246158E+02  0.7816164E-02  0.1226708E+00
        -11   -1    0    0    0    0  0.00000000000E+00  0.00000000000E+00  0.45593999997E+02  0.45594000000E+02  0.51100000000E-03 0. -1.
         11   -1    0    0    0    0 -0.00000000000E+00 -0.00000000000E+00 -0.45593999997E+02  0.45594000000E+02  0.51100000000E-03 0.  1.
    9900012    2    1    2    0    0  0.82926195348E+01 -0.89724976593E+01  0.14191736260E+02  0.72461584671E+02  0.70000018728E+02 0.  0.
        -12    1    1    2    0    0 -0.82926195348E+01  0.89724976593E+01 -0.14191736260E+02  0.18726415329E+02  0.00000000000E+00 0.  1.
         11    1    3    3    0    0  0.14174370492E+02 -0.11555326040E+02 -0.72955880896E+00  0.18302201918E+02  0.51100000000E-03 0. -1.
        -11    1    3    3    0    0  0.61067976044E+01 -0.22551806619E+02  0.19678593523E+01  0.23446736009E+02  0.51100000000E-03 0.  1.
         12    1    3    3    0    0 -0.11988548561E+02  0.25134635000E+02  0.12953435717E+02  0.30712646745E+02  0.00000000000E+00 0. -1.
</event>
<event>
 7    1  0.1891413E-013  0.7246156E+02  0.7816164E-02  0.1226708E+00
        -11   -1    0    0    0    0  0.00000000000E+00  0.00000000000E+00  0.45593999997E+02  0.45594000000E+02  0.51100000000E-03 0. -1.
         11   -1    0    0    0    0 -0.00000000000E+00 -0.00000000000E+00 -0.45593999997E+02  0.45594000000E+02  0.51100000000E-03 0.  1.
    9900012    2    1    2    0    0 -0.11584203196E+02 -0.31601444616E+01 -0.14370084243E+02  0.72461558858E+02  0.69999985102E+02 0.  0.
        -12    1    1    2    0    0  0.11584203196E+02  0.31601444616E+01  0.14370084243E+02  0.18726441142E+02  0.00000000000E+00 0.  1.
         11    1    3    3    0    0 -0.38530517894E+01 -0.10732201412E+02  0.64650235335E+01  0.13108115227E+02  0.51100000000E-03 0. -1.
        -11    1    3    3    0    0  0.15480389200E+02 -0.10415354172E+02  0.59739241069E+01  0.19591064846E+02  0.51100000000E-03 0.  1.
        -12    1    3    3    0    0 -0.23211540606E+02  0.17987411123E+02 -0.26809031883E+02  0.39762378786E+02  0.00000000000E+00 0.  1.
</event>
<event>
 7    1  0.1891413E-013  0.7246156E+02  0.7816164E-02  0.1226708E+00
        -11   -1    0    0    0    0  0.00000000000E+00  0.00000000000E+00  0.45593999997E+02  0.45594000000E+02  0.51100000000E-03 0. -1.
         11   -1    0    0    0    0 -0.00000000000E+00 -0.00000000000E+00 -0.45593999997E+02  0.45594000000E+02  0.51100000000E-03 0.  1.
    9900012    2    1    2    0    0  0.15292423457E+02  0.61928465943E+01  0.88583289765E+01  0.72461559965E+02  0.69999986544E+02 0.  0.
        -12    1    1    2    0    0 -0.15292423457E+02 -0.61928465943E+01 -0.88583289765E+01  0.18726440035E+02  0.00000000000E+00 0.  1.
         11    1    3    3    0    0  0.25041067587E+02 -0.15309672475E+02 -0.30744879609E+01  0.29510906690E+02  0.51100000000E-03 0. -1.
        -11    1    3    3    0    0  0.80191988154E+01  0.14690585983E+02 -0.50115814175E+01  0.17471027867E+02  0.51100000000E-03 0.  1.
         12    1    3    3    0    0 -0.17767842946E+02  0.68119330856E+01  0.16944398355E+02  0.25479625408E+02  0.00000000000E+00 0. -1.
</event>
<event>
 7    1  0.1891413E-013  0.7246147E+02  0.7816164E-02  0.1226708E+00
        -11   -1    0    0    0    0  0.00000000000E+00  0.00000000000E+00  0.45593999997E+02  0.45594000000E+02  0.51100000000E-03 0.  1.
         11   -1    0    0    0    0 -0.00000000000E+00 -0.00000000000E+00 -0.45593999997E+02  0.45594000000E+02  0.51100000000E-03 0. -1.
    9900012    2    1    2    0    0  0.11358960851E+02 -0.13549578158E+02 -0.61697474853E+01  0.72461472187E+02  0.69999872197E+02 0.  0.
        -12    1    1    2    0    0 -0.11358960851E+02  0.13549578158E+02  0.61697474853E+01  0.18726527813E+02  0.00000000000E+00 0.  1.
         11    1    3    3    0    0  0.73268628631E+01 -0.71675326070E+01 -0.27468502619E+02  0.29318510867E+02  0.51100000000E-03 0. -1.
        -11    1    3    3    0    0 -0.31651657053E+01  0.72869674695E+00 -0.98608278650E+01  0.10381965100E+02  0.51100000000E-03 0.  1.
        -12    1    3    3    0    0  0.71972636933E+01 -0.71107422982E+01  0.31159582999E+02  0.32760996220E+02  0.00000000000E+00 0.  1.
</event>
<event>
 7    1  0.1891413E-013  0.7246161E+02  0.7816164E-02  0.1226708E+00
        -11   -1    0    0    0    0  0.00000000000E+00  0.00000000000E+00  0.45593999997E+02  0.45594000000E+02  0.51100000000E-03 0.  1.
         11   -1    0    0    0    0 -0.00000000000E+00 -0.00000000000E+00 -0.45593999997E+02  0.45594000000E+02  0.51100000000E-03 0. -1.
    9900012    2    1    2    0    0  0.12348372928E+02  0.95158871351E+01  0.10375124706E+02  0.72461611277E+02  0.70000053388E+02 0.  0.
        -12    1    1    2    0    0 -0.12348372928E+02 -0.95158871351E+01 -0.10375124706E+02  0.18726388723E+02  0.00000000000E+00 0.  1.
         11    1    3    3    0    0  0.92042629588E+01  0.22809796622E+01 -0.55182194034E+01  0.10971420623E+02  0.51100000000E-03 0. -1.
        -11    1    3    3    0    0 -0.58623001963E+01  0.75150547333E+01 -0.21239331328E+02  0.23279858392E+02  0.51100000000E-03 0.  1.
        -12    1    3    3    0    0  0.90064101655E+01 -0.28014726048E+00  0.37132675437E+02  0.38210332263E+02  0.00000000000E+00 0.  1.
</event>
<event>
 7    1  0.1891413E-013  0.7246161E+02  0.7816164E-02  0.1226708E+00
        -11   -1    0    0    0    0  0.00000000000E+00  0.00000000000E+00  0.45593999997E+02  0.45594000000E+02  0.51100000000E-03 0.  1.
         11   -1    0    0    0    0 -0.00000000000E+00 -0.00000000000E+00 -0.45593999997E+02  0.45594000000E+02  0.51100000000E-03 0. -1.
    9900012    2    1    2    0    0  0.40232501803E+01 -0.49149464857E+01 -0.17616312329E+02  0.72461609503E+02  0.70000051077E+02 0.  0.
        -12    1    1    2    0    0 -0.40232501803E+01  0.49149464857E+01  0.17616312329E+02  0.18726390497E+02  0.00000000000E+00 0.  1.
         11    1    3    3    0    0 -0.85759889708E+00  0.71248709911E+01  0.36964814537E+01  0.80723749855E+01  0.51100000000E-03 0. -1.
        -11    1    3    3    0    0 -0.19646296287E+02  0.16770859914E+01  0.10172091519E+02  0.22186956109E+02  0.51100000000E-03 0.  1.
         12    1    3    3    0    0  0.24527145365E+02 -0.13716903468E+02 -0.31484885301E+02  0.42202278409E+02  0.00000000000E+00 0. -1.
</event>
<event>
 7    1  0.1891413E-013  0.7246157E+02  0.7816164E-02  0.1226708E+00
        -11   -1    0    0    0    0  0.00000000000E+00  0.00000000000E+00  0.45593999997E+02  0.45594000000E+02  0.51100000000E-03 0. -1.
         11   -1    0    0    0    0 -0.00000000000E+00 -0.00000000000E+00 -0.45593999997E+02  0.45594000000E+02  0.51100000000E-03 0.  1.
    9900012    2    1    2    0    0 -0.56050379941E+01 -0.13457446053E+02  0.11754137115E+02  0.72461573632E+02  0.70000004348E+02 0.  0.
        -12    1    1    2    0    0  0.56050379941E+01  0.13457446053E+02 -0.11754137115E+02  0.18726426368E+02  0.00000000000E+00 0.  1.
         11    1    3    3    0    0  0.19770921966E+02 -0.31839402564E+02  0.23150482600E+01  0.37549918239E+02  0.51100000000E-03 0. -1.
        -11    1    3    3    0    0 -0.10807661684E+02  0.88872734345E+00  0.28587915214E+01  0.11214636713E+02  0.51100000000E-03 0.  1.
        -12    1    3    3    0    0 -0.14568298276E+02  0.17493229168E+02  0.65802973338E+01  0.23697018681E+02  0.00000000000E+00 0.  1.
</event>
<event>
 7    1  0.1891413E-013  0.7246163E+02  0.7816164E-02  0.1226708E+00
        -11   -1    0    0    0    0  0.00000000000E+00  0.00000000000E+00  0.45593999997E+02  0.45594000000E+02  0.51100000000E-03 0.  1.
         11   -1    0    0    0    0 -0.00000000000E+00 -0.00000000000E+00 -0.45593999997E+02  0.45594000000E+02  0.51100000000E-03 0. -1.
    9900012    2    1    2    0    0  0.26098705157E+01  0.29953213092E+01 -0.18300097354E+02  0.72461629903E+02  0.70000077651E+02 0.  0.
        -12    1    1    2    0    0 -0.26098705157E+01 -0.29953213092E+01  0.18300097354E+02  0.18726370097E+02  0.00000000000E+00 0.  1.
         11    1    3    3    0    0 -0.48131124426E+01 -0.77802114120E+01 -0.90736161007E+01  0.12885195008E+02  0.51100000000E-03 0. -1.
        -11    1    3    3    0    0 -0.15670625320E+01 -0.23382785709E+02 -0.19758711467E+01  0.23518384714E+02  0.51100000000E-03 0.  1.
        -12    1    3    3    0    0  0.89900454903E+01  0.34158318431E+02 -0.72506101063E+01  0.36058050181E+02  0.00000000000E+00 0.  1.
</event>
<event>
 7    1  0.1891413E-013  0.7246155E+02  0.7816164E-02  0.1226708E+00
        -11   -1    0    0    0    0  0.00000000000E+00  0.00000000000E+00  0.45593999997E+02  0.45594000000E+02  0.51100000000E-03 0.  1.
         11   -1    0    0    0    0 -0.00000000000E+00 -0.00000000000E+00 -0.45593999997E+02  0.45594000000E+02  0.51100000000E-03 0. -1.
    9900012    2    1    2    0    0 -0.18745689303E+01 -0.15645340626E+02 -0.10118763634E+02  0.72461546266E+02  0.69999968698E+02 0.  0.
        -12    1    1    2    0    0  0.18745689303E+01  0.15645340626E+02  0.10118763634E+02  0.18726453734E+02  0.00000000000E+00 0.  1.
         11    1    3    3    0    0  0.14187338332E+01 -0.64483869817E+01  0.12178240289E+01  0.67139851044E+01  0.51100000000E-03 0. -1.
        -11    1    3    3    0    0  0.12501959346E+02  0.68511237169E-01  0.23371246894E+02  0.26505072400E+02  0.51100000000E-03 0.  1.
         12    1    3    3    0    0 -0.15795262109E+02 -0.92654648816E+01 -0.34707834557E+02  0.39242488762E+02  0.00000000000E+00 0. -1.
</event>
<event>
 7    1  0.1891413E-013  0.7246164E+02  0.7816164E-02  0.1226708E+00
        -11   -1    0    0    0    0  0.00000000000E+00  0.00000000000E+00  0.45593999997E+02  0.45594000000E+02  0.51100000000E-03 0.  1.
         11   -1    0    0    0    0 -0.00000000000E+00 -0.00000000000E+00 -0.45593999997E+02  0.45594000000E+02  0.51100000000E-03 0. -1.
    9900012    2    1    2    0    0  0.35608877782E+01  0.66914116937E+01 -0.17123715578E+02  0.72461640305E+02  0.70000091202E+02 0.  0.
        -12    1    1    2    0    0 -0.35608877782E+01 -0.66914116937E+01  0.17123715578E+02  0.18726359695E+02  0.00000000000E+00 0.  1.
         11    1    3    3    0    0  0.26549969447E+02 -0.39419462511E+01 -0.11433906089E+02  0.29174886916E+02  0.51100000000E-03 0. -1.
        -11    1    3    3    0    0 -0.99648976805E+01 -0.12485135925E+02 -0.50164688210E+01  0.16743439447E+02  0.51100000000E-03 0.  1.
        -12    1    3    3    0    0 -0.13024183988E+02  0.23118493869E+02 -0.67334066857E+00  0.26543313941E+02  0.00000000000E+00 0.  1.
</event>
<event>
 7    1  0.1891413E-013  0.7246152E+02  0.7816164E-02  0.1226708E+00
        -11   -1    0    0    0    0  0.00000000000E+00  0.00000000000E+00  0.45593999997E+02  0.45594000000E+02  0.51100000000E-03 0. -1.
         11   -1    0    0    0    0 -0.00000000000E+00 -0.00000000000E+00 -0.45593999997E+02  0.45594000000E+02  0.51100000000E-03 0.  1.
    9900012    2    1    2    0    0  0.11551619626E+02  0.90304360019E+01  0.11648699674E+02  0.72461524238E+02  0.69999940003E+02 0.  0.
        -12    1    1    2    0    0 -0.11551619626E+02 -0.90304360019E+01 -0.11648699674E+02  0.18726475762E+02  0.00000000000E+00 0.  1.
         11    1    3    3    0    0  0.16144289863E+02 -0.16198158710E+02  0.60735259584E+01  0.23662336288E+02  0.51100000000E-03 0. -1.
        -11    1    3    3    0    0 -0.61737453583E+01  0.36407366595E+02  0.21015080840E+01  0.36986859972E+02  0.51100000000E-03 0.  1.
         12    1    3    3    0    0  0.15810751209E+01 -0.11178771883E+02  0.34736656318E+01  0.11812327978E+02  0.00000000000E+00 0. -1.
</event>
<event>
 7    1  0.1891413E-013  0.7246158E+02  0.7816164E-02  0.1226708E+00
        -11   -1    0    0    0    0  0.00000000000E+00  0.00000000000E+00  0.45593999997E+02  0.45594000000E+02  0.51100000000E-03 0.  1.
         11   -1    0    0    0    0 -0.00000000000E+00 -0.00000000000E+00 -0.45593999997E+02  0.45594000000E+02  0.51100000000E-03 0. -1.
    9900012    2    1    2    0    0 -0.11222055896E+02 -0.13778366167E+02 -0.59077032523E+01  0.72461578279E+02  0.70000010401E+02 0.  0.
        -12    1    1    2    0    0  0.11222055896E+02  0.13778366167E+02  0.59077032523E+01  0.18726421721E+02  0.00000000000E+00 0.  1.
         11    1    3    3    0    0 -0.35783240102E+01 -0.21778059461E+02 -0.39572788502E+01  0.22422050147E+02  0.51100000000E-03 0. -1.
        -11    1    3    3    0    0  0.76996031194E+01 -0.78410215637E+01 -0.19145322642E+02  0.22075073877E+02  0.51100000000E-03 0.  1.
        -12    1    3    3    0    0 -0.15343335005E+02  0.15840714858E+02  0.17194898240E+02  0.27964454255E+02  0.00000000000E+00 0.  1.
</event>
<event>
 7    1  0.1891413E-013  0.7246155E+02  0.7816164E-02  0.1226708E+00
        -11   -1    0    0    0    0  0.00000000000E+00  0.00000000000E+00  0.45593999997E+02  0.45594000000E+02  0.51100000000E-03 0. -1.
         11   -1    0    0    0    0 -0.00000000000E+00 -0.00000000000E+00 -0.45593999997E+02  0.45594000000E+02  0.51100000000E-03 0.  1.
    9900012    2    1    2    0    0  0.48830655318E+01  0.56182049896E+01  0.17183458675E+02  0.72461553238E+02  0.69999977781E+02 0.  0.
        -12    1    1    2    0    0 -0.48830655318E+01 -0.56182049896E+01 -0.17183458675E+02  0.18726446762E+02  0.00000000000E+00 0.  1.
         11    1    3    3    0    0  0.11943331067E+02  0.65351973133E+01  0.15146010815E+02  0.20365500357E+02  0.51100000000E-03 0. -1.
        -11    1    3    3    0    0  0.14082776504E+02  0.16414952935E+02 -0.78724636724E+01  0.23016319394E+02  0.51100000000E-03 0.  1.
        -12    1    3    3    0    0 -0.21143042039E+02 -0.17331945259E+02  0.99099115319E+01  0.29079733487E+02  0.00000000000E+00 0.  1.
</event>
<event>
 7    1  0.1891413E-013  0.7246161E+02  0.7816164E-02  0.1226708E+00
        -11   -1    0    0    0    0  0.00000000000E+00  0.00000000000E+00  0.45593999997E+02  0.45594000000E+02  0.51100000000E-03 0.  1.
         11   -1    0    0    0    0 -0.00000000000E+00 -0.00000000000E+00 -0.45593999997E+02  0.45594000000E+02  0.51100000000E-03 0. -1.
    9900012    2    1    2    0    0  0.14914371017E+02 -0.64739819979E+01 -0.92912235465E+01  0.72461608444E+02  0.70000049696E+02 0.  0.
        -12    1    1    2    0    0 -0.14914371017E+02  0.64739819979E+01  0.92912235465E+01  0.18726391556E+02  0.00000000000E+00 0.  1.
         11    1    3    3    0    0  0.15451816221E+01 -0.16898265346E+02 -0.49662448837E+01  0.17680569744E+02  0.51100000000E-03 0. -1.
        -11    1    3    3    0    0 -0.15052941951E+02 -0.93470815708E+01  0.59079837358E+01  0.18677881768E+02  0.51100000000E-03 0.  1.
         12    1    3    3    0    0  0.28422131345E+02  0.19771364919E+02 -0.10232962399E+02  0.36103156932E+02  0.00000000000E+00 0. -1.
</event>
<event>
 7    1  0.1891413E-013  0.7246154E+02  0.7816164E-02  0.1226708E+00
        -11   -1    0    0    0    0  0.00000000000E+00  0.00000000000E+00  0.45593999997E+02  0.45594000000E+02  0.51100000000E-03 0. -1.
         11   -1    0    0    0    0 -0.00000000000E+00 -0.00000000000E+00 -0.45593999997E+02  0.45594000000E+02  0.51100000000E-03 0.  1.
    9900012    2    1    2    0    0  0.17475237859E+02  0.18542753163E+01  0.64697798325E+01  0.72461539409E+02  0.69999959767E+02 0.  0.
        -12    1    1    2    0    0 -0.17475237859E+02 -0.18542753163E+01 -0.64697798325E+01  0.18726460591E+02  0.00000000000E+00 0.  1.
         11    1    3    3    0    0  0.27470228099E+02  0.17798844799E+02  0.24290240310E+01  0.32822438453E+02  0.51100000000E-03 0. -1.
        -11    1    3    3    0    0  0.59011071454E+01 -0.21616985189E+02  0.39942440245E+01  0.22761175272E+02  0.51100000000E-03 0.  1.
        -12    1    3    3    0    0 -0.15896097386E+02  0.56724157055E+01  0.46511776982E-01  0.16877925684E+02  0.00000000000E+00 0.  1.
</event>
<event>
 7    1  0.1891413E-013  0.7246167E+02  0.7816164E-02  0.1226708E+00
        -11   -1    0    0    0    0  0.00000000000E+00  0.00000000000E+00  0.45593999997E+02  0.45594000000E+02  0.51100000000E-03 0.  1.
         11   -1    0    0    0    0 -0.00000000000E+00 -0.00000000000E+00 -0.45593999997E+02  0.45594000000E+02  0.51100000000E-03 0. -1.
    9900012    2    1    2    0    0 -0.24229518305E+01  0.86223521244E+01 -0.16445658366E+02  0.72461672789E+02  0.70000133518E+02 0.  0.
        -12    1    1    2    0    0  0.24229518305E+01 -0.86223521244E+01  0.16445658366E+02  0.18726327211E+02  0.00000000000E+00 0.  1.
         11    1    3    3    0    0 -0.47366266779E+01 -0.12112902672E+02 -0.12062878721E+02  0.17738970848E+02  0.51100000000E-03 0. -1.
        -11    1    3    3    0    0  0.12203775784E+02 -0.41373053705E+01 -0.19956316208E+02  0.23755083582E+02  0.51100000000E-03 0.  1.
        -12    1    3    3    0    0 -0.98901009366E+01  0.24872560167E+02  0.15573536563E+02  0.30967618360E+02  0.00000000000E+00 0.  1.
</event>
<event>
 7    1  0.1891413E-013  0.7246156E+02  0.7816164E-02  0.1226708E+00
        -11   -1    0    0    0    0  0.00000000000E+00  0.00000000000E+00  0.45593999997E+02  0.45594000000E+02  0.51100000000E-03 0.  1.
         11   -1    0    0    0    0 -0.00000000000E+00 -0.00000000000E+00 -0.45593999997E+02  0.45594000000E+02  0.51100000000E-03 0. -1.
    9900012    2    1    2    0    0  0.77105762589E+00 -0.17120676986E+02 -0.75476892542E+01  0.72461555506E+02  0.69999980736E+02 0.  0.
        -12    1    1    2    0    0 -0.77105762589E+00  0.17120676986E+02  0.75476892542E+01  0.18726444494E+02  0.00000000000E+00 0.  1.
         11    1    3    3    0    0  0.25143038247E+02  0.55311298484E+01 -0.45895441366E+01  0.26150137386E+02  0.51100000000E-03 0. -1.
        -11    1    3    3    0    0 -0.13860468068E+02  0.64180353526E+01 -0.18579382545E+00  0.15275413987E+02  0.51100000000E-03 0.  1.
        -12    1    3    3    0    0 -0.10511512553E+02 -0.29069842186E+02 -0.27723512921E+01  0.31036004134E+02  0.00000000000E+00 0.  1.
</event>
<event>
 7    1  0.1891413E-013  0.7246154E+02  0.7816164E-02  0.1226708E+00
        -11   -1    0    0    0    0  0.00000000000E+00  0.00000000000E+00  0.45593999997E+02  0.45594000000E+02  0.51100000000E-03 0.  1.
         11   -1    0    0    0    0 -0.00000000000E+00 -0.00000000000E+00 -0.45593999997E+02  0.45594000000E+02  0.51100000000E-03 0. -1.
    9900012    2    1    2    0    0 -0.34448127738E+01 -0.90078213356E+00 -0.18384832895E+02  0.72461542138E+02  0.69999963321E+02 0.  0.
        -12    1    1    2    0    0  0.34448127738E+01  0.90078213356E+00  0.18384832895E+02  0.18726457862E+02  0.00000000000E+00 0.  1.
         11    1    3    3    0    0  0.10083666348E+02 -0.20085814626E+02  0.14431027556E+02  0.26709077722E+02  0.51100000000E-03 0. -1.
        -11    1    3    3    0    0 -0.20117717054E+00  0.12872080720E+01 -0.19953759378E+02  0.19996246909E+02  0.51100000000E-03 0.  1.
        -12    1    3    3    0    0 -0.13327301951E+02  0.17897824420E+02 -0.12862101073E+02  0.25756217507E+02  0.00000000000E+00 0.  1.
</event>
<event>
 7    1  0.1891413E-013  0.7246148E+02  0.7816164E-02  0.1226708E+00
        -11   -1    0    0    0    0  0.00000000000E+00  0.00000000000E+00  0.45593999997E+02  0.45594000000E+02  0.51100000000E-03 0. -1.
         11   -1    0    0    0    0 -0.00000000000E+00 -0.00000000000E+00 -0.45593999997E+02  0.45594000000E+02  0.51100000000E-03 0.  1.
    9900012    2    1    2    0    0  0.71716235140E+01  0.15431550037E+02 -0.78177706271E+01  0.72461482493E+02  0.69999885622E+02 0.  0.
        -12    1    1    2    0    0 -0.71716235140E+01 -0.15431550037E+02  0.78177706271E+01  0.18726517507E+02  0.00000000000E+00 0.  1.
         11    1    3    3    0    0  0.20601683245E+01 -0.86254794190E+00  0.52632570016E+01  0.57175306736E+01  0.51100000000E-03 0. -1.
        -11    1    3    3    0    0  0.31631533166E+02  0.11384680390E+01  0.37420066493E+01  0.31872442861E+02  0.51100000000E-03 0.  1.
        -12    1    3    3    0    0 -0.26520077976E+02  0.15155629939E+02 -0.16823034278E+02  0.34871508959E+02  0.00000000000E+00 0.  1.
</event>
<event>
 7    1  0.1891413E-013  0.7246149E+02  0.7816164E-02  0.1226708E+00
        -11   -1    0    0    0    0  0.00000000000E+00  0.00000000000E+00  0.45593999997E+02  0.45594000000E+02  0.51100000000E-03 0.  1.
         11   -1    0    0    0    0 -0.00000000000E+00 -0.00000000000E+00 -0.45593999997E+02  0.45594000000E+02  0.51100000000E-03 0. -1.
    9900012    2    1    2    0    0  0.17840325425E+02 -0.55235207713E+01  0.13767741543E+01  0.72461494719E+02  0.69999901549E+02 0.  0.
        -12    1    1    2    0    0 -0.17840325425E+02  0.55235207713E+01 -0.13767741543E+01  0.18726505281E+02  0.00000000000E+00 0.  1.
         11    1    3    3    0    0 -0.11675452844E+02  0.98911486712E-01 -0.22407551222E-01  0.11675893326E+02  0.51100000000E-03 0. -1.
        -11    1    3    3    0    0  0.17195111520E+01 -0.24881268059E+02  0.82748093783E+01  0.26277493970E+02  0.51100000000E-03 0.  1.
        -12    1    3    3    0    0  0.27796267117E+02  0.19258835801E+02 -0.68756276728E+01  0.34508107423E+02  0.00000000000E+00 0.  1.
</event>
<event>
 7    1  0.1891413E-013  0.7246158E+02  0.7816164E-02  0.1226708E+00
        -11   -1    0    0    0    0  0.00000000000E+00  0.00000000000E+00  0.45593999997E+02  0.45594000000E+02  0.51100000000E-03 0.  1.
         11   -1    0    0    0    0 -0.00000000000E+00 -0.00000000000E+00 -0.45593999997E+02  0.45594000000E+02  0.51100000000E-03 0. -1.
    9900012    2    1    2    0    0  0.16937718457E+02 -0.10461005570E+01  0.79182104755E+01  0.72461583097E+02  0.70000016678E+02 0.  0.
        -12    1    1    2    0    0 -0.16937718457E+02  0.10461005570E+01 -0.79182104755E+01  0.18726416903E+02  0.00000000000E+00 0.  1.
         11    1    3    3    0    0  0.13165456557E+01  0.27731695044E+02 -0.14228340911E+02  0.31196568526E+02  0.51100000000E-03 0. -1.
        -11    1    3    3    0    0  0.84348790215E+01 -0.51236525375E+01  0.42495670087E+01  0.10745130034E+02  0.51100000000E-03 0.  1.
        -12    1    3    3    0    0  0.71862937794E+01 -0.23654143063E+02  0.17896984377E+02  0.30519884537E+02  0.00000000000E+00 0.  1.
</event>
<event>
 7    1  0.1891413E-013  0.7246159E+02  0.7816164E-02  0.1226708E+00
        -11   -1    0    0    0    0  0.00000000000E+00  0.00000000000E+00  0.45593999997E+02  0.45594000000E+02  0.51100000000E-03 0. -1.
         11   -1    0    0    0    0 -0.00000000000E+00 -0.00000000000E+00 -0.45593999997E+02  0.45594000000E+02  0.51100000000E-03 0.  1.
    9900012    2    1    2    0    0 -0.17248234248E+02  0.15695458304E+01  0.71213442132E+01  0.72461585443E+02  0.70000019733E+02 0.  0.
        -12    1    1    2    0    0  0.17248234248E+02 -0.15695458304E+01 -0.71213442132E+01  0.18726414557E+02  0.00000000000E+00 0.  1.
         11    1    3    3    0    0 -0.16578056896E+02 -0.56806999716E+01  0.18228122429E+02  0.25285702880E+02  0.51100000000E-03 0. -1.
        -11    1    3    3    0    0 -0.38675262242E+01  0.11904734276E+02  0.15530377032E+02  0.19946755834E+02  0.51100000000E-03 0.  1.
        -12    1    3    3    0    0  0.31973488725E+01 -0.46544884741E+01 -0.26637155247E+02  0.27229126729E+02  0.00000000000E+00 0.  1.
</event>
<event>
 7    1  0.1891413E-013  0.7246165E+02  0.7816164E-02  0.1226708E+00
        -11   -1    0    0    0    0  0.00000000000E+00  0.00000000000E+00  0.45593999997E+02  0.45594000000E+02  0.51100000000E-03 0. -1.
         11   -1    0    0    0    0 -0.00000000000E+00 -0.00000000000E+00 -0.45593999997E+02  0.45594000000E+02  0.51100000000E-03 0.  1.
    9900012    2    1    2    0    0  0.94701106540E+01  0.50593394042E+01  0.15342632346E+02  0.72461647491E+02  0.70000100562E+02 0.  0.
        -12    1    1    2    0    0 -0.94701106540E+01 -0.50593394042E+01 -0.15342632346E+02  0.18726352509E+02  0.00000000000E+00 0.  1.
         11    1    3    3    0    0 -0.23185439442E+02 -0.15423206509E+01  0.17580789758E+02  0.29138076873E+02  0.51100000000E-03 0. -1.
        -11    1    3    3    0    0  0.12658918317E+02 -0.32296115529E-01 -0.14258721468E+02  0.19067259744E+02  0.51100000000E-03 0.  1.
         12    1    3    3    0    0  0.19996631779E+02  0.66339561706E+01  0.12020564056E+02  0.24256310873E+02  0.00000000000E+00 0. -1.
</event>
<event>
 7    1  0.1891413E-013  0.7246154E+02  0.7816164E-02  0.1226708E+00
        -11   -1    0    0    0    0  0.00000000000E+00  0.00000000000E+00  0.45593999997E+02  0.45594000000E+02  0.51100000000E-03 0.  1.
         11   -1    0    0    0    0 -0.00000000000E+00 -0.00000000000E+00 -0.45593999997E+02  0.45594000000E+02  0.51100000000E-03 0. -1.
    9900012    2    1    2    0    0 -0.10706770893E+02  0.13940263109E+02 -0.64586850499E+01  0.72461535008E+02  0.69999954034E+02 0.  0.
        -12    1    1    2    0    0  0.10706770893E+02 -0.13940263109E+02  0.64586850499E+01  0.18726464992E+02  0.00000000000E+00 0.  1.
         11    1    3    3    0    0  0.37805484520E+01  0.13105324701E+02 -0.24235582162E+01  0.13853364819E+02  0.51100000000E-03 0.  1.
        -11    1    3    3    0    0  0.47229593729E+01 -0.13941953577E+02  0.19762155966E+02  0.24641980916E+02  0.51100000000E-03 0. -1.
         12    1    3    3    0    0 -0.19210278718E+02  0.14776891985E+02 -0.23797282799E+02  0.33966189274E+02  0.00000000000E+00 0. -1.
</event>
<event>
 7    1  0.1891413E-013  0.7246157E+02  0.7816164E-02  0.1226708E+00
        -11   -1    0    0    0    0  0.00000000000E+00  0.00000000000E+00  0.45593999997E+02  0.45594000000E+02  0.51100000000E-03 0.  1.
         11   -1    0    0    0    0 -0.00000000000E+00 -0.00000000000E+00 -0.45593999997E+02  0.45594000000E+02  0.51100000000E-03 0. -1.
    9900012    2    1    2    0    0  0.15649959110E+02  0.11838220861E+00 -0.10283179811E+02  0.72461574246E+02  0.70000005147E+02 0.  0.
        -12    1    1    2    0    0 -0.15649959110E+02 -0.11838220861E+00  0.10283179811E+02  0.18726425754E+02  0.00000000000E+00 0.  1.
         11    1    3    3    0    0 -0.98021759853E+01 -0.18504139454E+01 -0.69302230607E+01  0.12146385378E+02  0.51100000000E-03 0. -1.
        -11    1    3    3    0    0 -0.15799594855E+02  0.39464022617E+01  0.70195343184E+01  0.17733447231E+02  0.51100000000E-03 0.  1.
         12    1    3    3    0    0  0.41251729951E+02 -0.19776061078E+01 -0.10372491069E+02  0.42581741637E+02  0.00000000000E+00 0. -1.
</event>
<event>
 7    1  0.1891413E-013  0.7246169E+02  0.7816164E-02  0.1226708E+00
        -11   -1    0    0    0    0  0.00000000000E+00  0.00000000000E+00  0.45593999997E+02  0.45594000000E+02  0.51100000000E-03 0. -1.
         11   -1    0    0    0    0 -0.00000000000E+00 -0.00000000000E+00 -0.45593999997E+02  0.45594000000E+02  0.51100000000E-03 0.  1.
    9900012    2    1    2    0    0 -0.15422034156E+02 -0.10588559811E+02  0.84734843715E+00  0.72461688677E+02  0.70000154215E+02 0.  0.
        -12    1    1    2    0    0  0.15422034156E+02  0.10588559811E+02 -0.84734843715E+00  0.18726311323E+02  0.00000000000E+00 0.  1.
         11    1    3    3    0    0  0.12129093181E+02 -0.10187298221E+02  0.13640929696E+02  0.20903849160E+02  0.51100000000E-03 0. -1.
        -11    1    3    3    0    0  0.10969383734E+02 -0.28765907737E+01 -0.32136274709E+01  0.11786838243E+02  0.51100000000E-03 0.  1.
        -12    1    3    3    0    0 -0.38520511071E+02  0.24753291842E+01 -0.95799537884E+01  0.39771001274E+02  0.00000000000E+00 0.  1.
</event>
<event>
 7    1  0.1891413E-013  0.7246149E+02  0.7816164E-02  0.1226708E+00
        -11   -1    0    0    0    0  0.00000000000E+00  0.00000000000E+00  0.45593999997E+02  0.45594000000E+02  0.51100000000E-03 0.  1.
         11   -1    0    0    0    0 -0.00000000000E+00 -0.00000000000E+00 -0.45593999997E+02  0.45594000000E+02  0.51100000000E-03 0. -1.
    9900012    2    1    2    0    0  0.13176345907E+01  0.12525056266E+02 -0.13858899722E+02  0.72461486793E+02  0.69999891224E+02 0.  0.
        -12    1    1    2    0    0 -0.13176345907E+01 -0.12525056266E+02  0.13858899722E+02  0.18726513207E+02  0.00000000000E+00 0.  1.
         11    1    3    3    0    0 -0.10599741280E+01  0.13806631763E+02  0.44957765134E+01  0.14558799144E+02  0.51100000000E-03 0. -1.
        -11    1    3    3    0    0 -0.10554518996E+02 -0.24650250825E+02 -0.27142828180E+01  0.26951810115E+02  0.51100000000E-03 0.  1.
         12    1    3    3    0    0  0.12932127715E+02  0.23368675328E+02 -0.15640393418E+02  0.30950877534E+02  0.00000000000E+00 0. -1.
</event>
<event>
 7    1  0.1891413E-013  0.7246155E+02  0.7816164E-02  0.1226708E+00
        -11   -1    0    0    0    0  0.00000000000E+00  0.00000000000E+00  0.45593999997E+02  0.45594000000E+02  0.51100000000E-03 0. -1.
         11   -1    0    0    0    0 -0.00000000000E+00 -0.00000000000E+00 -0.45593999997E+02  0.45594000000E+02  0.51100000000E-03 0.  1.
    9900012    2    1    2    0    0 -0.11797768073E+02  0.47414368511E+01  0.13748133965E+02  0.72461554997E+02  0.69999980073E+02 0.  0.
        -12    1    1    2    0    0  0.11797768073E+02 -0.47414368511E+01 -0.13748133965E+02  0.18726445003E+02  0.00000000000E+00 0.  1.
         11    1    3    3    0    0  0.56576365356E+01  0.36904281009E+01  0.36337361170E+02  0.36959869153E+02  0.51100000000E-03 0. -1.
        -11    1    3    3    0    0 -0.40532066964E+01 -0.26876835332E+01  0.34605381051E+01  0.59688735568E+01  0.51100000000E-03 0.  1.
        -12    1    3    3    0    0 -0.13402197912E+02  0.37386922835E+01 -0.26049765310E+02  0.29532812287E+02  0.00000000000E+00 0.  1.
</event>
<event>
 7    1  0.1891413E-013  0.7246157E+02  0.7816164E-02  0.1226708E+00
        -11   -1    0    0    0    0  0.00000000000E+00  0.00000000000E+00  0.45593999997E+02  0.45594000000E+02  0.51100000000E-03 0.  1.
         11   -1    0    0    0    0 -0.00000000000E+00 -0.00000000000E+00 -0.45593999997E+02  0.45594000000E+02  0.51100000000E-03 0. -1.
    9900012    2    1    2    0    0  0.31247502920E+01  0.91273748899E+01 -0.16050109588E+02  0.72461573364E+02  0.70000003999E+02 0.  0.
        -12    1    1    2    0    0 -0.31247502920E+01 -0.91273748899E+01  0.16050109588E+02  0.18726426636E+02  0.00000000000E+00 0.  1.
         11    1    3    3    0    0 -0.23003519463E+02 -0.18827841197E+02 -0.28722150644E+01  0.29864680334E+02  0.51100000000E-03 0. -1.
        -11    1    3    3    0    0  0.72459600119E+00 -0.38184320507E+00  0.15791592064E+01  0.17789287952E+01  0.51100000000E-03 0.  1.
         12    1    3    3    0    0  0.25403673754E+02  0.28337059292E+02 -0.14757053730E+02  0.40817964235E+02  0.00000000000E+00 0. -1.
</event>
<event>
 7    1  0.1891413E-013  0.7246157E+02  0.7816164E-02  0.1226708E+00
        -11   -1    0    0    0    0  0.00000000000E+00  0.00000000000E+00  0.45593999997E+02  0.45594000000E+02  0.51100000000E-03 0.  1.
         11   -1    0    0    0    0 -0.00000000000E+00 -0.00000000000E+00 -0.45593999997E+02  0.45594000000E+02  0.51100000000E-03 0. -1.
    9900012    2    1    2    0    0 -0.36690491608E+01 -0.26765849203E+01 -0.18167360422E+02  0.72461574466E+02  0.70000005434E+02 0.  0.
        -12    1    1    2    0    0  0.36690491608E+01  0.26765849203E+01  0.18167360422E+02  0.18726425534E+02  0.00000000000E+00 0.  1.
         11    1    3    3    0    0 -0.22932629246E+02 -0.94646824034E+01 -0.12301894016E+01  0.24839465843E+02  0.51100000000E-03 0. -1.
        -11    1    3    3    0    0 -0.74868189753E+01  0.98045124031E+01 -0.16622977599E+02  0.20700345561E+02  0.51100000000E-03 0.  1.
        -12    1    3    3    0    0  0.26750399061E+02 -0.30164149200E+01 -0.31419342181E+00  0.26921763062E+02  0.00000000000E+00 0.  1.
</event>
<event>
 7    1  0.1891413E-013  0.7246182E+02  0.7816164E-02  0.1226707E+00
        -11   -1    0    0    0    0  0.00000000000E+00  0.00000000000E+00  0.45593999997E+02  0.45594000000E+02  0.51100000000E-03 0. -1.
         11   -1    0    0    0    0 -0.00000000000E+00 -0.00000000000E+00 -0.45593999997E+02  0.45594000000E+02  0.51100000000E-03 0.  1.
    9900012    2    1    2    0    0  0.16068895115E+02 -0.79706166173E+01  0.53786404819E+01  0.72461817984E+02  0.70000322661E+02 0.  0.
        -12    1    1    2    0    0 -0.16068895115E+02  0.79706166173E+01 -0.53786404819E+01  0.18726182016E+02  0.00000000000E+00 0.  1.
         11    1    3    3    0    0 -0.20847201241E+02  0.76749685871E+01  0.39716290161E+01  0.22567338782E+02  0.51100000000E-03 0. -1.
        -11    1    3    3    0    0  0.27547865219E+02 -0.20237169354E+02  0.10808559404E+02  0.35850423404E+02  0.51100000000E-03 0.  1.
        -12    1    3    3    0    0  0.93682311361E+01  0.45915841499E+01 -0.94015479379E+01  0.14044055798E+02  0.00000000000E+00 0.  1.
</event>
<event>
 7    1  0.1891413E-013  0.7246155E+02  0.7816164E-02  0.1226708E+00
        -11   -1    0    0    0    0  0.00000000000E+00  0.00000000000E+00  0.45593999997E+02  0.45594000000E+02  0.51100000000E-03 0.  1.
         11   -1    0    0    0    0 -0.00000000000E+00 -0.00000000000E+00 -0.45593999997E+02  0.45594000000E+02  0.51100000000E-03 0. -1.
    9900012    2    1    2    0    0  0.17043867014E+02 -0.55191745814E+01  0.54521001367E+01  0.72461545804E+02  0.69999968097E+02 0.  0.
        -12    1    1    2    0    0 -0.17043867014E+02  0.55191745814E+01 -0.54521001367E+01  0.18726454196E+02  0.00000000000E+00 0.  1.
         11    1    3    3    0    0  0.28138513291E+01 -0.13202121370E+02 -0.33888661279E+01  0.13917549420E+02  0.51100000000E-03 0. -1.
        -11    1    3    3    0    0 -0.10707422744E+02 -0.60924873530E+01 -0.16379470027E+02  0.20495227312E+02  0.51100000000E-03 0.  1.
        -12    1    3    3    0    0  0.24937438428E+02  0.13775434142E+02  0.25220436292E+02  0.38048769072E+02  0.00000000000E+00 0.  1.
</event>
<event>
 7    1  0.1891413E-013  0.7246163E+02  0.7816164E-02  0.1226708E+00
        -11   -1    0    0    0    0  0.00000000000E+00  0.00000000000E+00  0.45593999997E+02  0.45594000000E+02  0.51100000000E-03 0. -1.
         11   -1    0    0    0    0 -0.00000000000E+00 -0.00000000000E+00 -0.45593999997E+02  0.45594000000E+02  0.51100000000E-03 0.  1.
    9900012    2    1    2    0    0  0.39110722537E+01 -0.88588409646E+01  0.16028143562E+02  0.72461629944E+02  0.70000077705E+02 0.  0.
        -12    1    1    2    0    0 -0.39110722537E+01  0.88588409646E+01 -0.16028143562E+02  0.18726370056E+02  0.00000000000E+00 0.  1.
         11    1    3    3    0    0  0.42527418587E+01 -0.11531958740E+02 -0.59877534966E+01  0.13672054633E+02  0.51100000000E-03 0. -1.
        -11    1    3    3    0    0  0.16791442879E+02 -0.44504529537E+01 -0.11252009995E+02  0.20697024294E+02  0.51100000000E-03 0.  1.
         12    1    3    3    0    0 -0.17133112483E+02  0.71235707289E+01  0.33267907053E+02  0.38092551017E+02  0.00000000000E+00 0. -1.
</event>
<event>
 7    1  0.1891413E-013  0.7246160E+02  0.7816164E-02  0.1226708E+00
        -11   -1    0    0    0    0  0.00000000000E+00  0.00000000000E+00  0.45593999997E+02  0.45594000000E+02  0.51100000000E-03 0. -1.
         11   -1    0    0    0    0 -0.00000000000E+00 -0.00000000000E+00 -0.45593999997E+02  0.45594000000E+02  0.51100000000E-03 0.  1.
    9900012    2    1    2    0    0  0.11166962189E+00 -0.57194104104E+01  0.17831261648E+02  0.72461601054E+02  0.70000040070E+02 0.  0.
        -12    1    1    2    0    0 -0.11166962189E+00  0.57194104104E+01 -0.17831261648E+02  0.18726398946E+02  0.00000000000E+00 0.  1.
         11    1    3    3    0    0 -0.17995063170E+01 -0.80102061078E+01  0.45866810804E+00  0.82226517358E+01  0.51100000000E-03 0.  1.
        -11    1    3    3    0    0 -0.27382243618E+02 -0.34024059093E+01  0.20297776884E+02  0.34254392101E+02  0.51100000000E-03 0. -1.
        -12    1    3    3    0    0  0.29293419557E+02  0.56932016067E+01 -0.29251833441E+01  0.29984557217E+02  0.00000000000E+00 0.  1.
</event>
<event>
 7    1  0.1891413E-013  0.7246159E+02  0.7816164E-02  0.1226708E+00
        -11   -1    0    0    0    0  0.00000000000E+00  0.00000000000E+00  0.45593999997E+02  0.45594000000E+02  0.51100000000E-03 0. -1.
         11   -1    0    0    0    0 -0.00000000000E+00 -0.00000000000E+00 -0.45593999997E+02  0.45594000000E+02  0.51100000000E-03 0.  1.
    9900012    2    1    2    0    0 -0.56742642328E+01  0.25200150408E+01  0.17667221025E+02  0.72461589528E+02  0.70000025056E+02 0.  0.
        -12    1    1    2    0    0  0.56742642328E+01 -0.25200150408E+01 -0.17667221025E+02  0.18726410472E+02  0.00000000000E+00 0.  1.
         11    1    3    3    0    0  0.62389913735E+01 -0.25302090006E+02  0.20389345743E+02  0.33088460105E+02  0.51100000000E-03 0. -1.
        -11    1    3    3    0    0 -0.30857429450E+01 -0.15241745596E+01  0.65131739700E+01  0.73665699641E+01  0.51100000000E-03 0.  1.
        -12    1    3    3    0    0 -0.88275126613E+01  0.29346279607E+02 -0.92352986877E+01  0.32006559459E+02  0.00000000000E+00 0.  1.
</event>
<event>
 7    1  0.1891413E-013  0.7246154E+02  0.7816164E-02  0.1226708E+00
        -11   -1    0    0    0    0  0.00000000000E+00  0.00000000000E+00  0.45593999997E+02  0.45594000000E+02  0.51100000000E-03 0.  1.
         11   -1    0    0    0    0 -0.00000000000E+00 -0.00000000000E+00 -0.45593999997E+02  0.45594000000E+02  0.51100000000E-03 0. -1.
    9900012    2    1    2    0    0  0.10860402799E+02  0.52333620054E+01 -0.14329822573E+02  0.72461541664E+02  0.69999962704E+02 0.  0.
        -12    1    1    2    0    0 -0.10860402799E+02 -0.52333620054E+01  0.14329822573E+02  0.18726458336E+02  0.00000000000E+00 0.  1.
         11    1    3    3    0    0  0.20253896821E+02  0.19326655831E+02 -0.30844841402E+02  0.41655062159E+02  0.51100000000E-03 0. -1.
        -11    1    3    3    0    0  0.59871754363E+01 -0.36287387396E+01  0.70438526513E+01  0.99312574723E+01  0.51100000000E-03 0.  1.
        -12    1    3    3    0    0 -0.15380669459E+02 -0.10464555086E+02  0.94711661782E+01  0.20875222033E+02  0.00000000000E+00 0.  1.
</event>
<event>
 7    1  0.1891413E-013  0.7246152E+02  0.7816164E-02  0.1226708E+00
        -11   -1    0    0    0    0  0.00000000000E+00  0.00000000000E+00  0.45593999997E+02  0.45594000000E+02  0.51100000000E-03 0.  1.
         11   -1    0    0    0    0 -0.00000000000E+00 -0.00000000000E+00 -0.45593999997E+02  0.45594000000E+02  0.51100000000E-03 0. -1.
    9900012    2    1    2    0    0  0.99858136947E+01  0.13714296666E+02 -0.79298634592E+01  0.72461517611E+02  0.69999931370E+02 0.  0.
        -12    1    1    2    0    0 -0.99858136947E+01 -0.13714296666E+02  0.79298634592E+01  0.18726482389E+02  0.00000000000E+00 0.  1.
         11    1    3    3    0    0  0.13837155636E+02 -0.54299434003E+01 -0.47581546146E+01  0.15607408401E+02  0.51100000000E-03 0. -1.
        -11    1    3    3    0    0 -0.25353359388E+01  0.21546159805E+02  0.22372215961E+02  0.31163776695E+02  0.51100000000E-03 0.  1.
         12    1    3    3    0    0 -0.13160060021E+01 -0.24019197387E+01 -0.25543924806E+02  0.25690332514E+02  0.00000000000E+00 0. -1.
</event>
<event>
 7    1  0.1891413E-013  0.7246136E+02  0.7816164E-02  0.1226709E+00
        -11   -1    0    0    0    0  0.00000000000E+00  0.00000000000E+00  0.45593999997E+02  0.45594000000E+02  0.51100000000E-03 0. -1.
         11   -1    0    0    0    0 -0.00000000000E+00 -0.00000000000E+00 -0.45593999997E+02  0.45594000000E+02  0.51100000000E-03 0.  1.
    9900012    2    1    2    0    0 -0.16907719299E+02  0.58835100161E+01  0.54954865799E+01  0.72461360292E+02  0.69999726432E+02 0.  0.
        -12    1    1    2    0    0  0.16907719299E+02 -0.58835100161E+01 -0.54954865799E+01  0.18726639708E+02  0.00000000000E+00 0.  1.
         11    1    3    3    0    0  0.16963402626E+02 -0.35268007757E+01  0.17420854934E+02  0.24569931609E+02  0.51100000000E-03 0. -1.
        -11    1    3    3    0    0 -0.26048369217E+02 -0.61882686844E+01 -0.31615118637E-01  0.26773367512E+02  0.51100000000E-03 0.  1.
        -12    1    3    3    0    0 -0.78227527082E+01  0.15598579476E+02 -0.11893753236E+02  0.21118061171E+02  0.00000000000E+00 0.  1.
</event>
<event>
 7    1  0.1891413E-013  0.7246218E+02  0.7816164E-02  0.1226706E+00
        -11   -1    0    0    0    0  0.00000000000E+00  0.00000000000E+00  0.45593999997E+02  0.45594000000E+02  0.51100000000E-03 0.  1.
         11   -1    0    0    0    0 -0.00000000000E+00 -0.00000000000E+00 -0.45593999997E+02  0.45594000000E+02  0.51100000000E-03 0. -1.
    9900012    2    1    2    0    0 -0.12405215238E+02 -0.13955729575E+02  0.14157972631E+01  0.72462182662E+02  0.70000797718E+02 0.  0.
        -12    1    1    2    0    0  0.12405215238E+02  0.13955729575E+02 -0.14157972631E+01  0.18725817338E+02  0.00000000000E+00 0.  1.
         11    1    3    3    0    0 -0.12405926355E+02 -0.24796588995E+02 -0.10268109279E+02  0.29567074642E+02  0.51100000000E-03 0. -1.
        -11    1    3    3    0    0 -0.86069527448E+01 -0.12273737900E+02 -0.12528482694E+01  0.15043068392E+02  0.51100000000E-03 0.  1.
        -12    1    3    3    0    0  0.86076638616E+01  0.23114597320E+02  0.12936754811E+02  0.27852039628E+02  0.00000000000E+00 0.  1.
</event>
<event>
 7    1  0.1891413E-013  0.7246161E+02  0.7816164E-02  0.1226708E+00
        -11   -1    0    0    0    0  0.00000000000E+00  0.00000000000E+00  0.45593999997E+02  0.45594000000E+02  0.51100000000E-03 0.  1.
         11   -1    0    0    0    0 -0.00000000000E+00 -0.00000000000E+00 -0.45593999997E+02  0.45594000000E+02  0.51100000000E-03 0. -1.
    9900012    2    1    2    0    0 -0.11906726759E+02 -0.13031184020E+02 -0.62526531056E+01  0.72461613004E+02  0.70000055637E+02 0.  0.
        -12    1    1    2    0    0  0.11906726759E+02  0.13031184020E+02  0.62526531056E+01  0.18726386996E+02  0.00000000000E+00 0.  1.
         11    1    3    3    0    0 -0.75194055510E+01 -0.24556395970E+02 -0.74751081932E+00  0.25692738577E+02  0.51100000000E-03 0. -1.
        -11    1    3    3    0    0 -0.14181891314E+01 -0.13999983525E+01  0.18893826498E+02  0.18998629840E+02  0.51100000000E-03 0.  1.
         12    1    3    3    0    0 -0.29691320771E+01  0.12925210303E+02 -0.24398968784E+02  0.27770244587E+02  0.00000000000E+00 0. -1.
</event>
<event>
 7    1  0.1891413E-013  0.7246157E+02  0.7816164E-02  0.1226708E+00
        -11   -1    0    0    0    0  0.00000000000E+00  0.00000000000E+00  0.45593999997E+02  0.45594000000E+02  0.51100000000E-03 0.  1.
         11   -1    0    0    0    0 -0.00000000000E+00 -0.00000000000E+00 -0.45593999997E+02  0.45594000000E+02  0.51100000000E-03 0. -1.
    9900012    2    1    2    0    0  0.12578002739E+02  0.10445197327E+02 -0.91307688085E+01  0.72461568436E+02  0.69999997579E+02 0.  0.
        -12    1    1    2    0    0 -0.12578002739E+02 -0.10445197327E+02  0.91307688085E+01  0.18726431564E+02  0.00000000000E+00 0.  1.
         11    1    3    3    0    0  0.10278038350E+02  0.34428684658E+02  0.13419027971E+02  0.38354174630E+02  0.51100000000E-03 0.  1.
        -11    1    3    3    0    0  0.39069669061E+01 -0.96369993819E+01 -0.54895662867E+01  0.11758889649E+02  0.51100000000E-03 0. -1.
        -12    1    3    3    0    0 -0.16070025172E+01 -0.14346487949E+02 -0.17060230493E+02  0.22348504157E+02  0.00000000000E+00 0.  1.
</event>
<event>
 7    1  0.1891413E-013  0.7246154E+02  0.7816164E-02  0.1226708E+00
        -11   -1    0    0    0    0  0.00000000000E+00  0.00000000000E+00  0.45593999997E+02  0.45594000000E+02  0.51100000000E-03 0.  1.
         11   -1    0    0    0    0 -0.00000000000E+00 -0.00000000000E+00 -0.45593999997E+02  0.45594000000E+02  0.51100000000E-03 0. -1.
    9900012    2    1    2    0    0  0.18580319737E+02 -0.99049438051E+00  0.21144381747E+01  0.72461542528E+02  0.69999963829E+02 0.  0.
        -12    1    1    2    0    0 -0.18580319737E+02  0.99049438051E+00 -0.21144381747E+01  0.18726457472E+02  0.00000000000E+00 0.  1.
         11    1    3    3    0    0  0.25395527453E+02 -0.22031468057E+02 -0.42973829449E+01  0.33893744257E+02  0.51100000000E-03 0. -1.
        -11    1    3    3    0    0  0.72030883896E+01 -0.35253891562E+01 -0.32863025453E+01  0.86667546251E+01  0.51100000000E-03 0.  1.
        -12    1    3    3    0    0 -0.14018296105E+02  0.24566362832E+02  0.96981236649E+01  0.29901043646E+02  0.00000000000E+00 0.  1.
</event>
<event>
 7    1  0.1891413E-013  0.7246162E+02  0.7816164E-02  0.1226708E+00
        -11   -1    0    0    0    0  0.00000000000E+00  0.00000000000E+00  0.45593999997E+02  0.45594000000E+02  0.51100000000E-03 0.  1.
         11   -1    0    0    0    0 -0.00000000000E+00 -0.00000000000E+00 -0.45593999997E+02  0.45594000000E+02  0.51100000000E-03 0. -1.
    9900012    2    1    2    0    0  0.18479706755E+02  0.28890584033E+01 -0.91158221875E+00  0.72461622819E+02  0.70000068423E+02 0.  0.
        -12    1    1    2    0    0 -0.18479706755E+02 -0.28890584033E+01  0.91158221875E+00  0.18726377181E+02  0.00000000000E+00 0.  1.
         11    1    3    3    0    0  0.69798442228E+01  0.96585296753E+01 -0.14449896114E+02  0.18729786940E+02  0.51100000000E-03 0. -1.
        -11    1    3    3    0    0  0.95577445244E+01  0.83851203073E+01  0.29202470620E+02  0.31850353429E+02  0.51100000000E-03 0.  1.
         12    1    3    3    0    0  0.19421180074E+01 -0.15154591579E+02 -0.15664156725E+02  0.21881482450E+02  0.00000000000E+00 0. -1.
</event>
<event>
 7    1  0.1891413E-013  0.7246174E+02  0.7816164E-02  0.1226708E+00
        -11   -1    0    0    0    0  0.00000000000E+00  0.00000000000E+00  0.45593999997E+02  0.45594000000E+02  0.51100000000E-03 0. -1.
         11   -1    0    0    0    0 -0.00000000000E+00 -0.00000000000E+00 -0.45593999997E+02  0.45594000000E+02  0.51100000000E-03 0.  1.
    9900012    2    1    2    0    0  0.14073860180E+02  0.12331440440E+02  0.73138046156E+00  0.72461738198E+02  0.70000218726E+02 0.  0.
        -12    1    1    2    0    0 -0.14073860180E+02 -0.12331440440E+02 -0.73138046156E+00  0.18726261802E+02  0.00000000000E+00 0.  1.
         11    1    3    3    0    0  0.20295888206E+02 -0.33878468364E+01  0.80952231469E+01  0.22111834440E+02  0.51100000000E-03 0. -1.
        -11    1    3    3    0    0  0.18419864273E+02 -0.30892327200E+01 -0.45457388638E+01  0.19222343788E+02  0.51100000000E-03 0.  1.
         12    1    3    3    0    0 -0.24641892299E+02  0.18808519996E+02 -0.28181038215E+01  0.31127559970E+02  0.00000000000E+00 0. -1.
</event>
<event>
 7    1  0.1891413E-013  0.7246161E+02  0.7816164E-02  0.1226708E+00
        -11   -1    0    0    0    0  0.00000000000E+00  0.00000000000E+00  0.45593999997E+02  0.45594000000E+02  0.51100000000E-03 0.  1.
         11   -1    0    0    0    0 -0.00000000000E+00 -0.00000000000E+00 -0.45593999997E+02  0.45594000000E+02  0.51100000000E-03 0. -1.
    9900012    2    1    2    0    0  0.13152625577E+02  0.13257348403E+02  0.13888860849E+01  0.72461605505E+02  0.70000045868E+02 0.  0.
        -12    1    1    2    0    0 -0.13152625577E+02 -0.13257348403E+02 -0.13888860849E+01  0.18726394495E+02  0.00000000000E+00 0.  1.
         11    1    3    3    0    0  0.18444340118E+02  0.19977724999E+02 -0.75533882894E+01  0.28219795418E+02  0.51100000000E-03 0. -1.
        -11    1    3    3    0    0  0.12410289098E+02  0.11590715108E+02 -0.73359720258E+00  0.16997003187E+02  0.51100000000E-03 0.  1.
        -12    1    3    3    0    0 -0.17702003639E+02 -0.18311091704E+02  0.96758715769E+01  0.27244806900E+02  0.00000000000E+00 0.  1.
</event>
<event>
 7    1  0.1891413E-013  0.7246156E+02  0.7816164E-02  0.1226708E+00
        -11   -1    0    0    0    0  0.00000000000E+00  0.00000000000E+00  0.45593999997E+02  0.45594000000E+02  0.51100000000E-03 0.  1.
         11   -1    0    0    0    0 -0.00000000000E+00 -0.00000000000E+00 -0.45593999997E+02  0.45594000000E+02  0.51100000000E-03 0. -1.
    9900012    2    1    2    0    0  0.29470517887E+01  0.17423013011E+02 -0.61994390158E+01  0.72461560383E+02  0.69999987089E+02 0.  0.
        -12    1    1    2    0    0 -0.29470517887E+01 -0.17423013011E+02  0.61994390158E+01  0.18726439617E+02  0.00000000000E+00 0.  1.
         11    1    3    3    0    0  0.11528019077E+02  0.22500839935E+02 -0.12593667388E+01  0.25313415938E+02  0.51100000000E-03 0. -1.
        -11    1    3    3    0    0  0.14450392417E+02 -0.15860160247E+02 -0.20271435131E+01  0.21551515844E+02  0.51100000000E-03 0.  1.
         12    1    3    3    0    0 -0.23031359706E+02  0.10782333323E+02 -0.29129287638E+01  0.25596628601E+02  0.00000000000E+00 0. -1.
</event>
<event>
 7    1  0.1891413E-013  0.7246158E+02  0.7816164E-02  0.1226708E+00
        -11   -1    0    0    0    0  0.00000000000E+00  0.00000000000E+00  0.45593999997E+02  0.45594000000E+02  0.51100000000E-03 0.  1.
         11   -1    0    0    0    0 -0.00000000000E+00 -0.00000000000E+00 -0.45593999997E+02  0.45594000000E+02  0.51100000000E-03 0. -1.
    9900012    2    1    2    0    0 -0.50455822377E+01 -0.19373324625E+01 -0.17929515728E+02  0.72461583059E+02  0.70000016629E+02 0.  0.
        -12    1    1    2    0    0  0.50455822377E+01  0.19373324625E+01  0.17929515728E+02  0.18726416941E+02  0.00000000000E+00 0.  1.
         11    1    3    3    0    0  0.61464600887E+01  0.47668976613E+01 -0.26456458606E+02  0.27576194211E+02  0.51100000000E-03 0. -1.
        -11    1    3    3    0    0  0.35379366544E+01  0.76013928652E+01 -0.12786329771E+02  0.15290140566E+02  0.51100000000E-03 0.  1.
        -12    1    3    3    0    0 -0.14729978981E+02 -0.14305622989E+02  0.21313272649E+02  0.29595248282E+02  0.00000000000E+00 0.  1.
</event>
<event>
 7    1  0.1891413E-013  0.7246134E+02  0.7816164E-02  0.1226709E+00
        -11   -1    0    0    0    0  0.00000000000E+00  0.00000000000E+00  0.45593999997E+02  0.45594000000E+02  0.51100000000E-03 0. -1.
         11   -1    0    0    0    0 -0.00000000000E+00 -0.00000000000E+00 -0.45593999997E+02  0.45594000000E+02  0.51100000000E-03 0.  1.
    9900012    2    1    2    0    0 -0.17014472029E+02  0.29836392120E+01  0.72314103976E+01  0.72461343659E+02  0.69999704765E+02 0.  0.
        -12    1    1    2    0    0  0.17014472029E+02 -0.29836392120E+01 -0.72314103976E+01  0.18726656341E+02  0.00000000000E+00 0.  1.
         11    1    3    3    0    0 -0.24596904506E+02 -0.92075062876E+01  0.26425257184E+02  0.37256947014E+02  0.51100000000E-03 0. -1.
        -11    1    3    3    0    0  0.69187055373E+01 -0.13240028188E+01  0.41838010998E+01  0.81930251848E+01  0.51100000000E-03 0.  1.
        -12    1    3    3    0    0  0.66372693936E+00  0.13515148318E+02 -0.23377647886E+02  0.27011371461E+02  0.00000000000E+00 0.  1.
</event>
<event>
 7    1  0.1891413E-013  0.7246155E+02  0.7816164E-02  0.1226708E+00
        -11   -1    0    0    0    0  0.00000000000E+00  0.00000000000E+00  0.45593999997E+02  0.45594000000E+02  0.51100000000E-03 0. -1.
         11   -1    0    0    0    0 -0.00000000000E+00 -0.00000000000E+00 -0.45593999997E+02  0.45594000000E+02  0.51100000000E-03 0.  1.
    9900012    2    1    2    0    0 -0.30301837294E+01  0.11480238904E+02  0.14481089321E+02  0.72461552214E+02  0.69999976447E+02 0.  0.
        -12    1    1    2    0    0  0.30301837294E+01 -0.11480238904E+02 -0.14481089321E+02  0.18726447786E+02  0.00000000000E+00 0.  1.
         11    1    3    3    0    0  0.11496444211E+01  0.56853139613E+01  0.96624612301E+01  0.11269766387E+02  0.51100000000E-03 0. -1.
        -11    1    3    3    0    0  0.12668690323E+02  0.28906875734E+02 -0.25274606465E+01  0.31662142012E+02  0.51100000000E-03 0.  1.
        -12    1    3    3    0    0 -0.16848518474E+02 -0.23111950791E+02  0.73460887378E+01  0.29529643815E+02  0.00000000000E+00 0.  1.
</event>
<event>
 7    1  0.1891413E-013  0.7246158E+02  0.7816164E-02  0.1226708E+00
        -11   -1    0    0    0    0  0.00000000000E+00  0.00000000000E+00  0.45593999997E+02  0.45594000000E+02  0.51100000000E-03 0.  1.
         11   -1    0    0    0    0 -0.00000000000E+00 -0.00000000000E+00 -0.45593999997E+02  0.45594000000E+02  0.51100000000E-03 0. -1.
    9900012    2    1    2    0    0  0.18689409755E+02  0.11757875710E+01  0.46499816194E-01  0.72461583481E+02  0.70000017178E+02 0.  0.
        -12    1    1    2    0    0 -0.18689409755E+02 -0.11757875710E+01 -0.46499816194E-01  0.18726416519E+02  0.00000000000E+00 0.  1.
         11    1    3    3    0    0 -0.18494014504E+02 -0.31218485284E+01 -0.17642187638E+02  0.25749199903E+02  0.51100000000E-03 0. -1.
        -11    1    3    3    0    0  0.28401840908E+01  0.12364831285E+01 -0.46802622152E+01  0.56125209007E+01  0.51100000000E-03 0.  1.
        -12    1    3    3    0    0  0.34343240169E+02  0.30611529709E+01  0.22368949670E+02  0.41099862677E+02  0.00000000000E+00 0.  1.
</event>
<event>
 7    1  0.1891413E-013  0.7246156E+02  0.7816164E-02  0.1226708E+00
        -11   -1    0    0    0    0  0.00000000000E+00  0.00000000000E+00  0.45593999997E+02  0.45594000000E+02  0.51100000000E-03 0.  1.
         11   -1    0    0    0    0 -0.00000000000E+00 -0.00000000000E+00 -0.45593999997E+02  0.45594000000E+02  0.51100000000E-03 0. -1.
    9900012    2    1    2    0    0  0.11294838838E+02 -0.13006292494E+02 -0.73445531818E+01  0.72461561731E+02  0.69999988844E+02 0.  0.
        -12    1    1    2    0    0 -0.11294838838E+02  0.13006292494E+02  0.73445531818E+01  0.18726438269E+02  0.00000000000E+00 0.  1.
         11    1    3    3    0    0 -0.61395789297E+01  0.15496727535E+02 -0.21611753130E+02  0.27293055295E+02  0.51100000000E-03 0.  1.
        -11    1    3    3    0    0  0.13839328588E+02 -0.19043288548E+02 -0.43869268147E+01  0.23946168412E+02  0.51100000000E-03 0. -1.
        -12    1    3    3    0    0  0.35950891805E+01 -0.94597314805E+01  0.18654126763E+02  0.21222338024E+02  0.00000000000E+00 0.  1.
</event>
<event>
 7    1  0.1891413E-013  0.7246156E+02  0.7816164E-02  0.1226708E+00
        -11   -1    0    0    0    0  0.00000000000E+00  0.00000000000E+00  0.45593999997E+02  0.45594000000E+02  0.51100000000E-03 0. -1.
         11   -1    0    0    0    0 -0.00000000000E+00 -0.00000000000E+00 -0.45593999997E+02  0.45594000000E+02  0.51100000000E-03 0.  1.
    9900012    2    1    2    0    0  0.89782909483E+01  0.10292564344E+02 -0.12811443880E+02  0.72461556573E+02  0.69999982126E+02 0.  0.
        -12    1    1    2    0    0 -0.89782909483E+01 -0.10292564344E+02  0.12811443880E+02  0.18726443427E+02  0.00000000000E+00 0.  1.
         11    1    3    3    0    0  0.22471643311E+02 -0.79200159513E+01  0.18599646799E+02  0.30226615210E+02  0.51100000000E-03 0. -1.
        -11    1    3    3    0    0  0.30237476075E+01  0.36395447277E+01 -0.12630771330E+01  0.48974176383E+01  0.51100000000E-03 0.  1.
         12    1    3    3    0    0 -0.16517099970E+02  0.14573035568E+02 -0.30148013546E+02  0.37337523724E+02  0.00000000000E+00 0. -1.
</event>
<event>
 7    1  0.1891413E-013  0.7246109E+02  0.7816164E-02  0.1226709E+00
        -11   -1    0    0    0    0  0.00000000000E+00  0.00000000000E+00  0.45593999997E+02  0.45594000000E+02  0.51100000000E-03 0. -1.
         11   -1    0    0    0    0 -0.00000000000E+00 -0.00000000000E+00 -0.45593999997E+02  0.45594000000E+02  0.51100000000E-03 0.  1.
    9900012    2    1    2    0    0  0.71933875011E+00 -0.74662408483E+01  0.17159106418E+02  0.72461090653E+02  0.69999375175E+02 0.  0.
        -12    1    1    2    0    0 -0.71933875011E+00  0.74662408483E+01 -0.17159106418E+02  0.18726909347E+02  0.00000000000E+00 0.  1.
         11    1    3    3    0    0 -0.37372431227E+01 -0.25834737733E+02  0.12392141909E+02  0.28895775491E+02  0.51100000000E-03 0. -1.
        -11    1    3    3    0    0  0.15981504755E+02 -0.46980708490E+01 -0.23327564714E+01  0.16820288849E+02  0.51100000000E-03 0.  1.
        -12    1    3    3    0    0 -0.11524922882E+02  0.23066567734E+02  0.70997209807E+01  0.26745026313E+02  0.00000000000E+00 0.  1.
</event>
<event>
 7    1  0.1891413E-013  0.7246155E+02  0.7816164E-02  0.1226708E+00
        -11   -1    0    0    0    0  0.00000000000E+00  0.00000000000E+00  0.45593999997E+02  0.45594000000E+02  0.51100000000E-03 0.  1.
         11   -1    0    0    0    0 -0.00000000000E+00 -0.00000000000E+00 -0.45593999997E+02  0.45594000000E+02  0.51100000000E-03 0. -1.
    9900012    2    1    2    0    0 -0.13000407080E+02 -0.13012310196E+02 -0.35141477194E+01  0.72461547184E+02  0.69999969894E+02 0.  0.
        -12    1    1    2    0    0  0.13000407080E+02  0.13012310196E+02  0.35141477194E+01  0.18726452816E+02  0.00000000000E+00 0.  1.
         11    1    3    3    0    0  0.64226302583E+01  0.22962643647E+01 -0.33820552616E+01  0.76132323964E+01  0.51100000000E-03 0.  1.
        -11    1    3    3    0    0 -0.16778825201E+02 -0.37558841141E+02  0.61116245669E+01  0.41587828485E+02  0.51100000000E-03 0. -1.
         12    1    3    3    0    0 -0.26442121375E+01  0.22250266580E+02 -0.62437170248E+01  0.23260486302E+02  0.00000000000E+00 0. -1.
</event>
<event>
 7    1  0.1891413E-013  0.7246158E+02  0.7816164E-02  0.1226708E+00
        -11   -1    0    0    0    0  0.00000000000E+00  0.00000000000E+00  0.45593999997E+02  0.45594000000E+02  0.51100000000E-03 0. -1.
         11   -1    0    0    0    0 -0.00000000000E+00 -0.00000000000E+00 -0.45593999997E+02  0.45594000000E+02  0.51100000000E-03 0.  1.
    9900012    2    1    2    0    0 -0.11117548253E+02  0.11109821024E+02  0.10180898108E+02  0.72461583134E+02  0.70000016726E+02 0.  0.
        -12    1    1    2    0    0  0.11117548253E+02 -0.11109821024E+02 -0.10180898108E+02  0.18726416866E+02  0.00000000000E+00 0.  1.
         11    1    3    3    0    0 -0.11394224880E+02 -0.61101690734E+01  0.12125461224E+01  0.12985869054E+02  0.51100000000E-03 0. -1.
        -11    1    3    3    0    0  0.21921701086E+02 -0.35387680592E+01  0.17525462202E+02  0.28288260525E+02  0.51100000000E-03 0.  1.
         12    1    3    3    0    0 -0.21645024459E+02  0.20758758156E+02 -0.85571102154E+01  0.31187453555E+02  0.00000000000E+00 0. -1.
</event>
<event>
 7    1  0.1891413E-013  0.7246156E+02  0.7816164E-02  0.1226708E+00
        -11   -1    0    0    0    0  0.00000000000E+00  0.00000000000E+00  0.45593999997E+02  0.45594000000E+02  0.51100000000E-03 0.  1.
         11   -1    0    0    0    0 -0.00000000000E+00 -0.00000000000E+00 -0.45593999997E+02  0.45594000000E+02  0.51100000000E-03 0. -1.
    9900012    2    1    2    0    0  0.11009793520E+02  0.13036697803E+02 -0.77141698311E+01  0.72461562561E+02  0.69999989926E+02 0.  0.
        -12    1    1    2    0    0 -0.11009793520E+02 -0.13036697803E+02  0.77141698311E+01  0.18726437439E+02  0.00000000000E+00 0.  1.
         11    1    3    3    0    0 -0.58990411206E+01  0.51929418462E+01  0.45349793094E+01  0.90736634696E+01  0.51100000000E-03 0. -1.
        -11    1    3    3    0    0 -0.28972662642E+01  0.27305310446E+02  0.84778969435E+01  0.28737586315E+02  0.51100000000E-03 0.  1.
         12    1    3    3    0    0  0.19806100905E+02 -0.19461554489E+02 -0.20727046084E+02  0.34650312777E+02  0.00000000000E+00 0. -1.
</event>
<event>
 7    1  0.1891413E-013  0.7246149E+02  0.7816164E-02  0.1226708E+00
        -11   -1    0    0    0    0  0.00000000000E+00  0.00000000000E+00  0.45593999997E+02  0.45594000000E+02  0.51100000000E-03 0. -1.
         11   -1    0    0    0    0 -0.00000000000E+00 -0.00000000000E+00 -0.45593999997E+02  0.45594000000E+02  0.51100000000E-03 0.  1.
    9900012    2    1    2    0    0  0.15226339330E+02 -0.10553484625E+02  0.27321530599E+01  0.72461491851E+02  0.69999897813E+02 0.  0.
        -12    1    1    2    0    0 -0.15226339330E+02  0.10553484625E+02 -0.27321530599E+01  0.18726508149E+02  0.00000000000E+00 0.  1.
         11    1    3    3    0    0  0.64461933734E+01  0.22097607858E+02  0.10701664868E+02  0.25384706287E+02  0.51100000000E-03 0. -1.
        -11    1    3    3    0    0  0.13072348077E+02 -0.13425354547E+02  0.92640901883E+01  0.20903344140E+02  0.51100000000E-03 0.  1.
        -12    1    3    3    0    0 -0.42922021206E+01 -0.19225737935E+02 -0.17233601997E+02  0.26173441424E+02  0.00000000000E+00 0.  1.
</event>
<event>
 7    1  0.1891413E-013  0.7246155E+02  0.7816164E-02  0.1226708E+00
        -11   -1    0    0    0    0  0.00000000000E+00  0.00000000000E+00  0.45593999997E+02  0.45594000000E+02  0.51100000000E-03 0. -1.
         11   -1    0    0    0    0 -0.00000000000E+00 -0.00000000000E+00 -0.45593999997E+02  0.45594000000E+02  0.51100000000E-03 0.  1.
    9900012    2    1    2    0    0 -0.55612899196E+01 -0.28234890651E+01  0.17657287162E+02  0.72461552766E+02  0.69999977166E+02 0.  0.
        -12    1    1    2    0    0  0.55612899196E+01  0.28234890651E+01 -0.17657287162E+02  0.18726447234E+02  0.00000000000E+00 0.  1.
         11    1    3    3    0    0 -0.12127423672E+02  0.17904567152E+02 -0.26284601509E+00  0.21626766242E+02  0.51100000000E-03 0. -1.
        -11    1    3    3    0    0 -0.70308399336E+01  0.49311578617E+01 -0.81283975056E+01  0.11824545416E+02  0.51100000000E-03 0.  1.
         12    1    3    3    0    0  0.13596973686E+02 -0.25659214079E+02  0.26048530683E+02  0.39010241108E+02  0.00000000000E+00 0. -1.
</event>
<event>
 7    1  0.1891413E-013  0.7246153E+02  0.7816164E-02  0.1226708E+00
        -11   -1    0    0    0    0  0.00000000000E+00  0.00000000000E+00  0.45593999997E+02  0.45594000000E+02  0.51100000000E-03 0.  1.
         11   -1    0    0    0    0 -0.00000000000E+00 -0.00000000000E+00 -0.45593999997E+02  0.45594000000E+02  0.51100000000E-03 0. -1.
    9900012    2    1    2    0    0  0.49924974075E+01  0.17150254490E+02 -0.56235435685E+01  0.72461534725E+02  0.69999953665E+02 0.  0.
        -12    1    1    2    0    0 -0.49924974075E+01 -0.17150254490E+02  0.56235435685E+01  0.18726465275E+02  0.00000000000E+00 0.  1.
         11    1    3    3    0    0  0.17369087567E+02  0.71894783332E+01 -0.15863377969E+02  0.24597165740E+02  0.51100000000E-03 0. -1.
        -11    1    3    3    0    0  0.73617981631E+01  0.15366920051E+02 -0.94336150008E+01  0.19476431816E+02  0.51100000000E-03 0.  1.
         12    1    3    3    0    0 -0.19738388322E+02 -0.54061438944E+01  0.19673449401E+02  0.28387937169E+02  0.00000000000E+00 0. -1.
</event>
<event>
 7    1  0.1891413E-013  0.7246127E+02  0.7816164E-02  0.1226709E+00
        -11   -1    0    0    0    0  0.00000000000E+00  0.00000000000E+00  0.45593999997E+02  0.45594000000E+02  0.51100000000E-03 0.  1.
         11   -1    0    0    0    0 -0.00000000000E+00 -0.00000000000E+00 -0.45593999997E+02  0.45594000000E+02  0.51100000000E-03 0. -1.
    9900012    2    1    2    0    0  0.40026645967E+01  0.17747039415E+02 -0.44397702703E+01  0.72461273326E+02  0.69999613142E+02 0.  0.
        -12    1    1    2    0    0 -0.40026645967E+01 -0.17747039415E+02  0.44397702703E+01  0.18726726674E+02  0.00000000000E+00 0.  1.
         11    1    3    3    0    0 -0.98507284208E+01  0.43872877811E+01  0.23957148133E+01  0.11046474289E+02  0.51100000000E-03 0. -1.
        -11    1    3    3    0    0 -0.95665788049E+01  0.22261253199E+02  0.14731166913E+02  0.28356482555E+02  0.51100000000E-03 0.  1.
         12    1    3    3    0    0  0.23419971822E+02 -0.89015015648E+01 -0.21566651996E+02  0.33058316482E+02  0.00000000000E+00 0. -1.
</event>
<event>
 7    1  0.1891413E-013  0.7246153E+02  0.7816164E-02  0.1226708E+00
        -11   -1    0    0    0    0  0.00000000000E+00  0.00000000000E+00  0.45593999997E+02  0.45594000000E+02  0.51100000000E-03 0.  1.
         11   -1    0    0    0    0 -0.00000000000E+00 -0.00000000000E+00 -0.45593999997E+02  0.45594000000E+02  0.51100000000E-03 0. -1.
    9900012    2    1    2    0    0  0.41567127038E+01  0.16337265935E+02 -0.81545209511E+01  0.72461528611E+02  0.69999945700E+02 0.  0.
        -12    1    1    2    0    0 -0.41567127038E+01 -0.16337265935E+02  0.81545209511E+01  0.18726471389E+02  0.00000000000E+00 0.  1.
         11    1    3    3    0    0 -0.88831317430E+01 -0.82086275393E+01  0.21557631309E+01  0.12285719783E+02  0.51100000000E-03 0. -1.
        -11    1    3    3    0    0 -0.19942041094E+02  0.11978234507E+02  0.48066302609E+00  0.23267877903E+02  0.51100000000E-03 0.  1.
        -12    1    3    3    0    0  0.32981885541E+02  0.12567658967E+02 -0.10790947108E+02  0.36907930926E+02  0.00000000000E+00 0.  1.
</event>
<event>
 7    1  0.1891413E-013  0.7246156E+02  0.7816164E-02  0.1226708E+00
        -11   -1    0    0    0    0  0.00000000000E+00  0.00000000000E+00  0.45593999997E+02  0.45594000000E+02  0.51100000000E-03 0.  1.
         11   -1    0    0    0    0 -0.00000000000E+00 -0.00000000000E+00 -0.45593999997E+02  0.45594000000E+02  0.51100000000E-03 0. -1.
    9900012    2    1    2    0    0 -0.10619162209E+02  0.15131990798E+02  0.29892693969E+01  0.72461561922E+02  0.69999989094E+02 0.  0.
        -12    1    1    2    0    0  0.10619162209E+02 -0.15131990798E+02 -0.29892693969E+01  0.18726438078E+02  0.00000000000E+00 0.  1.
         11    1    3    3    0    0  0.70528458159E+01  0.33651713009E+02  0.60026943833E+01  0.34902904788E+02  0.51100000000E-03 0. -1.
        -11    1    3    3    0    0  0.46722781629E+00 -0.43959258803E+00 -0.10777574974E+02  0.10796650687E+02  0.51100000000E-03 0.  1.
        -12    1    3    3    0    0 -0.18139235841E+02 -0.18080129622E+02  0.77641499874E+01  0.26762006447E+02  0.00000000000E+00 0.  1.
</event>
<event>
 7    1  0.1891413E-013  0.7246155E+02  0.7816164E-02  0.1226708E+00
        -11   -1    0    0    0    0  0.00000000000E+00  0.00000000000E+00  0.45593999997E+02  0.45594000000E+02  0.51100000000E-03 0. -1.
         11   -1    0    0    0    0 -0.00000000000E+00 -0.00000000000E+00 -0.45593999997E+02  0.45594000000E+02  0.51100000000E-03 0.  1.
    9900012    2    1    2    0    0  0.16322569030E+02 -0.38331850397E+01  0.83402790845E+01  0.72461552860E+02  0.69999977288E+02 0.  0.
        -12    1    1    2    0    0 -0.16322569030E+02  0.38331850397E+01 -0.83402790845E+01  0.18726447140E+02  0.00000000000E+00 0.  1.
         11    1    3    3    0    0 -0.12542538059E+02  0.25625856467E+01  0.22252623459E+02  0.25672190347E+02  0.51100000000E-03 0. -1.
        -11    1    3    3    0    0  0.40738388052E+01 -0.40566692855E+01  0.10466175726E+02  0.11941254662E+02  0.51100000000E-03 0.  1.
        -12    1    3    3    0    0  0.24791268284E+02 -0.23391014010E+01 -0.24378520101E+02  0.34848107851E+02  0.00000000000E+00 0.  1.
</event>
<event>
 7    1  0.1891413E-013  0.7246160E+02  0.7816164E-02  0.1226708E+00
        -11   -1    0    0    0    0  0.00000000000E+00  0.00000000000E+00  0.45593999997E+02  0.45594000000E+02  0.51100000000E-03 0. -1.
         11   -1    0    0    0    0 -0.00000000000E+00 -0.00000000000E+00 -0.45593999997E+02  0.45594000000E+02  0.51100000000E-03 0.  1.
    9900012    2    1    2    0    0  0.16191060998E+02 -0.70817902003E+01  0.61948265150E+01  0.72461599272E+02  0.70000037749E+02 0.  0.
        -12    1    1    2    0    0 -0.16191060998E+02  0.70817902003E+01 -0.61948265150E+01  0.18726400728E+02  0.00000000000E+00 0.  1.
         11    1    3    3    0    0 -0.11012502482E+01 -0.60484536032E+01  0.55905815261E+01  0.83097018696E+01  0.51100000000E-03 0. -1.
        -11    1    3    3    0    0 -0.42552834567E+01 -0.93059910535E+01 -0.26585345904E+02  0.28486655189E+02  0.51100000000E-03 0.  1.
         12    1    3    3    0    0  0.21547594703E+02  0.82726544564E+01  0.27189590893E+02  0.35665242213E+02  0.00000000000E+00 0. -1.
</event>
<event>
 7    1  0.1891413E-013  0.7246157E+02  0.7816164E-02  0.1226708E+00
        -11   -1    0    0    0    0  0.00000000000E+00  0.00000000000E+00  0.45593999997E+02  0.45594000000E+02  0.51100000000E-03 0. -1.
         11   -1    0    0    0    0 -0.00000000000E+00 -0.00000000000E+00 -0.45593999997E+02  0.45594000000E+02  0.51100000000E-03 0.  1.
    9900012    2    1    2    0    0 -0.19064407014E+01  0.17957116514E+02  0.49585016218E+01  0.72461567131E+02  0.69999995880E+02 0.  0.
        -12    1    1    2    0    0  0.19064407014E+01 -0.17957116514E+02 -0.49585016218E+01  0.18726432869E+02  0.00000000000E+00 0.  1.
         11    1    3    3    0    0  0.18986367193E+02 -0.39277549641E+01  0.15466294559E+02  0.24801525475E+02  0.51100000000E-03 0. -1.
        -11    1    3    3    0    0 -0.15816939553E+01 -0.88551417840E+01 -0.65814458274E+01  0.11145883600E+02  0.51100000000E-03 0.  1.
         12    1    3    3    0    0 -0.19311113939E+02  0.30740013262E+02 -0.39263471102E+01  0.36514158056E+02  0.00000000000E+00 0. -1.
</event>
<event>
 7    1  0.1891413E-013  0.7246158E+02  0.7816164E-02  0.1226708E+00
        -11   -1    0    0    0    0  0.00000000000E+00  0.00000000000E+00  0.45593999997E+02  0.45594000000E+02  0.51100000000E-03 0.  1.
         11   -1    0    0    0    0 -0.00000000000E+00 -0.00000000000E+00 -0.45593999997E+02  0.45594000000E+02  0.51100000000E-03 0. -1.
    9900012    2    1    2    0    0 -0.64851036012E+01  0.16426700272E+02 -0.62278078949E+01  0.72461584387E+02  0.70000018358E+02 0.  0.
        -12    1    1    2    0    0  0.64851036012E+01 -0.16426700272E+02  0.62278078949E+01  0.18726415613E+02  0.00000000000E+00 0.  1.
         11    1    3    3    0    0  0.23282213010E+02  0.76968225634E+01  0.62235348008E+01  0.25298911160E+02  0.51100000000E-03 0. -1.
        -11    1    3    3    0    0  0.58451396523E+01 -0.38638840943E+01 -0.51350270437E+01  0.86869880194E+01  0.51100000000E-03 0.  1.
        -12    1    3    3    0    0 -0.35612456263E+02  0.12593761803E+02 -0.73163156520E+01  0.38475685207E+02  0.00000000000E+00 0.  1.
</event>
<event>
 7    1  0.1891413E-013  0.7246152E+02  0.7816164E-02  0.1226708E+00
        -11   -1    0    0    0    0  0.00000000000E+00  0.00000000000E+00  0.45593999997E+02  0.45594000000E+02  0.51100000000E-03 0. -1.
         11   -1    0    0    0    0 -0.00000000000E+00 -0.00000000000E+00 -0.45593999997E+02  0.45594000000E+02  0.51100000000E-03 0.  1.
    9900012    2    1    2    0    0 -0.90447521423E+01  0.90964153738E+01 -0.13642899119E+02  0.72461521144E+02  0.69999935973E+02 0.  0.
        -12    1    1    2    0    0  0.90447521423E+01 -0.90964153738E+01  0.13642899119E+02  0.18726478856E+02  0.00000000000E+00 0.  1.
         11    1    3    3    0    0  0.31073901618E+01  0.68532461438E+01 -0.72721610876E+01  0.10464568002E+02  0.51100000000E-03 0. -1.
        -11    1    3    3    0    0 -0.98306418245E+01  0.22641575817E+02 -0.24375142940E+02  0.34690489587E+02  0.51100000000E-03 0.  1.
         12    1    3    3    0    0 -0.23215004796E+01 -0.20398406587E+02  0.18004404909E+02  0.27306463555E+02  0.00000000000E+00 0. -1.
</event>
<event>
 7    1  0.1891413E-013  0.7246171E+02  0.7816164E-02  0.1226708E+00
        -11   -1    0    0    0    0  0.00000000000E+00  0.00000000000E+00  0.45593999997E+02  0.45594000000E+02  0.51100000000E-03 0.  1.
         11   -1    0    0    0    0 -0.00000000000E+00 -0.00000000000E+00 -0.45593999997E+02  0.45594000000E+02  0.51100000000E-03 0. -1.
    9900012    2    1    2    0    0 -0.32854173118E+01 -0.70071398234E+00 -0.18422509290E+02  0.72461713248E+02  0.70000186223E+02 0.  0.
        -12    1    1    2    0    0  0.32854173118E+01  0.70071398234E+00  0.18422509290E+02  0.18726286752E+02  0.00000000000E+00 0.  1.
         11    1    3    3    0    0 -0.32507568963E+01  0.95653900713E+01 -0.93786909486E+00  0.10146117795E+02  0.51100000000E-03 0. -1.
        -11    1    3    3    0    0  0.20139395007E+02 -0.51404097042E+01 -0.31126669080E+02  0.37428446020E+02  0.51100000000E-03 0.  1.
         12    1    3    3    0    0 -0.20174055423E+02 -0.51256943495E+01  0.13642028885E+02  0.24887149432E+02  0.00000000000E+00 0. -1.
</event>
<event>
 7    1  0.1891413E-013  0.7246112E+02  0.7816164E-02  0.1226709E+00
        -11   -1    0    0    0    0  0.00000000000E+00  0.00000000000E+00  0.45593999997E+02  0.45594000000E+02  0.51100000000E-03 0.  1.
         11   -1    0    0    0    0 -0.00000000000E+00 -0.00000000000E+00 -0.45593999997E+02  0.45594000000E+02  0.51100000000E-03 0. -1.
    9900012    2    1    2    0    0 -0.16166438694E+02 -0.18003670352E+01  0.92790561271E+01  0.72461122414E+02  0.69999416550E+02 0.  0.
        -12    1    1    2    0    0  0.16166438694E+02  0.18003670352E+01 -0.92790561271E+01  0.18726877586E+02  0.00000000000E+00 0.  1.
         11    1    3    3    0    0 -0.40406546099E+01 -0.65313916070E+00  0.23028988563E+01  0.46964692955E+01  0.51100000000E-03 0. -1.
        -11    1    3    3    0    0 -0.13984663016E+02  0.21456441203E+02  0.27212291990E+02  0.37369218675E+02  0.51100000000E-03 0.  1.
         12    1    3    3    0    0  0.18588789322E+01 -0.22603669077E+02 -0.20236134719E+02  0.30395434444E+02  0.00000000000E+00 0. -1.
</event>
<event>
 7    1  0.1891413E-013  0.7246150E+02  0.7816164E-02  0.1226708E+00
        -11   -1    0    0    0    0  0.00000000000E+00  0.00000000000E+00  0.45593999997E+02  0.45594000000E+02  0.51100000000E-03 0.  1.
         11   -1    0    0    0    0 -0.00000000000E+00 -0.00000000000E+00 -0.45593999997E+02  0.45594000000E+02  0.51100000000E-03 0. -1.
    9900012    2    1    2    0    0 -0.78032467279E+01  0.71623447964E+01 -0.15443187352E+02  0.72461497976E+02  0.69999905792E+02 0.  0.
        -12    1    1    2    0    0  0.78032467279E+01 -0.71623447964E+01  0.15443187352E+02  0.18726502024E+02  0.00000000000E+00 0.  1.
         11    1    3    3    0    0 -0.35925875514E+00  0.71785818672E+01  0.12004960970E+02  0.13992147534E+02  0.51100000000E-03 0. -1.
        -11    1    3    3    0    0 -0.67300639170E+01  0.11539385704E+02  0.11630255325E+02  0.17711973971E+02  0.51100000000E-03 0.  1.
         12    1    3    3    0    0 -0.71392405585E+00 -0.11555622775E+02 -0.39078403646E+02  0.40757376471E+02  0.00000000000E+00 0. -1.
</event>
<event>
 7    1  0.1891413E-013  0.7246152E+02  0.7816164E-02  0.1226708E+00
        -11   -1    0    0    0    0  0.00000000000E+00  0.00000000000E+00  0.45593999997E+02  0.45594000000E+02  0.51100000000E-03 0. -1.
         11   -1    0    0    0    0 -0.00000000000E+00 -0.00000000000E+00 -0.45593999997E+02  0.45594000000E+02  0.51100000000E-03 0.  1.
    9900012    2    1    2    0    0  0.42661842537E+01 -0.95996797541E+01  0.15502476130E+02  0.72461522872E+02  0.69999938223E+02 0.  0.
        -12    1    1    2    0    0 -0.42661842537E+01  0.95996797541E+01 -0.15502476130E+02  0.18726477128E+02  0.00000000000E+00 0.  1.
         11    1    3    3    0    0 -0.11979541882E+01  0.60499074762E+01 -0.17210070327E+02  0.18281766754E+02  0.51100000000E-03 0. -1.
        -11    1    3    3    0    0 -0.68595640254E+00  0.92319292772E+01 -0.34294768583E+01  0.98722016869E+01  0.51100000000E-03 0.  1.
         12    1    3    3    0    0  0.61500948444E+01 -0.24881516508E+02  0.36142023316E+02  0.44307554431E+02  0.00000000000E+00 0. -1.
</event>
<event>
 7    1  0.1891413E-013  0.7246158E+02  0.7816164E-02  0.1226708E+00
        -11   -1    0    0    0    0  0.00000000000E+00  0.00000000000E+00  0.45593999997E+02  0.45594000000E+02  0.51100000000E-03 0.  1.
         11   -1    0    0    0    0 -0.00000000000E+00 -0.00000000000E+00 -0.45593999997E+02  0.45594000000E+02  0.51100000000E-03 0. -1.
    9900012    2    1    2    0    0 -0.12856706786E+02 -0.85090585373E+01  0.10629200346E+02  0.72461577849E+02  0.70000009842E+02 0.  0.
        -12    1    1    2    0    0  0.12856706786E+02  0.85090585373E+01 -0.10629200346E+02  0.18726422151E+02  0.00000000000E+00 0.  1.
         11    1    3    3    0    0 -0.28762501212E+02 -0.22709763237E+02  0.90782821483E+01  0.37754867624E+02  0.51100000000E-03 0. -1.
        -11    1    3    3    0    0 -0.12479118818E+01  0.55003908242E+01  0.11678640598E+02  0.12969280233E+02  0.51100000000E-03 0.  1.
        -12    1    3    3    0    0  0.17153706308E+02  0.87003138758E+01 -0.10127722401E+02  0.21737429992E+02  0.00000000000E+00 0.  1.
</event>
<event>
 7    1  0.1891413E-013  0.7246151E+02  0.7816164E-02  0.1226708E+00
        -11   -1    0    0    0    0  0.00000000000E+00  0.00000000000E+00  0.45593999997E+02  0.45594000000E+02  0.51100000000E-03 0.  1.
         11   -1    0    0    0    0 -0.00000000000E+00 -0.00000000000E+00 -0.45593999997E+02  0.45594000000E+02  0.51100000000E-03 0. -1.
    9900012    2    1    2    0    0  0.17737136871E+02 -0.55959732951E+01 -0.21818669560E+01  0.72461508473E+02  0.69999919466E+02 0.  0.
        -12    1    1    2    0    0 -0.17737136871E+02  0.55959732951E+01  0.21818669560E+01  0.18726491527E+02  0.00000000000E+00 0.  1.
         11    1    3    3    0    0  0.21571284525E+02  0.96480402758E+01  0.15123652692E+02  0.28055834834E+02  0.51100000000E-03 0.  1.
        -11    1    3    3    0    0  0.87853169851E+01 -0.23623625810E+02 -0.14245245545E+02  0.28951416405E+02  0.51100000000E-03 0. -1.
        -12    1    3    3    0    0 -0.12619464640E+02  0.83796122393E+01 -0.30602741034E+01  0.15454257234E+02  0.00000000000E+00 0.  1.
</event>
<event>
 7    1  0.1891413E-013  0.7246170E+02  0.7816164E-02  0.1226708E+00
        -11   -1    0    0    0    0  0.00000000000E+00  0.00000000000E+00  0.45593999997E+02  0.45594000000E+02  0.51100000000E-03 0.  1.
         11   -1    0    0    0    0 -0.00000000000E+00 -0.00000000000E+00 -0.45593999997E+02  0.45594000000E+02  0.51100000000E-03 0. -1.
    9900012    2    1    2    0    0  0.15559203417E+01 -0.34465649938E+01 -0.18340521262E+02  0.72461697148E+02  0.70000165250E+02 0.  0.
        -12    1    1    2    0    0 -0.15559203417E+01  0.34465649938E+01  0.18340521262E+02  0.18726302852E+02  0.00000000000E+00 0.  1.
         11    1    3    3    0    0 -0.56592116398E+01  0.25993381166E+01 -0.12437394709E+02  0.13909422074E+02  0.51100000000E-03 0. -1.
        -11    1    3    3    0    0  0.63112404305E+01  0.23639824477E+02  0.80234027115E+01  0.25749719385E+02  0.51100000000E-03 0.  1.
         12    1    3    3    0    0  0.90389155095E+00 -0.29685727588E+02 -0.13926529264E+02  0.32802555688E+02  0.00000000000E+00 0. -1.
</event>
<event>
 7    1  0.1891413E-013  0.7246157E+02  0.7816164E-02  0.1226708E+00
        -11   -1    0    0    0    0  0.00000000000E+00  0.00000000000E+00  0.45593999997E+02  0.45594000000E+02  0.51100000000E-03 0. -1.
         11   -1    0    0    0    0 -0.00000000000E+00 -0.00000000000E+00 -0.45593999997E+02  0.45594000000E+02  0.51100000000E-03 0.  1.
    9900012    2    1    2    0    0  0.19346257731E+01 -0.14691311729E+02  0.11449965668E+02  0.72461571323E+02  0.70000001340E+02 0.  0.
        -12    1    1    2    0    0 -0.19346257731E+01  0.14691311729E+02 -0.11449965668E+02  0.18726428677E+02  0.00000000000E+00 0.  1.
         11    1    3    3    0    0  0.41176627788E+01  0.54842950771E+01  0.25446451560E+02  0.26354402602E+02  0.51100000000E-03 0. -1.
        -11    1    3    3    0    0 -0.12692619527E+02  0.69210865239E+01 -0.76604136298E+01  0.16361111404E+02  0.51100000000E-03 0.  1.
        -12    1    3    3    0    0  0.10509582522E+02 -0.27096693330E+02 -0.63360722624E+01  0.29746057317E+02  0.00000000000E+00 0.  1.
</event>
<event>
 7    1  0.1891413E-013  0.7246157E+02  0.7816164E-02  0.1226708E+00
        -11   -1    0    0    0    0  0.00000000000E+00  0.00000000000E+00  0.45593999997E+02  0.45594000000E+02  0.51100000000E-03 0.  1.
         11   -1    0    0    0    0 -0.00000000000E+00 -0.00000000000E+00 -0.45593999997E+02  0.45594000000E+02  0.51100000000E-03 0. -1.
    9900012    2    1    2    0    0 -0.93548589110E+01  0.14521446100E+00 -0.16221737124E+02  0.72461568738E+02  0.69999997973E+02 0.  0.
        -12    1    1    2    0    0  0.93548589110E+01 -0.14521446100E+00  0.16221737124E+02  0.18726431262E+02  0.00000000000E+00 0.  1.
         11    1    3    3    0    0 -0.11428067301E+02  0.18523639928E+02  0.18680524336E+02  0.28682537338E+02  0.51100000000E-03 0. -1.
        -11    1    3    3    0    0 -0.19571768148E+01  0.35370318414E+01 -0.68470345886E+01  0.79512903513E+01  0.51100000000E-03 0.  1.
        -12    1    3    3    0    0  0.40303852047E+01 -0.21915457308E+02 -0.28055226871E+02  0.35827741049E+02  0.00000000000E+00 0.  1.
</event>
<event>
 7    1  0.1891413E-013  0.7246172E+02  0.7816164E-02  0.1226708E+00
        -11   -1    0    0    0    0  0.00000000000E+00  0.00000000000E+00  0.45593999997E+02  0.45594000000E+02  0.51100000000E-03 0.  1.
         11   -1    0    0    0    0 -0.00000000000E+00 -0.00000000000E+00 -0.45593999997E+02  0.45594000000E+02  0.51100000000E-03 0. -1.
    9900012    2    1    2    0    0 -0.56594893144E+01 -0.66152244898E+01 -0.16579576743E+02  0.72461724894E+02  0.70000201395E+02 0.  0.
        -12    1    1    2    0    0  0.56594893144E+01  0.66152244898E+01  0.16579576743E+02  0.18726275106E+02  0.00000000000E+00 0.  1.
         11    1    3    3    0    0  0.74891652967E+01 -0.22560546224E+02 -0.97493021981E+01  0.25692698114E+02  0.51100000000E-03 0. -1.
        -11    1    3    3    0    0  0.94830488133E+01 -0.26820788488E+01  0.90950607838E+01  0.13410514258E+02  0.51100000000E-03 0.  1.
         12    1    3    3    0    0 -0.22631703424E+02  0.18627400583E+02 -0.15925335329E+02  0.33358512522E+02  0.00000000000E+00 0. -1.
</event>
<event>
 7    1  0.1891413E-013  0.7246157E+02  0.7816164E-02  0.1226708E+00
        -11   -1    0    0    0    0  0.00000000000E+00  0.00000000000E+00  0.45593999997E+02  0.45594000000E+02  0.51100000000E-03 0.  1.
         11   -1    0    0    0    0 -0.00000000000E+00 -0.00000000000E+00 -0.45593999997E+02  0.45594000000E+02  0.51100000000E-03 0. -1.
    9900012    2    1    2    0    0  0.17725325739E+02 -0.56178159556E+01  0.22208782663E+01  0.72461566038E+02  0.69999994455E+02 0.  0.
        -12    1    1    2    0    0 -0.17725325739E+02  0.56178159556E+01 -0.22208782663E+01  0.18726433962E+02  0.00000000000E+00 0.  1.
         11    1    3    3    0    0  0.18799568270E+02 -0.10015561898E+02 -0.34966273091E+01  0.21586144863E+02  0.51100000000E-03 0. -1.
        -11    1    3    3    0    0  0.19723380831E+02  0.16798996082E+02  0.62662649470E+01  0.26654907567E+02  0.51100000000E-03 0.  1.
         12    1    3    3    0    0 -0.20797623362E+02 -0.12401250140E+02 -0.54875937157E+00  0.24220513607E+02  0.00000000000E+00 0. -1.
</event>
<event>
 7    1  0.1891413E-013  0.7246160E+02  0.7816164E-02  0.1226708E+00
        -11   -1    0    0    0    0  0.00000000000E+00  0.00000000000E+00  0.45593999997E+02  0.45594000000E+02  0.51100000000E-03 0.  1.
         11   -1    0    0    0    0 -0.00000000000E+00 -0.00000000000E+00 -0.45593999997E+02  0.45594000000E+02  0.51100000000E-03 0. -1.
    9900012    2    1    2    0    0  0.10730630903E+02 -0.50765232965E+00 -0.15338640815E+02  0.72461600119E+02  0.70000038852E+02 0.  0.
        -12    1    1    2    0    0 -0.10730630903E+02  0.50765232965E+00  0.15338640815E+02  0.18726399881E+02  0.00000000000E+00 0.  1.
         11    1    3    3    0    0  0.15647639450E+02 -0.90834971038E+01 -0.25576374997E+02  0.31329051984E+02  0.51100000000E-03 0. -1.
        -11    1    3    3    0    0  0.12514243236E+02  0.32248307425E+01 -0.81165338623E+01  0.15260535354E+02  0.51100000000E-03 0.  1.
        -12    1    3    3    0    0 -0.17431251783E+02  0.53510140317E+01  0.18354268044E+02  0.25872012781E+02  0.00000000000E+00 0.  1.
</event>
<event>
 7    1  0.1891413E-013  0.7246158E+02  0.7816164E-02  0.1226708E+00
        -11   -1    0    0    0    0  0.00000000000E+00  0.00000000000E+00  0.45593999997E+02  0.45594000000E+02  0.51100000000E-03 0.  1.
         11   -1    0    0    0    0 -0.00000000000E+00 -0.00000000000E+00 -0.45593999997E+02  0.45594000000E+02  0.51100000000E-03 0. -1.
    9900012    2    1    2    0    0  0.17248519055E+02 -0.52901395646E+01 -0.50181403447E+01  0.72461582331E+02  0.70000015680E+02 0.  0.
        -12    1    1    2    0    0 -0.17248519055E+02  0.52901395646E+01  0.50181403447E+01  0.18726417669E+02  0.00000000000E+00 0.  1.
         11    1    3    3    0    0  0.39430936242E+02  0.12258283716E+02  0.34406567334E+01  0.41435520651E+02  0.51100000000E-03 0. -1.
        -11    1    3    3    0    0 -0.52099052204E+01 -0.29837302629E+01  0.20110144187E+01  0.63316615466E+01  0.51100000000E-03 0.  1.
        -12    1    3    3    0    0 -0.16972511967E+02 -0.14564693018E+02 -0.10469811497E+02  0.24694400134E+02  0.00000000000E+00 0.  1.
</event>
<event>
 7    1  0.1891413E-013  0.7246143E+02  0.7816164E-02  0.1226708E+00
        -11   -1    0    0    0    0  0.00000000000E+00  0.00000000000E+00  0.45593999997E+02  0.45594000000E+02  0.51100000000E-03 0. -1.
         11   -1    0    0    0    0 -0.00000000000E+00 -0.00000000000E+00 -0.45593999997E+02  0.45594000000E+02  0.51100000000E-03 0.  1.
    9900012    2    1    2    0    0 -0.26759983921E+01  0.10820758037E+02  0.15047751543E+02  0.72461425343E+02  0.69999811173E+02 0.  0.
        -12    1    1    2    0    0  0.26759983921E+01 -0.10820758037E+02 -0.15047751543E+02  0.18726574657E+02  0.00000000000E+00 0.  1.
         11    1    3    3    0    0 -0.22226304840E+02 -0.16579255443E+02  0.21851746317E+02  0.35304095446E+02  0.51100000000E-03 0. -1.
        -11    1    3    3    0    0  0.72410695703E+01  0.97654936732E+01 -0.95733694401E+01  0.15474086658E+02  0.51100000000E-03 0.  1.
        -12    1    3    3    0    0  0.12309236877E+02  0.17634519807E+02  0.27693746665E+01  0.21683243239E+02  0.00000000000E+00 0.  1.
</event>
<event>
 7    1  0.1891413E-013  0.7246130E+02  0.7816164E-02  0.1226709E+00
        -11   -1    0    0    0    0  0.00000000000E+00  0.00000000000E+00  0.45593999997E+02  0.45594000000E+02  0.51100000000E-03 0. -1.
         11   -1    0    0    0    0 -0.00000000000E+00 -0.00000000000E+00 -0.45593999997E+02  0.45594000000E+02  0.51100000000E-03 0.  1.
    9900012    2    1    2    0    0  0.77405139628E+01  0.11957490713E+02  0.12156979040E+02  0.72461300346E+02  0.69999648341E+02 0.  0.
        -12    1    1    2    0    0 -0.77405139628E+01 -0.11957490713E+02 -0.12156979040E+02  0.18726699654E+02  0.00000000000E+00 0.  1.
         11    1    3    3    0    0  0.17375870211E+02 -0.11932373996E+02 -0.17789491839E+02  0.27582031015E+02  0.51100000000E-03 0. -1.
        -11    1    3    3    0    0 -0.26251991945E+01  0.50704293194E+01 -0.28815206663E+01  0.63956302196E+01  0.51100000000E-03 0.  1.
        -12    1    3    3    0    0 -0.70101570541E+01  0.18819435390E+02  0.32827991545E+02  0.38483639111E+02  0.00000000000E+00 0.  1.
</event>
<event>
 7    1  0.1891413E-013  0.7246155E+02  0.7816164E-02  0.1226708E+00
        -11   -1    0    0    0    0  0.00000000000E+00  0.00000000000E+00  0.45593999997E+02  0.45594000000E+02  0.51100000000E-03 0.  1.
         11   -1    0    0    0    0 -0.00000000000E+00 -0.00000000000E+00 -0.45593999997E+02  0.45594000000E+02  0.51100000000E-03 0. -1.
    9900012    2    1    2    0    0 -0.79223095247E+01  0.13241193175E+01 -0.16916368463E+02  0.72461553403E+02  0.69999977996E+02 0.  0.
        -12    1    1    2    0    0  0.79223095247E+01 -0.13241193175E+01  0.16916368463E+02  0.18726446597E+02  0.00000000000E+00 0.  1.
         11    1    3    3    0    0 -0.38746309885E+01 -0.20329176159E+02 -0.14499179582E+02  0.25268842028E+02  0.51100000000E-03 0. -1.
        -11    1    3    3    0    0 -0.28938425205E+01 -0.10805754282E+02  0.72192696990E+01  0.13313771269E+02  0.51100000000E-03 0.  1.
        -12    1    3    3    0    0 -0.11538360156E+01  0.32459049759E+02 -0.96364585799E+01  0.33878940107E+02  0.00000000000E+00 0.  1.
</event>
<event>
 7    1  0.1891413E-013  0.7246162E+02  0.7816164E-02  0.1226708E+00
        -11   -1    0    0    0    0  0.00000000000E+00  0.00000000000E+00  0.45593999997E+02  0.45594000000E+02  0.51100000000E-03 0.  1.
         11   -1    0    0    0    0 -0.00000000000E+00 -0.00000000000E+00 -0.45593999997E+02  0.45594000000E+02  0.51100000000E-03 0. -1.
    9900012    2    1    2    0    0 -0.92931798893E+01  0.11854037151E+02 -0.11126357940E+02  0.72461622074E+02  0.70000067452E+02 0.  0.
        -12    1    1    2    0    0  0.92931798893E+01 -0.11854037151E+02  0.11126357940E+02  0.18726377926E+02  0.00000000000E+00 0.  1.
         11    1    3    3    0    0 -0.13463353760E+02 -0.37435820025E+01  0.11409391668E+02  0.18040247204E+02  0.51100000000E-03 0. -1.
        -11    1    3    3    0    0  0.15591057892E+02  0.25619645445E+02 -0.36958287983E+01  0.30217651624E+02  0.51100000000E-03 0.  1.
         12    1    3    3    0    0 -0.11420884021E+02 -0.10022026291E+02 -0.18839920810E+02  0.24203723245E+02  0.00000000000E+00 0. -1.
</event>
<event>
 7    1  0.1891413E-013  0.7246156E+02  0.7816164E-02  0.1226708E+00
        -11   -1    0    0    0    0  0.00000000000E+00  0.00000000000E+00  0.45593999997E+02  0.45594000000E+02  0.51100000000E-03 0.  1.
         11   -1    0    0    0    0 -0.00000000000E+00 -0.00000000000E+00 -0.45593999997E+02  0.45594000000E+02  0.51100000000E-03 0. -1.
    9900012    2    1    2    0    0  0.12384429917E+02 -0.96103061673E+01 -0.10244383628E+02  0.72461561873E+02  0.69999989030E+02 0.  0.
        -12    1    1    2    0    0 -0.12384429917E+02  0.96103061673E+01  0.10244383628E+02  0.18726438127E+02  0.00000000000E+00 0.  1.
         11    1    3    3    0    0 -0.17718339869E+02 -0.10337557010E+02 -0.86051563153E+01  0.22245299911E+02  0.51100000000E-03 0. -1.
        -11    1    3    3    0    0  0.15607407536E+02  0.20315379931E+02  0.14142556730E+01  0.25657473591E+02  0.51100000000E-03 0.  1.
        -12    1    3    3    0    0  0.14495362249E+02 -0.19588129088E+02 -0.30534829860E+01  0.24558788371E+02  0.00000000000E+00 0.  1.
</event>
<event>
 7    1  0.1891413E-013  0.7246159E+02  0.7816164E-02  0.1226708E+00
        -11   -1    0    0    0    0  0.00000000000E+00  0.00000000000E+00  0.45593999997E+02  0.45594000000E+02  0.51100000000E-03 0. -1.
         11   -1    0    0    0    0 -0.00000000000E+00 -0.00000000000E+00 -0.45593999997E+02  0.45594000000E+02  0.51100000000E-03 0.  1.
    9900012    2    1    2    0    0  0.81078276724E+01 -0.13555383642E+02 -0.10059480562E+02  0.72461589655E+02  0.70000025221E+02 0.  0.
        -12    1    1    2    0    0 -0.81078276724E+01  0.13555383642E+02  0.10059480562E+02  0.18726410345E+02  0.00000000000E+00 0.  1.
         11    1    3    3    0    0 -0.15581618236E+01  0.14943577574E+02  0.33866971559E+01  0.15401561507E+02  0.51100000000E-03 0. -1.
        -11    1    3    3    0    0  0.15844609139E+02 -0.26586613441E+01 -0.23657017979E+02  0.28596758887E+02  0.51100000000E-03 0.  1.
         12    1    3    3    0    0 -0.61786196428E+01 -0.25840299872E+02  0.10210840262E+02  0.28463269261E+02  0.00000000000E+00 0. -1.
</event>
<event>
 7    1  0.1891413E-013  0.7246159E+02  0.7816164E-02  0.1226708E+00
        -11   -1    0    0    0    0  0.00000000000E+00  0.00000000000E+00  0.45593999997E+02  0.45594000000E+02  0.51100000000E-03 0.  1.
         11   -1    0    0    0    0 -0.00000000000E+00 -0.00000000000E+00 -0.45593999997E+02  0.45594000000E+02  0.51100000000E-03 0. -1.
    9900012    2    1    2    0    0  0.17059951330E+02  0.40003473294E+01 -0.66055862188E+01  0.72461588506E+02  0.70000023724E+02 0.  0.
        -12    1    1    2    0    0 -0.17059951330E+02 -0.40003473294E+01  0.66055862188E+01  0.18726411494E+02  0.00000000000E+00 0.  1.
         11    1    3    3    0    0  0.71168750985E+01  0.53949314263E+00  0.17364250745E+02  0.18773869292E+02  0.51100000000E-03 0. -1.
        -11    1    3    3    0    0 -0.13665600956E+02  0.27942398896E+01  0.62907455638E+01  0.15301304064E+02  0.51100000000E-03 0.  1.
         12    1    3    3    0    0  0.23608677187E+02  0.66661429718E+00 -0.30260582527E+02  0.38386415150E+02  0.00000000000E+00 0. -1.
</event>
<event>
 7    1  0.1891413E-013  0.7246158E+02  0.7816164E-02  0.1226708E+00
        -11   -1    0    0    0    0  0.00000000000E+00  0.00000000000E+00  0.45593999997E+02  0.45594000000E+02  0.51100000000E-03 0. -1.
         11   -1    0    0    0    0 -0.00000000000E+00 -0.00000000000E+00 -0.45593999997E+02  0.45594000000E+02  0.51100000000E-03 0.  1.
    9900012    2    1    2    0    0  0.50219635663E+01  0.16069007424E+02  0.82003488174E+01  0.72461579136E+02  0.70000011518E+02 0.  0.
        -12    1    1    2    0    0 -0.50219635663E+01 -0.16069007424E+02 -0.82003488174E+01  0.18726420864E+02  0.00000000000E+00 0.  1.
         11    1    3    3    0    0  0.16414762847E+02  0.92822667485E+01  0.15753836946E+02  0.24572103982E+02  0.51100000000E-03 0. -1.
        -11    1    3    3    0    0 -0.23790014415E+02 -0.57819036007E+01  0.64933279922E+01  0.25329005187E+02  0.51100000000E-03 0.  1.
        -12    1    3    3    0    0  0.12397215134E+02  0.12568644276E+02 -0.14046816121E+02  0.22560469967E+02  0.00000000000E+00 0.  1.
</event>
<event>
 7    1  0.1891413E-013  0.7246167E+02  0.7816164E-02  0.1226708E+00
        -11   -1    0    0    0    0  0.00000000000E+00  0.00000000000E+00  0.45593999997E+02  0.45594000000E+02  0.51100000000E-03 0.  1.
         11   -1    0    0    0    0 -0.00000000000E+00 -0.00000000000E+00 -0.45593999997E+02  0.45594000000E+02  0.51100000000E-03 0. -1.
    9900012    2    1    2    0    0  0.16709742168E+02 -0.84388758032E+01  0.49538042414E+00  0.72461668007E+02  0.70000127288E+02 0.  0.
        -12    1    1    2    0    0 -0.16709742168E+02  0.84388758032E+01 -0.49538042414E+00  0.18726331993E+02  0.00000000000E+00 0.  1.
         11    1    3    3    0    0  0.16547484576E+02 -0.11065090987E+02  0.11406894758E+02  0.22942814401E+02  0.51100000000E-03 0. -1.
        -11    1    3    3    0    0 -0.51441602266E+00 -0.11871275790E+02  0.15411260589E+02  0.19460184118E+02  0.51100000000E-03 0.  1.
         12    1    3    3    0    0  0.67667361475E+00  0.14497490973E+02 -0.26322774923E+02  0.30058669487E+02  0.00000000000E+00 0. -1.
</event>
<event>
 7    1  0.1891413E-013  0.7246154E+02  0.7816164E-02  0.1226708E+00
        -11   -1    0    0    0    0  0.00000000000E+00  0.00000000000E+00  0.45593999997E+02  0.45594000000E+02  0.51100000000E-03 0.  1.
         11   -1    0    0    0    0 -0.00000000000E+00 -0.00000000000E+00 -0.45593999997E+02  0.45594000000E+02  0.51100000000E-03 0. -1.
    9900012    2    1    2    0    0 -0.61368541859E+01  0.17198155242E+02 -0.41524492181E+01  0.72461538575E+02  0.69999958679E+02 0.  0.
        -12    1    1    2    0    0  0.61368541859E+01 -0.17198155242E+02  0.41524492181E+01  0.18726461425E+02  0.00000000000E+00 0.  1.
         11    1    3    3    0    0 -0.23963847585E+02  0.17557272495E+02 -0.47678720497E+01  0.30087479334E+02  0.51100000000E-03 0. -1.
        -11    1    3    3    0    0  0.20950630311E+02  0.15282917904E+02 -0.27309649524E+01  0.26075940250E+02  0.51100000000E-03 0.  1.
         12    1    3    3    0    0 -0.31236369125E+01 -0.15642035157E+02  0.33463877840E+01  0.16298118990E+02  0.00000000000E+00 0. -1.
</event>
<event>
 7    1  0.1891413E-013  0.7246159E+02  0.7816164E-02  0.1226708E+00
        -11   -1    0    0    0    0  0.00000000000E+00  0.00000000000E+00  0.45593999997E+02  0.45594000000E+02  0.51100000000E-03 0. -1.
         11   -1    0    0    0    0 -0.00000000000E+00 -0.00000000000E+00 -0.45593999997E+02  0.45594000000E+02  0.51100000000E-03 0.  1.
    9900012    2    1    2    0    0  0.60826551446E+01 -0.17615939660E+02  0.18325765716E+01  0.72461591893E+02  0.70000028136E+02 0.  0.
        -12    1    1    2    0    0 -0.60826551446E+01  0.17615939660E+02 -0.18325765716E+01  0.18726408107E+02  0.00000000000E+00 0.  1.
         11    1    3    3    0    0  0.18731988174E+02 -0.23163396496E+01  0.62998448553E+01  0.19898262632E+02  0.51100000000E-03 0. -1.
        -11    1    3    3    0    0 -0.16760448488E+02 -0.31857460895E+01  0.19184877611E+02  0.25673354687E+02  0.51100000000E-03 0.  1.
         12    1    3    3    0    0  0.41111154590E+01 -0.12113853921E+02 -0.23652145895E+02  0.26889974573E+02  0.00000000000E+00 0. -1.
</event>
<event>
 7    1  0.1891413E-013  0.7246160E+02  0.7816164E-02  0.1226708E+00
        -11   -1    0    0    0    0  0.00000000000E+00  0.00000000000E+00  0.45593999997E+02  0.45594000000E+02  0.51100000000E-03 0.  1.
         11   -1    0    0    0    0 -0.00000000000E+00 -0.00000000000E+00 -0.45593999997E+02  0.45594000000E+02  0.51100000000E-03 0. -1.
    9900012    2    1    2    0    0 -0.14585781650E+02  0.96209063882E+01 -0.67358068954E+01  0.72461602573E+02  0.70000042048E+02 0.  0.
        -12    1    1    2    0    0  0.14585781650E+02 -0.96209063882E+01  0.67358068954E+01  0.18726397427E+02  0.00000000000E+00 0.  1.
         11    1    3    3    0    0 -0.19895375831E+02  0.16748448698E+02 -0.74471057104E+01  0.27051726321E+02  0.51100000000E-03 0. -1.
        -11    1    3    3    0    0 -0.13826350766E+02  0.90271659469E+01  0.92799849630E+01  0.18941378559E+02  0.51100000000E-03 0.  1.
         12    1    3    3    0    0  0.19135944946E+02 -0.16154708256E+02 -0.85686861480E+01  0.26468497693E+02  0.00000000000E+00 0. -1.
</event>
<event>
 7    1  0.1891413E-013  0.7246158E+02  0.7816164E-02  0.1226708E+00
        -11   -1    0    0    0    0  0.00000000000E+00  0.00000000000E+00  0.45593999997E+02  0.45594000000E+02  0.51100000000E-03 0.  1.
         11   -1    0    0    0    0 -0.00000000000E+00 -0.00000000000E+00 -0.45593999997E+02  0.45594000000E+02  0.51100000000E-03 0. -1.
    9900012    2    1    2    0    0  0.93944773510E+01  0.49842366194E+01 -0.15413632272E+02  0.72461578046E+02  0.70000010098E+02 0.  0.
        -12    1    1    2    0    0 -0.93944773510E+01 -0.49842366194E+01  0.15413632272E+02  0.18726421954E+02  0.00000000000E+00 0.  1.
         11    1    3    3    0    0 -0.94286650196E+01  0.16749248982E+02 -0.69099557843E+01  0.20425096199E+02  0.51100000000E-03 0. -1.
        -11    1    3    3    0    0  0.22520215354E+02  0.24255792727E+01  0.12918823975E+02  0.26075650473E+02  0.51100000000E-03 0.  1.
         12    1    3    3    0    0 -0.36970729839E+01 -0.14190591636E+02 -0.21422500462E+02  0.25960831375E+02  0.00000000000E+00 0. -1.
</event>
<event>
 7    1  0.1891413E-013  0.7246161E+02  0.7816164E-02  0.1226708E+00
        -11   -1    0    0    0    0  0.00000000000E+00  0.00000000000E+00  0.45593999997E+02  0.45594000000E+02  0.51100000000E-03 0.  1.
         11   -1    0    0    0    0 -0.00000000000E+00 -0.00000000000E+00 -0.45593999997E+02  0.45594000000E+02  0.51100000000E-03 0. -1.
    9900012    2    1    2    0    0  0.13109141226E+01 -0.80492700409E+01 -0.16857294293E+02  0.72461611803E+02  0.70000054072E+02 0.  0.
        -12    1    1    2    0    0 -0.13109141226E+01  0.80492700409E+01  0.16857294293E+02  0.18726388197E+02  0.00000000000E+00 0.  1.
         11    1    3    3    0    0  0.48444161227E+01  0.12785214898E+01  0.67215444856E+01  0.83834447158E+01  0.51100000000E-03 0. -1.
        -11    1    3    3    0    0 -0.33687178405E+01 -0.26010958426E+02  0.87905172577E+01  0.27662093414E+02  0.51100000000E-03 0.  1.
         12    1    3    3    0    0 -0.16478415963E+00  0.16683166896E+02 -0.32369356037E+02  0.36416073672E+02  0.00000000000E+00 0. -1.
</event>
<event>
 7    1  0.1891413E-013  0.7246157E+02  0.7816164E-02  0.1226708E+00
        -11   -1    0    0    0    0  0.00000000000E+00  0.00000000000E+00  0.45593999997E+02  0.45594000000E+02  0.51100000000E-03 0.  1.
         11   -1    0    0    0    0 -0.00000000000E+00 -0.00000000000E+00 -0.45593999997E+02  0.45594000000E+02  0.51100000000E-03 0. -1.
    9900012    2    1    2    0    0  0.12338385867E+02 -0.25560087148E+01 -0.13853172758E+02  0.72461565694E+02  0.69999994007E+02 0.  0.
        -12    1    1    2    0    0 -0.12338385867E+02  0.25560087148E+01  0.13853172758E+02  0.18726434306E+02  0.00000000000E+00 0.  1.
         11    1    3    3    0    0 -0.14119199763E+02 -0.78366581059E+01 -0.22177889559E+02  0.27433989826E+02  0.51100000000E-03 0. -1.
        -11    1    3    3    0    0  0.12285441769E+02 -0.10787365562E+02 -0.78947558595E+01  0.18155619118E+02  0.51100000000E-03 0.  1.
        -12    1    3    3    0    0  0.14172143861E+02  0.16068014953E+02  0.16219472661E+02  0.26871956749E+02  0.00000000000E+00 0.  1.
</event>
<event>
 7    1  0.1891413E-013  0.7246154E+02  0.7816164E-02  0.1226708E+00
        -11   -1    0    0    0    0  0.00000000000E+00  0.00000000000E+00  0.45593999997E+02  0.45594000000E+02  0.51100000000E-03 0.  1.
         11   -1    0    0    0    0 -0.00000000000E+00 -0.00000000000E+00 -0.45593999997E+02  0.45594000000E+02  0.51100000000E-03 0. -1.
    9900012    2    1    2    0    0 -0.14041539819E+02  0.11697613988E+02  0.40842676604E+01  0.72461541290E+02  0.69999962217E+02 0.  0.
        -12    1    1    2    0    0  0.14041539819E+02 -0.11697613988E+02 -0.40842676604E+01  0.18726458710E+02  0.00000000000E+00 0.  1.
         11    1    3    3    0    0 -0.26898225989E+01  0.79772499140E+01 -0.99420640071E+00  0.84770341767E+01  0.51100000000E-03 0. -1.
        -11    1    3    3    0    0 -0.22459566152E+02  0.18935546424E+02 -0.17799682525E+02  0.34348445792E+02  0.51100000000E-03 0.  1.
        -12    1    3    3    0    0  0.11107848932E+02 -0.15215182350E+02  0.22878156586E+02  0.29636061321E+02  0.00000000000E+00 0.  1.
</event>
<event>
 7    1  0.1891413E-013  0.7246156E+02  0.7816164E-02  0.1226708E+00
        -11   -1    0    0    0    0  0.00000000000E+00  0.00000000000E+00  0.45593999997E+02  0.45594000000E+02  0.51100000000E-03 0. -1.
         11   -1    0    0    0    0 -0.00000000000E+00 -0.00000000000E+00 -0.45593999997E+02  0.45594000000E+02  0.51100000000E-03 0.  1.
    9900012    2    1    2    0    0  0.25119730084E+01  0.17212516787E+02 -0.69353216475E+01  0.72461563369E+02  0.69999990979E+02 0.  0.
        -12    1    1    2    0    0 -0.25119730084E+01 -0.17212516787E+02  0.69353216475E+01  0.18726436631E+02  0.00000000000E+00 0.  1.
         11    1    3    3    0    0 -0.48350281252E+01 -0.39956432622E+01 -0.53153222195E+01  0.82216368570E+01  0.51100000000E-03 0. -1.
        -11    1    3    3    0    0  0.12423162743E+01 -0.20906115440E+02 -0.50634540438E+01  0.21546405260E+02  0.51100000000E-03 0.  1.
         12    1    3    3    0    0  0.61046848593E+01  0.42114275489E+02  0.34434546157E+01  0.42693521252E+02  0.00000000000E+00 0. -1.
</event>
<event>
 7    1  0.2083409E-013  0.7246165E+02  0.7816164E-02  0.1226708E+00
        -11   -1    0    0    0    0  0.00000000000E+00  0.00000000000E+00  0.45593999997E+02  0.45594000000E+02  0.51100000000E-03 0. -1.
         11   -1    0    0    0    0 -0.00000000000E+00 -0.00000000000E+00 -0.45593999997E+02  0.45594000000E+02  0.51100000000E-03 0.  1.
    9900012    2    1    2    0    0  0.10023392196E+02  0.13813129365E+02  0.77074857010E+01  0.72461647718E+02  0.70000100858E+02 0.  0.
        -12    1    1    2    0    0 -0.10023392196E+02 -0.13813129365E+02 -0.77074857010E+01  0.18726352282E+02  0.00000000000E+00 0.  1.
         11    1    3    3    0    0  0.72259418500E+00 -0.12885563376E+02  0.79729332396E+01  0.15169955523E+02  0.51100000000E-03 0. -1.
        -11    1    3    3    0    0 -0.12328946562E+02  0.52968188903E+01 -0.17708510122E+02  0.22218248011E+02  0.51100000000E-03 0.  1.
         12    1    3    3    0    0  0.21629744572E+02  0.21401873851E+02  0.17443062583E+02  0.35073444183E+02  0.00000000000E+00 0. -1.
</event>
<event>
 7    1  0.1891413E-013  0.7246165E+02  0.7816164E-02  0.1226708E+00
        -11   -1    0    0    0    0  0.00000000000E+00  0.00000000000E+00  0.45593999997E+02  0.45594000000E+02  0.51100000000E-03 0. -1.
         11   -1    0    0    0    0 -0.00000000000E+00 -0.00000000000E+00 -0.45593999997E+02  0.45594000000E+02  0.51100000000E-03 0.  1.
    9900012    2    1    2    0    0 -0.55230973871E+01 -0.11395938707E+02 -0.13795075130E+02  0.72461651675E+02  0.70000106013E+02 0.  0.
        -12    1    1    2    0    0  0.55230973871E+01  0.11395938707E+02  0.13795075130E+02  0.18726348325E+02  0.00000000000E+00 0.  1.
         11    1    3    3    0    0 -0.19176965271E+01 -0.20835773838E+02  0.56403138726E+01  0.21670721544E+02  0.51100000000E-03 0. -1.
        -11    1    3    3    0    0 -0.25360799222E+01 -0.12186971582E+02 -0.25438583553E+02  0.28320937681E+02  0.51100000000E-03 0.  1.
         12    1    3    3    0    0 -0.10693209378E+01  0.21626806713E+02  0.60031945504E+01  0.22469992449E+02  0.00000000000E+00 0. -1.
</event>
<event>
 7    1  0.1891413E-013  0.7246164E+02  0.7816164E-02  0.1226708E+00
        -11   -1    0    0    0    0  0.00000000000E+00  0.00000000000E+00  0.45593999997E+02  0.45594000000E+02  0.51100000000E-03 0.  1.
         11   -1    0    0    0    0 -0.00000000000E+00 -0.00000000000E+00 -0.45593999997E+02  0.45594000000E+02  0.51100000000E-03 0. -1.
    9900012    2    1    2    0    0 -0.86902436744E+01 -0.13765435537E+02 -0.92557482237E+01  0.72461643552E+02  0.70000095432E+02 0.  0.
        -12    1    1    2    0    0  0.86902436744E+01  0.13765435537E+02  0.92557482237E+01  0.18726356448E+02  0.00000000000E+00 0.  1.
         11    1    3    3    0    0  0.24414900667E+02 -0.14992758865E+02 -0.28001351932E+01  0.28787340105E+02  0.51100000000E-03 0. -1.
        -11    1    3    3    0    0 -0.97351806777E+01 -0.11388766237E+02  0.33703511813E+01  0.15356985596E+02  0.51100000000E-03 0.  1.
         12    1    3    3    0    0 -0.23369963664E+02  0.12616089565E+02 -0.98259642118E+01  0.28317317851E+02  0.00000000000E+00 0. -1.
</event>
<event>
 7    1  0.1891413E-013  0.7246157E+02  0.7816164E-02  0.1226708E+00
        -11   -1    0    0    0    0  0.00000000000E+00  0.00000000000E+00  0.45593999997E+02  0.45594000000E+02  0.51100000000E-03 0.  1.
         11   -1    0    0    0    0 -0.00000000000E+00 -0.00000000000E+00 -0.45593999997E+02  0.45594000000E+02  0.51100000000E-03 0. -1.
    9900012    2    1    2    0    0 -0.97461922631E+01  0.40756599815E+01 -0.15462204521E+02  0.72461573844E+02  0.70000004625E+02 0.  0.
        -12    1    1    2    0    0  0.97461922631E+01 -0.40756599815E+01  0.15462204521E+02  0.18726426156E+02  0.00000000000E+00 0.  1.
         11    1    3    3    0    0 -0.78379662023E+01 -0.12444841218E+02 -0.12362165033E+02  0.19212779905E+02  0.51100000000E-03 0. -1.
        -11    1    3    3    0    0 -0.86832137592E+01  0.24342643525E+02 -0.20510869808E+02  0.32994821950E+02  0.51100000000E-03 0.  1.
         12    1    3    3    0    0  0.67749876983E+01 -0.78221423260E+01  0.17410830320E+02  0.20253971989E+02  0.00000000000E+00 0. -1.
</event>
<event>
 7    1  0.1891413E-013  0.7246152E+02  0.7816164E-02  0.1226708E+00
        -11   -1    0    0    0    0  0.00000000000E+00  0.00000000000E+00  0.45593999997E+02  0.45594000000E+02  0.51100000000E-03 0. -1.
         11   -1    0    0    0    0 -0.00000000000E+00 -0.00000000000E+00 -0.45593999997E+02  0.45594000000E+02  0.51100000000E-03 0.  1.
    9900012    2    1    2    0    0  0.13830804299E+02  0.11192089822E+02 -0.58418221596E+01  0.72461523869E+02  0.69999939522E+02 0.  0.
        -12    1    1    2    0    0 -0.13830804299E+02 -0.11192089822E+02  0.58418221596E+01  0.18726476131E+02  0.00000000000E+00 0.  1.
         11    1    3    3    0    0  0.20625061015E+02  0.15192529821E+02  0.28244699182E+01  0.25771762354E+02  0.51100000000E-03 0. -1.
        -11    1    3    3    0    0  0.11235783003E+02  0.15216257142E+02 -0.73922648142E+01  0.20308197370E+02  0.51100000000E-03 0.  1.
        -12    1    3    3    0    0 -0.18030039719E+02 -0.19216697141E+02 -0.12740272635E+01  0.26381564145E+02  0.00000000000E+00 0.  1.
</event>
<event>
 7    1  0.1891413E-013  0.7246152E+02  0.7816164E-02  0.1226708E+00
        -11   -1    0    0    0    0  0.00000000000E+00  0.00000000000E+00  0.45593999997E+02  0.45594000000E+02  0.51100000000E-03 0. -1.
         11   -1    0    0    0    0 -0.00000000000E+00 -0.00000000000E+00 -0.45593999997E+02  0.45594000000E+02  0.51100000000E-03 0.  1.
    9900012    2    1    2    0    0  0.16469196548E+02 -0.63792455334E+01 -0.62251075972E+01  0.72461516798E+02  0.69999930311E+02 0.  0.
        -12    1    1    2    0    0 -0.16469196548E+02  0.63792455334E+01  0.62251075972E+01  0.18726483202E+02  0.00000000000E+00 0.  1.
         11    1    3    3    0    0 -0.11642797223E+02 -0.37729994150E+01 -0.87181010903E+01  0.15026494556E+02  0.51100000000E-03 0. -1.
        -11    1    3    3    0    0  0.25608803702E+01 -0.21220991228E+02  0.11884530667E+02  0.24456709640E+02  0.51100000000E-03 0.  1.
         12    1    3    3    0    0  0.25551113401E+02  0.18614745110E+02 -0.93915371742E+01  0.32978312602E+02  0.00000000000E+00 0. -1.
</event>
<event>
 7    1  0.1891413E-013  0.7246164E+02  0.7816164E-02  0.1226708E+00
        -11   -1    0    0    0    0  0.00000000000E+00  0.00000000000E+00  0.45593999997E+02  0.45594000000E+02  0.51100000000E-03 0. -1.
         11   -1    0    0    0    0 -0.00000000000E+00 -0.00000000000E+00 -0.45593999997E+02  0.45594000000E+02  0.51100000000E-03 0.  1.
    9900012    2    1    2    0    0 -0.13416381873E+02  0.19635100843E+01  0.12915961507E+02  0.72461635268E+02  0.70000084640E+02 0.  0.
        -12    1    1    2    0    0  0.13416381873E+02 -0.19635100843E+01 -0.12915961507E+02  0.18726364732E+02  0.00000000000E+00 0.  1.
         11    1    3    3    0    0  0.12711071465E+02 -0.80672671146E+01  0.13006344160E+02  0.19895153309E+02  0.51100000000E-03 0. -1.
        -11    1    3    3    0    0  0.79354769259E+01  0.12260751615E+02  0.91092904597E+01  0.17212698718E+02  0.51100000000E-03 0.  1.
        -12    1    3    3    0    0 -0.34062930265E+02 -0.22299744163E+01 -0.91996731132E+01  0.35353783242E+02  0.00000000000E+00 0.  1.
</event>
<event>
 7    1  0.1891413E-013  0.7246150E+02  0.7816164E-02  0.1226708E+00
        -11   -1    0    0    0    0  0.00000000000E+00  0.00000000000E+00  0.45593999997E+02  0.45594000000E+02  0.51100000000E-03 0.  1.
         11   -1    0    0    0    0 -0.00000000000E+00 -0.00000000000E+00 -0.45593999997E+02  0.45594000000E+02  0.51100000000E-03 0. -1.
    9900012    2    1    2    0    0 -0.17424289228E+02 -0.67513182834E+01 -0.12229997553E+01  0.72461497869E+02  0.69999905652E+02 0.  0.
        -12    1    1    2    0    0  0.17424289228E+02  0.67513182834E+01  0.12229997553E+01  0.18726502131E+02  0.00000000000E+00 0.  1.
         11    1    3    3    0    0  0.24896760095E+01  0.21388415332E+02 -0.13424469708E+02  0.25374774565E+02  0.51100000000E-03 0. -1.
        -11    1    3    3    0    0  0.28431017972E+01 -0.19612602195E+02  0.11200897597E+02  0.22763951764E+02  0.51100000000E-03 0.  1.
        -12    1    3    3    0    0 -0.22757067035E+02 -0.85271314198E+01  0.10005723562E+01  0.24322771539E+02  0.00000000000E+00 0.  1.
</event>
<event>
 7    1  0.1891413E-013  0.7246162E+02  0.7816164E-02  0.1226708E+00
        -11   -1    0    0    0    0  0.00000000000E+00  0.00000000000E+00  0.45593999997E+02  0.45594000000E+02  0.51100000000E-03 0.  1.
         11   -1    0    0    0    0 -0.00000000000E+00 -0.00000000000E+00 -0.45593999997E+02  0.45594000000E+02  0.51100000000E-03 0. -1.
    9900012    2    1    2    0    0  0.11560362799E+02  0.15151343399E+01 -0.14654001791E+02  0.72461617845E+02  0.70000061944E+02 0.  0.
        -12    1    1    2    0    0 -0.11560362799E+02 -0.15151343399E+01  0.14654001791E+02  0.18726382155E+02  0.00000000000E+00 0.  1.
         11    1    3    3    0    0  0.50550724057E+01 -0.25206950118E+00  0.11169864558E+02  0.12263081610E+02  0.51100000000E-03 0. -1.
        -11    1    3    3    0    0 -0.22826339612E+02  0.83019959345E+01 -0.10422036590E+02  0.26430735206E+02  0.51100000000E-03 0.  1.
         12    1    3    3    0    0  0.29331630005E+02 -0.65347920935E+01 -0.15401829759E+02  0.33767801030E+02  0.00000000000E+00 0. -1.
</event>
<event>
 7    1  0.1891413E-013  0.7246156E+02  0.7816164E-02  0.1226708E+00
        -11   -1    0    0    0    0  0.00000000000E+00  0.00000000000E+00  0.45593999997E+02  0.45594000000E+02  0.51100000000E-03 0.  1.
         11   -1    0    0    0    0 -0.00000000000E+00 -0.00000000000E+00 -0.45593999997E+02  0.45594000000E+02  0.51100000000E-03 0. -1.
    9900012    2    1    2    0    0  0.75487974896E+01  0.17082424573E+02  0.13733086654E+01  0.72461560149E+02  0.69999986783E+02 0.  0.
        -12    1    1    2    0    0 -0.75487974896E+01 -0.17082424573E+02 -0.13733086654E+01  0.18726439851E+02  0.00000000000E+00 0.  1.
         11    1    3    3    0    0  0.62723131155E+01  0.65901014523E+01  0.22301828697E+02  0.24086156034E+02  0.51100000000E-03 0. -1.
        -11    1    3    3    0    0 -0.57556794668E+01 -0.13606593989E+02  0.13181319398E+01  0.14832556024E+02  0.51100000000E-03 0.  1.
         12    1    3    3    0    0  0.70321638410E+01  0.24098917110E+02 -0.22246651972E+02  0.33542848092E+02  0.00000000000E+00 0. -1.
</event>
<event>
 7    1  0.1891413E-013  0.7246161E+02  0.7816164E-02  0.1226708E+00
        -11   -1    0    0    0    0  0.00000000000E+00  0.00000000000E+00  0.45593999997E+02  0.45594000000E+02  0.51100000000E-03 0. -1.
         11   -1    0    0    0    0 -0.00000000000E+00 -0.00000000000E+00 -0.45593999997E+02  0.45594000000E+02  0.51100000000E-03 0.  1.
    9900012    2    1    2    0    0  0.89611204266E+01  0.15835641481E+02  0.44281485767E+01  0.72461608991E+02  0.70000050409E+02 0.  0.
        -12    1    1    2    0    0 -0.89611204266E+01 -0.15835641481E+02 -0.44281485767E+01  0.18726391009E+02  0.00000000000E+00 0.  1.
         11    1    3    3    0    0  0.21019304739E+02  0.15684396970E+02 -0.88784671286E+01  0.27688240443E+02  0.51100000000E-03 0. -1.
        -11    1    3    3    0    0  0.60133341109E+01 -0.66606109536E+01 -0.10698665512E+02  0.13963716175E+02  0.51100000000E-03 0.  1.
         12    1    3    3    0    0 -0.18071518423E+02  0.68118554651E+01  0.24005281218E+02  0.30809652373E+02  0.00000000000E+00 0. -1.
</event>
<event>
 7    1  0.1891413E-013  0.7246148E+02  0.7816164E-02  0.1226708E+00
        -11   -1    0    0    0    0  0.00000000000E+00  0.00000000000E+00  0.45593999997E+02  0.45594000000E+02  0.51100000000E-03 0.  1.
         11   -1    0    0    0    0 -0.00000000000E+00 -0.00000000000E+00 -0.45593999997E+02  0.45594000000E+02  0.51100000000E-03 0. -1.
    9900012    2    1    2    0    0 -0.49790481814E+01  0.17841417286E+02 -0.27523397464E+01  0.72461482287E+02  0.69999885354E+02 0.  0.
        -12    1    1    2    0    0  0.49790481814E+01 -0.17841417286E+02  0.27523397464E+01  0.18726517713E+02  0.00000000000E+00 0.  1.
         11    1    3    3    0    0 -0.16585943476E+02  0.29228887023E+01 -0.18143694510E+02  0.24755412541E+02  0.51100000000E-03 0. -1.
        -11    1    3    3    0    0 -0.33880424216E+01  0.56074372540E+01 -0.12837854443E+02  0.14412934849E+02  0.51100000000E-03 0.  1.
        -12    1    3    3    0    0  0.14994937716E+02  0.93110913296E+01  0.28229209207E+02  0.33293134897E+02  0.00000000000E+00 0.  1.
</event>
<event>
 7    1  0.1891413E-013  0.7246153E+02  0.7816164E-02  0.1226708E+00
        -11   -1    0    0    0    0  0.00000000000E+00  0.00000000000E+00  0.45593999997E+02  0.45594000000E+02  0.51100000000E-03 0. -1.
         11   -1    0    0    0    0 -0.00000000000E+00 -0.00000000000E+00 -0.45593999997E+02  0.45594000000E+02  0.51100000000E-03 0.  1.
    9900012    2    1    2    0    0 -0.13984461296E+02  0.10476152781E+02 -0.67353990300E+01  0.72461533838E+02  0.69999952509E+02 0.  0.
        -12    1    1    2    0    0  0.13984461296E+02 -0.10476152781E+02  0.67353990300E+01  0.18726466162E+02  0.00000000000E+00 0.  1.
         11    1    3    3    0    0 -0.69960788808E+01  0.26495998322E+02  0.13139225470E+02  0.30391154848E+02  0.51100000000E-03 0. -1.
        -11    1    3    3    0    0 -0.98749322402E+00  0.73781598987E+01 -0.15945701688E+02  0.17597664303E+02  0.51100000000E-03 0.  1.
        -12    1    3    3    0    0 -0.60008891915E+01 -0.23398005440E+02 -0.39289228122E+01  0.24472714686E+02  0.00000000000E+00 0.  1.
</event>
<event>
 7    1  0.1891413E-013  0.7246163E+02  0.7816164E-02  0.1226708E+00
        -11   -1    0    0    0    0  0.00000000000E+00  0.00000000000E+00  0.45593999997E+02  0.45594000000E+02  0.51100000000E-03 0. -1.
         11   -1    0    0    0    0 -0.00000000000E+00 -0.00000000000E+00 -0.45593999997E+02  0.45594000000E+02  0.51100000000E-03 0.  1.
    9900012    2    1    2    0    0 -0.18608577096E+02  0.20091154792E+01  0.60094427978E+00  0.72461633011E+02  0.70000081701E+02 0.  0.
        -12    1    1    2    0    0  0.18608577096E+02 -0.20091154792E+01 -0.60094427978E+00  0.18726366989E+02  0.00000000000E+00 0.  1.
         11    1    3    3    0    0 -0.22181693027E+02 -0.93888365130E-01 -0.58340356009E+01  0.22936265874E+02  0.51100000000E-03 0. -1.
        -11    1    3    3    0    0 -0.73263739537E+01 -0.10416863763E+02 -0.16730755303E+02  0.21026292570E+02  0.51100000000E-03 0.  1.
         12    1    3    3    0    0  0.10899489885E+02  0.12519867607E+02  0.23165735184E+02  0.28499074568E+02  0.00000000000E+00 0. -1.
</event>
<event>
 7    1  0.1891413E-013  0.7246157E+02  0.7816164E-02  0.1226708E+00
        -11   -1    0    0    0    0  0.00000000000E+00  0.00000000000E+00  0.45593999997E+02  0.45594000000E+02  0.51100000000E-03 0. -1.
         11   -1    0    0    0    0 -0.00000000000E+00 -0.00000000000E+00 -0.45593999997E+02  0.45594000000E+02  0.51100000000E-03 0.  1.
    9900012    2    1    2    0    0  0.97237259997E+01  0.13147996662E+02  0.91246090877E+01  0.72461570694E+02  0.70000000520E+02 0.  0.
        -12    1    1    2    0    0 -0.97237259997E+01 -0.13147996662E+02 -0.91246090877E+01  0.18726429306E+02  0.00000000000E+00 0.  1.
         11    1    3    3    0    0  0.13125846398E+01  0.67896427205E+01  0.68570587855E+01  0.97386540219E+01  0.51100000000E-03 0. -1.
        -11    1    3    3    0    0 -0.42953497258E+01 -0.80560864959E+01  0.28658547510E+02  0.30077614675E+02  0.51100000000E-03 0.  1.
         12    1    3    3    0    0  0.12706491086E+02  0.14414440438E+02 -0.26390997208E+02  0.32645301997E+02  0.00000000000E+00 0. -1.
</event>
<event>
 7    1  0.1891413E-013  0.7246153E+02  0.7816164E-02  0.1226708E+00
        -11   -1    0    0    0    0  0.00000000000E+00  0.00000000000E+00  0.45593999997E+02  0.45594000000E+02  0.51100000000E-03 0.  1.
         11   -1    0    0    0    0 -0.00000000000E+00 -0.00000000000E+00 -0.45593999997E+02  0.45594000000E+02  0.51100000000E-03 0. -1.
    9900012    2    1    2    0    0  0.11976342935E+02  0.43667246292E+01 -0.13717851821E+02  0.72461533898E+02  0.69999952587E+02 0.  0.
        -12    1    1    2    0    0 -0.11976342935E+02 -0.43667246292E+01  0.13717851821E+02  0.18726466102E+02  0.00000000000E+00 0.  1.
         11    1    3    3    0    0 -0.94959017146E+01  0.22478539560E+02  0.15052436077E+01  0.24448366995E+02  0.51100000000E-03 0. -1.
        -11    1    3    3    0    0  0.21927373478E+02  0.28231454256E+01 -0.15619798492E+02  0.27069502451E+02  0.51100000000E-03 0.  1.
        -12    1    3    3    0    0 -0.45512882843E+00 -0.20934960357E+02  0.39670306311E+00  0.20943664453E+02  0.00000000000E+00 0.  1.
</event>
<event>
 7    1  0.1891413E-013  0.7246160E+02  0.7816164E-02  0.1226708E+00
        -11   -1    0    0    0    0  0.00000000000E+00  0.00000000000E+00  0.45593999997E+02  0.45594000000E+02  0.51100000000E-03 0.  1.
         11   -1    0    0    0    0 -0.00000000000E+00 -0.00000000000E+00 -0.45593999997E+02  0.45594000000E+02  0.51100000000E-03 0. -1.
    9900012    2    1    2    0    0  0.14176175050E+02  0.10586538483E+02 -0.61350743767E+01  0.72461604893E+02  0.70000045072E+02 0.  0.
        -12    1    1    2    0    0 -0.14176175050E+02 -0.10586538483E+02  0.61350743767E+01  0.18726395107E+02  0.00000000000E+00 0.  1.
         11    1    3    3    0    0 -0.20378764826E+02  0.10378685006E+02 -0.76365175427E+01  0.24110735342E+02  0.51100000000E-03 0. -1.
        -11    1    3    3    0    0  0.17611064081E+02  0.15558433314E+02 -0.60626429462E+01  0.24268705467E+02  0.51100000000E-03 0.  1.
         12    1    3    3    0    0  0.16943875795E+02 -0.15350579837E+02  0.75640861122E+01  0.24082164085E+02  0.00000000000E+00 0. -1.
</event>
<event>
 7    1  0.1891413E-013  0.7246155E+02  0.7816164E-02  0.1226708E+00
        -11   -1    0    0    0    0  0.00000000000E+00  0.00000000000E+00  0.45593999997E+02  0.45594000000E+02  0.51100000000E-03 0. -1.
         11   -1    0    0    0    0 -0.00000000000E+00 -0.00000000000E+00 -0.45593999997E+02  0.45594000000E+02  0.51100000000E-03 0.  1.
    9900012    2    1    2    0    0  0.35839407235E+01 -0.18261468965E+02  0.20866203785E+01  0.72461551739E+02  0.69999975829E+02 0.  0.
        -12    1    1    2    0    0 -0.35839407235E+01  0.18261468965E+02 -0.20866203785E+01  0.18726448261E+02  0.00000000000E+00 0.  1.
         11    1    3    3    0    0  0.20124957501E+02 -0.14652906849E+02  0.15756856266E+02  0.29461841646E+02  0.51100000000E-03 0. -1.
        -11    1    3    3    0    0 -0.12777397449E+01 -0.18640294490E+02 -0.25323271021E+01  0.18854863520E+02  0.51100000000E-03 0.  1.
        -12    1    3    3    0    0 -0.15263277032E+02  0.15031732375E+02 -0.11137908786E+02  0.24144846574E+02  0.00000000000E+00 0.  1.
</event>
<event>
 7    1  0.1891413E-013  0.7246158E+02  0.7816164E-02  0.1226708E+00
        -11   -1    0    0    0    0  0.00000000000E+00  0.00000000000E+00  0.45593999997E+02  0.45594000000E+02  0.51100000000E-03 0.  1.
         11   -1    0    0    0    0 -0.00000000000E+00 -0.00000000000E+00 -0.45593999997E+02  0.45594000000E+02  0.51100000000E-03 0. -1.
    9900012    2    1    2    0    0 -0.13754773911E+02  0.20739496707E+01 -0.12537295622E+02  0.72461578716E+02  0.70000010971E+02 0.  0.
        -12    1    1    2    0    0  0.13754773911E+02 -0.20739496707E+01  0.12537295622E+02  0.18726421284E+02  0.00000000000E+00 0.  1.
         11    1    3    3    0    0  0.73333910226E+01 -0.60675484369E+01  0.11699364693E+02  0.15082072219E+02  0.51100000000E-03 0. -1.
        -11    1    3    3    0    0  0.72097039269E+01  0.19474377900E+02 -0.14689920493E+02  0.25436685902E+02  0.51100000000E-03 0.  1.
         12    1    3    3    0    0 -0.28297868860E+02 -0.11332879792E+02 -0.95467398219E+01  0.31942820596E+02  0.00000000000E+00 0. -1.
</event>
<event>
 7    1  0.1891413E-013  0.7246161E+02  0.7816164E-02  0.1226708E+00
        -11   -1    0    0    0    0  0.00000000000E+00  0.00000000000E+00  0.45593999997E+02  0.45594000000E+02  0.51100000000E-03 0.  1.
         11   -1    0    0    0    0 -0.00000000000E+00 -0.00000000000E+00 -0.45593999997E+02  0.45594000000E+02  0.51100000000E-03 0. -1.
    9900012    2    1    2    0    0  0.90872105944E+01  0.14844140389E+02 -0.69102566902E+01  0.72461613595E+02  0.70000056407E+02 0.  0.
        -12    1    1    2    0    0 -0.90872105944E+01 -0.14844140389E+02  0.69102566902E+01  0.18726386405E+02  0.00000000000E+00 0.  1.
         11    1    3    3    0    0 -0.20652175957E+02  0.75453214041E+01  0.55570425796E+01  0.22678733857E+02  0.51100000000E-03 0. -1.
        -11    1    3    3    0    0 -0.77098262537E+01 -0.42164353243E+01 -0.43899716696E+00  0.87984354563E+01  0.51100000000E-03 0.  1.
        -12    1    3    3    0    0  0.37449212806E+02  0.11515254309E+02 -0.12028302103E+02  0.40984444281E+02  0.00000000000E+00 0.  1.
</event>
<event>
 7    1  0.1891413E-013  0.7246160E+02  0.7816164E-02  0.1226708E+00
        -11   -1    0    0    0    0  0.00000000000E+00  0.00000000000E+00  0.45593999997E+02  0.45594000000E+02  0.51100000000E-03 0.  1.
         11   -1    0    0    0    0 -0.00000000000E+00 -0.00000000000E+00 -0.45593999997E+02  0.45594000000E+02  0.51100000000E-03 0. -1.
    9900012    2    1    2    0    0  0.13556292127E+02  0.12081183524E+02 -0.45771360775E+01  0.72461595480E+02  0.70000032809E+02 0.  0.
        -12    1    1    2    0    0 -0.13556292127E+02 -0.12081183524E+02  0.45771360775E+01  0.18726404520E+02  0.00000000000E+00 0.  1.
         11    1    3    3    0    0  0.34138438607E+01 -0.72755907692E+00  0.79603736576E+00  0.35801323808E+01  0.51100000000E-03 0. -1.
        -11    1    3    3    0    0  0.51089678778E+01 -0.69191374331E+01  0.28274352277E+02  0.29553595594E+02  0.51100000000E-03 0.  1.
         12    1    3    3    0    0  0.50334803886E+01  0.19727880034E+02 -0.33647525720E+02  0.39327867505E+02  0.00000000000E+00 0. -1.
</event>
<event>
 7    1  0.1891413E-013  0.7246156E+02  0.7816164E-02  0.1226708E+00
        -11   -1    0    0    0    0  0.00000000000E+00  0.00000000000E+00  0.45593999997E+02  0.45594000000E+02  0.51100000000E-03 0. -1.
         11   -1    0    0    0    0 -0.00000000000E+00 -0.00000000000E+00 -0.45593999997E+02  0.45594000000E+02  0.51100000000E-03 0.  1.
    9900012    2    1    2    0    0  0.46516649443E+00  0.18671735627E+02 -0.13525238324E+01  0.72461563823E+02  0.69999991569E+02 0.  0.
        -12    1    1    2    0    0 -0.46516649443E+00 -0.18671735627E+02  0.13525238324E+01  0.18726436177E+02  0.00000000000E+00 0.  1.
         11    1    3    3    0    0  0.92365945923E+01  0.26186557427E+02  0.97321936168E+01  0.29423902909E+02  0.51100000000E-03 0. -1.
        -11    1    3    3    0    0 -0.31606839548E+01 -0.14988096483E+01 -0.25876702939E+02  0.26112068257E+02  0.51100000000E-03 0.  1.
        -12    1    3    3    0    0 -0.56107441430E+01 -0.60160121517E+01  0.14791985490E+02  0.16925592657E+02  0.00000000000E+00 0.  1.
</event>
<event>
 7    1  0.1891413E-013  0.7246156E+02  0.7816164E-02  0.1226708E+00
        -11   -1    0    0    0    0  0.00000000000E+00  0.00000000000E+00  0.45593999997E+02  0.45594000000E+02  0.51100000000E-03 0.  1.
         11   -1    0    0    0    0 -0.00000000000E+00 -0.00000000000E+00 -0.45593999997E+02  0.45594000000E+02  0.51100000000E-03 0. -1.
    9900012    2    1    2    0    0  0.18629224777E+02  0.18874029419E+01  0.26326452831E+00  0.72461558430E+02  0.69999984544E+02 0.  0.
        -12    1    1    2    0    0 -0.18629224777E+02 -0.18874029419E+01 -0.26326452831E+00  0.18726441570E+02  0.00000000000E+00 0.  1.
         11    1    3    3    0    0  0.10801533533E+02  0.17612137528E+01  0.15063969874E+00  0.10945213252E+02  0.51100000000E-03 0. -1.
        -11    1    3    3    0    0  0.34438934952E+02 -0.47964785203E+00 -0.36436728403E+01  0.34634472058E+02  0.51100000000E-03 0.  1.
         12    1    3    3    0    0 -0.26611243708E+02  0.60583704114E+00  0.37562976699E+01  0.26881873119E+02  0.00000000000E+00 0. -1.
</event>
<event>
 7    1  0.1891413E-013  0.7246139E+02  0.7816164E-02  0.1226709E+00
        -11   -1    0    0    0    0  0.00000000000E+00  0.00000000000E+00  0.45593999997E+02  0.45594000000E+02  0.51100000000E-03 0. -1.
         11   -1    0    0    0    0 -0.00000000000E+00 -0.00000000000E+00 -0.45593999997E+02  0.45594000000E+02  0.51100000000E-03 0.  1.
    9900012    2    1    2    0    0  0.11683199603E+02 -0.10434406716E+02  0.10262165914E+02  0.72461386699E+02  0.69999760833E+02 0.  0.
        -12    1    1    2    0    0 -0.11683199603E+02  0.10434406716E+02 -0.10262165914E+02  0.18726613301E+02  0.00000000000E+00 0.  1.
         11    1    3    3    0    0  0.10346150424E+01 -0.34230635917E+01  0.24225432279E+02  0.24487943197E+02  0.51100000000E-03 0. -1.
        -11    1    3    3    0    0 -0.65586634379E+01 -0.17583147610E+02  0.58746129201E+01  0.19664542282E+02  0.51100000000E-03 0.  1.
        -12    1    3    3    0    0  0.17207247999E+02  0.10571804486E+02 -0.19837879285E+02  0.28308901220E+02  0.00000000000E+00 0.  1.
</event>
<event>
 7    1  0.1891413E-013  0.7246227E+02  0.7816164E-02  0.1226706E+00
        -11   -1    0    0    0    0  0.00000000000E+00  0.00000000000E+00  0.45593999997E+02  0.45594000000E+02  0.51100000000E-03 0.  1.
         11   -1    0    0    0    0 -0.00000000000E+00 -0.00000000000E+00 -0.45593999997E+02  0.45594000000E+02  0.51100000000E-03 0. -1.
    9900012    2    1    2    0    0  0.17728834826E+02 -0.51037709615E+01  0.32082773068E+01  0.72462266220E+02  0.70000906567E+02 0.  0.
        -12    1    1    2    0    0 -0.17728834826E+02  0.51037709615E+01 -0.32082773068E+01  0.18725733780E+02  0.00000000000E+00 0.  1.
         11    1    3    3    0    0 -0.88117938443E+01  0.22476661537E+01  0.52345807342E+01  0.10492880902E+02  0.51100000000E-03 0. -1.
        -11    1    3    3    0    0 -0.12054542869E+02 -0.14469199950E+02 -0.10862647527E+02  0.21740902984E+02  0.51100000000E-03 0.  1.
         12    1    3    3    0    0  0.38595171539E+02  0.71177628348E+01  0.88363440999E+01  0.40228482335E+02  0.00000000000E+00 0. -1.
</event>
<event>
 7    1  0.1891413E-013  0.7246156E+02  0.7816164E-02  0.1226708E+00
        -11   -1    0    0    0    0  0.00000000000E+00  0.00000000000E+00  0.45593999997E+02  0.45594000000E+02  0.51100000000E-03 0. -1.
         11   -1    0    0    0    0 -0.00000000000E+00 -0.00000000000E+00 -0.45593999997E+02  0.45594000000E+02  0.51100000000E-03 0.  1.
    9900012    2    1    2    0    0 -0.78184138721E+01  0.52938351966E+01  0.16171805070E+02  0.72461559714E+02  0.69999986217E+02 0.  0.
        -12    1    1    2    0    0  0.78184138721E+01 -0.52938351966E+01 -0.16171805070E+02  0.18726440286E+02  0.00000000000E+00 0.  1.
         11    1    3    3    0    0  0.42157488288E+01 -0.13613923667E+02  0.11409244925E+02  0.18256021632E+02  0.51100000000E-03 0. -1.
        -11    1    3    3    0    0 -0.30635680282E+01 -0.16826837890E+02  0.25871491694E+01  0.17298013282E+02  0.51100000000E-03 0.  1.
         12    1    3    3    0    0 -0.89705946728E+01  0.35734596753E+02  0.21754109756E+01  0.36907524799E+02  0.00000000000E+00 0. -1.
</event>
<event>
 7    1  0.1891413E-013  0.7246157E+02  0.7816164E-02  0.1226708E+00
        -11   -1    0    0    0    0  0.00000000000E+00  0.00000000000E+00  0.45593999997E+02  0.45594000000E+02  0.51100000000E-03 0.  1.
         11   -1    0    0    0    0 -0.00000000000E+00 -0.00000000000E+00 -0.45593999997E+02  0.45594000000E+02  0.51100000000E-03 0. -1.
    9900012    2    1    2    0    0 -0.92645948681E+01 -0.12725601603E+01 -0.16224278199E+02  0.72461565996E+02  0.69999994401E+02 0.  0.
        -12    1    1    2    0    0  0.92645948681E+01  0.12725601603E+01  0.16224278199E+02  0.18726434004E+02  0.00000000000E+00 0.  1.
         11    1    3    3    0    0 -0.21719063197E+01  0.73012511774E+01  0.30434524418E+01  0.82029292843E+01  0.51100000000E-03 0. -1.
        -11    1    3    3    0    0 -0.28710334777E+02  0.71996720269E+01  0.25810837306E+01  0.29711623884E+02  0.51100000000E-03 0.  1.
         12    1    3    3    0    0  0.21617646229E+02 -0.15773483365E+02 -0.21848814371E+02  0.34547012828E+02  0.00000000000E+00 0. -1.
</event>
<event>
 7    1  0.1891413E-013  0.7246155E+02  0.7816164E-02  0.1226708E+00
        -11   -1    0    0    0    0  0.00000000000E+00  0.00000000000E+00  0.45593999997E+02  0.45594000000E+02  0.51100000000E-03 0.  1.
         11   -1    0    0    0    0 -0.00000000000E+00 -0.00000000000E+00 -0.45593999997E+02  0.45594000000E+02  0.51100000000E-03 0. -1.
    9900012    2    1    2    0    0  0.10952558778E+02 -0.68558060248E+01 -0.13554314579E+02  0.72461546419E+02  0.69999968898E+02 0.  0.
        -12    1    1    2    0    0 -0.10952558778E+02  0.68558060248E+01  0.13554314579E+02  0.18726453581E+02  0.00000000000E+00 0.  1.
         11    1    3    3    0    0  0.14512979208E+02 -0.17592710015E+02 -0.16999970296E+02  0.28445192942E+02  0.51100000000E-03 0. -1.
        -11    1    3    3    0    0 -0.99956990649E+01 -0.45860760239E+01  0.18545876690E+02  0.21561438624E+02  0.51100000000E-03 0.  1.
         12    1    3    3    0    0  0.64352786346E+01  0.15322980015E+02 -0.15100220972E+02  0.22454914853E+02  0.00000000000E+00 0. -1.
</event>
<event>
 7    1  0.1891413E-013  0.7246156E+02  0.7816164E-02  0.1226708E+00
        -11   -1    0    0    0    0  0.00000000000E+00  0.00000000000E+00  0.45593999997E+02  0.45594000000E+02  0.51100000000E-03 0.  1.
         11   -1    0    0    0    0 -0.00000000000E+00 -0.00000000000E+00 -0.45593999997E+02  0.45594000000E+02  0.51100000000E-03 0. -1.
    9900012    2    1    2    0    0  0.10918750935E+01  0.10288897704E+02 -0.15608525810E+02  0.72461556527E+02  0.69999982065E+02 0.  0.
        -12    1    1    2    0    0 -0.10918750935E+01 -0.10288897704E+02  0.15608525810E+02  0.18726443473E+02  0.00000000000E+00 0.  1.
         11    1    3    3    0    0  0.15709663543E+02  0.29633664565E+01 -0.18081266052E+02  0.24135187004E+02  0.51100000000E-03 0. -1.
        -11    1    3    3    0    0 -0.10225898550E+02  0.21450375549E+02 -0.12861549273E+02  0.27020493377E+02  0.51100000000E-03 0.  1.
         12    1    3    3    0    0 -0.43918898993E+01 -0.14124844302E+02  0.15334289515E+02  0.21305876146E+02  0.00000000000E+00 0. -1.
</event>
<event>
 7    1  0.1891413E-013  0.7246148E+02  0.7816164E-02  0.1226708E+00
        -11   -1    0    0    0    0  0.00000000000E+00  0.00000000000E+00  0.45593999997E+02  0.45594000000E+02  0.51100000000E-03 0. -1.
         11   -1    0    0    0    0 -0.00000000000E+00 -0.00000000000E+00 -0.45593999997E+02  0.45594000000E+02  0.51100000000E-03 0.  1.
    9900012    2    1    2    0    0  0.17242501438E+02 -0.34996466867E+01  0.64133543838E+01  0.72461481444E+02  0.69999884256E+02 0.  0.
        -12    1    1    2    0    0 -0.17242501438E+02  0.34996466867E+01 -0.64133543838E+01  0.18726518556E+02  0.00000000000E+00 0.  1.
         11    1    3    3    0    0  0.16158343482E+02  0.67076225811E+01 -0.56817241731E+01  0.18394734426E+02  0.51100000000E-03 0. -1.
        -11    1    3    3    0    0 -0.16413097030E+02  0.11037185244E+02  0.17036106229E+02  0.26104369901E+02  0.51100000000E-03 0.  1.
         12    1    3    3    0    0  0.17497254987E+02 -0.21244454512E+02 -0.49410276725E+01  0.27962377117E+02  0.00000000000E+00 0. -1.
</event>
<event>
 7    1  0.1891413E-013  0.7246145E+02  0.7816164E-02  0.1226708E+00
        -11   -1    0    0    0    0  0.00000000000E+00  0.00000000000E+00  0.45593999997E+02  0.45594000000E+02  0.51100000000E-03 0. -1.
         11   -1    0    0    0    0 -0.00000000000E+00 -0.00000000000E+00 -0.45593999997E+02  0.45594000000E+02  0.51100000000E-03 0.  1.
    9900012    2    1    2    0    0  0.24797025006E+01  0.24753826362E+01  0.18395852983E+02  0.72461445307E+02  0.69999837181E+02 0.  0.
        -12    1    1    2    0    0 -0.24797025006E+01 -0.24753826362E+01 -0.18395852983E+02  0.18726554693E+02  0.00000000000E+00 0.  1.
         11    1    3    3    0    0 -0.20464116009E+00  0.55087902618E+01  0.26591563293E+02  0.27156949143E+02  0.51100000000E-03 0. -1.
        -11    1    3    3    0    0  0.10772458160E+02 -0.12876339738E+01  0.16226135275E+02  0.19518999008E+02  0.51100000000E-03 0.  1.
        -12    1    3    3    0    0 -0.80881144993E+01 -0.17457736518E+01 -0.24421845585E+02  0.25785497155E+02  0.00000000000E+00 0.  1.
</event>
<event>
 7    1  0.1891413E-013  0.7246158E+02  0.7816164E-02  0.1226708E+00
        -11   -1    0    0    0    0  0.00000000000E+00  0.00000000000E+00  0.45593999997E+02  0.45594000000E+02  0.51100000000E-03 0. -1.
         11   -1    0    0    0    0 -0.00000000000E+00 -0.00000000000E+00 -0.45593999997E+02  0.45594000000E+02  0.51100000000E-03 0.  1.
    9900012    2    1    2    0    0  0.67574117648E+01  0.13113309169E+02  0.11535048445E+02  0.72461579259E+02  0.70000011679E+02 0.  0.
        -12    1    1    2    0    0 -0.67574117648E+01 -0.13113309169E+02 -0.11535048445E+02  0.18726420741E+02  0.00000000000E+00 0.  1.
         11    1    3    3    0    0 -0.24320873150E+02  0.11313660227E+02  0.18028607463E+02  0.32319258436E+02  0.51100000000E-03 0. -1.
        -11    1    3    3    0    0  0.13003158965E+02 -0.90906609109E+01  0.43023097132E+01  0.16438738637E+02  0.51100000000E-03 0.  1.
        -12    1    3    3    0    0  0.18075125950E+02  0.10890309853E+02 -0.10795868731E+02  0.23703582186E+02  0.00000000000E+00 0.  1.
</event>
<event>
 7    1  0.1891413E-013  0.7246147E+02  0.7816164E-02  0.1226708E+00
        -11   -1    0    0    0    0  0.00000000000E+00  0.00000000000E+00  0.45593999997E+02  0.45594000000E+02  0.51100000000E-03 0. -1.
         11   -1    0    0    0    0 -0.00000000000E+00 -0.00000000000E+00 -0.45593999997E+02  0.45594000000E+02  0.51100000000E-03 0.  1.
    9900012    2    1    2    0    0 -0.18525278982E+02 -0.23786305964E+01  0.13561943725E+01  0.72461465135E+02  0.69999863010E+02 0.  0.
        -12    1    1    2    0    0  0.18525278982E+02  0.23786305964E+01 -0.13561943725E+01  0.18726534865E+02  0.00000000000E+00 0.  1.
         11    1    3    3    0    0 -0.23081515961E+02  0.86570539069E+01 -0.74352659511E+01  0.25748478429E+02  0.51100000000E-03 0. -1.
        -11    1    3    3    0    0 -0.80341523129E+01  0.60860736374E+01 -0.12883176550E+02  0.16357387750E+02  0.51100000000E-03 0.  1.
         12    1    3    3    0    0  0.12590389292E+02 -0.17121758141E+02  0.21674636874E+02  0.30355598956E+02  0.00000000000E+00 0. -1.
</event>
<event>
 7    1  0.1891413E-013  0.7246159E+02  0.7816164E-02  0.1226708E+00
        -11   -1    0    0    0    0  0.00000000000E+00  0.00000000000E+00  0.45593999997E+02  0.45594000000E+02  0.51100000000E-03 0. -1.
         11   -1    0    0    0    0 -0.00000000000E+00 -0.00000000000E+00 -0.45593999997E+02  0.45594000000E+02  0.51100000000E-03 0.  1.
    9900012    2    1    2    0    0 -0.12867161021E+02 -0.64497768272E+01  0.11979769074E+02  0.72461592952E+02  0.70000029516E+02 0.  0.
        -12    1    1    2    0    0  0.12867161021E+02  0.64497768272E+01 -0.11979769074E+02  0.18726407048E+02  0.00000000000E+00 0.  1.
         11    1    3    3    0    0  0.39329050649E+01  0.54151169388E+01 -0.13170281428E+01  0.68209821214E+01  0.51100000000E-03 0. -1.
        -11    1    3    3    0    0  0.22486677679E+02  0.18080320714E+01  0.66169787788E+01  0.23509658896E+02  0.51100000000E-03 0.  1.
         12    1    3    3    0    0 -0.39286743764E+02 -0.13672925837E+02  0.66798184381E+01  0.42130951935E+02  0.00000000000E+00 0. -1.
</event>
<event>
 7    1  0.1891413E-013  0.7246136E+02  0.7816164E-02  0.1226709E+00
        -11   -1    0    0    0    0  0.00000000000E+00  0.00000000000E+00  0.45593999997E+02  0.45594000000E+02  0.51100000000E-03 0.  1.
         11   -1    0    0    0    0 -0.00000000000E+00 -0.00000000000E+00 -0.45593999997E+02  0.45594000000E+02  0.51100000000E-03 0. -1.
    9900012    2    1    2    0    0  0.13283854367E+02  0.55726083264E+00 -0.13187710638E+02  0.72461360197E+02  0.69999726308E+02 0.  0.
        -12    1    1    2    0    0 -0.13283854367E+02 -0.55726083264E+00  0.13187710638E+02  0.18726639803E+02  0.00000000000E+00 0.  1.
         11    1    3    3    0    0  0.15143778412E+02  0.12096209793E+01 -0.22167974665E+02  0.26874082468E+02  0.51100000000E-03 0. -1.
        -11    1    3    3    0    0 -0.15890765722E+02 -0.11568314808E+02  0.17091406554E+02  0.26047236341E+02  0.51100000000E-03 0.  1.
         12    1    3    3    0    0  0.14030841676E+02  0.10915954661E+02 -0.81111425270E+01  0.19540041387E+02  0.00000000000E+00 0. -1.
</event>
<event>
 7    1  0.1891413E-013  0.7246155E+02  0.7816164E-02  0.1226708E+00
        -11   -1    0    0    0    0  0.00000000000E+00  0.00000000000E+00  0.45593999997E+02  0.45594000000E+02  0.51100000000E-03 0. -1.
         11   -1    0    0    0    0 -0.00000000000E+00 -0.00000000000E+00 -0.45593999997E+02  0.45594000000E+02  0.51100000000E-03 0.  1.
    9900012    2    1    2    0    0 -0.12111229364E+02  0.13106637830E+02  0.56757440902E+01  0.72461550713E+02  0.69999974491E+02 0.  0.
        -12    1    1    2    0    0  0.12111229364E+02 -0.13106637830E+02 -0.56757440902E+01  0.18726449287E+02  0.00000000000E+00 0.  1.
         11    1    3    3    0    0  0.17103068583E+02 -0.40177026142E+01  0.17822725448E+02  0.25026114998E+02  0.51100000000E-03 0. -1.
        -11    1    3    3    0    0  0.17151299130E+01  0.14090575269E+02 -0.73659420254E+01  0.15991969366E+02  0.51100000000E-03 0.  1.
        -12    1    3    3    0    0 -0.30929427860E+02  0.30337651756E+01 -0.47810393322E+01  0.31443466348E+02  0.00000000000E+00 0.  1.
</event>
<event>
 7    1  0.1891413E-013  0.7246156E+02  0.7816164E-02  0.1226708E+00
        -11   -1    0    0    0    0  0.00000000000E+00  0.00000000000E+00  0.45593999997E+02  0.45594000000E+02  0.51100000000E-03 0. -1.
         11   -1    0    0    0    0 -0.00000000000E+00 -0.00000000000E+00 -0.45593999997E+02  0.45594000000E+02  0.51100000000E-03 0.  1.
    9900012    2    1    2    0    0 -0.14425633965E+02 -0.11581470468E+02 -0.29069202975E+01  0.72461559892E+02  0.69999986449E+02 0.  0.
        -12    1    1    2    0    0  0.14425633965E+02  0.11581470468E+02  0.29069202975E+01  0.18726440108E+02  0.00000000000E+00 0.  1.
         11    1    3    3    0    0 -0.12488315804E+02  0.27388845982E+01  0.11525393173E+02  0.17213198672E+02  0.51100000000E-03 0. -1.
        -11    1    3    3    0    0  0.39732641005E+01 -0.97046934541E+00  0.18647077200E+02  0.19090367380E+02  0.51100000000E-03 0.  1.
        -12    1    3    3    0    0 -0.59105822617E+01 -0.13349885721E+02 -0.33079390670E+02  0.36157993840E+02  0.00000000000E+00 0.  1.
</event>
<event>
 7    1  0.1891413E-013  0.7246165E+02  0.7816164E-02  0.1226708E+00
        -11   -1    0    0    0    0  0.00000000000E+00  0.00000000000E+00  0.45593999997E+02  0.45594000000E+02  0.51100000000E-03 0.  1.
         11   -1    0    0    0    0 -0.00000000000E+00 -0.00000000000E+00 -0.45593999997E+02  0.45594000000E+02  0.51100000000E-03 0. -1.
    9900012    2    1    2    0    0 -0.38729887428E+01 -0.17942434446E+02  0.37074506780E+01  0.72461649950E+02  0.70000103766E+02 0.  0.
        -12    1    1    2    0    0  0.38729887428E+01  0.17942434446E+02 -0.37074506780E+01  0.18726350050E+02  0.00000000000E+00 0.  1.
         11    1    3    3    0    0 -0.21062394763E+02  0.12535310639E+02 -0.46317049212E+01  0.24944161175E+02  0.51100000000E-03 0. -1.
        -11    1    3    3    0    0 -0.86346137016E+01 -0.33159798228E+01  0.76302051196E+00  0.92808661516E+01  0.51100000000E-03 0.  1.
        -12    1    3    3    0    0  0.25824019722E+02 -0.27161765263E+02  0.75761350873E+01  0.38236622623E+02  0.00000000000E+00 0.  1.
</event>
<event>
 7    1  0.1891413E-013  0.7246157E+02  0.7816164E-02  0.1226708E+00
        -11   -1    0    0    0    0  0.00000000000E+00  0.00000000000E+00  0.45593999997E+02  0.45594000000E+02  0.51100000000E-03 0.  1.
         11   -1    0    0    0    0 -0.00000000000E+00 -0.00000000000E+00 -0.45593999997E+02  0.45594000000E+02  0.51100000000E-03 0. -1.
    9900012    2    1    2    0    0 -0.15507324453E+02 -0.11732268802E+01 -0.10431949172E+02  0.72461571175E+02  0.70000001147E+02 0.  0.
        -12    1    1    2    0    0  0.15507324453E+02  0.11732268802E+01  0.10431949172E+02  0.18726428825E+02  0.00000000000E+00 0.  1.
         11    1    3    3    0    0  0.16306937562E+02  0.15907142073E+02 -0.12392569538E+01  0.22814231077E+02  0.51100000000E-03 0. -1.
        -11    1    3    3    0    0  0.50762126689E+01 -0.99677631304E+01 -0.13436357133E+01  0.11266303479E+02  0.51100000000E-03 0.  1.
        -12    1    3    3    0    0 -0.36890474683E+02 -0.71126058229E+01 -0.78490565052E+01  0.38381036620E+02  0.00000000000E+00 0.  1.
</event>
<event>
 7    1  0.1891413E-013  0.7246136E+02  0.7816164E-02  0.1226709E+00
        -11   -1    0    0    0    0  0.00000000000E+00  0.00000000000E+00  0.45593999997E+02  0.45594000000E+02  0.51100000000E-03 0. -1.
         11   -1    0    0    0    0 -0.00000000000E+00 -0.00000000000E+00 -0.45593999997E+02  0.45594000000E+02  0.51100000000E-03 0.  1.
    9900012    2    1    2    0    0  0.93368791253E+01 -0.12554373046E+02  0.10290656875E+02  0.72461355525E+02  0.69999720222E+02 0.  0.
        -12    1    1    2    0    0 -0.93368791253E+01  0.12554373046E+02 -0.10290656875E+02  0.18726644475E+02  0.00000000000E+00 0.  1.
         11    1    3    3    0    0 -0.14159431698E+02  0.10880014624E+02  0.12473416601E+02  0.21781881144E+02  0.51100000000E-03 0.  1.
        -11    1    3    3    0    0  0.22985136887E+02 -0.42749799751E+01 -0.14857975605E+02  0.27701108477E+02  0.51100000000E-03 0. -1.
         12    1    3    3    0    0  0.51117393581E+00 -0.19159407695E+02  0.12675215879E+02  0.22978365904E+02  0.00000000000E+00 0. -1.
</event>
<event>
 7    1  0.1891413E-013  0.7246161E+02  0.7816164E-02  0.1226708E+00
        -11   -1    0    0    0    0  0.00000000000E+00  0.00000000000E+00  0.45593999997E+02  0.45594000000E+02  0.51100000000E-03 0.  1.
         11   -1    0    0    0    0 -0.00000000000E+00 -0.00000000000E+00 -0.45593999997E+02  0.45594000000E+02  0.51100000000E-03 0. -1.
    9900012    2    1    2    0    0  0.78120071450E+01  0.78654152126E+00 -0.17000930994E+02  0.72461607986E+02  0.70000049101E+02 0.  0.
        -12    1    1    2    0    0 -0.78120071450E+01 -0.78654152126E+00  0.17000930994E+02  0.18726392014E+02  0.00000000000E+00 0.  1.
         11    1    3    3    0    0  0.10508537099E+02  0.24086691250E+02 -0.10446319442E+02  0.28279385380E+02  0.51100000000E-03 0.  1.
        -11    1    3    3    0    0  0.15163860757E+02 -0.13108422240E+02 -0.11394546284E+02  0.23056649625E+02  0.51100000000E-03 0. -1.
        -12    1    3    3    0    0 -0.17860390711E+02 -0.10191727489E+02  0.48399347323E+01  0.21125572981E+02  0.00000000000E+00 0.  1.
</event>
<event>
 7    1  0.1891413E-013  0.7246157E+02  0.7816164E-02  0.1226708E+00
        -11   -1    0    0    0    0  0.00000000000E+00  0.00000000000E+00  0.45593999997E+02  0.45594000000E+02  0.51100000000E-03 0. -1.
         11   -1    0    0    0    0 -0.00000000000E+00 -0.00000000000E+00 -0.45593999997E+02  0.45594000000E+02  0.51100000000E-03 0.  1.
    9900012    2    1    2    0    0 -0.14920487770E+02 -0.35074858083E+01  0.10758984576E+02  0.72461570519E+02  0.70000000293E+02 0.  0.
        -12    1    1    2    0    0  0.14920487770E+02  0.35074858083E+01 -0.10758984576E+02  0.18726429481E+02  0.00000000000E+00 0.  1.
         11    1    3    3    0    0 -0.32298069633E+02 -0.14202222858E+02 -0.31727672403E+01  0.35425060174E+02  0.51100000000E-03 0. -1.
        -11    1    3    3    0    0  0.41971692380E-01 -0.84713668150E+01  0.32762728184E+01  0.90829390166E+01  0.51100000000E-03 0.  1.
        -12    1    3    3    0    0  0.17335610171E+02  0.19166103864E+02  0.10655478998E+02  0.27953571328E+02  0.00000000000E+00 0.  1.
</event>
<event>
 7    1  0.1891413E-013  0.7246157E+02  0.7816164E-02  0.1226708E+00
        -11   -1    0    0    0    0  0.00000000000E+00  0.00000000000E+00  0.45593999997E+02  0.45594000000E+02  0.51100000000E-03 0. -1.
         11   -1    0    0    0    0 -0.00000000000E+00 -0.00000000000E+00 -0.45593999997E+02  0.45594000000E+02  0.51100000000E-03 0.  1.
    9900012    2    1    2    0    0  0.54994222155E+01  0.54727810801E+01  0.17043595209E+02  0.72461571747E+02  0.70000001893E+02 0.  0.
        -12    1    1    2    0    0 -0.54994222155E+01 -0.54727810801E+01 -0.17043595209E+02  0.18726428253E+02  0.00000000000E+00 0.  1.
         11    1    3    3    0    0 -0.21866135715E+01  0.27202824793E+01  0.16578404714E+02  0.16941803883E+02  0.51100000000E-03 0. -1.
        -11    1    3    3    0    0  0.13420465673E+02  0.20186411995E+02  0.17956528885E+02  0.30166820482E+02  0.51100000000E-03 0.  1.
        -12    1    3    3    0    0 -0.57344298861E+01 -0.17433913394E+02 -0.17491338390E+02  0.25352947383E+02  0.00000000000E+00 0.  1.
</event>
<event>
 7    1  0.1891413E-013  0.7246145E+02  0.7816164E-02  0.1226708E+00
        -11   -1    0    0    0    0  0.00000000000E+00  0.00000000000E+00  0.45593999997E+02  0.45594000000E+02  0.51100000000E-03 0. -1.
         11   -1    0    0    0    0 -0.00000000000E+00 -0.00000000000E+00 -0.45593999997E+02  0.45594000000E+02  0.51100000000E-03 0.  1.
    9900012    2    1    2    0    0  0.83918461276E+01  0.12216149134E+02  0.11446676479E+02  0.72461447100E+02  0.69999839516E+02 0.  0.
        -12    1    1    2    0    0 -0.83918461276E+01 -0.12216149134E+02 -0.11446676479E+02  0.18726552900E+02  0.00000000000E+00 0.  1.
         11    1    3    3    0    0  0.83521396282E+01  0.29469305980E+02 -0.93528461138E+01  0.32026144976E+02  0.51100000000E-03 0. -1.
        -11    1    3    3    0    0 -0.32119910510E+01 -0.57809905696E+01 -0.73362231260E+01  0.98770900823E+01  0.51100000000E-03 0.  1.
        -12    1    3    3    0    0  0.32516975504E+01 -0.11472166277E+02  0.28135745719E+02  0.30558212042E+02  0.00000000000E+00 0.  1.
</event>
<event>
 7    1  0.1891413E-013  0.7246148E+02  0.7816164E-02  0.1226708E+00
        -11   -1    0    0    0    0  0.00000000000E+00  0.00000000000E+00  0.45593999997E+02  0.45594000000E+02  0.51100000000E-03 0.  1.
         11   -1    0    0    0    0 -0.00000000000E+00 -0.00000000000E+00 -0.45593999997E+02  0.45594000000E+02  0.51100000000E-03 0. -1.
    9900012    2    1    2    0    0 -0.17276795608E+02 -0.70204045202E+01  0.17055001831E+01  0.72461481985E+02  0.69999884960E+02 0.  0.
        -12    1    1    2    0    0  0.17276795608E+02  0.70204045202E+01 -0.17055001831E+01  0.18726518015E+02  0.00000000000E+00 0.  1.
         11    1    3    3    0    0 -0.12554838175E+02  0.42418778793E+00 -0.69628821241E+01  0.14362646853E+02  0.51100000000E-03 0. -1.
        -11    1    3    3    0    0 -0.83581847753E+01 -0.12438589679E+02 -0.22108072766E+02  0.26708512644E+02  0.51100000000E-03 0.  1.
        -12    1    3    3    0    0  0.36362273429E+01  0.49939973713E+01  0.30776455073E+02  0.31390322488E+02  0.00000000000E+00 0.  1.
</event>
<event>
 7    1  0.1891413E-013  0.7246144E+02  0.7816164E-02  0.1226708E+00
        -11   -1    0    0    0    0  0.00000000000E+00  0.00000000000E+00  0.45593999997E+02  0.45594000000E+02  0.51100000000E-03 0. -1.
         11   -1    0    0    0    0 -0.00000000000E+00 -0.00000000000E+00 -0.45593999997E+02  0.45594000000E+02  0.51100000000E-03 0.  1.
    9900012    2    1    2    0    0 -0.15135941440E+02 -0.64698844735E+01  0.89290405066E+01  0.72461444183E+02  0.69999835717E+02 0.  0.
        -12    1    1    2    0    0  0.15135941440E+02  0.64698844735E+01 -0.89290405066E+01  0.18726555817E+02  0.00000000000E+00 0.  1.
         11    1    3    3    0    0  0.23391220932E+02  0.25926104334E+01  0.18578405688E+02  0.29983795685E+02  0.51100000000E-03 0. -1.
        -11    1    3    3    0    0 -0.92545111830E+00 -0.25118588586E+01 -0.24657355617E+01  0.36394706785E+01  0.51100000000E-03 0.  1.
        -12    1    3    3    0    0 -0.37601711254E+02 -0.65506360483E+01 -0.71836296197E+01  0.38838177820E+02  0.00000000000E+00 0.  1.
</event>
<event>
 7    1  0.1891413E-013  0.7246158E+02  0.7816164E-02  0.1226708E+00
        -11   -1    0    0    0    0  0.00000000000E+00  0.00000000000E+00  0.45593999997E+02  0.45594000000E+02  0.51100000000E-03 0.  1.
         11   -1    0    0    0    0 -0.00000000000E+00 -0.00000000000E+00 -0.45593999997E+02  0.45594000000E+02  0.51100000000E-03 0. -1.
    9900012    2    1    2    0    0 -0.18373135098E+02  0.35475205559E+01 -0.72248825744E+00  0.72461575229E+02  0.70000006429E+02 0.  0.
        -12    1    1    2    0    0  0.18373135098E+02 -0.35475205559E+01  0.72248825744E+00  0.18726424771E+02  0.00000000000E+00 0.  1.
         11    1    3    3    0    0  0.92363048798E+01 -0.60462200811E+01 -0.14137670618E+02  0.17937107790E+02  0.51100000000E-03 0. -1.
        -11    1    3    3    0    0 -0.22631688157E+02  0.16396801902E+02 -0.99652810827E+01  0.29670781061E+02  0.51100000000E-03 0.  1.
        -12    1    3    3    0    0 -0.49777518200E+01 -0.68030612645E+01  0.23380463444E+02  0.24853686378E+02  0.00000000000E+00 0.  1.
</event>
<event>
 7    1  0.1891413E-013  0.7246157E+02  0.7816164E-02  0.1226708E+00
        -11   -1    0    0    0    0  0.00000000000E+00  0.00000000000E+00  0.45593999997E+02  0.45594000000E+02  0.51100000000E-03 0.  1.
         11   -1    0    0    0    0 -0.00000000000E+00 -0.00000000000E+00 -0.45593999997E+02  0.45594000000E+02  0.51100000000E-03 0. -1.
    9900012    2    1    2    0    0  0.18192186526E+02  0.31393581202E+01 -0.31413203299E+01  0.72461571792E+02  0.70000001951E+02 0.  0.
        -12    1    1    2    0    0 -0.18192186526E+02 -0.31393581202E+01  0.31413203299E+01  0.18726428208E+02  0.00000000000E+00 0.  1.
         11    1    3    3    0    0 -0.13255200459E+02  0.22025252056E+01  0.50983197403E+01  0.14371649902E+02  0.51100000000E-03 0. -1.
        -11    1    3    3    0    0  0.64894063883E+01 -0.22364521688E+02 -0.47596826646E+01  0.23768441366E+02  0.51100000000E-03 0.  1.
         12    1    3    3    0    0  0.24957980597E+02  0.23301354603E+02 -0.34799574056E+01  0.34321480524E+02  0.00000000000E+00 0. -1.
</event>
<event>
 7    1  0.1891413E-013  0.7246158E+02  0.7816164E-02  0.1226708E+00
        -11   -1    0    0    0    0  0.00000000000E+00  0.00000000000E+00  0.45593999997E+02  0.45594000000E+02  0.51100000000E-03 0. -1.
         11   -1    0    0    0    0 -0.00000000000E+00 -0.00000000000E+00 -0.45593999997E+02  0.45594000000E+02  0.51100000000E-03 0.  1.
    9900012    2    1    2    0    0  0.46166194345E+01  0.10363501771E+02  0.14898444040E+02  0.72461575388E+02  0.70000006635E+02 0.  0.
        -12    1    1    2    0    0 -0.46166194345E+01 -0.10363501771E+02 -0.14898444040E+02  0.18726424612E+02  0.00000000000E+00 0.  1.
         11    1    3    3    0    0  0.86056390973E+01  0.19993036843E+02 -0.33969205840E+01  0.22029925469E+02  0.51100000000E-03 0. -1.
        -11    1    3    3    0    0  0.20598123224E+02 -0.42896673477E+01  0.37565932057E+01  0.21372784542E+02  0.51100000000E-03 0.  1.
         12    1    3    3    0    0 -0.24587142887E+02 -0.53398677244E+01  0.14538771418E+02  0.29058865377E+02  0.00000000000E+00 0. -1.
</event>
<event>
 7    1  0.1891413E-013  0.7246152E+02  0.7816164E-02  0.1226708E+00
        -11   -1    0    0    0    0  0.00000000000E+00  0.00000000000E+00  0.45593999997E+02  0.45594000000E+02  0.51100000000E-03 0. -1.
         11   -1    0    0    0    0 -0.00000000000E+00 -0.00000000000E+00 -0.45593999997E+02  0.45594000000E+02  0.51100000000E-03 0.  1.
    9900012    2    1    2    0    0 -0.10868521375E+01 -0.15654618808E+02  0.10219230804E+02  0.72461520998E+02  0.69999935783E+02 0.  0.
        -12    1    1    2    0    0  0.10868521375E+01  0.15654618808E+02 -0.10219230804E+02  0.18726479002E+02  0.00000000000E+00 0.  1.
         11    1    3    3    0    0  0.30581490612E+01  0.19454287950E+01 -0.12389387377E+01  0.38303966288E+01  0.51100000000E-03 0. -1.
        -11    1    3    3    0    0 -0.21941531535E+02  0.86440648950E+01 -0.14472300790E+02  0.27669444418E+02  0.51100000000E-03 0.  1.
         12    1    3    3    0    0  0.17796530336E+02 -0.26244112498E+02  0.25930470332E+02  0.40961679951E+02  0.00000000000E+00 0. -1.
</event>
<event>
 7    1  0.1891413E-013  0.7246162E+02  0.7816164E-02  0.1226708E+00
        -11   -1    0    0    0    0  0.00000000000E+00  0.00000000000E+00  0.45593999997E+02  0.45594000000E+02  0.51100000000E-03 0. -1.
         11   -1    0    0    0    0 -0.00000000000E+00 -0.00000000000E+00 -0.45593999997E+02  0.45594000000E+02  0.51100000000E-03 0.  1.
    9900012    2    1    2    0    0  0.15697846568E+02  0.29667307339E+01  0.97700298586E+01  0.72461618567E+02  0.70000062884E+02 0.  0.
        -12    1    1    2    0    0 -0.15697846568E+02 -0.29667307339E+01 -0.97700298586E+01  0.18726381433E+02  0.00000000000E+00 0.  1.
         11    1    3    3    0    0 -0.19454313555E+02  0.24806763195E+01 -0.55067552671E+01  0.20370282883E+02  0.51100000000E-03 0. -1.
        -11    1    3    3    0    0  0.21922538992E+02  0.17630390597E+02  0.80357280542E+01  0.29257500134E+02  0.51100000000E-03 0.  1.
         12    1    3    3    0    0  0.13229621131E+02 -0.17144336183E+02  0.72410570715E+01  0.22833835551E+02  0.00000000000E+00 0. -1.
</event>
<event>
 7    1  0.1891413E-013  0.7246157E+02  0.7816164E-02  0.1226708E+00
        -11   -1    0    0    0    0  0.00000000000E+00  0.00000000000E+00  0.45593999997E+02  0.45594000000E+02  0.51100000000E-03 0.  1.
         11   -1    0    0    0    0 -0.00000000000E+00 -0.00000000000E+00 -0.45593999997E+02  0.45594000000E+02  0.51100000000E-03 0. -1.
    9900012    2    1    2    0    0  0.12154004660E+02 -0.13078818588E+02 -0.56483385021E+01  0.72461573412E+02  0.70000004061E+02 0.  0.
        -12    1    1    2    0    0 -0.12154004660E+02  0.13078818588E+02  0.56483385021E+01  0.18726426588E+02  0.00000000000E+00 0.  1.
         11    1    3    3    0    0  0.97243688368E+00  0.77445000938E+01 -0.53851555481E+01  0.94827641400E+01  0.51100000000E-03 0. -1.
        -11    1    3    3    0    0  0.20583465683E+02  0.36785186576E+01  0.20675488989E+02  0.29405550568E+02  0.51100000000E-03 0.  1.
         12    1    3    3    0    0 -0.94018979073E+01 -0.24501837339E+02 -0.20938671943E+02  0.33573258704E+02  0.00000000000E+00 0. -1.
</event>
<event>
 7    1  0.1891413E-013  0.7246106E+02  0.7816164E-02  0.1226709E+00
        -11   -1    0    0    0    0  0.00000000000E+00  0.00000000000E+00  0.45593999997E+02  0.45594000000E+02  0.51100000000E-03 0.  1.
         11   -1    0    0    0    0 -0.00000000000E+00 -0.00000000000E+00 -0.45593999997E+02  0.45594000000E+02  0.51100000000E-03 0. -1.
    9900012    2    1    2    0    0  0.11199025806E+02  0.14994971175E+02  0.65650086882E+00  0.72461058634E+02  0.69999333464E+02 0.  0.
        -12    1    1    2    0    0 -0.11199025806E+02 -0.14994971175E+02 -0.65650086882E+00  0.18726941366E+02  0.00000000000E+00 0.  1.
         11    1    3    3    0    0 -0.32841978064E+00 -0.23917175625E+01  0.10685383803E+02  0.10954706739E+02  0.51100000000E-03 0. -1.
        -11    1    3    3    0    0 -0.97382223947E+01  0.25421051307E+02  0.12091848317E+02  0.29787172087E+02  0.51100000000E-03 0.  1.
         12    1    3    3    0    0  0.21265667982E+02 -0.80343625693E+01 -0.22120731251E+02  0.31719179808E+02  0.00000000000E+00 0. -1.
</event>
<event>
 7    1  0.1891413E-013  0.7246154E+02  0.7816164E-02  0.1226708E+00
        -11   -1    0    0    0    0  0.00000000000E+00  0.00000000000E+00  0.45593999997E+02  0.45594000000E+02  0.51100000000E-03 0. -1.
         11   -1    0    0    0    0 -0.00000000000E+00 -0.00000000000E+00 -0.45593999997E+02  0.45594000000E+02  0.51100000000E-03 0.  1.
    9900012    2    1    2    0    0 -0.40936162847E-01 -0.17605334600E+02  0.63820778028E+01  0.72461537461E+02  0.69999957228E+02 0.  0.
        -12    1    1    2    0    0  0.40936162847E-01  0.17605334600E+02 -0.63820778028E+01  0.18726462539E+02  0.00000000000E+00 0.  1.
         11    1    3    3    0    0  0.12557803948E+02 -0.10602125367E+02 -0.10540819381E+02  0.19524660708E+02  0.51100000000E-03 0.  1.
        -11    1    3    3    0    0  0.10320918861E+02  0.32201555568E+01  0.24451885205E+02  0.26735471911E+02  0.51100000000E-03 0. -1.
         12    1    3    3    0    0 -0.22919658972E+02 -0.10223364790E+02 -0.75289880213E+01  0.26201404841E+02  0.00000000000E+00 0. -1.
</event>
<event>
 7    1  0.1891413E-013  0.7246164E+02  0.7816164E-02  0.1226708E+00
        -11   -1    0    0    0    0  0.00000000000E+00  0.00000000000E+00  0.45593999997E+02  0.45594000000E+02  0.51100000000E-03 0. -1.
         11   -1    0    0    0    0 -0.00000000000E+00 -0.00000000000E+00 -0.45593999997E+02  0.45594000000E+02  0.51100000000E-03 0.  1.
    9900012    2    1    2    0    0 -0.61558971232E+01 -0.11934476138E+01  0.17645314323E+02  0.72461641461E+02  0.70000092707E+02 0.  0.
        -12    1    1    2    0    0  0.61558971232E+01  0.11934476138E+01 -0.17645314323E+02  0.18726358539E+02  0.00000000000E+00 0.  1.
         11    1    3    3    0    0  0.14054711549E+02  0.24638238189E+02  0.73785732103E+01  0.29309060727E+02  0.51100000000E-03 0. -1.
        -11    1    3    3    0    0 -0.49096865962E+00  0.59359535218E+00 -0.62344594920E+01  0.62818700310E+01  0.51100000000E-03 0.  1.
         12    1    3    3    0    0 -0.19719640013E+02 -0.26425281155E+02  0.16501200605E+02  0.36870710703E+02  0.00000000000E+00 0. -1.
</event>
<event>
 7    1  0.1891413E-013  0.7246093E+02  0.7816164E-02  0.1226710E+00
        -11   -1    0    0    0    0  0.00000000000E+00  0.00000000000E+00  0.45593999997E+02  0.45594000000E+02  0.51100000000E-03 0.  1.
         11   -1    0    0    0    0 -0.00000000000E+00 -0.00000000000E+00 -0.45593999997E+02  0.45594000000E+02  0.51100000000E-03 0. -1.
    9900012    2    1    2    0    0  0.16882434117E+02  0.77728939766E+01  0.22953835823E+01  0.72460927397E+02  0.69999162502E+02 0.  0.
        -12    1    1    2    0    0 -0.16882434117E+02 -0.77728939766E+01 -0.22953835823E+01  0.18727072603E+02  0.00000000000E+00 0.  1.
         11    1    3    3    0    0  0.71346161456E+01 -0.22605229361E+02 -0.39202732171E+01  0.24026395576E+02  0.51100000000E-03 0. -1.
        -11    1    3    3    0    0  0.17727941067E+02  0.21178341283E+02  0.16776305975E+02  0.32314802745E+02  0.51100000000E-03 0.  1.
        -12    1    3    3    0    0 -0.79801230956E+01  0.91997820546E+01 -0.10560649176E+02  0.16119729076E+02  0.00000000000E+00 0.  1.
</event>
<event>
 7    1  0.1891413E-013  0.7246157E+02  0.7816164E-02  0.1226708E+00
        -11   -1    0    0    0    0  0.00000000000E+00  0.00000000000E+00  0.45593999997E+02  0.45594000000E+02  0.51100000000E-03 0. -1.
         11   -1    0    0    0    0 -0.00000000000E+00 -0.00000000000E+00 -0.45593999997E+02  0.45594000000E+02  0.51100000000E-03 0.  1.
    9900012    2    1    2    0    0 -0.17287804382E+02 -0.71961263181E+01 -0.16356457407E+00  0.72461570343E+02  0.70000000063E+02 0.  0.
        -12    1    1    2    0    0  0.17287804382E+02  0.71961263181E+01  0.16356457407E+00  0.18726429657E+02  0.00000000000E+00 0.  1.
         11    1    3    3    0    0 -0.58296709527E+01 -0.84080088422E+01  0.43289307252E+01  0.11109424719E+02  0.51100000000E-03 0. -1.
        -11    1    3    3    0    0 -0.14412040830E+02  0.13333973936E+02  0.23548903804E+02  0.30660278088E+02  0.51100000000E-03 0.  1.
        -12    1    3    3    0    0  0.29539074005E+01 -0.12122091412E+02 -0.28041399103E+02  0.30691867535E+02  0.00000000000E+00 0.  1.
</event>
<event>
 7    1  0.1891413E-013  0.7246155E+02  0.7816164E-02  0.1226708E+00
        -11   -1    0    0    0    0  0.00000000000E+00  0.00000000000E+00  0.45593999997E+02  0.45594000000E+02  0.51100000000E-03 0.  1.
         11   -1    0    0    0    0 -0.00000000000E+00 -0.00000000000E+00 -0.45593999997E+02  0.45594000000E+02  0.51100000000E-03 0. -1.
    9900012    2    1    2    0    0  0.13770941312E+01  0.12549298557E+02 -0.13831074943E+02  0.72461550348E+02  0.69999974016E+02 0.  0.
        -12    1    1    2    0    0 -0.13770941312E+01 -0.12549298557E+02  0.13831074943E+02  0.18726449652E+02  0.00000000000E+00 0.  1.
         11    1    3    3    0    0 -0.19061566678E+02  0.22807211243E+02 -0.26849162987E+02  0.40054834443E+02  0.51100000000E-03 0. -1.
        -11    1    3    3    0    0  0.13509886600E+01  0.43895571475E+01 -0.79857948157E+00  0.46616640548E+01  0.51100000000E-03 0.  1.
        -12    1    3    3    0    0  0.19087672149E+02 -0.14647469834E+02  0.13816667526E+02  0.27745051850E+02  0.00000000000E+00 0.  1.
</event>
<event>
 7    1  0.1891413E-013  0.7246157E+02  0.7816164E-02  0.1226708E+00
        -11   -1    0    0    0    0  0.00000000000E+00  0.00000000000E+00  0.45593999997E+02  0.45594000000E+02  0.51100000000E-03 0. -1.
         11   -1    0    0    0    0 -0.00000000000E+00 -0.00000000000E+00 -0.45593999997E+02  0.45594000000E+02  0.51100000000E-03 0.  1.
    9900012    2    1    2    0    0 -0.12345520934E+02 -0.11509903310E+02  0.81110678491E+01  0.72461569935E+02  0.69999999532E+02 0.  0.
        -12    1    1    2    0    0  0.12345520934E+02  0.11509903310E+02 -0.81110678491E+01  0.18726430065E+02  0.00000000000E+00 0.  1.
         11    1    3    3    0    0 -0.12283194260E+02  0.66498751603E+01  0.26532136501E+02  0.29984195311E+02  0.51100000000E-03 0. -1.
        -11    1    3    3    0    0 -0.46241263277E+01  0.44923915704E+01  0.60355586425E+01  0.88313133058E+01  0.51100000000E-03 0.  1.
        -12    1    3    3    0    0  0.45617996540E+01 -0.22652170041E+02 -0.24456627294E+02  0.33646061318E+02  0.00000000000E+00 0.  1.
</event>
<event>
 7    1  0.1891413E-013  0.7246181E+02  0.7816164E-02  0.1226707E+00
        -11   -1    0    0    0    0  0.00000000000E+00  0.00000000000E+00  0.45593999997E+02  0.45594000000E+02  0.51100000000E-03 0.  1.
         11   -1    0    0    0    0 -0.00000000000E+00 -0.00000000000E+00 -0.45593999997E+02  0.45594000000E+02  0.51100000000E-03 0. -1.
    9900012    2    1    2    0    0 -0.55385323983E+01  0.17779761035E+02  0.19684941474E+01  0.72461809442E+02  0.70000311534E+02 0.  0.
        -12    1    1    2    0    0  0.55385323983E+01 -0.17779761035E+02 -0.19684941474E+01  0.18726190558E+02  0.00000000000E+00 0.  1.
         11    1    3    3    0    0 -0.33770955386E+02  0.65380446162E+01 -0.52517432416E+01  0.34796612801E+02  0.51100000000E-03 0. -1.
        -11    1    3    3    0    0  0.15665718842E+01 -0.25136813934E+01 -0.45544877699E+01  0.54328722351E+01  0.51100000000E-03 0.  1.
        -12    1    3    3    0    0  0.26665851103E+02  0.13755397813E+02  0.11774725159E+02  0.32232324406E+02  0.00000000000E+00 0.  1.
</event>
<event>
 7    1  0.1891413E-013  0.7246157E+02  0.7816164E-02  0.1226708E+00
        -11   -1    0    0    0    0  0.00000000000E+00  0.00000000000E+00  0.45593999997E+02  0.45594000000E+02  0.51100000000E-03 0. -1.
         11   -1    0    0    0    0 -0.00000000000E+00 -0.00000000000E+00 -0.45593999997E+02  0.45594000000E+02  0.51100000000E-03 0.  1.
    9900012    2    1    2    0    0 -0.77170588616E+01 -0.11504496178E+02 -0.12600502980E+02  0.72461572014E+02  0.70000002240E+02 0.  0.
        -12    1    1    2    0    0  0.77170588616E+01  0.11504496178E+02  0.12600502980E+02  0.18726427986E+02  0.00000000000E+00 0.  1.
         11    1    3    3    0    0  0.15497744118E+01 -0.18232108437E+01  0.28815580279E+01  0.37455674386E+01  0.51100000000E-03 0. -1.
        -11    1    3    3    0    0  0.10030959787E+02 -0.53792166008E+01 -0.37461411011E+02  0.39152438502E+02  0.51100000000E-03 0.  1.
         12    1    3    3    0    0 -0.19297793060E+02 -0.43020687331E+01  0.21979350003E+02  0.29563566072E+02  0.00000000000E+00 0. -1.
</event>
<event>
 7    1  0.1891413E-013  0.7246157E+02  0.7816164E-02  0.1226708E+00
        -11   -1    0    0    0    0  0.00000000000E+00  0.00000000000E+00  0.45593999997E+02  0.45594000000E+02  0.51100000000E-03 0.  1.
         11   -1    0    0    0    0 -0.00000000000E+00 -0.00000000000E+00 -0.45593999997E+02  0.45594000000E+02  0.51100000000E-03 0. -1.
    9900012    2    1    2    0    0  0.11885064970E+02 -0.14005588041E+02 -0.36425362275E+01  0.72461565852E+02  0.69999994213E+02 0.  0.
        -12    1    1    2    0    0 -0.11885064970E+02  0.14005588041E+02  0.36425362275E+01  0.18726434148E+02  0.00000000000E+00 0.  1.
         11    1    3    3    0    0  0.16152077893E+02  0.27459445178E+01 -0.59017877377E+01  0.17414388600E+02  0.51100000000E-03 0. -1.
        -11    1    3    3    0    0 -0.17566621552E+02  0.70105116808E+00  0.20145771287E+02  0.26738170590E+02  0.51100000000E-03 0.  1.
         12    1    3    3    0    0  0.13299608630E+02 -0.17452583727E+02 -0.17886519777E+02  0.28309006662E+02  0.00000000000E+00 0. -1.
</event>
<event>
 7    1  0.1891413E-013  0.7246159E+02  0.7816164E-02  0.1226708E+00
        -11   -1    0    0    0    0  0.00000000000E+00  0.00000000000E+00  0.45593999997E+02  0.45594000000E+02  0.51100000000E-03 0.  1.
         11   -1    0    0    0    0 -0.00000000000E+00 -0.00000000000E+00 -0.45593999997E+02  0.45594000000E+02  0.51100000000E-03 0. -1.
    9900012    2    1    2    0    0 -0.18110101510E+02 -0.33005118286E+00  0.47532698917E+01  0.72461593907E+02  0.70000030760E+02 0.  0.
        -12    1    1    2    0    0  0.18110101510E+02  0.33005118286E+00 -0.47532698917E+01  0.18726406093E+02  0.00000000000E+00 0.  1.
         11    1    3    3    0    0  0.27620748407E+01  0.80303289529E+01 -0.10869521116E+02  0.13793539433E+02  0.51100000000E-03 0. -1.
        -11    1    3    3    0    0 -0.22736535891E+02  0.11753680492E+02 -0.87162261440E+01  0.27038337003E+02  0.51100000000E-03 0.  1.
        -12    1    3    3    0    0  0.18643595406E+01 -0.20114060627E+02  0.24339017152E+02  0.31629717472E+02  0.00000000000E+00 0.  1.
</event>
<event>
 7    1  0.1891413E-013  0.7246159E+02  0.7816164E-02  0.1226708E+00
        -11   -1    0    0    0    0  0.00000000000E+00  0.00000000000E+00  0.45593999997E+02  0.45594000000E+02  0.51100000000E-03 0. -1.
         11   -1    0    0    0    0 -0.00000000000E+00 -0.00000000000E+00 -0.45593999997E+02  0.45594000000E+02  0.51100000000E-03 0.  1.
    9900012    2    1    2    0    0  0.51378138524E+01 -0.96767169420E+01  0.15186914137E+02  0.72461592364E+02  0.70000028750E+02 0.  0.
        -12    1    1    2    0    0 -0.51378138524E+01  0.96767169420E+01 -0.15186914137E+02  0.18726407636E+02  0.00000000000E+00 0.  1.
         11    1    3    3    0    0 -0.14692778206E+02  0.43719261728E+01  0.21228052251E+02  0.26184378406E+02  0.51100000000E-03 0. -1.
        -11    1    3    3    0    0 -0.54509084974E+01 -0.16484135549E+01 -0.15547019130E+02  0.16557157811E+02  0.51100000000E-03 0.  1.
        -12    1    3    3    0    0  0.25281500556E+02 -0.12400229560E+02  0.95058810153E+01  0.29720056147E+02  0.00000000000E+00 0.  1.
</event>
<event>
 7    1  0.1891413E-013  0.7246158E+02  0.7816164E-02  0.1226708E+00
        -11   -1    0    0    0    0  0.00000000000E+00  0.00000000000E+00  0.45593999997E+02  0.45594000000E+02  0.51100000000E-03 0.  1.
         11   -1    0    0    0    0 -0.00000000000E+00 -0.00000000000E+00 -0.45593999997E+02  0.45594000000E+02  0.51100000000E-03 0. -1.
    9900012    2    1    2    0    0 -0.92270096062E+01 -0.94893583378E+01 -0.13247379595E+02  0.72461582989E+02  0.70000016537E+02 0.  0.
        -12    1    1    2    0    0  0.92270096062E+01  0.94893583378E+01  0.13247379595E+02  0.18726417011E+02  0.00000000000E+00 0.  1.
         11    1    3    3    0    0  0.24629865755E+00  0.16042065884E+02 -0.55721754105E+01  0.16984041920E+02  0.51100000000E-03 0. -1.
        -11    1    3    3    0    0 -0.25421427161E+02 -0.71625768757E+00 -0.29184823238E+01  0.25598428142E+02  0.51100000000E-03 0.  1.
        -12    1    3    3    0    0  0.15948118897E+02 -0.24815166534E+02 -0.47567218606E+01  0.29879112928E+02  0.00000000000E+00 0.  1.
</event>
<event>
 7    1  0.1891413E-013  0.7246150E+02  0.7816164E-02  0.1226708E+00
        -11   -1    0    0    0    0  0.00000000000E+00  0.00000000000E+00  0.45593999997E+02  0.45594000000E+02  0.51100000000E-03 0. -1.
         11   -1    0    0    0    0 -0.00000000000E+00 -0.00000000000E+00 -0.45593999997E+02  0.45594000000E+02  0.51100000000E-03 0.  1.
    9900012    2    1    2    0    0 -0.17284818957E+02 -0.72002758608E+01 -0.26961968663E+00  0.72461504502E+02  0.69999914293E+02 0.  0.
        -12    1    1    2    0    0  0.17284818957E+02  0.72002758608E+01  0.26961968663E+00  0.18726495498E+02  0.00000000000E+00 0.  1.
         11    1    3    3    0    0 -0.17094384842E+02 -0.11454470110E+02  0.16432345395E+01  0.20642749299E+02  0.51100000000E-03 0. -1.
        -11    1    3    3    0    0 -0.13113452174E+02  0.32437416820E+01 -0.23228628899E+02  0.26871056711E+02  0.51100000000E-03 0.  1.
         12    1    3    3    0    0  0.12923018058E+02  0.10104525673E+01  0.21315774673E+02  0.24947698491E+02  0.00000000000E+00 0. -1.
</event>
<event>
 7    1  0.1891413E-013  0.7246155E+02  0.7816164E-02  0.1226708E+00
        -11   -1    0    0    0    0  0.00000000000E+00  0.00000000000E+00  0.45593999997E+02  0.45594000000E+02  0.51100000000E-03 0.  1.
         11   -1    0    0    0    0 -0.00000000000E+00 -0.00000000000E+00 -0.45593999997E+02  0.45594000000E+02  0.51100000000E-03 0. -1.
    9900012    2    1    2    0    0 -0.31061449692E+01  0.10948824801E+02 -0.14871277200E+02  0.72461553817E+02  0.69999978535E+02 0.  0.
        -12    1    1    2    0    0  0.31061449692E+01 -0.10948824801E+02  0.14871277200E+02  0.18726446183E+02  0.00000000000E+00 0.  1.
         11    1    3    3    0    0 -0.99439989264E+01 -0.44440054140E+01  0.12152568822E+01  0.10959431934E+02  0.51100000000E-03 0. -1.
        -11    1    3    3    0    0 -0.11490866147E+02  0.16658664108E+02  0.15138510678E+02  0.25273021198E+02  0.51100000000E-03 0.  1.
         12    1    3    3    0    0  0.18328720104E+02 -0.12658338932E+01 -0.31225044761E+02  0.36229100685E+02  0.00000000000E+00 0. -1.
</event>
<event>
 7    1  0.1891413E-013  0.7246156E+02  0.7816164E-02  0.1226708E+00
        -11   -1    0    0    0    0  0.00000000000E+00  0.00000000000E+00  0.45593999997E+02  0.45594000000E+02  0.51100000000E-03 0.  1.
         11   -1    0    0    0    0 -0.00000000000E+00 -0.00000000000E+00 -0.45593999997E+02  0.45594000000E+02  0.51100000000E-03 0. -1.
    9900012    2    1    2    0    0  0.75701622813E+00  0.59482829311E+01 -0.17740475050E+02  0.72461558844E+02  0.69999985083E+02 0.  0.
        -12    1    1    2    0    0 -0.75701622813E+00 -0.59482829311E+01  0.17740475050E+02  0.18726441156E+02  0.00000000000E+00 0.  1.
         11    1    3    3    0    0 -0.84428058158E+01 -0.95707655658E+01 -0.24538223813E+02  0.27658722886E+02  0.51100000000E-03 0. -1.
        -11    1    3    3    0    0 -0.16698705963E+01  0.12705328942E+02 -0.15335354161E+02  0.19984667594E+02  0.51100000000E-03 0.  1.
        -12    1    3    3    0    0  0.10869692640E+02  0.28137195553E+01  0.22133102925E+02  0.24818168363E+02  0.00000000000E+00 0.  1.
</event>
<event>
 7    1  0.1891413E-013  0.7246156E+02  0.7816164E-02  0.1226708E+00
        -11   -1    0    0    0    0  0.00000000000E+00  0.00000000000E+00  0.45593999997E+02  0.45594000000E+02  0.51100000000E-03 0.  1.
         11   -1    0    0    0    0 -0.00000000000E+00 -0.00000000000E+00 -0.45593999997E+02  0.45594000000E+02  0.51100000000E-03 0. -1.
    9900012    2    1    2    0    0 -0.13894060164E+02 -0.65666534110E+01 -0.10701101871E+02  0.72461563443E+02  0.69999991075E+02 0.  0.
        -12    1    1    2    0    0  0.13894060164E+02  0.65666534110E+01  0.10701101871E+02  0.18726436557E+02  0.00000000000E+00 0.  1.
         11    1    3    3    0    0  0.69153278001E+01 -0.30361262442E+01  0.58067771332E+01  0.95267246255E+01  0.51100000000E-03 0. -1.
        -11    1    3    3    0    0 -0.12855695141E+02  0.25697417494E+02 -0.15453414072E+02  0.32625667352E+02  0.51100000000E-03 0.  1.
         12    1    3    3    0    0 -0.79536928232E+01 -0.29227944661E+02 -0.10544649322E+01  0.30309171465E+02  0.00000000000E+00 0. -1.
</event>
<event>
 7    1  0.1891413E-013  0.7246158E+02  0.7816164E-02  0.1226708E+00
        -11   -1    0    0    0    0  0.00000000000E+00  0.00000000000E+00  0.45593999997E+02  0.45594000000E+02  0.51100000000E-03 0.  1.
         11   -1    0    0    0    0 -0.00000000000E+00 -0.00000000000E+00 -0.45593999997E+02  0.45594000000E+02  0.51100000000E-03 0. -1.
    9900012    2    1    2    0    0 -0.76863014716E+01  0.17070305061E+02 -0.45185537819E+00  0.72461582337E+02  0.70000015688E+02 0.  0.
        -12    1    1    2    0    0  0.76863014716E+01 -0.17070305061E+02  0.45185537819E+00  0.18726417663E+02  0.00000000000E+00 0.  1.
         11    1    3    3    0    0  0.74003172995E+00 -0.15229636613E+02  0.49188519329E+01  0.16021378934E+02  0.51100000000E-03 0. -1.
        -11    1    3    3    0    0  0.11737645609E+02  0.62204473934E+00 -0.13623235449E+02  0.17993104470E+02  0.51100000000E-03 0.  1.
        -12    1    3    3    0    0 -0.20163978811E+02  0.31677896935E+02  0.82525281383E+01  0.38447098933E+02  0.00000000000E+00 0.  1.
</event>
<event>
 7    1  0.1891413E-013  0.7246153E+02  0.7816164E-02  0.1226708E+00
        -11   -1    0    0    0    0  0.00000000000E+00  0.00000000000E+00  0.45593999997E+02  0.45594000000E+02  0.51100000000E-03 0.  1.
         11   -1    0    0    0    0 -0.00000000000E+00 -0.00000000000E+00 -0.45593999997E+02  0.45594000000E+02  0.51100000000E-03 0. -1.
    9900012    2    1    2    0    0 -0.96251595103E+01 -0.16046315793E+02  0.74335960272E+00  0.72461533979E+02  0.69999952693E+02 0.  0.
        -12    1    1    2    0    0  0.96251595103E+01  0.16046315793E+02 -0.74335960272E+00  0.18726466021E+02  0.00000000000E+00 0.  1.
         11    1    3    3    0    0  0.94420341283E+00 -0.15296344107E+02 -0.19300039048E+02  0.24644698632E+02  0.51100000000E-03 0. -1.
        -11    1    3    3    0    0  0.11697002467E+02 -0.41641323794E+01 -0.56547136253E+01  0.13643154020E+02  0.51100000000E-03 0.  1.
        -12    1    3    3    0    0 -0.22266365390E+02  0.34141606941E+01  0.25698112276E+02  0.34173681327E+02  0.00000000000E+00 0.  1.
</event>
<event>
 7    1  0.1891413E-013  0.7246158E+02  0.7816164E-02  0.1226708E+00
        -11   -1    0    0    0    0  0.00000000000E+00  0.00000000000E+00  0.45593999997E+02  0.45594000000E+02  0.51100000000E-03 0.  1.
         11   -1    0    0    0    0 -0.00000000000E+00 -0.00000000000E+00 -0.45593999997E+02  0.45594000000E+02  0.51100000000E-03 0. -1.
    9900012    2    1    2    0    0 -0.15770649772E+02  0.88010632414E+01  0.49504402776E+01  0.72461575692E+02  0.70000007032E+02 0.  0.
        -12    1    1    2    0    0  0.15770649772E+02 -0.88010632414E+01 -0.49504402776E+01  0.18726424308E+02  0.00000000000E+00 0.  1.
         11    1    3    3    0    0 -0.23394907898E+02 -0.14595338468E+02  0.17532536736E+01  0.27630047398E+02  0.51100000000E-03 0. -1.
        -11    1    3    3    0    0 -0.79395920313E+01  0.54950244765E+01  0.15383877151E+02  0.18163041928E+02  0.51100000000E-03 0.  1.
         12    1    3    3    0    0  0.15563850157E+02  0.17901377233E+02 -0.12186690547E+02  0.26668486366E+02  0.00000000000E+00 0. -1.
</event>
<event>
 7    1  0.1891413E-013  0.7246156E+02  0.7816164E-02  0.1226708E+00
        -11   -1    0    0    0    0  0.00000000000E+00  0.00000000000E+00  0.45593999997E+02  0.45594000000E+02  0.51100000000E-03 0.  1.
         11   -1    0    0    0    0 -0.00000000000E+00 -0.00000000000E+00 -0.45593999997E+02  0.45594000000E+02  0.51100000000E-03 0. -1.
    9900012    2    1    2    0    0  0.13448727880E+01  0.20427588262E+01 -0.18566048498E+02  0.72461556043E+02  0.69999981435E+02 0.  0.
        -12    1    1    2    0    0 -0.13448727880E+01 -0.20427588262E+01  0.18566048498E+02  0.18726443957E+02  0.00000000000E+00 0.  1.
         11    1    3    3    0    0  0.24513709957E+02 -0.12384713072E+02  0.62317458295E+01  0.28162701399E+02  0.51100000000E-03 0. -1.
        -11    1    3    3    0    0 -0.82431202532E+01 -0.67556787893E+01 -0.55288425646E+01  0.12006511891E+02  0.51100000000E-03 0.  1.
        -12    1    3    3    0    0 -0.14925716916E+02  0.21183150687E+02 -0.19268951763E+02  0.32292342754E+02  0.00000000000E+00 0.  1.
</event>
<event>
 7    1  0.1891413E-013  0.7246169E+02  0.7816164E-02  0.1226708E+00
        -11   -1    0    0    0    0  0.00000000000E+00  0.00000000000E+00  0.45593999997E+02  0.45594000000E+02  0.51100000000E-03 0.  1.
         11   -1    0    0    0    0 -0.00000000000E+00 -0.00000000000E+00 -0.45593999997E+02  0.45594000000E+02  0.51100000000E-03 0. -1.
    9900012    2    1    2    0    0 -0.11463347498E+02 -0.12214801528E+02 -0.83704730630E+01  0.72461694131E+02  0.70000161320E+02 0.  0.
        -12    1    1    2    0    0  0.11463347498E+02  0.12214801528E+02  0.83704730630E+01  0.18726305869E+02  0.00000000000E+00 0.  1.
         11    1    3    3    0    0 -0.27382109297E+02 -0.11724724634E+02 -0.24592639163E+02  0.38627023941E+02  0.51100000000E-03 0. -1.
        -11    1    3    3    0    0 -0.47198679153E+01  0.14699390015E+01 -0.28147471577E+01  0.56886444456E+01  0.51100000000E-03 0.  1.
        -12    1    3    3    0    0  0.20638629715E+02 -0.19600158952E+01  0.19036913257E+02  0.28146025744E+02  0.00000000000E+00 0.  1.
</event>
<event>
 7    1  0.1891413E-013  0.7246161E+02  0.7816164E-02  0.1226708E+00
        -11   -1    0    0    0    0  0.00000000000E+00  0.00000000000E+00  0.45593999997E+02  0.45594000000E+02  0.51100000000E-03 0.  1.
         11   -1    0    0    0    0 -0.00000000000E+00 -0.00000000000E+00 -0.45593999997E+02  0.45594000000E+02  0.51100000000E-03 0. -1.
    9900012    2    1    2    0    0  0.22655393916E+01  0.12111612800E+02 -0.14101555426E+02  0.72461609564E+02  0.70000051156E+02 0.  0.
        -12    1    1    2    0    0 -0.22655393916E+01 -0.12111612800E+02  0.14101555426E+02  0.18726390436E+02  0.00000000000E+00 0.  1.
         11    1    3    3    0    0  0.99212726430E+01 -0.10139201308E+02 -0.10702177352E+02  0.17769964951E+02  0.51100000000E-03 0. -1.
        -11    1    3    3    0    0  0.18559543760E+02  0.21311867066E+02 -0.33604241125E+01  0.28459529035E+02  0.51100000000E-03 0.  1.
         12    1    3    3    0    0 -0.26215277011E+02  0.93894704140E+00 -0.38953961387E-01  0.26232115579E+02  0.00000000000E+00 0. -1.
</event>
<event>
 7    1  0.1891413E-013  0.7246160E+02  0.7816164E-02  0.1226708E+00
        -11   -1    0    0    0    0  0.00000000000E+00  0.00000000000E+00  0.45593999997E+02  0.45594000000E+02  0.51100000000E-03 0.  1.
         11   -1    0    0    0    0 -0.00000000000E+00 -0.00000000000E+00 -0.45593999997E+02  0.45594000000E+02  0.51100000000E-03 0. -1.
    9900012    2    1    2    0    0  0.74529929550E+01 -0.17144249797E+02 -0.10980795710E+01  0.72461596613E+02  0.70000034284E+02 0.  0.
        -12    1    1    2    0    0 -0.74529929550E+01  0.17144249797E+02  0.10980795710E+01  0.18726403387E+02  0.00000000000E+00 0.  1.
         11    1    3    3    0    0  0.10783754575E+01  0.40687927617E+01 -0.25647309919E+02  0.25990430441E+02  0.51100000000E-03 0. -1.
        -11    1    3    3    0    0 -0.13070846567E+02 -0.82079674394E+01  0.57883169837E+01  0.16484003555E+02  0.51100000000E-03 0.  1.
        -12    1    3    3    0    0  0.19445464064E+02 -0.13005075119E+02  0.18760913364E+02  0.29987162616E+02  0.00000000000E+00 0.  1.
</event>
<event>
 7    1  0.1891413E-013  0.7246154E+02  0.7816164E-02  0.1226708E+00
        -11   -1    0    0    0    0  0.00000000000E+00  0.00000000000E+00  0.45593999997E+02  0.45594000000E+02  0.51100000000E-03 0.  1.
         11   -1    0    0    0    0 -0.00000000000E+00 -0.00000000000E+00 -0.45593999997E+02  0.45594000000E+02  0.51100000000E-03 0. -1.
    9900012    2    1    2    0    0 -0.28501178870E+01 -0.81659493018E+01 -0.16609470225E+02  0.72461537411E+02  0.69999957163E+02 0.  0.
        -12    1    1    2    0    0  0.28501178870E+01  0.81659493018E+01  0.16609470225E+02  0.18726462589E+02  0.00000000000E+00 0.  1.
         11    1    3    3    0    0 -0.15484762536E+01  0.12050088396E+02  0.20050105528E+01  0.12313507893E+02  0.51100000000E-03 0. -1.
        -11    1    3    3    0    0 -0.98158089107E+01  0.15865881003E+02 -0.12791272488E+02  0.22620630776E+02  0.51100000000E-03 0.  1.
         12    1    3    3    0    0  0.85141672772E+01 -0.36081918701E+02 -0.58232082893E+01  0.37527398742E+02  0.00000000000E+00 0. -1.
</event>
<event>
 7    1  0.1891413E-013  0.7246160E+02  0.7816164E-02  0.1226708E+00
        -11   -1    0    0    0    0  0.00000000000E+00  0.00000000000E+00  0.45593999997E+02  0.45594000000E+02  0.51100000000E-03 0.  1.
         11   -1    0    0    0    0 -0.00000000000E+00 -0.00000000000E+00 -0.45593999997E+02  0.45594000000E+02  0.51100000000E-03 0. -1.
    9900012    2    1    2    0    0  0.68121018192E+01  0.10930548560E+02 -0.13593981118E+02  0.72461602972E+02  0.70000042568E+02 0.  0.
        -12    1    1    2    0    0 -0.68121018192E+01 -0.10930548560E+02  0.13593981118E+02  0.18726397028E+02  0.00000000000E+00 0.  1.
         11    1    3    3    0    0 -0.76663021588E+01 -0.16669939485E+02 -0.58986560223E+01  0.19273121552E+02  0.51100000000E-03 0. -1.
        -11    1    3    3    0    0 -0.14860604529E+02  0.53279395710E+01 -0.26964604243E+01  0.16015473959E+02  0.51100000000E-03 0.  1.
        -12    1    3    3    0    0  0.29339008507E+02  0.22272548474E+02 -0.49988646717E+01  0.37173007461E+02  0.00000000000E+00 0.  1.
</event>
<event>
 7    1  0.1891413E-013  0.7246167E+02  0.7816164E-02  0.1226708E+00
        -11   -1    0    0    0    0  0.00000000000E+00  0.00000000000E+00  0.45593999997E+02  0.45594000000E+02  0.51100000000E-03 0. -1.
         11   -1    0    0    0    0 -0.00000000000E+00 -0.00000000000E+00 -0.45593999997E+02  0.45594000000E+02  0.51100000000E-03 0.  1.
    9900012    2    1    2    0    0  0.77572002215E+01  0.45218653898E+01  0.16433324447E+02  0.72461666288E+02  0.70000125050E+02 0.  0.
        -12    1    1    2    0    0 -0.77572002215E+01 -0.45218653898E+01 -0.16433324447E+02  0.18726333712E+02  0.00000000000E+00 0.  1.
         11    1    3    3    0    0  0.61580839235E+01  0.53565185991E+01  0.11623413030E+02  0.14202746912E+02  0.51100000000E-03 0. -1.
        -11    1    3    3    0    0  0.15489610563E+01  0.22874092607E+02  0.19729055257E+02  0.30246636417E+02  0.51100000000E-03 0.  1.
        -12    1    3    3    0    0  0.50155241761E-01 -0.23708745816E+02 -0.14919143839E+02  0.28012282960E+02  0.00000000000E+00 0.  1.
</event>
<event>
 7    1  0.1891413E-013  0.7246155E+02  0.7816164E-02  0.1226708E+00
        -11   -1    0    0    0    0  0.00000000000E+00  0.00000000000E+00  0.45593999997E+02  0.45594000000E+02  0.51100000000E-03 0.  1.
         11   -1    0    0    0    0 -0.00000000000E+00 -0.00000000000E+00 -0.45593999997E+02  0.45594000000E+02  0.51100000000E-03 0. -1.
    9900012    2    1    2    0    0  0.12923087721E+02  0.13354599799E+02 -0.23083335871E+01  0.72461549829E+02  0.69999973340E+02 0.  0.
        -12    1    1    2    0    0 -0.12923087721E+02 -0.13354599799E+02  0.23083335871E+01  0.18726450171E+02  0.00000000000E+00 0.  1.
         11    1    3    3    0    0  0.30951709473E+02  0.24058818403E+02 -0.18092744947E+02  0.43176179569E+02  0.51100000000E-03 0. -1.
        -11    1    3    3    0    0 -0.57666389380E+01 -0.53065130238E+01  0.13620859169E+02  0.15714356808E+02  0.51100000000E-03 0.  1.
        -12    1    3    3    0    0 -0.12261982813E+02 -0.53977055799E+01  0.21635521907E+01  0.13571013452E+02  0.00000000000E+00 0.  1.
</event>
<event>
 7    1  0.1891413E-013  0.7246173E+02  0.7816164E-02  0.1226708E+00
        -11   -1    0    0    0    0  0.00000000000E+00  0.00000000000E+00  0.45593999997E+02  0.45594000000E+02  0.51100000000E-03 0. -1.
         11   -1    0    0    0    0 -0.00000000000E+00 -0.00000000000E+00 -0.45593999997E+02  0.45594000000E+02  0.51100000000E-03 0.  1.
    9900012    2    1    2    0    0 -0.15601325956E+02  0.57719759338E+01  0.85997795331E+01  0.72461727392E+02  0.70000204649E+02 0.  0.
        -12    1    1    2    0    0  0.15601325956E+02 -0.57719759338E+01 -0.85997795331E+01  0.18726272608E+02  0.00000000000E+00 0.  1.
         11    1    3    3    0    0  0.15097780140E+02  0.64236391604E+01  0.14946771197E+02  0.22194865953E+02  0.51100000000E-03 0. -1.
        -11    1    3    3    0    0 -0.26484806160E+01 -0.17069166776E+02 -0.36373527377E+01  0.17652230432E+02  0.51100000000E-03 0.  1.
        -12    1    3    3    0    0 -0.28050625480E+02  0.16417503550E+02 -0.27096389260E+01  0.32614631007E+02  0.00000000000E+00 0.  1.
</event>
<event>
 7    1  0.2216880E-013  0.7246157E+02  0.7816164E-02  0.1226708E+00
        -11   -1    0    0    0    0  0.00000000000E+00  0.00000000000E+00  0.45593999997E+02  0.45594000000E+02  0.51100000000E-03 0. -1.
         11   -1    0    0    0    0 -0.00000000000E+00 -0.00000000000E+00 -0.45593999997E+02  0.45594000000E+02  0.51100000000E-03 0.  1.
    9900012    2    1    2    0    0 -0.83022252517E+01 -0.28065553356E+01  0.16549178988E+02  0.72461574229E+02  0.70000005126E+02 0.  0.
        -12    1    1    2    0    0  0.83022252517E+01  0.28065553356E+01 -0.16549178988E+02  0.18726425771E+02  0.00000000000E+00 0.  1.
         11    1    3    3    0    0 -0.46756352422E+01  0.40251125147E+01 -0.39047467495E+00  0.61818740207E+01  0.51100000000E-03 0. -1.
        -11    1    3    3    0    0 -0.18940165752E+02 -0.54099954076E+01 -0.18888273672E+02  0.27290379470E+02  0.51100000000E-03 0.  1.
         12    1    3    3    0    0  0.15313575743E+02 -0.14216724427E+01  0.35827927335E+02  0.38989320739E+02  0.00000000000E+00 0. -1.
</event>
<event>
 7    1  0.1891413E-013  0.7246157E+02  0.7816164E-02  0.1226708E+00
        -11   -1    0    0    0    0  0.00000000000E+00  0.00000000000E+00  0.45593999997E+02  0.45594000000E+02  0.51100000000E-03 0.  1.
         11   -1    0    0    0    0 -0.00000000000E+00 -0.00000000000E+00 -0.45593999997E+02  0.45594000000E+02  0.51100000000E-03 0. -1.
    9900012    2    1    2    0    0 -0.62303299239E+01 -0.10452393992E+02 -0.14234102643E+02  0.72461568701E+02  0.69999997925E+02 0.  0.
        -12    1    1    2    0    0  0.62303299239E+01  0.10452393992E+02  0.14234102643E+02  0.18726431299E+02  0.00000000000E+00 0.  1.
         11    1    3    3    0    0  0.16820800599E+02 -0.77678888324E+01 -0.26603202632E+02  0.32419281612E+02  0.51100000000E-03 0. -1.
        -11    1    3    3    0    0 -0.40303395387E+01  0.69177673549E+01 -0.74546699029E+01  0.10939435342E+02  0.51100000000E-03 0.  1.
        -12    1    3    3    0    0 -0.19020790984E+02 -0.96022725146E+01  0.19823769892E+02  0.29102851747E+02  0.00000000000E+00 0.  1.
</event>
<event>
 7    1  0.1891413E-013  0.7246150E+02  0.7816164E-02  0.1226708E+00
        -11   -1    0    0    0    0  0.00000000000E+00  0.00000000000E+00  0.45593999997E+02  0.45594000000E+02  0.51100000000E-03 0. -1.
         11   -1    0    0    0    0 -0.00000000000E+00 -0.00000000000E+00 -0.45593999997E+02  0.45594000000E+02  0.51100000000E-03 0.  1.
    9900012    2    1    2    0    0  0.12805694645E+02  0.11226033917E+02  0.77892301651E+01  0.72461501144E+02  0.69999909918E+02 0.  0.
        -12    1    1    2    0    0 -0.12805694645E+02 -0.11226033917E+02 -0.77892301651E+01  0.18726498856E+02  0.00000000000E+00 0.  1.
         11    1    3    3    0    0  0.11068609014E+02  0.40210679900E+01 -0.65891638066E+01  0.13494449719E+02  0.51100000000E-03 0. -1.
        -11    1    3    3    0    0 -0.19310701912E+01 -0.10426557885E+01 -0.21682655514E+02  0.21793432808E+02  0.51100000000E-03 0.  1.
         12    1    3    3    0    0  0.36681558229E+01  0.82476217153E+01  0.36061049485E+02  0.37173618617E+02  0.00000000000E+00 0. -1.
</event>
<event>
 7    1  0.1891413E-013  0.7246164E+02  0.7816164E-02  0.1226708E+00
        -11   -1    0    0    0    0  0.00000000000E+00  0.00000000000E+00  0.45593999997E+02  0.45594000000E+02  0.51100000000E-03 0.  1.
         11   -1    0    0    0    0 -0.00000000000E+00 -0.00000000000E+00 -0.45593999997E+02  0.45594000000E+02  0.51100000000E-03 0. -1.
    9900012    2    1    2    0    0  0.14947973282E+02 -0.56708062477E+01 -0.97507294057E+01  0.72461636960E+02  0.70000086845E+02 0.  0.
        -12    1    1    2    0    0 -0.14947973282E+02  0.56708062477E+01  0.97507294057E+01  0.18726363040E+02  0.00000000000E+00 0.  1.
         11    1    3    3    0    0 -0.88033762131E+01  0.27148443685E+01 -0.30028677495E+02  0.31410050701E+02  0.51100000000E-03 0. -1.
        -11    1    3    3    0    0 -0.90977576524E+00  0.56665483786E+01 -0.66535159991E+00  0.57775561860E+01  0.51100000000E-03 0.  1.
        -12    1    3    3    0    0  0.24661125261E+02 -0.14052198995E+02  0.20943299689E+02  0.35274030073E+02  0.00000000000E+00 0.  1.
</event>
<event>
 7    1  0.1891413E-013  0.7246157E+02  0.7816164E-02  0.1226708E+00
        -11   -1    0    0    0    0  0.00000000000E+00  0.00000000000E+00  0.45593999997E+02  0.45594000000E+02  0.51100000000E-03 0.  1.
         11   -1    0    0    0    0 -0.00000000000E+00 -0.00000000000E+00 -0.45593999997E+02  0.45594000000E+02  0.51100000000E-03 0. -1.
    9900012    2    1    2    0    0 -0.12162240068E+02  0.41049748682E+01 -0.13634822424E+02  0.72461567220E+02  0.69999995995E+02 0.  0.
        -12    1    1    2    0    0  0.12162240068E+02 -0.41049748682E+01  0.13634822424E+02  0.18726432780E+02  0.00000000000E+00 0.  1.
         11    1    3    3    0    0  0.10353295671E+01 -0.10762418355E+02  0.44540157626E+01  0.11693579984E+02  0.51100000000E-03 0. -1.
        -11    1    3    3    0    0 -0.12711865560E+02  0.33365263502E+02 -0.12151686888E+01  0.35725466684E+02  0.51100000000E-03 0.  1.
         12    1    3    3    0    0 -0.48570407545E+00 -0.18497870278E+02 -0.16873669498E+02  0.25042520552E+02  0.00000000000E+00 0. -1.
</event>
<event>
 7    1  0.1891413E-013  0.7246156E+02  0.7816164E-02  0.1226708E+00
        -11   -1    0    0    0    0  0.00000000000E+00  0.00000000000E+00  0.45593999997E+02  0.45594000000E+02  0.51100000000E-03 0. -1.
         11   -1    0    0    0    0 -0.00000000000E+00 -0.00000000000E+00 -0.45593999997E+02  0.45594000000E+02  0.51100000000E-03 0.  1.
    9900012    2    1    2    0    0 -0.16816946232E+02 -0.73779011700E+00  0.82052043250E+01  0.72461564332E+02  0.69999992232E+02 0.  0.
        -12    1    1    2    0    0  0.16816946232E+02  0.73779011700E+00 -0.82052043250E+01  0.18726435668E+02  0.00000000000E+00 0.  1.
         11    1    3    3    0    0  0.49636441134E+01 -0.26142506047E+01 -0.14547758203E+02  0.15591963895E+02  0.51100000000E-03 0. -1.
        -11    1    3    3    0    0  0.14155144967E+02  0.28667110692E+00 -0.27200388053E+00  0.14160660145E+02  0.51100000000E-03 0.  1.
         12    1    3    3    0    0 -0.35935735312E+02  0.15897893808E+01  0.23024966409E+02  0.42708940292E+02  0.00000000000E+00 0. -1.
</event>
<event>
 7    1  0.1891413E-013  0.7246140E+02  0.7816164E-02  0.1226708E+00
        -11   -1    0    0    0    0  0.00000000000E+00  0.00000000000E+00  0.45593999997E+02  0.45594000000E+02  0.51100000000E-03 0.  1.
         11   -1    0    0    0    0 -0.00000000000E+00 -0.00000000000E+00 -0.45593999997E+02  0.45594000000E+02  0.51100000000E-03 0. -1.
    9900012    2    1    2    0    0 -0.11358254349E+02  0.85138448922E+01 -0.12214337946E+02  0.72461399984E+02  0.69999778138E+02 0.  0.
        -12    1    1    2    0    0  0.11358254349E+02 -0.85138448922E+01  0.12214337946E+02  0.18726600016E+02  0.00000000000E+00 0.  1.
         11    1    3    3    0    0  0.13672867435E+02  0.50689778639E+01 -0.17824393482E+02  0.23029347445E+02  0.51100000000E-03 0. -1.
        -11    1    3    3    0    0  0.11620795318E+02  0.14243023485E+01  0.49697958718E+01  0.12718899019E+02  0.51100000000E-03 0.  1.
         12    1    3    3    0    0 -0.36651917102E+02  0.20205646798E+01  0.64025966411E+00  0.36713153519E+02  0.00000000000E+00 0. -1.
</event>
<event>
 7    1  0.1891413E-013  0.7246153E+02  0.7816164E-02  0.1226708E+00
        -11   -1    0    0    0    0  0.00000000000E+00  0.00000000000E+00  0.45593999997E+02  0.45594000000E+02  0.51100000000E-03 0. -1.
         11   -1    0    0    0    0 -0.00000000000E+00 -0.00000000000E+00 -0.45593999997E+02  0.45594000000E+02  0.51100000000E-03 0.  1.
    9900012    2    1    2    0    0 -0.10834590644E+02 -0.71809058598E+01  0.13480610946E+02  0.72461531169E+02  0.69999949032E+02 0.  0.
        -12    1    1    2    0    0  0.10834590644E+02  0.71809058598E+01 -0.13480610946E+02  0.18726468831E+02  0.00000000000E+00 0.  1.
         11    1    3    3    0    0  0.66723471074E+01 -0.22434690136E+02 -0.16914722010E+01  0.23466926000E+02  0.51100000000E-03 0. -1.
        -11    1    3    3    0    0  0.63090386136E+01  0.96332105465E+01 -0.89874862845E+01  0.14607450963E+02  0.51100000000E-03 0.  1.
         12    1    3    3    0    0 -0.23815976365E+02  0.56205737300E+01  0.24159569431E+02  0.34387154206E+02  0.00000000000E+00 0. -1.
</event>
<event>
 7    1  0.1891413E-013  0.7246160E+02  0.7816164E-02  0.1226708E+00
        -11   -1    0    0    0    0  0.00000000000E+00  0.00000000000E+00  0.45593999997E+02  0.45594000000E+02  0.51100000000E-03 0. -1.
         11   -1    0    0    0    0 -0.00000000000E+00 -0.00000000000E+00 -0.45593999997E+02  0.45594000000E+02  0.51100000000E-03 0.  1.
    9900012    2    1    2    0    0 -0.67715753183E+01  0.11194505000E+02  0.13398019089E+02  0.72461599118E+02  0.70000037549E+02 0.  0.
        -12    1    1    2    0    0  0.67715753183E+01 -0.11194505000E+02 -0.13398019089E+02  0.18726400882E+02  0.00000000000E+00 0.  1.
         11    1    3    3    0    0  0.17147460742E+02 -0.33790977006E+01  0.18225194772E+02  0.25250969009E+02  0.51100000000E-03 0. -1.
        -11    1    3    3    0    0  0.10152186601E+02  0.42156432526E+01  0.13249771818E+01  0.11072222252E+02  0.51100000000E-03 0.  1.
        -12    1    3    3    0    0 -0.34071222661E+02  0.10357959448E+02 -0.61521528654E+01  0.36138407857E+02  0.00000000000E+00 0.  1.
</event>
<event>
 7    1  0.1891413E-013  0.7246186E+02  0.7816164E-02  0.1226707E+00
        -11   -1    0    0    0    0  0.00000000000E+00  0.00000000000E+00  0.45593999997E+02  0.45594000000E+02  0.51100000000E-03 0.  1.
         11   -1    0    0    0    0 -0.00000000000E+00 -0.00000000000E+00 -0.45593999997E+02  0.45594000000E+02  0.51100000000E-03 0. -1.
    9900012    2    1    2    0    0  0.95545546466E+01 -0.16056194120E+02  0.12559472826E+01  0.72461860844E+02  0.70000378494E+02 0.  0.
        -12    1    1    2    0    0 -0.95545546466E+01  0.16056194120E+02 -0.12559472826E+01  0.18726139156E+02  0.00000000000E+00 0.  1.
         11    1    3    3    0    0  0.25461111239E+02 -0.20386830054E+02 -0.89846903667E+01  0.33832169402E+02  0.51100000000E-03 0. -1.
        -11    1    3    3    0    0 -0.84130827364E+01 -0.11565156669E+02  0.14689734327E+02  0.20501734190E+02  0.51100000000E-03 0.  1.
        -12    1    3    3    0    0 -0.74934738559E+01  0.15895792603E+02 -0.44490966782E+01  0.18127957253E+02  0.00000000000E+00 0.  1.
</event>
<event>
 7    1  0.1891413E-013  0.7246161E+02  0.7816164E-02  0.1226708E+00
        -11   -1    0    0    0    0  0.00000000000E+00  0.00000000000E+00  0.45593999997E+02  0.45594000000E+02  0.51100000000E-03 0. -1.
         11   -1    0    0    0    0 -0.00000000000E+00 -0.00000000000E+00 -0.45593999997E+02  0.45594000000E+02  0.51100000000E-03 0.  1.
    9900012    2    1    2    0    0  0.13846684507E+02  0.15633925936E+01  0.12510108873E+02  0.72461609737E+02  0.70000051382E+02 0.  0.
        -12    1    1    2    0    0 -0.13846684507E+02 -0.15633925936E+01 -0.12510108873E+02  0.18726390263E+02  0.00000000000E+00 0.  1.
         11    1    3    3    0    0  0.11565644830E+02 -0.56239473935E+01  0.97443509659E+01  0.16135219262E+02  0.51100000000E-03 0. -1.
        -11    1    3    3    0    0  0.24170288798E+02  0.18159481251E+02  0.80331041466E+01  0.31280990751E+02  0.51100000000E-03 0.  1.
        -12    1    3    3    0    0 -0.21889249120E+02 -0.10972141264E+02 -0.52673462394E+01  0.25045399725E+02  0.00000000000E+00 0.  1.
</event>
<event>
 7    1  0.1891413E-013  0.7246158E+02  0.7816164E-02  0.1226708E+00
        -11   -1    0    0    0    0  0.00000000000E+00  0.00000000000E+00  0.45593999997E+02  0.45594000000E+02  0.51100000000E-03 0.  1.
         11   -1    0    0    0    0 -0.00000000000E+00 -0.00000000000E+00 -0.45593999997E+02  0.45594000000E+02  0.51100000000E-03 0. -1.
    9900012    2    1    2    0    0 -0.11149248680E+02  0.79997064518E+01 -0.12742757108E+02  0.72461577273E+02  0.70000009091E+02 0.  0.
        -12    1    1    2    0    0  0.11149248680E+02 -0.79997064518E+01  0.12742757108E+02  0.18726422727E+02  0.00000000000E+00 0.  1.
         11    1    3    3    0    0 -0.28689614702E+02 -0.61943598863E+01 -0.23058273549E+02  0.37324898734E+02  0.51100000000E-03 0. -1.
        -11    1    3    3    0    0  0.24856984927E+01 -0.54652552795E+01  0.83674879693E+01  0.10298668236E+02  0.51100000000E-03 0.  1.
         12    1    3    3    0    0  0.15054667530E+02  0.19659321618E+02  0.19480284717E+01  0.24838010303E+02  0.00000000000E+00 0. -1.
</event>
<event>
 7    1  0.1891413E-013  0.7246159E+02  0.7816164E-02  0.1226708E+00
        -11   -1    0    0    0    0  0.00000000000E+00  0.00000000000E+00  0.45593999997E+02  0.45594000000E+02  0.51100000000E-03 0.  1.
         11   -1    0    0    0    0 -0.00000000000E+00 -0.00000000000E+00 -0.45593999997E+02  0.45594000000E+02  0.51100000000E-03 0. -1.
    9900012    2    1    2    0    0  0.90066234417E+01  0.71485869017E+01 -0.14780283831E+02  0.72461592159E+02  0.70000028483E+02 0.  0.
        -12    1    1    2    0    0 -0.90066234417E+01 -0.71485869017E+01  0.14780283831E+02  0.18726407841E+02  0.00000000000E+00 0.  1.
         11    1    3    3    0    0 -0.13418752358E+02 -0.16617797129E+02 -0.17183951686E+02  0.27413542129E+02  0.51100000000E-03 0. -1.
        -11    1    3    3    0    0 -0.70129015939E+01  0.27022885165E+01  0.45513103194E+01  0.87862152191E+01  0.51100000000E-03 0.  1.
         12    1    3    3    0    0  0.29438277393E+02  0.21064095514E+02 -0.21476424638E+01  0.36261834811E+02  0.00000000000E+00 0. -1.
</event>
<event>
 7    1  0.1891413E-013  0.7246159E+02  0.7816164E-02  0.1226708E+00
        -11   -1    0    0    0    0  0.00000000000E+00  0.00000000000E+00  0.45593999997E+02  0.45594000000E+02  0.51100000000E-03 0. -1.
         11   -1    0    0    0    0 -0.00000000000E+00 -0.00000000000E+00 -0.45593999997E+02  0.45594000000E+02  0.51100000000E-03 0.  1.
    9900012    2    1    2    0    0 -0.84261184467E+01  0.15479463714E+02  0.63296936545E+01  0.72461593758E+02  0.70000030566E+02 0.  0.
        -12    1    1    2    0    0  0.84261184467E+01 -0.15479463714E+02 -0.63296936545E+01  0.18726406242E+02  0.00000000000E+00 0.  1.
         11    1    3    3    0    0  0.16031655268E+02  0.15111219839E+02 -0.17065051827E+01  0.22096947659E+02  0.51100000000E-03 0. -1.
        -11    1    3    3    0    0 -0.28114750667E+01  0.94271548425E-01  0.23559048503E+02  0.23726399765E+02  0.51100000000E-03 0.  1.
        -12    1    3    3    0    0 -0.21646298648E+02  0.27397232743E+00 -0.15522849666E+02  0.26638246334E+02  0.00000000000E+00 0.  1.
</event>
<event>
 7    1  0.1891413E-013  0.7246178E+02  0.7816164E-02  0.1226707E+00
        -11   -1    0    0    0    0  0.00000000000E+00  0.00000000000E+00  0.45593999997E+02  0.45594000000E+02  0.51100000000E-03 0.  1.
         11   -1    0    0    0    0 -0.00000000000E+00 -0.00000000000E+00 -0.45593999997E+02  0.45594000000E+02  0.51100000000E-03 0. -1.
    9900012    2    1    2    0    0  0.23830709876E+00  0.44660871259E+01 -0.18184299271E+02  0.72461776022E+02  0.70000267999E+02 0.  0.
        -12    1    1    2    0    0 -0.23830709876E+00 -0.44660871259E+01  0.18184299271E+02  0.18726223978E+02  0.00000000000E+00 0.  1.
         11    1    3    3    0    0  0.70279097190E+01  0.15809110644E+02 -0.32697994778E+02  0.36992950101E+02  0.51100000000E-03 0. -1.
        -11    1    3    3    0    0 -0.10080887337E+02  0.34323612188E+01 -0.41577152618E+01  0.11432059723E+02  0.51100000000E-03 0.  1.
        -12    1    3    3    0    0  0.32912847171E+01 -0.14775384737E+02  0.18671410769E+02  0.24036766199E+02  0.00000000000E+00 0.  1.
</event>
<event>
 7    1  0.1891413E-013  0.7246157E+02  0.7816164E-02  0.1226708E+00
        -11   -1    0    0    0    0  0.00000000000E+00  0.00000000000E+00  0.45593999997E+02  0.45594000000E+02  0.51100000000E-03 0.  1.
         11   -1    0    0    0    0 -0.00000000000E+00 -0.00000000000E+00 -0.45593999997E+02  0.45594000000E+02  0.51100000000E-03 0. -1.
    9900012    2    1    2    0    0  0.10464592750E+02  0.13110394712E+02 -0.83240083645E+01  0.72461567713E+02  0.69999996637E+02 0.  0.
        -12    1    1    2    0    0 -0.10464592750E+02 -0.13110394712E+02  0.83240083645E+01  0.18726432287E+02  0.00000000000E+00 0.  1.
         11    1    3    3    0    0  0.21250110667E+02  0.13778681016E+02  0.20942676646E+02  0.32863581048E+02  0.51100000000E-03 0. -1.
        -11    1    3    3    0    0  0.52042927241E+01 -0.25665663323E+01  0.42801425798E+00  0.58185154432E+01  0.51100000000E-03 0.  1.
        -12    1    3    3    0    0 -0.15989810641E+02  0.18982800290E+01 -0.29694699269E+02  0.33779471222E+02  0.00000000000E+00 0.  1.
</event>
<event>
 7    1  0.1891413E-013  0.7246157E+02  0.7816164E-02  0.1226708E+00
        -11   -1    0    0    0    0  0.00000000000E+00  0.00000000000E+00  0.45593999997E+02  0.45594000000E+02  0.51100000000E-03 0. -1.
         11   -1    0    0    0    0 -0.00000000000E+00 -0.00000000000E+00 -0.45593999997E+02  0.45594000000E+02  0.51100000000E-03 0.  1.
    9900012    2    1    2    0    0  0.17578318809E+02 -0.60755615885E+01 -0.21838739036E+01  0.72461573592E+02  0.70000004296E+02 0.  0.
        -12    1    1    2    0    0 -0.17578318809E+02  0.60755615885E+01  0.21838739036E+01  0.18726426408E+02  0.00000000000E+00 0.  1.
         11    1    3    3    0    0  0.15715295155E+02 -0.20604504068E+01  0.18179654856E+02  0.24118785389E+02  0.51100000000E-03 0. -1.
        -11    1    3    3    0    0  0.14289922058E+02  0.15259943390E+02 -0.93556488949E+01  0.22904058837E+02  0.51100000000E-03 0.  1.
         12    1    3    3    0    0 -0.12426898404E+02 -0.19275054572E+02 -0.11007879865E+02  0.25438729367E+02  0.00000000000E+00 0. -1.
</event>
<event>
 7    1  0.1891413E-013  0.7246149E+02  0.7816164E-02  0.1226708E+00
        -11   -1    0    0    0    0  0.00000000000E+00  0.00000000000E+00  0.45593999997E+02  0.45594000000E+02  0.51100000000E-03 0. -1.
         11   -1    0    0    0    0 -0.00000000000E+00 -0.00000000000E+00 -0.45593999997E+02  0.45594000000E+02  0.51100000000E-03 0.  1.
    9900012    2    1    2    0    0  0.15816795333E+02  0.11910890212E+01  0.99545215489E+01  0.72461489195E+02  0.69999894353E+02 0.  0.
        -12    1    1    2    0    0 -0.15816795333E+02 -0.11910890212E+01 -0.99545215489E+01  0.18726510805E+02  0.00000000000E+00 0.  1.
         11    1    3    3    0    0  0.34517377457E+02 -0.26833786206E+01  0.17917957462E+02  0.38983369111E+02  0.51100000000E-03 0. -1.
        -11    1    3    3    0    0 -0.59244667431E+01 -0.14613172720E+01  0.94390770352E+01  0.11239703283E+02  0.51100000000E-03 0.  1.
        -12    1    3    3    0    0 -0.12776115381E+02  0.53357849138E+01 -0.17402512949E+02  0.22238416801E+02  0.00000000000E+00 0.  1.
</event>
<event>
 7    1  0.1891413E-013  0.7246155E+02  0.7816164E-02  0.1226708E+00
        -11   -1    0    0    0    0  0.00000000000E+00  0.00000000000E+00  0.45593999997E+02  0.45594000000E+02  0.51100000000E-03 0. -1.
         11   -1    0    0    0    0 -0.00000000000E+00 -0.00000000000E+00 -0.45593999997E+02  0.45594000000E+02  0.51100000000E-03 0.  1.
    9900012    2    1    2    0    0  0.44897821823E+01 -0.12338217009E+02  0.13352533914E+02  0.72461550659E+02  0.69999974421E+02 0.  0.
        -12    1    1    2    0    0 -0.44897821823E+01  0.12338217009E+02 -0.13352533914E+02  0.18726449341E+02  0.00000000000E+00 0.  1.
         11    1    3    3    0    0 -0.10900842452E+02  0.41956028819E+01  0.17446319676E+01  0.11809961502E+02  0.51100000000E-03 0. -1.
        -11    1    3    3    0    0  0.10098214410E+02  0.14085204720E+02  0.21891200622E+02  0.27921167440E+02  0.51100000000E-03 0.  1.
        -12    1    3    3    0    0  0.52924102242E+01 -0.30619024611E+02 -0.10283298676E+02  0.32730421717E+02  0.00000000000E+00 0.  1.
</event>
<event>
 7    1  0.1891413E-013  0.7246158E+02  0.7816164E-02  0.1226708E+00
        -11   -1    0    0    0    0  0.00000000000E+00  0.00000000000E+00  0.45593999997E+02  0.45594000000E+02  0.51100000000E-03 0. -1.
         11   -1    0    0    0    0 -0.00000000000E+00 -0.00000000000E+00 -0.45593999997E+02  0.45594000000E+02  0.51100000000E-03 0.  1.
    9900012    2    1    2    0    0 -0.76634544475E+00 -0.81926689650E+00  0.18692788551E+02  0.72461579429E+02  0.70000011900E+02 0.  0.
        -12    1    1    2    0    0  0.76634544475E+00  0.81926689650E+00 -0.18692788551E+02  0.18726420571E+02  0.00000000000E+00 0.  1.
         11    1    3    3    0    0 -0.10221848492E+02 -0.92597203246E+01  0.33298180138E+02  0.36041606621E+02  0.51100000000E-03 0. -1.
        -11    1    3    3    0    0 -0.90877315661E+01  0.11764779426E+01  0.31995306027E+01  0.97060785957E+01  0.51100000000E-03 0.  1.
        -12    1    3    3    0    0  0.18543234614E+02  0.72639754856E+01 -0.17804922190E+02  0.26713894212E+02  0.00000000000E+00 0.  1.
</event>
<event>
 7    1  0.1891413E-013  0.7246158E+02  0.7816164E-02  0.1226708E+00
        -11   -1    0    0    0    0  0.00000000000E+00  0.00000000000E+00  0.45593999997E+02  0.45594000000E+02  0.51100000000E-03 0. -1.
         11   -1    0    0    0    0 -0.00000000000E+00 -0.00000000000E+00 -0.45593999997E+02  0.45594000000E+02  0.51100000000E-03 0.  1.
    9900012    2    1    2    0    0 -0.87330949380E+01 -0.70916666350E+01  0.14970636690E+02  0.72461584279E+02  0.70000018218E+02 0.  0.
        -12    1    1    2    0    0  0.87330949380E+01  0.70916666350E+01 -0.14970636690E+02  0.18726415721E+02  0.00000000000E+00 0.  1.
         11    1    3    3    0    0 -0.24210604197E+02 -0.11033867221E+02  0.26356632600E+02  0.37450923402E+02  0.51100000000E-03 0. -1.
        -11    1    3    3    0    0 -0.67868940225E+01  0.73120283327E+01 -0.47286911112E+00  0.99875569719E+01  0.51100000000E-03 0.  1.
        -12    1    3    3    0    0  0.22264403281E+02 -0.33698277466E+01 -0.10913126799E+02  0.25023103905E+02  0.00000000000E+00 0.  1.
</event>
<event>
 7    1  0.1891413E-013  0.7246158E+02  0.7816164E-02  0.1226708E+00
        -11   -1    0    0    0    0  0.00000000000E+00  0.00000000000E+00  0.45593999997E+02  0.45594000000E+02  0.51100000000E-03 0.  1.
         11   -1    0    0    0    0 -0.00000000000E+00 -0.00000000000E+00 -0.45593999997E+02  0.45594000000E+02  0.51100000000E-03 0. -1.
    9900012    2    1    2    0    0 -0.22435192972E+01 -0.17426792730E+02 -0.64770601732E+01  0.72461580369E+02  0.70000013124E+02 0.  0.
        -12    1    1    2    0    0  0.22435192972E+01  0.17426792730E+02  0.64770601732E+01  0.18726419631E+02  0.00000000000E+00 0.  1.
         11    1    3    3    0    0 -0.46116473572E+01 -0.19464839759E+02  0.16469252364E+02  0.25911070064E+02  0.51100000000E-03 0. -1.
        -11    1    3    3    0    0  0.17521480074E+02 -0.10837581621E+02 -0.12308078459E+02  0.23998838201E+02  0.51100000000E-03 0.  1.
        -12    1    3    3    0    0 -0.15153352014E+02  0.12875628649E+02 -0.10638234078E+02  0.22551672104E+02  0.00000000000E+00 0.  1.
</event>
<event>
 7    1  0.1891413E-013  0.7246159E+02  0.7816164E-02  0.1226708E+00
        -11   -1    0    0    0    0  0.00000000000E+00  0.00000000000E+00  0.45593999997E+02  0.45594000000E+02  0.51100000000E-03 0. -1.
         11   -1    0    0    0    0 -0.00000000000E+00 -0.00000000000E+00 -0.45593999997E+02  0.45594000000E+02  0.51100000000E-03 0.  1.
    9900012    2    1    2    0    0 -0.13698383424E+02  0.10489854684E+02  0.72798241964E+01  0.72461585499E+02  0.70000019806E+02 0.  0.
        -12    1    1    2    0    0  0.13698383424E+02 -0.10489854684E+02 -0.72798241964E+01  0.18726414501E+02  0.00000000000E+00 0.  1.
         11    1    3    3    0    0  0.15230840885E+02 -0.13102487429E+00  0.48811256436E+01  0.15994407441E+02  0.51100000000E-03 0. -1.
        -11    1    3    3    0    0  0.71418976122E+01 -0.40159100525E+01 -0.12365502082E+02  0.14833741169E+02  0.51100000000E-03 0.  1.
         12    1    3    3    0    0 -0.36071121921E+02  0.14636789611E+02  0.14764200635E+02  0.41633436889E+02  0.00000000000E+00 0. -1.
</event>
<event>
 7    1  0.1891413E-013  0.7246156E+02  0.7816164E-02  0.1226708E+00
        -11   -1    0    0    0    0  0.00000000000E+00  0.00000000000E+00  0.45593999997E+02  0.45594000000E+02  0.51100000000E-03 0.  1.
         11   -1    0    0    0    0 -0.00000000000E+00 -0.00000000000E+00 -0.45593999997E+02  0.45594000000E+02  0.51100000000E-03 0. -1.
    9900012    2    1    2    0    0  0.10772750109E+01 -0.13063914289E+02 -0.13373603566E+02  0.72461557457E+02  0.69999983277E+02 0.  0.
        -12    1    1    2    0    0 -0.10772750109E+01  0.13063914289E+02  0.13373603566E+02  0.18726442543E+02  0.00000000000E+00 0.  1.
         11    1    3    3    0    0 -0.97022053095E+01  0.46960251325E+01 -0.23663718792E+02  0.26003019579E+02  0.51100000000E-03 0. -1.
        -11    1    3    3    0    0  0.50889964137E+01 -0.20058006883E+02 -0.11600970281E+02  0.23723491235E+02  0.51100000000E-03 0.  1.
        -12    1    3    3    0    0  0.56904839067E+01  0.22980674620E+01  0.21891085507E+02  0.22735046643E+02  0.00000000000E+00 0.  1.
</event>
<event>
 7    1  0.1891413E-013  0.7246153E+02  0.7816164E-02  0.1226708E+00
        -11   -1    0    0    0    0  0.00000000000E+00  0.00000000000E+00  0.45593999997E+02  0.45594000000E+02  0.51100000000E-03 0.  1.
         11   -1    0    0    0    0 -0.00000000000E+00 -0.00000000000E+00 -0.45593999997E+02  0.45594000000E+02  0.51100000000E-03 0. -1.
    9900012    2    1    2    0    0 -0.16008072492E+02  0.65040416161E+01  0.72194005723E+01  0.72461529780E+02  0.69999947223E+02 0.  0.
        -12    1    1    2    0    0  0.16008072492E+02 -0.65040416161E+01 -0.72194005723E+01  0.18726470220E+02  0.00000000000E+00 0.  1.
         11    1    3    3    0    0 -0.87182977453E+01  0.15152568202E-01 -0.80318964771E+01  0.11854126136E+02  0.51100000000E-03 0. -1.
        -11    1    3    3    0    0 -0.13988463213E+02 -0.22644066162E+02 -0.89684801483E+00  0.26631469581E+02  0.51100000000E-03 0.  1.
        -12    1    3    3    0    0  0.66986884663E+01  0.29132955210E+02  0.16148145064E+02  0.33975934063E+02  0.00000000000E+00 0.  1.
</event>
<event>
 7    1  0.1891413E-013  0.7246156E+02  0.7816164E-02  0.1226708E+00
        -11   -1    0    0    0    0  0.00000000000E+00  0.00000000000E+00  0.45593999997E+02  0.45594000000E+02  0.51100000000E-03 0.  1.
         11   -1    0    0    0    0 -0.00000000000E+00 -0.00000000000E+00 -0.45593999997E+02  0.45594000000E+02  0.51100000000E-03 0. -1.
    9900012    2    1    2    0    0  0.63829921358E+01  0.84784379314E+01 -0.15428963462E+02  0.72461563823E+02  0.69999991570E+02 0.  0.
        -12    1    1    2    0    0 -0.63829921358E+01 -0.84784379314E+01  0.15428963462E+02  0.18726436177E+02  0.00000000000E+00 0.  1.
         11    1    3    3    0    0 -0.13552759249E+02  0.64688627082E+00 -0.20946649043E+02  0.24957120256E+02  0.51100000000E-03 0. -1.
        -11    1    3    3    0    0 -0.94456459845E+01  0.80856008721E+01  0.12148092277E+02  0.17383133082E+02  0.51100000000E-03 0.  1.
        -12    1    3    3    0    0  0.29381397369E+02 -0.25404921152E+00 -0.66304066965E+01  0.30121310485E+02  0.00000000000E+00 0.  1.
</event>
<event>
 7    1  0.1891413E-013  0.7246162E+02  0.7816164E-02  0.1226708E+00
        -11   -1    0    0    0    0  0.00000000000E+00  0.00000000000E+00  0.45593999997E+02  0.45594000000E+02  0.51100000000E-03 0.  1.
         11   -1    0    0    0    0 -0.00000000000E+00 -0.00000000000E+00 -0.45593999997E+02  0.45594000000E+02  0.51100000000E-03 0. -1.
    9900012    2    1    2    0    0  0.16509002645E+02  0.85483595073E+01 -0.22484910702E+01  0.72461619392E+02  0.70000063959E+02 0.  0.
        -12    1    1    2    0    0 -0.16509002645E+02 -0.85483595073E+01  0.22484910702E+01  0.18726380608E+02  0.00000000000E+00 0.  1.
         11    1    3    3    0    0  0.19388477568E+02  0.67187033036E+00 -0.24260859203E+02  0.31063704893E+02  0.51100000000E-03 0. -1.
        -11    1    3    3    0    0 -0.53650075970E+01 -0.71724718929E+01 -0.50871113373E+01  0.10300794221E+02  0.51100000000E-03 0.  1.
        -12    1    3    3    0    0  0.24855326734E+01  0.15048961070E+02  0.27099479471E+02  0.31097120277E+02  0.00000000000E+00 0.  1.
</event>
<event>
 7    1  0.1891413E-013  0.7246153E+02  0.7816164E-02  0.1226708E+00
        -11   -1    0    0    0    0  0.00000000000E+00  0.00000000000E+00  0.45593999997E+02  0.45594000000E+02  0.51100000000E-03 0. -1.
         11   -1    0    0    0    0 -0.00000000000E+00 -0.00000000000E+00 -0.45593999997E+02  0.45594000000E+02  0.51100000000E-03 0.  1.
    9900012    2    1    2    0    0 -0.31292489485E+01 -0.26811035052E+01  0.18267464215E+02  0.72461527726E+02  0.69999944547E+02 0.  0.
        -12    1    1    2    0    0  0.31292489485E+01  0.26811035052E+01 -0.18267464215E+02  0.18726472274E+02  0.00000000000E+00 0.  1.
         11    1    3    3    0    0  0.24649352488E+02  0.86742441290E+01 -0.13892356852E+01  0.26167977861E+02  0.51100000000E-03 0. -1.
        -11    1    3    3    0    0 -0.79033050340E+01 -0.96414177927E+00 -0.75924006959E+01  0.11001652077E+02  0.51100000000E-03 0.  1.
        -12    1    3    3    0    0 -0.19875296402E+02 -0.10391205855E+02  0.27249100596E+02  0.35291897788E+02  0.00000000000E+00 0.  1.
</event>
<event>
 7    1  0.1891413E-013  0.7246158E+02  0.7816164E-02  0.1226708E+00
        -11   -1    0    0    0    0  0.00000000000E+00  0.00000000000E+00  0.45593999997E+02  0.45594000000E+02  0.51100000000E-03 0. -1.
         11   -1    0    0    0    0 -0.00000000000E+00 -0.00000000000E+00 -0.45593999997E+02  0.45594000000E+02  0.51100000000E-03 0.  1.
    9900012    2    1    2    0    0  0.48861910960E+01  0.14777199345E+02  0.10413374333E+02  0.72461578855E+02  0.70000011151E+02 0.  0.
        -12    1    1    2    0    0 -0.48861910960E+01 -0.14777199345E+02 -0.10413374333E+02  0.18726421145E+02  0.00000000000E+00 0.  1.
         11    1    3    3    0    0 -0.20394192289E+01 -0.16415215481E+01 -0.10739125485E+01  0.28296841179E+01  0.51100000000E-03 0. -1.
        -11    1    3    3    0    0 -0.92524065570E+01 -0.10767901349E+02 -0.20308395195E+02  0.24778733668E+02  0.51100000000E-03 0.  1.
         12    1    3    3    0    0  0.16178016882E+02  0.27186622242E+02  0.31795682076E+02  0.44853161069E+02  0.00000000000E+00 0. -1.
</event>
<event>
 7    1  0.1891413E-013  0.7246161E+02  0.7816164E-02  0.1226708E+00
        -11   -1    0    0    0    0  0.00000000000E+00  0.00000000000E+00  0.45593999997E+02  0.45594000000E+02  0.51100000000E-03 0. -1.
         11   -1    0    0    0    0 -0.00000000000E+00 -0.00000000000E+00 -0.45593999997E+02  0.45594000000E+02  0.51100000000E-03 0.  1.
    9900012    2    1    2    0    0 -0.56267459751E+01  0.16056847807E+02  0.78227209197E+01  0.72461612351E+02  0.70000054787E+02 0.  0.
        -12    1    1    2    0    0  0.56267459751E+01 -0.16056847807E+02 -0.78227209197E+01  0.18726387649E+02  0.00000000000E+00 0.  1.
         11    1    3    3    0    0 -0.25411176163E+02  0.45275390220E+01 -0.67620195135E+01  0.26682417277E+02  0.51100000000E-03 0. -1.
        -11    1    3    3    0    0 -0.60745870140E+01 -0.42011615678E+01 -0.57113925533E+01  0.93365074342E+01  0.51100000000E-03 0.  1.
         12    1    3    3    0    0  0.25859017202E+02  0.15730470353E+02  0.20296132987E+02  0.36442687640E+02  0.00000000000E+00 0. -1.
</event>
<event>
 7    1  0.1891413E-013  0.7246157E+02  0.7816164E-02  0.1226708E+00
        -11   -1    0    0    0    0  0.00000000000E+00  0.00000000000E+00  0.45593999997E+02  0.45594000000E+02  0.51100000000E-03 0.  1.
         11   -1    0    0    0    0 -0.00000000000E+00 -0.00000000000E+00 -0.45593999997E+02  0.45594000000E+02  0.51100000000E-03 0. -1.
    9900012    2    1    2    0    0  0.18598711191E+02 -0.18359320182E+01 -0.11817398970E+01  0.72461569119E+02  0.69999998469E+02 0.  0.
        -12    1    1    2    0    0 -0.18598711191E+02  0.18359320182E+01  0.11817398970E+01  0.18726430881E+02  0.00000000000E+00 0.  1.
         11    1    3    3    0    0 -0.28744811062E+01 -0.35077264997E+01  0.20866713515E+01  0.49920921883E+01  0.51100000000E-03 0. -1.
        -11    1    3    3    0    0 -0.54678841470E+01  0.11144292706E+01  0.26636548593E+02  0.27214801686E+02  0.51100000000E-03 0.  1.
         12    1    3    3    0    0  0.26941076444E+02  0.55736521094E+00 -0.29904959841E+02  0.40254675245E+02  0.00000000000E+00 0. -1.
</event>
<event>
 7    1  0.1891413E-013  0.7246158E+02  0.7816164E-02  0.1226708E+00
        -11   -1    0    0    0    0  0.00000000000E+00  0.00000000000E+00  0.45593999997E+02  0.45594000000E+02  0.51100000000E-03 0. -1.
         11   -1    0    0    0    0 -0.00000000000E+00 -0.00000000000E+00 -0.45593999997E+02  0.45594000000E+02  0.51100000000E-03 0.  1.
    9900012    2    1    2    0    0  0.47977956900E+01  0.14089484177E+02  0.11364266928E+02  0.72461575604E+02  0.70000006917E+02 0.  0.
        -12    1    1    2    0    0 -0.47977956900E+01 -0.14089484177E+02 -0.11364266928E+02  0.18726424396E+02  0.00000000000E+00 0.  1.
         11    1    3    3    0    0 -0.20651786544E+02  0.24867137704E+02  0.68104252260E+01  0.33034114443E+02  0.51100000000E-03 0. -1.
        -11    1    3    3    0    0  0.15107421482E+02  0.73018642158E+01  0.75221918983E+01  0.18388441371E+02  0.51100000000E-03 0.  1.
        -12    1    3    3    0    0  0.10342160752E+02 -0.18079517743E+02 -0.29683501965E+01  0.21039019790E+02  0.00000000000E+00 0.  1.
</event>
<event>
 7    1  0.1891413E-013  0.7246156E+02  0.7816164E-02  0.1226708E+00
        -11   -1    0    0    0    0  0.00000000000E+00  0.00000000000E+00  0.45593999997E+02  0.45594000000E+02  0.51100000000E-03 0.  1.
         11   -1    0    0    0    0 -0.00000000000E+00 -0.00000000000E+00 -0.45593999997E+02  0.45594000000E+02  0.51100000000E-03 0. -1.
    9900012    2    1    2    0    0 -0.18186160430E+02  0.42169474510E+01  0.14698556543E+01  0.72461560065E+02  0.69999986675E+02 0.  0.
        -12    1    1    2    0    0  0.18186160430E+02 -0.42169474510E+01 -0.14698556543E+01  0.18726439935E+02  0.00000000000E+00 0.  1.
         11    1    3    3    0    0  0.33627132239E+00  0.40516995856E+01  0.86132770917E+01  0.95245939784E+01  0.51100000000E-03 0. -1.
        -11    1    3    3    0    0  0.76678432244E+01 -0.24936123079E+02 -0.73734566459E+00  0.26098845431E+02  0.51100000000E-03 0.  1.
         12    1    3    3    0    0 -0.26190274977E+02  0.25101370944E+02 -0.64060757728E+01  0.36838120656E+02  0.00000000000E+00 0. -1.
</event>
<event>
 7    1  0.1891413E-013  0.7246158E+02  0.7816164E-02  0.1226708E+00
        -11   -1    0    0    0    0  0.00000000000E+00  0.00000000000E+00  0.45593999997E+02  0.45594000000E+02  0.51100000000E-03 0. -1.
         11   -1    0    0    0    0 -0.00000000000E+00 -0.00000000000E+00 -0.45593999997E+02  0.45594000000E+02  0.51100000000E-03 0.  1.
    9900012    2    1    2    0    0 -0.10409648000E+02  0.48267243098E+01  0.14799354469E+02  0.72461576643E+02  0.70000008271E+02 0.  0.
        -12    1    1    2    0    0  0.10409648000E+02 -0.48267243098E+01 -0.14799354469E+02  0.18726423357E+02  0.00000000000E+00 0.  1.
         11    1    3    3    0    0 -0.12507343640E+02 -0.52860421462E+01  0.38984380307E+02  0.41281446132E+02  0.51100000000E-03 0. -1.
        -11    1    3    3    0    0  0.64502858599E+01  0.16307670650E+01 -0.18655904379E+01  0.69098492630E+01  0.51100000000E-03 0.  1.
        -12    1    3    3    0    0 -0.43525902191E+01  0.84819993909E+01 -0.22319435401E+02  0.24270281249E+02  0.00000000000E+00 0.  1.
</event>
<event>
 7    1  0.1891413E-013  0.7246174E+02  0.7816164E-02  0.1226708E+00
        -11   -1    0    0    0    0  0.00000000000E+00  0.00000000000E+00  0.45593999997E+02  0.45594000000E+02  0.51100000000E-03 0. -1.
         11   -1    0    0    0    0 -0.00000000000E+00 -0.00000000000E+00 -0.45593999997E+02  0.45594000000E+02  0.51100000000E-03 0.  1.
    9900012    2    1    2    0    0 -0.27971369326E+01  0.13879160705E+02  0.12256336325E+02  0.72461738840E+02  0.70000219562E+02 0.  0.
        -12    1    1    2    0    0  0.27971369326E+01 -0.13879160705E+02 -0.12256336325E+02  0.18726261160E+02  0.00000000000E+00 0.  1.
         11    1    3    3    0    0  0.47262071563E+01  0.46283600622E+01  0.79163581367E+00  0.66622397490E+01  0.51100000000E-03 0. -1.
        -11    1    3    3    0    0  0.26589870481E+02  0.68931902459E+01  0.15212808755E+02  0.31400108828E+02  0.51100000000E-03 0.  1.
         12    1    3    3    0    0 -0.34113214570E+02  0.23576103968E+01 -0.37481082433E+01  0.34399390263E+02  0.00000000000E+00 0. -1.
</event>
<event>
 7    1  0.1891413E-013  0.7246157E+02  0.7816164E-02  0.1226708E+00
        -11   -1    0    0    0    0  0.00000000000E+00  0.00000000000E+00  0.45593999997E+02  0.45594000000E+02  0.51100000000E-03 0. -1.
         11   -1    0    0    0    0 -0.00000000000E+00 -0.00000000000E+00 -0.45593999997E+02  0.45594000000E+02  0.51100000000E-03 0.  1.
    9900012    2    1    2    0    0 -0.18092098709E+00  0.14925195775E+02 -0.11308621161E+02  0.72461571780E+02  0.70000001935E+02 0.  0.
        -12    1    1    2    0    0  0.18092098709E+00 -0.14925195775E+02  0.11308621161E+02  0.18726428220E+02  0.00000000000E+00 0.  1.
         11    1    3    3    0    0  0.20122592849E+01 -0.14410252117E+02  0.11429742981E+01  0.14594894450E+02  0.51100000000E-03 0. -1.
        -11    1    3    3    0    0  0.10671335330E+02 -0.90928887820E+01  0.32754666339E+01  0.14397454847E+02  0.51100000000E-03 0.  1.
        -12    1    3    3    0    0 -0.12864515602E+02  0.38428336674E+02 -0.15727062093E+02  0.43469222483E+02  0.00000000000E+00 0.  1.
</event>
<event>
 7    1  0.1891413E-013  0.7246158E+02  0.7816164E-02  0.1226708E+00
        -11   -1    0    0    0    0  0.00000000000E+00  0.00000000000E+00  0.45593999997E+02  0.45594000000E+02  0.51100000000E-03 0. -1.
         11   -1    0    0    0    0 -0.00000000000E+00 -0.00000000000E+00 -0.45593999997E+02  0.45594000000E+02  0.51100000000E-03 0.  1.
    9900012    2    1    2    0    0 -0.37961826319E+01  0.16974948473E+02  0.69367849793E+01  0.72461578449E+02  0.70000010623E+02 0.  0.
        -12    1    1    2    0    0  0.37961826319E+01 -0.16974948473E+02 -0.69367849793E+01  0.18726421551E+02  0.00000000000E+00 0.  1.
         11    1    3    3    0    0 -0.59885368389E+01  0.10300855849E+02 -0.26926770656E+02  0.29445223431E+02  0.51100000000E-03 0. -1.
        -11    1    3    3    0    0  0.18032792139E+01  0.56486579613E+01 -0.26440240998E+01  0.64923043974E+01  0.51100000000E-03 0.  1.
        -12    1    3    3    0    0  0.38907499306E+00  0.10254346626E+01  0.36507579735E+02  0.36524050620E+02  0.00000000000E+00 0.  1.
</event>
<event>
 7    1  0.1891413E-013  0.7246153E+02  0.7816164E-02  0.1226708E+00
        -11   -1    0    0    0    0  0.00000000000E+00  0.00000000000E+00  0.45593999997E+02  0.45594000000E+02  0.51100000000E-03 0. -1.
         11   -1    0    0    0    0 -0.00000000000E+00 -0.00000000000E+00 -0.45593999997E+02  0.45594000000E+02  0.51100000000E-03 0.  1.
    9900012    2    1    2    0    0  0.18275367095E+02  0.32128590655E+01  0.25236966470E+01  0.72461533419E+02  0.69999951963E+02 0.  0.
        -12    1    1    2    0    0 -0.18275367095E+02 -0.32128590655E+01 -0.25236966470E+01  0.18726466581E+02  0.00000000000E+00 0.  1.
         11    1    3    3    0    0 -0.90013301311E+01 -0.15460615270E+02  0.40785485694E+01  0.18349090641E+02  0.51100000000E-03 0. -1.
        -11    1    3    3    0    0 -0.93040674018E+01 -0.40477305984E+01 -0.41709084752E+01  0.10970244801E+02  0.51100000000E-03 0.  1.
        -12    1    3    3    0    0  0.36580764628E+02  0.22721204934E+02  0.26160565529E+01  0.43142197977E+02  0.00000000000E+00 0.  1.
</event>
<event>
 7    1  0.1891413E-013  0.7246156E+02  0.7816164E-02  0.1226708E+00
        -11   -1    0    0    0    0  0.00000000000E+00  0.00000000000E+00  0.45593999997E+02  0.45594000000E+02  0.51100000000E-03 0. -1.
         11   -1    0    0    0    0 -0.00000000000E+00 -0.00000000000E+00 -0.45593999997E+02  0.45594000000E+02  0.51100000000E-03 0.  1.
    9900012    2    1    2    0    0 -0.88593815596E+01 -0.14301083328E+02  0.82261642845E+01  0.72461564012E+02  0.69999991816E+02 0.  0.
        -12    1    1    2    0    0  0.88593815596E+01  0.14301083328E+02 -0.82261642845E+01  0.18726435988E+02  0.00000000000E+00 0.  1.
         11    1    3    3    0    0  0.48951248862E+00  0.62331699094E+01  0.12957094984E+02  0.14386741823E+02  0.51100000000E-03 0. -1.
        -11    1    3    3    0    0 -0.20674565799E+02 -0.28429272288E+02  0.11295153273E+02  0.36922102886E+02  0.51100000000E-03 0.  1.
         12    1    3    3    0    0  0.11325671751E+02  0.78950190506E+01 -0.16026083972E+02  0.21152719303E+02  0.00000000000E+00 0. -1.
</event>
<event>
 7    1  0.1891413E-013  0.7246159E+02  0.7816164E-02  0.1226708E+00
        -11   -1    0    0    0    0  0.00000000000E+00  0.00000000000E+00  0.45593999997E+02  0.45594000000E+02  0.51100000000E-03 0.  1.
         11   -1    0    0    0    0 -0.00000000000E+00 -0.00000000000E+00 -0.45593999997E+02  0.45594000000E+02  0.51100000000E-03 0. -1.
    9900012    2    1    2    0    0  0.37388179173E+01  0.38020904648E+01 -0.17951151009E+02  0.72461588869E+02  0.70000024196E+02 0.  0.
        -12    1    1    2    0    0 -0.37388179173E+01 -0.38020904648E+01  0.17951151009E+02  0.18726411131E+02  0.00000000000E+00 0.  1.
         11    1    3    3    0    0  0.22431110329E+01  0.19824413404E+02 -0.26491432873E+02  0.33163759284E+02  0.51100000000E-03 0. -1.
        -11    1    3    3    0    0  0.14155733107E+02 -0.95462618784E+01 -0.68020293760E+01  0.18378887331E+02  0.51100000000E-03 0.  1.
         12    1    3    3    0    0 -0.12660026222E+02 -0.64760610610E+01  0.15342311240E+02  0.20918942253E+02  0.00000000000E+00 0. -1.
</event>
<event>
 7    1  0.1891413E-013  0.7246153E+02  0.7816164E-02  0.1226708E+00
        -11   -1    0    0    0    0  0.00000000000E+00  0.00000000000E+00  0.45593999997E+02  0.45594000000E+02  0.51100000000E-03 0.  1.
         11   -1    0    0    0    0 -0.00000000000E+00 -0.00000000000E+00 -0.45593999997E+02  0.45594000000E+02  0.51100000000E-03 0. -1.
    9900012    2    1    2    0    0  0.16441880778E+02 -0.83365578177E+01 -0.32934822605E+01  0.72461530361E+02  0.69999947979E+02 0.  0.
        -12    1    1    2    0    0 -0.16441880778E+02  0.83365578177E+01  0.32934822605E+01  0.18726469639E+02  0.00000000000E+00 0.  1.
         11    1    3    3    0    0  0.13422075204E+02 -0.17548264060E+02  0.10085458684E+01  0.22115850409E+02  0.51100000000E-03 0. -1.
        -11    1    3    3    0    0 -0.54138060615E+01 -0.12473137488E+02  0.14904717330E+02  0.20175208892E+02  0.51100000000E-03 0.  1.
         12    1    3    3    0    0  0.84336116356E+01  0.21684843731E+02 -0.19206745459E+02  0.30170471060E+02  0.00000000000E+00 0. -1.
</event>
<event>
 7    1  0.1891413E-013  0.7246157E+02  0.7816164E-02  0.1226708E+00
        -11   -1    0    0    0    0  0.00000000000E+00  0.00000000000E+00  0.45593999997E+02  0.45594000000E+02  0.51100000000E-03 0. -1.
         11   -1    0    0    0    0 -0.00000000000E+00 -0.00000000000E+00 -0.45593999997E+02  0.45594000000E+02  0.51100000000E-03 0.  1.
    9900012    2    1    2    0    0  0.61255748416E+01  0.98950119535E+01  0.14671240743E+02  0.72461568582E+02  0.69999997770E+02 0.  0.
        -12    1    1    2    0    0 -0.61255748416E+01 -0.98950119535E+01 -0.14671240743E+02  0.18726431418E+02  0.00000000000E+00 0.  1.
         11    1    3    3    0    0  0.32249164524E-01 -0.10947079824E+02  0.32206650010E+02  0.34016288772E+02  0.51100000000E-03 0. -1.
        -11    1    3    3    0    0 -0.56538751978E+00  0.11377683068E+02  0.55124796764E+01  0.12655384921E+02  0.51100000000E-03 0.  1.
        -12    1    3    3    0    0  0.66587131969E+01  0.94644087091E+01 -0.23047888943E+02  0.25789894889E+02  0.00000000000E+00 0.  1.
</event>
<event>
 7    1  0.1891413E-013  0.7246150E+02  0.7816164E-02  0.1226708E+00
        -11   -1    0    0    0    0  0.00000000000E+00  0.00000000000E+00  0.45593999997E+02  0.45594000000E+02  0.51100000000E-03 0. -1.
         11   -1    0    0    0    0 -0.00000000000E+00 -0.00000000000E+00 -0.45593999997E+02  0.45594000000E+02  0.51100000000E-03 0.  1.
    9900012    2    1    2    0    0  0.15773172565E+02  0.31893159468E+01  0.95768945251E+01  0.72461504927E+02  0.69999914847E+02 0.  0.
        -12    1    1    2    0    0 -0.15773172565E+02 -0.31893159468E+01 -0.95768945251E+01  0.18726495073E+02  0.00000000000E+00 0.  1.
         11    1    3    3    0    0  0.93562917573E+01 -0.31374289198E+01  0.35380011953E+02  0.36730490083E+02  0.51100000000E-03 0. -1.
        -11    1    3    3    0    0  0.53510843577E+01  0.14604580102E+01  0.31321556797E+01  0.63700424540E+01  0.51100000000E-03 0.  1.
        -12    1    3    3    0    0  0.10657964497E+01  0.48662868565E+01 -0.28935273108E+02  0.29360972390E+02  0.00000000000E+00 0.  1.
</event>
<event>
 7    1  0.1891413E-013  0.7246153E+02  0.7816164E-02  0.1226708E+00
        -11   -1    0    0    0    0  0.00000000000E+00  0.00000000000E+00  0.45593999997E+02  0.45594000000E+02  0.51100000000E-03 0. -1.
         11   -1    0    0    0    0 -0.00000000000E+00 -0.00000000000E+00 -0.45593999997E+02  0.45594000000E+02  0.51100000000E-03 0.  1.
    9900012    2    1    2    0    0 -0.13556584513E+02 -0.78562667506E+01  0.10255674149E+02  0.72461527744E+02  0.69999944570E+02 0.  0.
        -12    1    1    2    0    0  0.13556584513E+02  0.78562667506E+01 -0.10255674149E+02  0.18726472256E+02  0.00000000000E+00 0.  1.
         11    1    3    3    0    0 -0.10591500435E+02 -0.14071628703E+00 -0.78309584298E+01  0.13172835410E+02  0.51100000000E-03 0. -1.
        -11    1    3    3    0    0 -0.10619688411E+02  0.20902938153E+02 -0.19463298813E+01  0.23526555329E+02  0.51100000000E-03 0.  1.
         12    1    3    3    0    0  0.76546043334E+01 -0.28618488617E+02  0.20032962460E+02  0.35762137005E+02  0.00000000000E+00 0. -1.
</event>
<event>
 7    1  0.1891413E-013  0.7246157E+02  0.7816164E-02  0.1226708E+00
        -11   -1    0    0    0    0  0.00000000000E+00  0.00000000000E+00  0.45593999997E+02  0.45594000000E+02  0.51100000000E-03 0.  1.
         11   -1    0    0    0    0 -0.00000000000E+00 -0.00000000000E+00 -0.45593999997E+02  0.45594000000E+02  0.51100000000E-03 0. -1.
    9900012    2    1    2    0    0 -0.34467087730E+01  0.37485770564E+01 -0.18020748402E+02  0.72461574706E+02  0.70000005747E+02 0.  0.
        -12    1    1    2    0    0  0.34467087730E+01 -0.37485770564E+01  0.18020748402E+02  0.18726425294E+02  0.00000000000E+00 0.  1.
         11    1    3    3    0    0 -0.21095486309E+02 -0.37165769803E+01 -0.15807439219E+02  0.26621563102E+02  0.51100000000E-03 0. -1.
        -11    1    3    3    0    0 -0.83503174275E+01  0.15028760750E+02 -0.65883365468E+01  0.18411888266E+02  0.51100000000E-03 0.  1.
        -12    1    3    3    0    0  0.25999094963E+02 -0.75636067132E+01  0.43750273632E+01  0.27428123338E+02  0.00000000000E+00 0.  1.
</event>
<event>
 7    1  0.1891413E-013  0.7246161E+02  0.7816164E-02  0.1226708E+00
        -11   -1    0    0    0    0  0.00000000000E+00  0.00000000000E+00  0.45593999997E+02  0.45594000000E+02  0.51100000000E-03 0. -1.
         11   -1    0    0    0    0 -0.00000000000E+00 -0.00000000000E+00 -0.45593999997E+02  0.45594000000E+02  0.51100000000E-03 0.  1.
    9900012    2    1    2    0    0 -0.17677613403E+01  0.18642696279E+02  0.51243427616E-01  0.72461608714E+02  0.70000050048E+02 0.  0.
        -12    1    1    2    0    0  0.17677613403E+01 -0.18642696279E+02 -0.51243427616E-01  0.18726391286E+02  0.00000000000E+00 0.  1.
         11    1    3    3    0    0  0.60885678088E+01 -0.12272566886E+02  0.14753900702E+01  0.13779090393E+02  0.51100000000E-03 0. -1.
        -11    1    3    3    0    0  0.18835812145E+02  0.12756988597E+02 -0.10633309437E+02  0.25111667549E+02  0.51100000000E-03 0.  1.
         12    1    3    3    0    0 -0.26692141295E+02  0.18158274568E+02  0.92091627944E+01  0.33570850772E+02  0.00000000000E+00 0. -1.
</event>
<event>
 7    1  0.1891413E-013  0.7246149E+02  0.7816164E-02  0.1226708E+00
        -11   -1    0    0    0    0  0.00000000000E+00  0.00000000000E+00  0.45593999997E+02  0.45594000000E+02  0.51100000000E-03 0.  1.
         11   -1    0    0    0    0 -0.00000000000E+00 -0.00000000000E+00 -0.45593999997E+02  0.45594000000E+02  0.51100000000E-03 0. -1.
    9900012    2    1    2    0    0 -0.18503217484E+02 -0.13088829188E+01 -0.25690464588E+01  0.72461488540E+02  0.69999893500E+02 0.  0.
        -12    1    1    2    0    0  0.18503217484E+02  0.13088829188E+01  0.25690464588E+01  0.18726511460E+02  0.00000000000E+00 0.  1.
         11    1    3    3    0    0 -0.25227600051E+02  0.21662083091E+02 -0.12399440162E+02  0.35488360976E+02  0.51100000000E-03 0. -1.
        -11    1    3    3    0    0  0.14642230027E+01 -0.23514024522E+01 -0.84668608103E+01  0.89084664638E+01  0.51100000000E-03 0.  1.
        -12    1    3    3    0    0  0.52601595644E+01 -0.20619563557E+02  0.18297254514E+02  0.28064661100E+02  0.00000000000E+00 0.  1.
</event>
<event>
 7    1  0.1891413E-013  0.7246158E+02  0.7816164E-02  0.1226708E+00
        -11   -1    0    0    0    0  0.00000000000E+00  0.00000000000E+00  0.45593999997E+02  0.45594000000E+02  0.51100000000E-03 0.  1.
         11   -1    0    0    0    0 -0.00000000000E+00 -0.00000000000E+00 -0.45593999997E+02  0.45594000000E+02  0.51100000000E-03 0. -1.
    9900012    2    1    2    0    0  0.15231056184E+02  0.51995772340E+01 -0.95738199452E+01  0.72461582717E+02  0.70000016183E+02 0.  0.
        -12    1    1    2    0    0 -0.15231056184E+02 -0.51995772340E+01  0.95738199452E+01  0.18726417283E+02  0.00000000000E+00 0.  1.
         11    1    3    3    0    0  0.19447927986E+02 -0.21918350439E+02  0.30850475368E+01  0.29464444802E+02  0.51100000000E-03 0. -1.
        -11    1    3    3    0    0  0.49156722800E+01 -0.46660957212E+01 -0.64362686101E+01  0.93467554331E+01  0.51100000000E-03 0.  1.
        -12    1    3    3    0    0 -0.91325440818E+01  0.31784023394E+02 -0.62225988719E+01  0.33650382483E+02  0.00000000000E+00 0.  1.
</event>
<event>
 7    1  0.1891413E-013  0.7246156E+02  0.7816164E-02  0.1226708E+00
        -11   -1    0    0    0    0  0.00000000000E+00  0.00000000000E+00  0.45593999997E+02  0.45594000000E+02  0.51100000000E-03 0.  1.
         11   -1    0    0    0    0 -0.00000000000E+00 -0.00000000000E+00 -0.45593999997E+02  0.45594000000E+02  0.51100000000E-03 0. -1.
    9900012    2    1    2    0    0 -0.17744754799E+02  0.43089888750E+01  0.41516044785E+01  0.72461560730E+02  0.69999987540E+02 0.  0.
        -12    1    1    2    0    0  0.17744754799E+02 -0.43089888750E+01 -0.41516044785E+01  0.18726439270E+02  0.00000000000E+00 0.  1.
         11    1    3    3    0    0  0.40340951873E+00 -0.77688920059E+00 -0.18603350694E+02  0.18623934959E+02  0.51100000000E-03 0. -1.
        -11    1    3    3    0    0  0.12029141612E+01  0.15292794633E+01 -0.12936680323E+02  0.13082178572E+02  0.51100000000E-03 0.  1.
        -12    1    3    3    0    0 -0.19351078479E+02  0.35565986123E+01  0.35691635495E+02  0.40755447198E+02  0.00000000000E+00 0.  1.
</event>
<event>
 7    1  0.1891413E-013  0.7246179E+02  0.7816164E-02  0.1226707E+00
        -11   -1    0    0    0    0  0.00000000000E+00  0.00000000000E+00  0.45593999997E+02  0.45594000000E+02  0.51100000000E-03 0.  1.
         11   -1    0    0    0    0 -0.00000000000E+00 -0.00000000000E+00 -0.45593999997E+02  0.45594000000E+02  0.51100000000E-03 0. -1.
    9900012    2    1    2    0    0 -0.51400878416E+01  0.11712016876E+02 -0.13677689461E+02  0.72461787588E+02  0.70000283064E+02 0.  0.
        -12    1    1    2    0    0  0.51400878416E+01 -0.11712016876E+02  0.13677689461E+02  0.18726212412E+02  0.00000000000E+00 0.  1.
         11    1    3    3    0    0  0.13264793657E+01 -0.45921659839E+01 -0.19620882445E+02  0.20194716242E+02  0.51100000000E-03 0. -1.
        -11    1    3    3    0    0 -0.26278727823E+02  0.16526010918E+02 -0.15554712920E+01  0.31082150249E+02  0.51100000000E-03 0.  1.
         12    1    3    3    0    0  0.19812160616E+02 -0.22182805788E+00  0.74986642757E+01  0.21184921097E+02  0.00000000000E+00 0. -1.
</event>
<event>
 7    1  0.1891413E-013  0.7246159E+02  0.7816164E-02  0.1226708E+00
        -11   -1    0    0    0    0  0.00000000000E+00  0.00000000000E+00  0.45593999997E+02  0.45594000000E+02  0.51100000000E-03 0.  1.
         11   -1    0    0    0    0 -0.00000000000E+00 -0.00000000000E+00 -0.45593999997E+02  0.45594000000E+02  0.51100000000E-03 0. -1.
    9900012    2    1    2    0    0  0.17174676842E+02  0.12368905805E+01 -0.73606388010E+01  0.72461590134E+02  0.70000025844E+02 0.  0.
        -12    1    1    2    0    0 -0.17174676842E+02 -0.12368905805E+01  0.73606388010E+01  0.18726409866E+02  0.00000000000E+00 0.  1.
         11    1    3    3    0    0  0.80574526464E+01  0.98561887206E+01  0.27686737332E+01  0.13028144678E+02  0.51100000000E-03 0. -1.
        -11    1    3    3    0    0  0.17622035459E+02  0.20145633172E+02  0.25113339586E+01  0.26882884297E+02  0.51100000000E-03 0.  1.
         12    1    3    3    0    0 -0.85048112632E+01 -0.28764931312E+02 -0.12640646493E+02  0.32550561159E+02  0.00000000000E+00 0. -1.
</event>
<event>
 7    1  0.1891413E-013  0.7246157E+02  0.7816164E-02  0.1226708E+00
        -11   -1    0    0    0    0  0.00000000000E+00  0.00000000000E+00  0.45593999997E+02  0.45594000000E+02  0.51100000000E-03 0. -1.
         11   -1    0    0    0    0 -0.00000000000E+00 -0.00000000000E+00 -0.45593999997E+02  0.45594000000E+02  0.51100000000E-03 0.  1.
    9900012    2    1    2    0    0  0.12580667089E+02 -0.29249083350E+01  0.13559160767E+02  0.72461571780E+02  0.70000001936E+02 0.  0.
        -12    1    1    2    0    0 -0.12580667089E+02  0.29249083350E+01 -0.13559160767E+02  0.18726428220E+02  0.00000000000E+00 0.  1.
         11    1    3    3    0    0  0.22197957141E+02  0.92591369561E+01  0.10154480896E+02  0.26107362964E+02  0.51100000000E-03 0. -1.
        -11    1    3    3    0    0 -0.17532450771E+01  0.16412493952E+02  0.40917937947E-01  0.16505923197E+02  0.51100000000E-03 0.  1.
         12    1    3    3    0    0 -0.78640449751E+01 -0.28596539243E+02  0.33637619329E+01  0.29848285619E+02  0.00000000000E+00 0. -1.
</event>
<event>
 7    1  0.1891413E-013  0.7246117E+02  0.7816164E-02  0.1226709E+00
        -11   -1    0    0    0    0  0.00000000000E+00  0.00000000000E+00  0.45593999997E+02  0.45594000000E+02  0.51100000000E-03 0.  1.
         11   -1    0    0    0    0 -0.00000000000E+00 -0.00000000000E+00 -0.45593999997E+02  0.45594000000E+02  0.51100000000E-03 0. -1.
    9900012    2    1    2    0    0  0.26230383470E+01  0.17808091143E+02 -0.51658255310E+01  0.72461169148E+02  0.69999477431E+02 0.  0.
        -12    1    1    2    0    0 -0.26230383470E+01 -0.17808091143E+02  0.51658255310E+01  0.18726830852E+02  0.00000000000E+00 0.  1.
         11    1    3    3    0    0 -0.13223083472E+02  0.18560160485E+02  0.20696926745E+02  0.30784610939E+02  0.51100000000E-03 0. -1.
        -11    1    3    3    0    0  0.13812795544E+02  0.36787913180E+01  0.10433857147E+01  0.14332322921E+02  0.51100000000E-03 0.  1.
        -12    1    3    3    0    0  0.20333262745E+01 -0.44308606600E+01 -0.26906137991E+02  0.27344235288E+02  0.00000000000E+00 0.  1.
</event>
<event>
 7    1  0.1891413E-013  0.7246150E+02  0.7816164E-02  0.1226708E+00
        -11   -1    0    0    0    0  0.00000000000E+00  0.00000000000E+00  0.45593999997E+02  0.45594000000E+02  0.51100000000E-03 0. -1.
         11   -1    0    0    0    0 -0.00000000000E+00 -0.00000000000E+00 -0.45593999997E+02  0.45594000000E+02  0.51100000000E-03 0.  1.
    9900012    2    1    2    0    0 -0.18331308481E+02 -0.23897643233E+01  0.29889827671E+01  0.72461498401E+02  0.69999906346E+02 0.  0.
        -12    1    1    2    0    0  0.18331308481E+02  0.23897643233E+01 -0.29889827671E+01  0.18726501599E+02  0.00000000000E+00 0.  1.
         11    1    3    3    0    0 -0.25626858825E+02 -0.29472719034E+01  0.11805048064E+02  0.28368670483E+02  0.51100000000E-03 0. -1.
        -11    1    3    3    0    0 -0.17163677399E+02  0.59286491439E+01 -0.35130079253E+01  0.18495456941E+02  0.51100000000E-03 0.  1.
        -12    1    3    3    0    0  0.24459227742E+02 -0.53711415639E+01 -0.53030573719E+01  0.25597370977E+02  0.00000000000E+00 0.  1.
</event>
<event>
 7    1  0.1891413E-013  0.7246156E+02  0.7816164E-02  0.1226708E+00
        -11   -1    0    0    0    0  0.00000000000E+00  0.00000000000E+00  0.45593999997E+02  0.45594000000E+02  0.51100000000E-03 0. -1.
         11   -1    0    0    0    0 -0.00000000000E+00 -0.00000000000E+00 -0.45593999997E+02  0.45594000000E+02  0.51100000000E-03 0.  1.
    9900012    2    1    2    0    0  0.14571814540E+01 -0.16573303512E+02  0.85954423225E+01  0.72461564253E+02  0.69999992130E+02 0.  0.
        -12    1    1    2    0    0 -0.14571814540E+01  0.16573303512E+02 -0.85954423225E+01  0.18726435747E+02  0.00000000000E+00 0.  1.
         11    1    3    3    0    0  0.20915970098E+01 -0.80633640532E+01  0.97522752230E+01  0.12825735464E+02  0.51100000000E-03 0. -1.
        -11    1    3    3    0    0  0.14941759644E+02  0.36422533330E+01  0.23472543326E+02  0.28062118256E+02  0.51100000000E-03 0.  1.
        -12    1    3    3    0    0 -0.15576175200E+02 -0.12152192791E+02 -0.24629376226E+02  0.31573710532E+02  0.00000000000E+00 0.  1.
</event>
<event>
 7    1  0.1891413E-013  0.7246157E+02  0.7816164E-02  0.1226708E+00
        -11   -1    0    0    0    0  0.00000000000E+00  0.00000000000E+00  0.45593999997E+02  0.45594000000E+02  0.51100000000E-03 0.  1.
         11   -1    0    0    0    0 -0.00000000000E+00 -0.00000000000E+00 -0.45593999997E+02  0.45594000000E+02  0.51100000000E-03 0. -1.
    9900012    2    1    2    0    0 -0.18395485027E+02  0.34881099501E+01  0.34401539958E+00  0.72461571430E+02  0.70000001479E+02 0.  0.
        -12    1    1    2    0    0  0.18395485027E+02 -0.34881099501E+01 -0.34401539958E+00  0.18726428570E+02  0.00000000000E+00 0.  1.
         11    1    3    3    0    0  0.77072181916E+00 -0.14612195145E+02 -0.91301012448E+01  0.17247289876E+02  0.51100000000E-03 0. -1.
        -11    1    3    3    0    0 -0.99833067549E+01 -0.15676592683E+02  0.78452085247E+01  0.20173479347E+02  0.51100000000E-03 0.  1.
        -12    1    3    3    0    0 -0.91829000909E+01  0.33776897778E+02  0.16289081196E+01  0.35040802206E+02  0.00000000000E+00 0.  1.
</event>
<event>
 7    1  0.1891413E-013  0.7246149E+02  0.7816164E-02  0.1226708E+00
        -11   -1    0    0    0    0  0.00000000000E+00  0.00000000000E+00  0.45593999997E+02  0.45594000000E+02  0.51100000000E-03 0.  1.
         11   -1    0    0    0    0 -0.00000000000E+00 -0.00000000000E+00 -0.45593999997E+02  0.45594000000E+02  0.51100000000E-03 0. -1.
    9900012    2    1    2    0    0 -0.14340822362E+02 -0.10088611192E+02 -0.65759241894E+01  0.72461493632E+02  0.69999900133E+02 0.  0.
        -12    1    1    2    0    0  0.14340822362E+02  0.10088611192E+02  0.65759241894E+01  0.18726506368E+02  0.00000000000E+00 0.  1.
         11    1    3    3    0    0 -0.27326325027E+02 -0.96883770063E+01  0.63567131434E+01  0.29681652426E+02  0.51100000000E-03 0. -1.
        -11    1    3    3    0    0 -0.11655090924E+02  0.83993731828E+01 -0.68577965721E+01  0.15919170468E+02  0.51100000000E-03 0.  1.
        -12    1    3    3    0    0  0.24640593588E+02 -0.87996073687E+01 -0.60748407607E+01  0.26860670738E+02  0.00000000000E+00 0.  1.
</event>
<event>
 7    1  0.1891413E-013  0.7246162E+02  0.7816164E-02  0.1226708E+00
        -11   -1    0    0    0    0  0.00000000000E+00  0.00000000000E+00  0.45593999997E+02  0.45594000000E+02  0.51100000000E-03 0. -1.
         11   -1    0    0    0    0 -0.00000000000E+00 -0.00000000000E+00 -0.45593999997E+02  0.45594000000E+02  0.51100000000E-03 0.  1.
    9900012    2    1    2    0    0  0.17005668333E+02 -0.49553000128E+01  0.60769676853E+01  0.72461620481E+02  0.70000065377E+02 0.  0.
        -12    1    1    2    0    0 -0.17005668333E+02  0.49553000128E+01 -0.60769676853E+01  0.18726379519E+02  0.00000000000E+00 0.  1.
         11    1    3    3    0    0  0.40319301408E+01 -0.19845353361E+02 -0.94282875297E+01  0.22338019534E+02  0.51100000000E-03 0. -1.
        -11    1    3    3    0    0  0.10217829448E+02 -0.69283891040E-01 -0.13761343391E+02  0.17140111174E+02  0.51100000000E-03 0.  1.
        -12    1    3    3    0    0  0.27559087434E+01  0.14959337239E+02  0.29266598606E+02  0.32983489773E+02  0.00000000000E+00 0.  1.
</event>
<event>
 7    1  0.1891413E-013  0.7246155E+02  0.7816164E-02  0.1226708E+00
        -11   -1    0    0    0    0  0.00000000000E+00  0.00000000000E+00  0.45593999997E+02  0.45594000000E+02  0.51100000000E-03 0. -1.
         11   -1    0    0    0    0 -0.00000000000E+00 -0.00000000000E+00 -0.45593999997E+02  0.45594000000E+02  0.51100000000E-03 0.  1.
    9900012    2    1    2    0    0 -0.48341376118E+01  0.16918783977E+02  0.64082685651E+01  0.72461546953E+02  0.69999969593E+02 0.  0.
        -12    1    1    2    0    0  0.48341376118E+01 -0.16918783977E+02 -0.64082685651E+01  0.18726453047E+02  0.00000000000E+00 0.  1.
         11    1    3    3    0    0  0.75033677353E+01 -0.51783386507E+01  0.26501182371E+02  0.28025495284E+02  0.51100000000E-03 0. -1.
        -11    1    3    3    0    0  0.40844658375E+01 -0.55299401793E+01 -0.72719872166E+00  0.69131698812E+01  0.51100000000E-03 0.  1.
        -12    1    3    3    0    0 -0.16421971185E+02  0.27627062807E+02 -0.19365715084E+02  0.37522881788E+02  0.00000000000E+00 0.  1.
</event>
<event>
 7    1  0.1891413E-013  0.7246135E+02  0.7816164E-02  0.1226709E+00
        -11   -1    0    0    0    0  0.00000000000E+00  0.00000000000E+00  0.45593999997E+02  0.45594000000E+02  0.51100000000E-03 0. -1.
         11   -1    0    0    0    0 -0.00000000000E+00 -0.00000000000E+00 -0.45593999997E+02  0.45594000000E+02  0.51100000000E-03 0.  1.
    9900012    2    1    2    0    0 -0.13480064911E+02  0.29818617890E+01  0.12652418884E+02  0.72461351785E+02  0.69999715351E+02 0.  0.
        -12    1    1    2    0    0  0.13480064911E+02 -0.29818617890E+01 -0.12652418884E+02  0.18726648215E+02  0.00000000000E+00 0.  1.
         11    1    3    3    0    0 -0.10569834023E+02 -0.10985340239E+02 -0.15913973262E+01  0.15327479804E+02  0.51100000000E-03 0. -1.
        -11    1    3    3    0    0  0.10992043727E+02 -0.75887473732E+01 -0.13747229133E+02  0.19167692117E+02  0.51100000000E-03 0.  1.
        -12    1    3    3    0    0 -0.13902274615E+02  0.21555949402E+02  0.27991045343E+02  0.37966179864E+02  0.00000000000E+00 0.  1.
</event>
<event>
 7    1  0.1891413E-013  0.7246155E+02  0.7816164E-02  0.1226708E+00
        -11   -1    0    0    0    0  0.00000000000E+00  0.00000000000E+00  0.45593999997E+02  0.45594000000E+02  0.51100000000E-03 0.  1.
         11   -1    0    0    0    0 -0.00000000000E+00 -0.00000000000E+00 -0.45593999997E+02  0.45594000000E+02  0.51100000000E-03 0. -1.
    9900012    2    1    2    0    0 -0.15226645498E+01  0.18234280947E+02  0.39840185075E+01  0.72461550458E+02  0.69999974159E+02 0.  0.
        -12    1    1    2    0    0  0.15226645498E+01 -0.18234280947E+02 -0.39840185075E+01  0.18726449542E+02  0.00000000000E+00 0.  1.
         11    1    3    3    0    0 -0.14387444945E+02 -0.25690807464E+01  0.26487819019E+01  0.14853107209E+02  0.51100000000E-03 0. -1.
        -11    1    3    3    0    0 -0.12240642228E+02  0.55988570495E+01  0.19050461171E+02  0.23325963935E+02  0.51100000000E-03 0.  1.
         12    1    3    3    0    0  0.25105422623E+02  0.15204504644E+02 -0.17715224565E+02  0.34282479314E+02  0.00000000000E+00 0. -1.
</event>
<event>
 7    1  0.1891413E-013  0.7246153E+02  0.7816164E-02  0.1226708E+00
        -11   -1    0    0    0    0  0.00000000000E+00  0.00000000000E+00  0.45593999997E+02  0.45594000000E+02  0.51100000000E-03 0. -1.
         11   -1    0    0    0    0 -0.00000000000E+00 -0.00000000000E+00 -0.45593999997E+02  0.45594000000E+02  0.51100000000E-03 0.  1.
    9900012    2    1    2    0    0  0.17839922319E+02  0.44236766318E+01 -0.35845463284E+01  0.72461529012E+02  0.69999946222E+02 0.  0.
        -12    1    1    2    0    0 -0.17839922319E+02 -0.44236766318E+01  0.35845463284E+01  0.18726470988E+02  0.00000000000E+00 0.  1.
         11    1    3    3    0    0  0.11540234207E+02 -0.14765124628E+01  0.11415325007E+02  0.16299286484E+02  0.51100000000E-03 0. -1.
        -11    1    3    3    0    0  0.19606749715E+02 -0.79160340370E+01 -0.26418687770E+02  0.33838370129E+02  0.51100000000E-03 0.  1.
         12    1    3    3    0    0 -0.13307061602E+02  0.13816223132E+02  0.11418816435E+02  0.22323872399E+02  0.00000000000E+00 0. -1.
</event>
<event>
 7    1  0.1891413E-013  0.7246153E+02  0.7816164E-02  0.1226708E+00
        -11   -1    0    0    0    0  0.00000000000E+00  0.00000000000E+00  0.45593999997E+02  0.45594000000E+02  0.51100000000E-03 0.  1.
         11   -1    0    0    0    0 -0.00000000000E+00 -0.00000000000E+00 -0.45593999997E+02  0.45594000000E+02  0.51100000000E-03 0. -1.
    9900012    2    1    2    0    0 -0.13873232011E+02 -0.10645517345E+02  0.66997920261E+01  0.72461526248E+02  0.69999942622E+02 0.  0.
        -12    1    1    2    0    0  0.13873232011E+02  0.10645517345E+02 -0.66997920261E+01  0.18726473752E+02  0.00000000000E+00 0.  1.
         11    1    3    3    0    0  0.73879367907E+01 -0.98890107827E-01  0.45178745908E+01  0.86604030135E+01  0.51100000000E-03 0. -1.
        -11    1    3    3    0    0 -0.12268841912E+02  0.12887580105E+02  0.24455089069E+02  0.30243438701E+02  0.51100000000E-03 0.  1.
         12    1    3    3    0    0 -0.89923268895E+01 -0.23434207343E+02 -0.22273171634E+02  0.33557684534E+02  0.00000000000E+00 0. -1.
</event>
<event>
 7    1  0.1891413E-013  0.7246151E+02  0.7816164E-02  0.1226708E+00
        -11   -1    0    0    0    0  0.00000000000E+00  0.00000000000E+00  0.45593999997E+02  0.45594000000E+02  0.51100000000E-03 0. -1.
         11   -1    0    0    0    0 -0.00000000000E+00 -0.00000000000E+00 -0.45593999997E+02  0.45594000000E+02  0.51100000000E-03 0.  1.
    9900012    2    1    2    0    0 -0.18100663302E+02  0.37227132020E+01  0.30313119370E+01  0.72461509202E+02  0.69999920416E+02 0.  0.
        -12    1    1    2    0    0  0.18100663302E+02 -0.37227132020E+01 -0.30313119370E+01  0.18726490798E+02  0.00000000000E+00 0.  1.
         11    1    3    3    0    0  0.18105366934E+01  0.77485778034E+01 -0.73147479015E+01  0.10808516930E+02  0.51100000000E-03 0. -1.
        -11    1    3    3    0    0 -0.11188138573E+02 -0.14115506574E+02 -0.20952993007E+02  0.27630596931E+02  0.51100000000E-03 0.  1.
         12    1    3    3    0    0 -0.87230614222E+01  0.10089641972E+02  0.31299052846E+02  0.34022395341E+02  0.00000000000E+00 0. -1.
</event>
<event>
 7    1  0.1891413E-013  0.7246155E+02  0.7816164E-02  0.1226708E+00
        -11   -1    0    0    0    0  0.00000000000E+00  0.00000000000E+00  0.45593999997E+02  0.45594000000E+02  0.51100000000E-03 0.  1.
         11   -1    0    0    0    0 -0.00000000000E+00 -0.00000000000E+00 -0.45593999997E+02  0.45594000000E+02  0.51100000000E-03 0. -1.
    9900012    2    1    2    0    0 -0.97536892042E+00  0.13094182285E+01 -0.18655134830E+02  0.72461548757E+02  0.69999971943E+02 0.  0.
        -12    1    1    2    0    0  0.97536892042E+00 -0.13094182285E+01  0.18655134830E+02  0.18726451243E+02  0.00000000000E+00 0.  1.
         11    1    3    3    0    0  0.17087738877E+02 -0.12140950274E+02 -0.11596848568E+02  0.23955800769E+02  0.51100000000E-03 0. -1.
        -11    1    3    3    0    0 -0.19771826718E+02 -0.88858204680E+01  0.61089042931E+01  0.22521137828E+02  0.51100000000E-03 0.  1.
        -12    1    3    3    0    0  0.17087189203E+01  0.22336188970E+02 -0.13167190555E+02  0.25984610160E+02  0.00000000000E+00 0.  1.
</event>
<event>
 7    1  0.1891413E-013  0.7246159E+02  0.7816164E-02  0.1226708E+00
        -11   -1    0    0    0    0  0.00000000000E+00  0.00000000000E+00  0.45593999997E+02  0.45594000000E+02  0.51100000000E-03 0. -1.
         11   -1    0    0    0    0 -0.00000000000E+00 -0.00000000000E+00 -0.45593999997E+02  0.45594000000E+02  0.51100000000E-03 0.  1.
    9900012    2    1    2    0    0  0.13916914181E+02  0.11849072977E+02  0.40739912263E+01  0.72461589900E+02  0.70000025540E+02 0.  0.
        -12    1    1    2    0    0 -0.13916914181E+02 -0.11849072977E+02 -0.40739912263E+01  0.18726410100E+02  0.00000000000E+00 0.  1.
         11    1    3    3    0    0  0.65833514249E+01 -0.22048747575E+02  0.15156340748E+02  0.27553628632E+02  0.51100000000E-03 0. -1.
        -11    1    3    3    0    0 -0.89235396963E+01  0.98249986008E+01  0.12892836214E+01  0.13335006964E+02  0.51100000000E-03 0.  1.
        -12    1    3    3    0    0  0.16257102452E+02  0.24072821952E+02 -0.12371633144E+02  0.31572954304E+02  0.00000000000E+00 0.  1.
</event>
<event>
 7    1  0.1891413E-013  0.7246163E+02  0.7816164E-02  0.1226708E+00
        -11   -1    0    0    0    0  0.00000000000E+00  0.00000000000E+00  0.45593999997E+02  0.45594000000E+02  0.51100000000E-03 0. -1.
         11   -1    0    0    0    0 -0.00000000000E+00 -0.00000000000E+00 -0.45593999997E+02  0.45594000000E+02  0.51100000000E-03 0.  1.
    9900012    2    1    2    0    0 -0.11230284058E+02  0.15657735096E+01 -0.14903226093E+02  0.72461626227E+02  0.70000072862E+02 0.  0.
        -12    1    1    2    0    0  0.11230284058E+02 -0.15657735096E+01  0.14903226093E+02  0.18726373773E+02  0.00000000000E+00 0.  1.
         11    1    3    3    0    0 -0.17924061392E+02  0.16036375177E+02 -0.57102687370E+01  0.24719313804E+02  0.51100000000E-03 0. -1.
        -11    1    3    3    0    0 -0.17416580092E+02  0.11348212682E+00 -0.89079864987E+01  0.19562780069E+02  0.51100000000E-03 0.  1.
         12    1    3    3    0    0  0.24110357426E+02 -0.14584083795E+02 -0.28497085732E+00  0.28179532354E+02  0.00000000000E+00 0. -1.
</event>
<event>
 7    1  0.1891413E-013  0.7246170E+02  0.7816164E-02  0.1226708E+00
        -11   -1    0    0    0    0  0.00000000000E+00  0.00000000000E+00  0.45593999997E+02  0.45594000000E+02  0.51100000000E-03 0. -1.
         11   -1    0    0    0    0 -0.00000000000E+00 -0.00000000000E+00 -0.45593999997E+02  0.45594000000E+02  0.51100000000E-03 0.  1.
    9900012    2    1    2    0    0  0.17383317622E+02 -0.63921854956E+01  0.27630394795E+01  0.72461704207E+02  0.70000174445E+02 0.  0.
        -12    1    1    2    0    0 -0.17383317622E+02  0.63921854956E+01 -0.27630394795E+01  0.18726295793E+02  0.00000000000E+00 0.  1.
         11    1    3    3    0    0  0.11895765348E+02  0.16427875410E+02  0.19922720767E+02  0.28430601941E+02  0.51100000000E-03 0. -1.
        -11    1    3    3    0    0  0.13938979369E+02 -0.10953826521E+01 -0.15177682084E+02  0.20636303998E+02  0.51100000000E-03 0.  1.
        -12    1    3    3    0    0 -0.84514270944E+01 -0.21724678253E+02 -0.19819992037E+01  0.23394798268E+02  0.00000000000E+00 0.  1.
</event>
<event>
 7    1  0.1891413E-013  0.7246149E+02  0.7816164E-02  0.1226708E+00
        -11   -1    0    0    0    0  0.00000000000E+00  0.00000000000E+00  0.45593999997E+02  0.45594000000E+02  0.51100000000E-03 0. -1.
         11   -1    0    0    0    0 -0.00000000000E+00 -0.00000000000E+00 -0.45593999997E+02  0.45594000000E+02  0.51100000000E-03 0.  1.
    9900012    2    1    2    0    0  0.17335297093E+02  0.54940610918E+01 -0.44704490870E+01  0.72461490778E+02  0.69999896416E+02 0.  0.
        -12    1    1    2    0    0 -0.17335297093E+02 -0.54940610918E+01  0.44704490870E+01  0.18726509222E+02  0.00000000000E+00 0.  1.
         11    1    3    3    0    0 -0.27221047760E+01  0.84522868252E+01 -0.21817113515E+02  0.23554987781E+02  0.51100000000E-03 0. -1.
        -11    1    3    3    0    0  0.36204603285E+01 -0.61358006534E+01 -0.12670720271E+02  0.14536262763E+02  0.51100000000E-03 0.  1.
         12    1    3    3    0    0  0.16436941541E+02  0.31775749199E+01  0.30017384699E+02  0.34370240234E+02  0.00000000000E+00 0. -1.
</event>
<event>
 7    1  0.1891413E-013  0.7246152E+02  0.7816164E-02  0.1226708E+00
        -11   -1    0    0    0    0  0.00000000000E+00  0.00000000000E+00  0.45593999997E+02  0.45594000000E+02  0.51100000000E-03 0. -1.
         11   -1    0    0    0    0 -0.00000000000E+00 -0.00000000000E+00 -0.45593999997E+02  0.45594000000E+02  0.51100000000E-03 0.  1.
    9900012    2    1    2    0    0  0.32219794443E+01  0.55251922675E+01  0.17600349669E+02  0.72461515823E+02  0.69999929042E+02 0.  0.
        -12    1    1    2    0    0 -0.32219794443E+01 -0.55251922675E+01 -0.17600349669E+02  0.18726484177E+02  0.00000000000E+00 0.  1.
         11    1    3    3    0    0  0.11996710182E+02 -0.14166144800E+02  0.29275317635E+02  0.34664750635E+02  0.51100000000E-03 0.  1.
        -11    1    3    3    0    0  0.68920922132E+01  0.14238153827E+02  0.24524793725E+01  0.16007517447E+02  0.51100000000E-03 0. -1.
        -12    1    3    3    0    0 -0.15666822951E+02  0.54531832402E+01 -0.14127447339E+02  0.21789247741E+02  0.00000000000E+00 0.  1.
</event>
<event>
 7    1  0.1891413E-013  0.7246150E+02  0.7816164E-02  0.1226708E+00
        -11   -1    0    0    0    0  0.00000000000E+00  0.00000000000E+00  0.45593999997E+02  0.45594000000E+02  0.51100000000E-03 0. -1.
         11   -1    0    0    0    0 -0.00000000000E+00 -0.00000000000E+00 -0.45593999997E+02  0.45594000000E+02  0.51100000000E-03 0.  1.
    9900012    2    1    2    0    0  0.68042116842E+01 -0.17406449925E+02 -0.11831663916E+01  0.72461503308E+02  0.69999912738E+02 0.  0.
        -12    1    1    2    0    0 -0.68042116842E+01  0.17406449925E+02  0.11831663916E+01  0.18726496692E+02  0.00000000000E+00 0.  1.
         11    1    3    3    0    0  0.14743505388E+02 -0.12531278759E+02 -0.38596785936E+01  0.19730712546E+02  0.51100000000E-03 0. -1.
        -11    1    3    3    0    0 -0.42207316959E+01 -0.24311639269E+02 -0.12623564478E+02  0.27716867796E+02  0.51100000000E-03 0.  1.
         12    1    3    3    0    0 -0.37185620081E+01  0.19436468103E+02  0.15300076680E+02  0.25013922966E+02  0.00000000000E+00 0. -1.
</event>
<event>
 7    1  0.1891413E-013  0.7246158E+02  0.7816164E-02  0.1226708E+00
        -11   -1    0    0    0    0  0.00000000000E+00  0.00000000000E+00  0.45593999997E+02  0.45594000000E+02  0.51100000000E-03 0.  1.
         11   -1    0    0    0    0 -0.00000000000E+00 -0.00000000000E+00 -0.45593999997E+02  0.45594000000E+02  0.51100000000E-03 0. -1.
    9900012    2    1    2    0    0  0.46462394243E+01 -0.17389754411E+02 -0.51660225783E+01  0.72461577797E+02  0.70000009774E+02 0.  0.
        -12    1    1    2    0    0 -0.46462394243E+01  0.17389754411E+02  0.51660225783E+01  0.18726422203E+02  0.00000000000E+00 0.  1.
         11    1    3    3    0    0  0.11369227592E+02 -0.47167479780E+01  0.20046348313E+02  0.23523671662E+02  0.51100000000E-03 0. -1.
        -11    1    3    3    0    0 -0.18859580152E+02 -0.26905819111E+01  0.20889303415E+00  0.19051683157E+02  0.51100000000E-03 0.  1.
         12    1    3    3    0    0  0.12136591985E+02 -0.99824245215E+01 -0.25421263925E+02  0.29886222978E+02  0.00000000000E+00 0. -1.
</event>
<event>
 7    1  0.1923596E-013  0.7246161E+02  0.7816164E-02  0.1226708E+00
        -11   -1    0    0    0    0  0.00000000000E+00  0.00000000000E+00  0.45593999997E+02  0.45594000000E+02  0.51100000000E-03 0. -1.
         11   -1    0    0    0    0 -0.00000000000E+00 -0.00000000000E+00 -0.45593999997E+02  0.45594000000E+02  0.51100000000E-03 0.  1.
    9900012    2    1    2    0    0 -0.16614391133E+02 -0.31972634888E+01  0.80260331295E+01  0.72461609683E+02  0.70000051310E+02 0.  0.
        -12    1    1    2    0    0  0.16614391133E+02  0.31972634888E+01 -0.80260331295E+01  0.18726390317E+02  0.00000000000E+00 0.  1.
         11    1    3    3    0    0  0.15380408072E+02 -0.47612370509E+01  0.58264148064E+01  0.17122308269E+02  0.51100000000E-03 0. -1.
        -11    1    3    3    0    0 -0.15955570735E+02  0.14517068313E+02 -0.16770204956E+02  0.27323346874E+02  0.51100000000E-03 0.  1.
         12    1    3    3    0    0 -0.16039228470E+02 -0.12953094750E+02  0.18969823279E+02  0.28015954539E+02  0.00000000000E+00 0. -1.
</event>
<event>
 7    1  0.1891413E-013  0.7246156E+02  0.7816164E-02  0.1226708E+00
        -11   -1    0    0    0    0  0.00000000000E+00  0.00000000000E+00  0.45593999997E+02  0.45594000000E+02  0.51100000000E-03 0. -1.
         11   -1    0    0    0    0 -0.00000000000E+00 -0.00000000000E+00 -0.45593999997E+02  0.45594000000E+02  0.51100000000E-03 0.  1.
    9900012    2    1    2    0    0  0.18325514366E+02 -0.41371869162E+00  0.38319678953E+01  0.72461558323E+02  0.69999984405E+02 0.  0.
        -12    1    1    2    0    0 -0.18325514366E+02  0.41371869162E+00 -0.38319678953E+01  0.18726441677E+02  0.00000000000E+00 0.  1.
         11    1    3    3    0    0  0.66297091723E+01  0.24192816418E+02  0.12865633805E+02  0.28191664431E+02  0.51100000000E-03 0. -1.
        -11    1    3    3    0    0  0.36636524573E+01 -0.61599583419E+01 -0.20077713120E+02  0.21318583454E+02  0.51100000000E-03 0.  1.
        -12    1    3    3    0    0  0.80321527364E+01 -0.18446576768E+02  0.11044047210E+02  0.22951310438E+02  0.00000000000E+00 0.  1.
</event>
<event>
 7    1  0.1891413E-013  0.7246153E+02  0.7816164E-02  0.1226708E+00
        -11   -1    0    0    0    0  0.00000000000E+00  0.00000000000E+00  0.45593999997E+02  0.45594000000E+02  0.51100000000E-03 0. -1.
         11   -1    0    0    0    0 -0.00000000000E+00 -0.00000000000E+00 -0.45593999997E+02  0.45594000000E+02  0.51100000000E-03 0.  1.
    9900012    2    1    2    0    0 -0.34880825026E+01  0.10662984676E+01  0.18367820488E+02  0.72461533664E+02  0.69999952282E+02 0.  0.
        -12    1    1    2    0    0  0.34880825026E+01 -0.10662984676E+01 -0.18367820488E+02  0.18726466336E+02  0.00000000000E+00 0.  1.
         11    1    3    3    0    0 -0.40295671187E+01 -0.12552241411E+02  0.23064819806E+02  0.26566559592E+02  0.51100000000E-03 0. -1.
        -11    1    3    3    0    0  0.21469972224E+02  0.71227813362E+01  0.26670328940E+01  0.22777330528E+02  0.51100000000E-03 0.  1.
        -12    1    3    3    0    0 -0.20928487608E+02  0.64957585427E+01 -0.73640322123E+01  0.23117643544E+02  0.00000000000E+00 0.  1.
</event>
<event>
 7    1  0.1891413E-013  0.7246164E+02  0.7816164E-02  0.1226708E+00
        -11   -1    0    0    0    0  0.00000000000E+00  0.00000000000E+00  0.45593999997E+02  0.45594000000E+02  0.51100000000E-03 0. -1.
         11   -1    0    0    0    0 -0.00000000000E+00 -0.00000000000E+00 -0.45593999997E+02  0.45594000000E+02  0.51100000000E-03 0.  1.
    9900012    2    1    2    0    0 -0.11141608563E+02 -0.62512330031E+01  0.13691726404E+02  0.72461635501E+02  0.70000084943E+02 0.  0.
        -12    1    1    2    0    0  0.11141608563E+02  0.62512330031E+01 -0.13691726404E+02  0.18726364499E+02  0.00000000000E+00 0.  1.
         11    1    3    3    0    0 -0.85894993781E+01 -0.22092421591E+02  0.36287433125E+02  0.43343193172E+02  0.51100000000E-03 0. -1.
        -11    1    3    3    0    0  0.25002044675E+01  0.96837584982E+01 -0.95199114787E+01  0.13807784611E+02  0.51100000000E-03 0.  1.
        -12    1    3    3    0    0 -0.50523136524E+01  0.61574300898E+01 -0.13075795241E+02  0.15310657718E+02  0.00000000000E+00 0.  1.
</event>
<event>
 7    1  0.1891413E-013  0.7246158E+02  0.7816164E-02  0.1226708E+00
        -11   -1    0    0    0    0  0.00000000000E+00  0.00000000000E+00  0.45593999997E+02  0.45594000000E+02  0.51100000000E-03 0.  1.
         11   -1    0    0    0    0 -0.00000000000E+00 -0.00000000000E+00 -0.45593999997E+02  0.45594000000E+02  0.51100000000E-03 0. -1.
    9900012    2    1    2    0    0  0.79887674730E+00 -0.14131415956E+02 -0.12261465424E+02  0.72461584023E+02  0.70000017884E+02 0.  0.
        -12    1    1    2    0    0 -0.79887674730E+00  0.14131415956E+02  0.12261465424E+02  0.18726415977E+02  0.00000000000E+00 0.  1.
         11    1    3    3    0    0  0.15742710818E+02 -0.66035682765E+01  0.71663870233E+01  0.18514782232E+02  0.51100000000E-03 0.  1.
        -11    1    3    3    0    0 -0.86744042162E+01  0.15581714543E+02  0.61932363375E+01  0.18878328666E+02  0.51100000000E-03 0. -1.
        -12    1    3    3    0    0 -0.62694298541E+01 -0.23109562223E+02 -0.25621088785E+02  0.35068473126E+02  0.00000000000E+00 0.  1.
</event>
<event>
 7    1  0.1891413E-013  0.7246157E+02  0.7816164E-02  0.1226708E+00
        -11   -1    0    0    0    0  0.00000000000E+00  0.00000000000E+00  0.45593999997E+02  0.45594000000E+02  0.51100000000E-03 0. -1.
         11   -1    0    0    0    0 -0.00000000000E+00 -0.00000000000E+00 -0.45593999997E+02  0.45594000000E+02  0.51100000000E-03 0.  1.
    9900012    2    1    2    0    0  0.15818257584E+02 -0.52544524330E+01 -0.85353855785E+01  0.72461565466E+02  0.69999993710E+02 0.  0.
        -12    1    1    2    0    0 -0.15818257584E+02  0.52544524330E+01  0.85353855785E+01  0.18726434534E+02  0.00000000000E+00 0.  1.
         11    1    3    3    0    0  0.81801715707E+01  0.13605136463E+02  0.11026875230E+02  0.19328914163E+02  0.51100000000E-03 0. -1.
        -11    1    3    3    0    0  0.25761417865E+02 -0.59424937673E+01 -0.61350973956E+01  0.27140436675E+02  0.51100000000E-03 0.  1.
        -12    1    3    3    0    0 -0.18123331851E+02 -0.12917095129E+02 -0.13427163413E+02  0.25992214628E+02  0.00000000000E+00 0.  1.
</event>
<event>
 7    1  0.3667286E-013  0.7246205E+02  0.7816164E-02  0.1226707E+00
        -11   -1    0    0    0    0  0.00000000000E+00  0.00000000000E+00  0.45593999997E+02  0.45594000000E+02  0.51100000000E-03 0. -1.
         11   -1    0    0    0    0 -0.00000000000E+00 -0.00000000000E+00 -0.45593999997E+02  0.45594000000E+02  0.51100000000E-03 0.  1.
    9900012    2    1    2    0    0 -0.96176030838E+01 -0.46997772704E+00  0.16060574739E+02  0.72462049314E+02  0.70000624010E+02 0.  0.
        -12    1    1    2    0    0  0.96176030838E+01  0.46997772704E+00 -0.16060574739E+02  0.18725950686E+02  0.00000000000E+00 0.  1.
         11    1    3    3    0    0  0.34659163732E+00 -0.86494373752E+01  0.20585003577E+02  0.22331038157E+02  0.51100000000E-03 0. -1.
        -11    1    3    3    0    0  0.11127343863E+01 -0.92266339014E+01 -0.21493949139E+02  0.23417062173E+02  0.51100000000E-03 0.  1.
         12    1    3    3    0    0 -0.11076929107E+02  0.17406093550E+02  0.16969520301E+02  0.26713948984E+02  0.00000000000E+00 0. -1.
</event>
<event>
 7    1  0.1891413E-013  0.7246154E+02  0.7816164E-02  0.1226708E+00
        -11   -1    0    0    0    0  0.00000000000E+00  0.00000000000E+00  0.45593999997E+02  0.45594000000E+02  0.51100000000E-03 0. -1.
         11   -1    0    0    0    0 -0.00000000000E+00 -0.00000000000E+00 -0.45593999997E+02  0.45594000000E+02  0.51100000000E-03 0.  1.
    9900012    2    1    2    0    0  0.63013585808E+01 -0.60146035991E+01  0.16577026749E+02  0.72461537647E+02  0.69999957471E+02 0.  0.
        -12    1    1    2    0    0 -0.63013585808E+01  0.60146035991E+01 -0.16577026749E+02  0.18726462353E+02  0.00000000000E+00 0.  1.
         11    1    3    3    0    0  0.41094658827E+01  0.17067786490E+02  0.26411816029E+02  0.31714051645E+02  0.51100000000E-03 0. -1.
        -11    1    3    3    0    0  0.11356795278E+02 -0.12421775162E+01  0.53474093044E+01  0.12614063203E+02  0.51100000000E-03 0.  1.
        -12    1    3    3    0    0 -0.91649025799E+01 -0.21840212573E+02 -0.15182198584E+02  0.28133422799E+02  0.00000000000E+00 0.  1.
</event>
<event>
 7    1  0.1891413E-013  0.7246154E+02  0.7816164E-02  0.1226708E+00
        -11   -1    0    0    0    0  0.00000000000E+00  0.00000000000E+00  0.45593999997E+02  0.45594000000E+02  0.51100000000E-03 0.  1.
         11   -1    0    0    0    0 -0.00000000000E+00 -0.00000000000E+00 -0.45593999997E+02  0.45594000000E+02  0.51100000000E-03 0. -1.
    9900012    2    1    2    0    0 -0.16872657851E+02 -0.31579845091E+01 -0.74846990736E+01  0.72461543599E+02  0.69999965224E+02 0.  0.
        -12    1    1    2    0    0  0.16872657851E+02  0.31579845091E+01  0.74846990736E+01  0.18726456401E+02  0.00000000000E+00 0.  1.
         11    1    3    3    0    0  0.93605551823E+01  0.13943895918E+02 -0.20692717152E+02  0.26650342776E+02  0.51100000000E-03 0. -1.
        -11    1    3    3    0    0 -0.20267970429E+00  0.77771867629E+01  0.34090626649E+01  0.84939638287E+01  0.51100000000E-03 0.  1.
         12    1    3    3    0    0 -0.26030533330E+02 -0.24879067190E+02  0.97989554135E+01  0.37317236994E+02  0.00000000000E+00 0. -1.
</event>
<event>
 7    1  0.1891413E-013  0.7246158E+02  0.7816164E-02  0.1226708E+00
        -11   -1    0    0    0    0  0.00000000000E+00  0.00000000000E+00  0.45593999997E+02  0.45594000000E+02  0.51100000000E-03 0. -1.
         11   -1    0    0    0    0 -0.00000000000E+00 -0.00000000000E+00 -0.45593999997E+02  0.45594000000E+02  0.51100000000E-03 0.  1.
    9900012    2    1    2    0    0  0.13633968159E+02  0.80445014546E+01  0.10003987581E+02  0.72461578587E+02  0.70000010802E+02 0.  0.
        -12    1    1    2    0    0 -0.13633968159E+02 -0.80445014546E+01 -0.10003987581E+02  0.18726421413E+02  0.00000000000E+00 0.  1.
         11    1    3    3    0    0  0.24949737621E+02  0.23254427572E+02  0.15228641214E+02  0.37351965444E+02  0.51100000000E-03 0. -1.
        -11    1    3    3    0    0  0.88392392656E+01 -0.17062112584E+01 -0.60306260753E+01  0.10835670666E+02  0.51100000000E-03 0.  1.
         12    1    3    3    0    0 -0.20155008727E+02 -0.13503714859E+02  0.80597244252E+00  0.24273942477E+02  0.00000000000E+00 0. -1.
</event>
<event>
 7    1  0.1891413E-013  0.7246158E+02  0.7816164E-02  0.1226708E+00
        -11   -1    0    0    0    0  0.00000000000E+00  0.00000000000E+00  0.45593999997E+02  0.45594000000E+02  0.51100000000E-03 0. -1.
         11   -1    0    0    0    0 -0.00000000000E+00 -0.00000000000E+00 -0.45593999997E+02  0.45594000000E+02  0.51100000000E-03 0.  1.
    9900012    2    1    2    0    0  0.16781978711E+02 -0.78705585598E+01 -0.26642712762E+01  0.72461579015E+02  0.70000011360E+02 0.  0.
        -12    1    1    2    0    0 -0.16781978711E+02  0.78705585598E+01  0.26642712762E+01  0.18726420985E+02  0.00000000000E+00 0.  1.
         11    1    3    3    0    0 -0.10099823473E+02  0.15950872479E+01  0.27658933772E+02  0.29488427479E+02  0.51100000000E-03 0. -1.
        -11    1    3    3    0    0 -0.55554923096E+00 -0.16934581143E+01 -0.89377003143E+00  0.19938055229E+01  0.51100000000E-03 0.  1.
        -12    1    3    3    0    0  0.27437351415E+02 -0.77721876934E+01 -0.29429435017E+02  0.40979346013E+02  0.00000000000E+00 0.  1.
</event>
<event>
 7    1  0.1891413E-013  0.7246156E+02  0.7816164E-02  0.1226708E+00
        -11   -1    0    0    0    0  0.00000000000E+00  0.00000000000E+00  0.45593999997E+02  0.45594000000E+02  0.51100000000E-03 0.  1.
         11   -1    0    0    0    0 -0.00000000000E+00 -0.00000000000E+00 -0.45593999997E+02  0.45594000000E+02  0.51100000000E-03 0. -1.
    9900012    2    1    2    0    0 -0.72488296688E+01  0.93796824775E+01 -0.14496743451E+02  0.72461560252E+02  0.69999986918E+02 0.  0.
        -12    1    1    2    0    0  0.72488296688E+01 -0.93796824775E+01  0.14496743451E+02  0.18726439748E+02  0.00000000000E+00 0.  1.
         11    1    3    3    0    0  0.13329651635E+02  0.29317652723E+01  0.43992451832E+01  0.14339742632E+02  0.51100000000E-03 0. -1.
        -11    1    3    3    0    0  0.38227166071E+00 -0.11563126610E+02  0.12000262557E+02  0.16669083067E+02  0.51100000000E-03 0.  1.
        -12    1    3    3    0    0 -0.20960752964E+02  0.18011043815E+02 -0.30896251192E+02  0.41452734552E+02  0.00000000000E+00 0.  1.
</event>
<event>
 7    1  0.1891413E-013  0.7246154E+02  0.7816164E-02  0.1226708E+00
        -11   -1    0    0    0    0  0.00000000000E+00  0.00000000000E+00  0.45593999997E+02  0.45594000000E+02  0.51100000000E-03 0. -1.
         11   -1    0    0    0    0 -0.00000000000E+00 -0.00000000000E+00 -0.45593999997E+02  0.45594000000E+02  0.51100000000E-03 0.  1.
    9900012    2    1    2    0    0  0.68948141933E-01  0.13712265746E+02  0.12753398434E+02  0.72461543919E+02  0.69999965641E+02 0.  0.
        -12    1    1    2    0    0 -0.68948141933E-01 -0.13712265746E+02 -0.12753398434E+02  0.18726456081E+02  0.00000000000E+00 0.  1.
         11    1    3    3    0    0 -0.28717460841E+01  0.33406896662E+01 -0.56487247609E+01  0.71634645741E+01  0.51100000000E-03 0. -1.
        -11    1    3    3    0    0 -0.14029609928E+01 -0.25926274746E+02  0.55736134979E+01  0.26555699754E+02  0.51100000000E-03 0.  1.
         12    1    3    3    0    0  0.43436552189E+01  0.36297850826E+02  0.12828509697E+02  0.38742379590E+02  0.00000000000E+00 0. -1.
</event>
<event>
 7    1  0.1891413E-013  0.7246156E+02  0.7816164E-02  0.1226708E+00
        -11   -1    0    0    0    0  0.00000000000E+00  0.00000000000E+00  0.45593999997E+02  0.45594000000E+02  0.51100000000E-03 0.  1.
         11   -1    0    0    0    0 -0.00000000000E+00 -0.00000000000E+00 -0.45593999997E+02  0.45594000000E+02  0.51100000000E-03 0. -1.
    9900012    2    1    2    0    0 -0.15801912481E+01 -0.10066791892E+02 -0.15711218889E+02  0.72461556068E+02  0.69999981468E+02 0.  0.
        -12    1    1    2    0    0  0.15801912481E+01  0.10066791892E+02  0.15711218889E+02  0.18726443932E+02  0.00000000000E+00 0.  1.
         11    1    3    3    0    0  0.96343045431E+01  0.61953094189E+01 -0.27748472126E+02  0.30019650038E+02  0.51100000000E-03 0. -1.
        -11    1    3    3    0    0  0.12920496701E+02 -0.35575558840E+01  0.46420890096E+01  0.14182539600E+02  0.51100000000E-03 0.  1.
        -12    1    3    3    0    0 -0.24134992492E+02 -0.12704545426E+02  0.73951642276E+01  0.28259366430E+02  0.00000000000E+00 0.  1.
</event>
<event>
 7    1  0.1891413E-013  0.7246157E+02  0.7816164E-02  0.1226708E+00
        -11   -1    0    0    0    0  0.00000000000E+00  0.00000000000E+00  0.45593999997E+02  0.45594000000E+02  0.51100000000E-03 0. -1.
         11   -1    0    0    0    0 -0.00000000000E+00 -0.00000000000E+00 -0.45593999997E+02  0.45594000000E+02  0.51100000000E-03 0.  1.
    9900012    2    1    2    0    0 -0.15844103572E+02  0.55312190888E+01  0.83095757041E+01  0.72461573460E+02  0.70000004123E+02 0.  0.
        -12    1    1    2    0    0  0.15844103572E+02 -0.55312190888E+01 -0.83095757041E+01  0.18726426540E+02  0.00000000000E+00 0.  1.
         11    1    3    3    0    0 -0.18206172844E+01 -0.18738071610E+02 -0.14012940330E+02  0.23468968275E+02  0.51100000000E-03 0. -1.
        -11    1    3    3    0    0 -0.15568250450E+02 -0.21514441761E+01  0.14529118252E+02  0.21403140227E+02  0.51100000000E-03 0.  1.
        -12    1    3    3    0    0  0.15447641629E+01  0.26420734875E+02  0.77933977817E+01  0.27589464957E+02  0.00000000000E+00 0.  1.
</event>
<event>
 7    1  0.1891413E-013  0.7246160E+02  0.7816164E-02  0.1226708E+00
        -11   -1    0    0    0    0  0.00000000000E+00  0.00000000000E+00  0.45593999997E+02  0.45594000000E+02  0.51100000000E-03 0.  1.
         11   -1    0    0    0    0 -0.00000000000E+00 -0.00000000000E+00 -0.45593999997E+02  0.45594000000E+02  0.51100000000E-03 0. -1.
    9900012    2    1    2    0    0  0.88593608390E+01 -0.16409335754E+02 -0.17098279599E+01  0.72461599224E+02  0.70000037687E+02 0.  0.
        -12    1    1    2    0    0 -0.88593608390E+01  0.16409335754E+02  0.17098279599E+01  0.18726400776E+02  0.00000000000E+00 0.  1.
         11    1    3    3    0    0  0.15174562221E+02 -0.44041314227E+01 -0.12645918741E+02  0.20238156370E+02  0.51100000000E-03 0. -1.
        -11    1    3    3    0    0  0.16398578746E+02  0.32055101799E+01  0.17410036599E+02  0.24130852762E+02  0.51100000000E-03 0.  1.
        -12    1    3    3    0    0 -0.22713780128E+02 -0.15210714511E+02 -0.64739458172E+01  0.28092590092E+02  0.00000000000E+00 0.  1.
</event>
<event>
 7    1  0.1891413E-013  0.7246157E+02  0.7816164E-02  0.1226708E+00
        -11   -1    0    0    0    0  0.00000000000E+00  0.00000000000E+00  0.45593999997E+02  0.45594000000E+02  0.51100000000E-03 0.  1.
         11   -1    0    0    0    0 -0.00000000000E+00 -0.00000000000E+00 -0.45593999997E+02  0.45594000000E+02  0.51100000000E-03 0. -1.
    9900012    2    1    2    0    0 -0.17429816858E+02 -0.49415947789E+01 -0.47393189241E+01  0.72461574326E+02  0.70000005252E+02 0.  0.
        -12    1    1    2    0    0  0.17429816858E+02  0.49415947789E+01  0.47393189241E+01  0.18726425674E+02  0.00000000000E+00 0.  1.
         11    1    3    3    0    0 -0.16110248848E+01 -0.18896931095E+02 -0.18300847934E+02  0.26355463216E+02  0.51100000000E-03 0. -1.
        -11    1    3    3    0    0  0.10918755067E+02  0.12293780247E+02  0.87751653620E+00  0.16465912684E+02  0.51100000000E-03 0.  1.
         12    1    3    3    0    0 -0.26737547040E+02  0.16615560691E+01  0.12684012474E+02  0.29640198426E+02  0.00000000000E+00 0. -1.
</event>
<event>
 7    1  0.1891413E-013  0.7246143E+02  0.7816164E-02  0.1226708E+00
        -11   -1    0    0    0    0  0.00000000000E+00  0.00000000000E+00  0.45593999997E+02  0.45594000000E+02  0.51100000000E-03 0. -1.
         11   -1    0    0    0    0 -0.00000000000E+00 -0.00000000000E+00 -0.45593999997E+02  0.45594000000E+02  0.51100000000E-03 0.  1.
    9900012    2    1    2    0    0 -0.17166472322E+02  0.67238524029E+01  0.32842723482E+01  0.72461430427E+02  0.69999817796E+02 0.  0.
        -12    1    1    2    0    0  0.17166472322E+02 -0.67238524029E+01 -0.32842723482E+01  0.18726569573E+02  0.00000000000E+00 0.  1.
         11    1    3    3    0    0  0.30871721048E+00  0.10718061805E+02  0.22958875918E+02  0.25339339748E+02  0.51100000000E-03 0. -1.
        -11    1    3    3    0    0  0.57163632543E+01  0.88798392473E+01  0.42667529698E+01  0.11390062997E+02  0.51100000000E-03 0.  1.
        -12    1    3    3    0    0 -0.23191552787E+02 -0.12874048649E+02 -0.23941356540E+02  0.35732027682E+02  0.00000000000E+00 0.  1.
</event>
<event>
 7    1  0.1891413E-013  0.7246153E+02  0.7816164E-02  0.1226708E+00
        -11   -1    0    0    0    0  0.00000000000E+00  0.00000000000E+00  0.45593999997E+02  0.45594000000E+02  0.51100000000E-03 0. -1.
         11   -1    0    0    0    0 -0.00000000000E+00 -0.00000000000E+00 -0.45593999997E+02  0.45594000000E+02  0.51100000000E-03 0.  1.
    9900012    2    1    2    0    0  0.18636143270E+02 -0.18317190629E+01 -0.14050472559E+00  0.72461527501E+02  0.69999944253E+02 0.  0.
        -12    1    1    2    0    0 -0.18636143270E+02  0.18317190629E+01  0.14050472559E+00  0.18726472499E+02  0.00000000000E+00 0.  1.
         11    1    3    3    0    0  0.10040958639E+02 -0.50979160325E+00 -0.56929614316E+01  0.11553810973E+02  0.51100000000E-03 0. -1.
        -11    1    3    3    0    0  0.87834749842E+01 -0.23080029602E+01 -0.26924692535E+02  0.28415055495E+02  0.51100000000E-03 0.  1.
         12    1    3    3    0    0 -0.18829035392E+00  0.98607550061E+00  0.32477149241E+02  0.32492661032E+02  0.00000000000E+00 0. -1.
</event>
<event>
 7    1  0.1891413E-013  0.7246151E+02  0.7816164E-02  0.1226708E+00
        -11   -1    0    0    0    0  0.00000000000E+00  0.00000000000E+00  0.45593999997E+02  0.45594000000E+02  0.51100000000E-03 0. -1.
         11   -1    0    0    0    0 -0.00000000000E+00 -0.00000000000E+00 -0.45593999997E+02  0.45594000000E+02  0.51100000000E-03 0.  1.
    9900012    2    1    2    0    0 -0.30415690785E+01  0.56975913830E+01  0.17577472948E+02  0.72461514871E+02  0.69999927801E+02 0.  0.
        -12    1    1    2    0    0  0.30415690785E+01 -0.56975913830E+01 -0.17577472948E+02  0.18726485129E+02  0.00000000000E+00 0.  1.
         11    1    3    3    0    0 -0.84891778805E+01  0.70654178479E-02  0.18841356277E+02  0.20665500178E+02  0.51100000000E-03 0. -1.
        -11    1    3    3    0    0  0.15530631529E+02  0.63029756905E-01  0.21351962247E+02  0.26402855536E+02  0.51100000000E-03 0.  1.
        -12    1    3    3    0    0 -0.10083022727E+02  0.56274962083E+01 -0.22615845575E+02  0.25393159157E+02  0.00000000000E+00 0.  1.
</event>
<event>
 7    1  0.1891413E-013  0.7246155E+02  0.7816164E-02  0.1226708E+00
        -11   -1    0    0    0    0  0.00000000000E+00  0.00000000000E+00  0.45593999997E+02  0.45594000000E+02  0.51100000000E-03 0.  1.
         11   -1    0    0    0    0 -0.00000000000E+00 -0.00000000000E+00 -0.45593999997E+02  0.45594000000E+02  0.51100000000E-03 0. -1.
    9900012    2    1    2    0    0 -0.13652346640E+02  0.12664610359E+02 -0.19750906685E+01  0.72461550591E+02  0.69999974333E+02 0.  0.
        -12    1    1    2    0    0  0.13652346640E+02 -0.12664610359E+02  0.19750906685E+01  0.18726449409E+02  0.00000000000E+00 0.  1.
         11    1    3    3    0    0 -0.36351732271E+02  0.87945149966E+01  0.34637311013E+01  0.37560476122E+02  0.51100000000E-03 0. -1.
        -11    1    3    3    0    0  0.15842392243E+01 -0.91530819037E+01 -0.38073998344E+01  0.10039174070E+02  0.51100000000E-03 0.  1.
        -12    1    3    3    0    0  0.21115146407E+02  0.13023177266E+02 -0.16314219354E+01  0.24861900398E+02  0.00000000000E+00 0.  1.
</event>
<event>
 7    1  0.1891413E-013  0.7246160E+02  0.7816164E-02  0.1226708E+00
        -11   -1    0    0    0    0  0.00000000000E+00  0.00000000000E+00  0.45593999997E+02  0.45594000000E+02  0.51100000000E-03 0.  1.
         11   -1    0    0    0    0 -0.00000000000E+00 -0.00000000000E+00 -0.45593999997E+02  0.45594000000E+02  0.51100000000E-03 0. -1.
    9900012    2    1    2    0    0  0.14310224044E+02 -0.10037871007E+02 -0.67183792344E+01  0.72461601893E+02  0.70000041163E+02 0.  0.
        -12    1    1    2    0    0 -0.14310224044E+02  0.10037871007E+02  0.67183792344E+01  0.18726398107E+02  0.00000000000E+00 0.  1.
         11    1    3    3    0    0  0.26359385471E+02  0.16831925323E+01 -0.18076785451E+02  0.32006569826E+02  0.51100000000E-03 0. -1.
        -11    1    3    3    0    0 -0.10279311269E+02 -0.26735791662E+01 -0.11592046367E+02  0.15722207382E+02  0.51100000000E-03 0.  1.
        -12    1    3    3    0    0 -0.17698501576E+01 -0.90474843734E+01  0.22950452584E+02  0.24732824685E+02  0.00000000000E+00 0.  1.
</event>
<event>
 7    1  0.1891413E-013  0.7246149E+02  0.7816164E-02  0.1226708E+00
        -11   -1    0    0    0    0  0.00000000000E+00  0.00000000000E+00  0.45593999997E+02  0.45594000000E+02  0.51100000000E-03 0.  1.
         11   -1    0    0    0    0 -0.00000000000E+00 -0.00000000000E+00 -0.45593999997E+02  0.45594000000E+02  0.51100000000E-03 0. -1.
    9900012    2    1    2    0    0 -0.41813449554E+01  0.13277958080E+02 -0.12525747596E+02  0.72461490201E+02  0.69999895663E+02 0.  0.
        -12    1    1    2    0    0  0.41813449554E+01 -0.13277958080E+02  0.12525747596E+02  0.18726509799E+02  0.00000000000E+00 0.  1.
         11    1    3    3    0    0  0.21133181532E+01 -0.14326977699E+02 -0.28199691505E+02  0.31700962207E+02  0.51100000000E-03 0. -1.
        -11    1    3    3    0    0  0.62337675049E+01 -0.10492600518E+01  0.20193111534E+01  0.66361450977E+01  0.51100000000E-03 0.  1.
        -12    1    3    3    0    0 -0.12528430614E+02  0.28654195831E+02  0.13654632755E+02  0.34124382896E+02  0.00000000000E+00 0.  1.
</event>
<event>
 7    1  0.1891413E-013  0.7246137E+02  0.7816164E-02  0.1226709E+00
        -11   -1    0    0    0    0  0.00000000000E+00  0.00000000000E+00  0.45593999997E+02  0.45594000000E+02  0.51100000000E-03 0. -1.
         11   -1    0    0    0    0 -0.00000000000E+00 -0.00000000000E+00 -0.45593999997E+02  0.45594000000E+02  0.51100000000E-03 0.  1.
    9900012    2    1    2    0    0 -0.18181194903E+01  0.13883194265E+02  0.12435349069E+02  0.72461373290E+02  0.69999743364E+02 0.  0.
        -12    1    1    2    0    0  0.18181194903E+01 -0.13883194265E+02 -0.12435349069E+02  0.18726626710E+02  0.00000000000E+00 0.  1.
         11    1    3    3    0    0 -0.78149579104E+01  0.92454345508E+01  0.22314652612E+02  0.25386912940E+02  0.51100000000E-03 0. -1.
        -11    1    3    3    0    0 -0.12357179589E+02 -0.12223774277E+02  0.49502559086E+01  0.18072785585E+02  0.51100000000E-03 0.  1.
        -12    1    3    3    0    0  0.18354018009E+02  0.16861533991E+02 -0.14829559452E+02  0.29001674765E+02  0.00000000000E+00 0.  1.
</event>
<event>
 7    1  0.1891413E-013  0.7246153E+02  0.7816164E-02  0.1226708E+00
        -11   -1    0    0    0    0  0.00000000000E+00  0.00000000000E+00  0.45593999997E+02  0.45594000000E+02  0.51100000000E-03 0.  1.
         11   -1    0    0    0    0 -0.00000000000E+00 -0.00000000000E+00 -0.45593999997E+02  0.45594000000E+02  0.51100000000E-03 0. -1.
    9900012    2    1    2    0    0 -0.10209999311E+02  0.91914526729E+01  0.12726108747E+02  0.72461528576E+02  0.69999945654E+02 0.  0.
        -12    1    1    2    0    0  0.10209999311E+02 -0.91914526729E+01 -0.12726108747E+02  0.18726471424E+02  0.00000000000E+00 0.  1.
         11    1    3    3    0    0 -0.61203763463E+01  0.20911084097E+01  0.22413515070E+02  0.23328038903E+02  0.51100000000E-03 0. -1.
        -11    1    3    3    0    0 -0.47345112159E+01  0.26112639795E+02  0.23169308019E+01  0.26639326607E+02  0.51100000000E-03 0.  1.
         12    1    3    3    0    0  0.64488825163E+00 -0.19012295531E+02 -0.12004337124E+02  0.22494163066E+02  0.00000000000E+00 0. -1.
</event>
<event>
 7    1  0.1891413E-013  0.7246132E+02  0.7816164E-02  0.1226709E+00
        -11   -1    0    0    0    0  0.00000000000E+00  0.00000000000E+00  0.45593999997E+02  0.45594000000E+02  0.51100000000E-03 0.  1.
         11   -1    0    0    0    0 -0.00000000000E+00 -0.00000000000E+00 -0.45593999997E+02  0.45594000000E+02  0.51100000000E-03 0. -1.
    9900012    2    1    2    0    0 -0.32172005016E+01 -0.16871406759E+02 -0.74628351856E+01  0.72461317056E+02  0.69999670109E+02 0.  0.
        -12    1    1    2    0    0  0.32172005016E+01  0.16871406759E+02  0.74628351856E+01  0.18726682944E+02  0.00000000000E+00 0.  1.
         11    1    3    3    0    0  0.23471005867E+02 -0.16325674150E+02  0.17225117815E+02  0.33378442697E+02  0.51100000000E-03 0.  1.
        -11    1    3    3    0    0 -0.50587859777E+01 -0.34036912297E+01  0.51438594252E-01  0.60974646982E+01  0.51100000000E-03 0. -1.
        -12    1    3    3    0    0 -0.21629420391E+02  0.28579586207E+01 -0.24739391595E+02  0.32985409660E+02  0.00000000000E+00 0.  1.
</event>
<event>
 7    1  0.1891413E-013  0.7246158E+02  0.7816164E-02  0.1226708E+00
        -11   -1    0    0    0    0  0.00000000000E+00  0.00000000000E+00  0.45593999997E+02  0.45594000000E+02  0.51100000000E-03 0.  1.
         11   -1    0    0    0    0 -0.00000000000E+00 -0.00000000000E+00 -0.45593999997E+02  0.45594000000E+02  0.51100000000E-03 0. -1.
    9900012    2    1    2    0    0 -0.11320694908E+02  0.13896575350E+02  0.54227006484E+01  0.72461584914E+02  0.70000019044E+02 0.  0.
        -12    1    1    2    0    0  0.11320694908E+02 -0.13896575350E+02 -0.54227006484E+01  0.18726415086E+02  0.00000000000E+00 0.  1.
         11    1    3    3    0    0  0.22244434292E+01  0.74907186754E+01 -0.31981656910E+01  0.84431794303E+01  0.51100000000E-03 0. -1.
        -11    1    3    3    0    0  0.17398119923E+02  0.88863591594E+01 -0.15311558766E+02  0.24821478362E+02  0.51100000000E-03 0.  1.
        -12    1    3    3    0    0 -0.30943258261E+02 -0.24805024849E+01  0.23932425105E+02  0.39196927122E+02  0.00000000000E+00 0.  1.
</event>
<event>
 7    1  0.1891413E-013  0.7246145E+02  0.7816164E-02  0.1226708E+00
        -11   -1    0    0    0    0  0.00000000000E+00  0.00000000000E+00  0.45593999997E+02  0.45594000000E+02  0.51100000000E-03 0.  1.
         11   -1    0    0    0    0 -0.00000000000E+00 -0.00000000000E+00 -0.45593999997E+02  0.45594000000E+02  0.51100000000E-03 0. -1.
    9900012    2    1    2    0    0  0.32446392207E+01  0.70554518277E+01 -0.17040438728E+02  0.72461451033E+02  0.69999844640E+02 0.  0.
        -12    1    1    2    0    0 -0.32446392207E+01 -0.70554518277E+01  0.17040438728E+02  0.18726548967E+02  0.00000000000E+00 0.  1.
         11    1    3    3    0    0  0.12638186716E+02 -0.79957071474E+00 -0.24918967202E+02  0.27952066175E+02  0.51100000000E-03 0. -1.
        -11    1    3    3    0    0 -0.13629804498E+02 -0.44744988880E+01 -0.13350629590E+02  0.19596734974E+02  0.51100000000E-03 0.  1.
        -12    1    3    3    0    0  0.42362570028E+01  0.12329521430E+02  0.21229158064E+02  0.24912649883E+02  0.00000000000E+00 0.  1.
</event>
<event>
 7    1  0.1891413E-013  0.7246158E+02  0.7816164E-02  0.1226708E+00
        -11   -1    0    0    0    0  0.00000000000E+00  0.00000000000E+00  0.45593999997E+02  0.45594000000E+02  0.51100000000E-03 0. -1.
         11   -1    0    0    0    0 -0.00000000000E+00 -0.00000000000E+00 -0.45593999997E+02  0.45594000000E+02  0.51100000000E-03 0.  1.
    9900012    2    1    2    0    0  0.15022620244E+02 -0.10058269575E+02  0.48816930996E+01  0.72461579271E+02  0.70000011693E+02 0.  0.
        -12    1    1    2    0    0 -0.15022620244E+02  0.10058269575E+02 -0.48816930996E+01  0.18726420729E+02  0.00000000000E+00 0.  1.
         11    1    3    3    0    0 -0.13536278998E+02 -0.28775331139E+01  0.40685667140E+01  0.14424433483E+02  0.51100000000E-03 0. -1.
        -11    1    3    3    0    0  0.31030502377E+01  0.73421106473E+01 -0.20371221753E+02  0.21875149954E+02  0.51100000000E-03 0.  1.
         12    1    3    3    0    0  0.25455849004E+02 -0.14522847108E+02  0.21184348138E+02  0.36161995834E+02  0.00000000000E+00 0. -1.
</event>
<event>
 7    1  0.1891413E-013  0.7246159E+02  0.7816164E-02  0.1226708E+00
        -11   -1    0    0    0    0  0.00000000000E+00  0.00000000000E+00  0.45593999997E+02  0.45594000000E+02  0.51100000000E-03 0.  1.
         11   -1    0    0    0    0 -0.00000000000E+00 -0.00000000000E+00 -0.45593999997E+02  0.45594000000E+02  0.51100000000E-03 0. -1.
    9900012    2    1    2    0    0 -0.13108522095E+02  0.11033073577E+01 -0.13327714231E+02  0.72461585360E+02  0.70000019626E+02 0.  0.
        -12    1    1    2    0    0  0.13108522095E+02 -0.11033073577E+01  0.13327714231E+02  0.18726414640E+02  0.00000000000E+00 0.  1.
         11    1    3    3    0    0  0.54736961383E+01 -0.25153665805E+01 -0.11388764085E+02  0.12883802470E+02  0.51100000000E-03 0. -1.
        -11    1    3    3    0    0 -0.71287593819E+01 -0.45206517051E+01 -0.28394334758E+02  0.29622520973E+02  0.51100000000E-03 0.  1.
        -12    1    3    3    0    0 -0.11453458851E+02  0.81393256433E+01  0.26455384612E+02  0.29955261917E+02  0.00000000000E+00 0.  1.
</event>
<event>
 7    1  0.1891413E-013  0.7246150E+02  0.7816164E-02  0.1226708E+00
        -11   -1    0    0    0    0  0.00000000000E+00  0.00000000000E+00  0.45593999997E+02  0.45594000000E+02  0.51100000000E-03 0.  1.
         11   -1    0    0    0    0 -0.00000000000E+00 -0.00000000000E+00 -0.45593999997E+02  0.45594000000E+02  0.51100000000E-03 0. -1.
    9900012    2    1    2    0    0 -0.79904703482E+01 -0.52417887291E+01 -0.16104593432E+02  0.72461497522E+02  0.69999905200E+02 0.  0.
        -12    1    1    2    0    0  0.79904703482E+01  0.52417887291E+01  0.16104593432E+02  0.18726502478E+02  0.00000000000E+00 0.  1.
         11    1    3    3    0    0  0.12557146136E+02 -0.98888691864E+01  0.19852447787E+01  0.16106298456E+02  0.51100000000E-03 0. -1.
        -11    1    3    3    0    0 -0.13042800422E+01 -0.12703323429E+02  0.11386895768E+02  0.17109557798E+02  0.51100000000E-03 0.  1.
         12    1    3    3    0    0 -0.19243336442E+02  0.17350403886E+02 -0.29476733978E+02  0.39245641267E+02  0.00000000000E+00 0. -1.
</event>
<event>
 7    1  0.1891413E-013  0.7246162E+02  0.7816164E-02  0.1226708E+00
        -11   -1    0    0    0    0  0.00000000000E+00  0.00000000000E+00  0.45593999997E+02  0.45594000000E+02  0.51100000000E-03 0.  1.
         11   -1    0    0    0    0 -0.00000000000E+00 -0.00000000000E+00 -0.45593999997E+02  0.45594000000E+02  0.51100000000E-03 0. -1.
    9900012    2    1    2    0    0 -0.19992121283E+01 -0.16239353043E+02 -0.91084555622E+01  0.72461617564E+02  0.70000061578E+02 0.  0.
        -12    1    1    2    0    0  0.19992121283E+01  0.16239353043E+02  0.91084555622E+01  0.18726382436E+02  0.00000000000E+00 0.  1.
         11    1    3    3    0    0  0.36163325885E+01  0.45720868748E+01  0.54348252792E+01  0.79698912074E+01  0.51100000000E-03 0. -1.
        -11    1    3    3    0    0  0.66033006361E+01 -0.28797805820E+02  0.13800888701E+02  0.32609534320E+02  0.51100000000E-03 0.  1.
         12    1    3    3    0    0 -0.12218845353E+02  0.79863659021E+01 -0.28344169542E+02  0.31882192038E+02  0.00000000000E+00 0. -1.
</event>
<event>
 7    1  0.1891413E-013  0.7246160E+02  0.7816164E-02  0.1226708E+00
        -11   -1    0    0    0    0  0.00000000000E+00  0.00000000000E+00  0.45593999997E+02  0.45594000000E+02  0.51100000000E-03 0.  1.
         11   -1    0    0    0    0 -0.00000000000E+00 -0.00000000000E+00 -0.45593999997E+02  0.45594000000E+02  0.51100000000E-03 0. -1.
    9900012    2    1    2    0    0 -0.17853654749E+02  0.53868882789E+01  0.17048573769E+01  0.72461599067E+02  0.70000037482E+02 0.  0.
        -12    1    1    2    0    0  0.17853654749E+02 -0.53868882789E+01 -0.17048573769E+01  0.18726400933E+02  0.00000000000E+00 0.  1.
         11    1    3    3    0    0  0.13332838170E+02  0.12943743980E+02  0.59090721253E+01  0.19499287565E+02  0.51100000000E-03 0. -1.
        -11    1    3    3    0    0 -0.79274958959E+01 -0.13094410137E+02  0.15644879945E+02  0.21887691444E+02  0.51100000000E-03 0.  1.
         12    1    3    3    0    0 -0.23258997023E+02  0.55375544354E+01 -0.19849094693E+02  0.31074620058E+02  0.00000000000E+00 0. -1.
</event>
<event>
 7    1  0.1891413E-013  0.7246159E+02  0.7816164E-02  0.1226708E+00
        -11   -1    0    0    0    0  0.00000000000E+00  0.00000000000E+00  0.45593999997E+02  0.45594000000E+02  0.51100000000E-03 0.  1.
         11   -1    0    0    0    0 -0.00000000000E+00 -0.00000000000E+00 -0.45593999997E+02  0.45594000000E+02  0.51100000000E-03 0. -1.
    9900012    2    1    2    0    0  0.93350281602E+01  0.16231702386E+02  0.25976642879E+00  0.72461591062E+02  0.70000027054E+02 0.  0.
        -12    1    1    2    0    0 -0.93350281602E+01 -0.16231702386E+02 -0.25976642879E+00  0.18726408938E+02  0.00000000000E+00 0.  1.
         11    1    3    3    0    0  0.36310388624E+01  0.12235722488E+02  0.24197872077E+02  0.27357528421E+02  0.51100000000E-03 0. -1.
        -11    1    3    3    0    0 -0.13416267941E+02  0.10361361055E+02 -0.55869585924E+01  0.17848477665E+02  0.51100000000E-03 0.  1.
        -12    1    3    3    0    0  0.19120257239E+02 -0.63653811562E+01 -0.18351147056E+02  0.27255584976E+02  0.00000000000E+00 0.  1.
</event>
<event>
 7    1  0.1891413E-013  0.7246155E+02  0.7816164E-02  0.1226708E+00
        -11   -1    0    0    0    0  0.00000000000E+00  0.00000000000E+00  0.45593999997E+02  0.45594000000E+02  0.51100000000E-03 0.  1.
         11   -1    0    0    0    0 -0.00000000000E+00 -0.00000000000E+00 -0.45593999997E+02  0.45594000000E+02  0.51100000000E-03 0. -1.
    9900012    2    1    2    0    0  0.20836038437E+01 -0.13254790493E+02 -0.13063264057E+02  0.72461554961E+02  0.69999980026E+02 0.  0.
        -12    1    1    2    0    0 -0.20836038437E+01  0.13254790493E+02  0.13063264057E+02  0.18726445039E+02  0.00000000000E+00 0.  1.
         11    1    3    3    0    0 -0.12937624747E+02 -0.60039764261E+00 -0.16939474322E+02  0.21323423787E+02  0.51100000000E-03 0. -1.
        -11    1    3    3    0    0 -0.14453142200E+02  0.63306031522E+01 -0.62325662233E+00  0.15791083079E+02  0.51100000000E-03 0.  1.
        -12    1    3    3    0    0  0.29474370791E+02 -0.18984996002E+02  0.44994668881E+01  0.35347048095E+02  0.00000000000E+00 0.  1.
</event>
<event>
 7    1  0.1891413E-013  0.7246156E+02  0.7816164E-02  0.1226708E+00
        -11   -1    0    0    0    0  0.00000000000E+00  0.00000000000E+00  0.45593999997E+02  0.45594000000E+02  0.51100000000E-03 0.  1.
         11   -1    0    0    0    0 -0.00000000000E+00 -0.00000000000E+00 -0.45593999997E+02  0.45594000000E+02  0.51100000000E-03 0. -1.
    9900012    2    1    2    0    0  0.98711713948E+01  0.10393297253E+02 -0.12050684476E+02  0.72461557497E+02  0.69999983329E+02 0.  0.
        -12    1    1    2    0    0 -0.98711713948E+01 -0.10393297253E+02  0.12050684476E+02  0.18726442503E+02  0.00000000000E+00 0.  1.
         11    1    3    3    0    0  0.14386107383E+02 -0.47822048432E+01 -0.11128708853E+02  0.18806321538E+02  0.51100000000E-03 0. -1.
        -11    1    3    3    0    0 -0.13162652439E+02 -0.33343948405E+01 -0.21001904211E+02  0.25009070133E+02  0.51100000000E-03 0.  1.
         12    1    3    3    0    0  0.86477164509E+01  0.18509896937E+02  0.20079928588E+02  0.28646165826E+02  0.00000000000E+00 0. -1.
</event>
<event>
 7    1  0.1891413E-013  0.7246157E+02  0.7816164E-02  0.1226708E+00
        -11   -1    0    0    0    0  0.00000000000E+00  0.00000000000E+00  0.45593999997E+02  0.45594000000E+02  0.51100000000E-03 0. -1.
         11   -1    0    0    0    0 -0.00000000000E+00 -0.00000000000E+00 -0.45593999997E+02  0.45594000000E+02  0.51100000000E-03 0.  1.
    9900012    2    1    2    0    0 -0.24061782143E+00 -0.69836839405E+01  0.17373810258E+02  0.72461574254E+02  0.70000005159E+02 0.  0.
        -12    1    1    2    0    0  0.24061782143E+00  0.69836839405E+01 -0.17373810258E+02  0.18726425746E+02  0.00000000000E+00 0.  1.
         11    1    3    3    0    0 -0.62199408848E+01 -0.10819704331E+02 -0.29478272624E+01  0.12823546789E+02  0.51100000000E-03 0. -1.
        -11    1    3    3    0    0 -0.10654328736E+02 -0.22409336526E+02  0.11424496658E+02  0.27316885044E+02  0.51100000000E-03 0.  1.
         12    1    3    3    0    0  0.16633651800E+02  0.26245356917E+02  0.88971408629E+01  0.32321142421E+02  0.00000000000E+00 0. -1.
</event>
<event>
 7    1  0.1891413E-013  0.7246156E+02  0.7816164E-02  0.1226708E+00
        -11   -1    0    0    0    0  0.00000000000E+00  0.00000000000E+00  0.45593999997E+02  0.45594000000E+02  0.51100000000E-03 0. -1.
         11   -1    0    0    0    0 -0.00000000000E+00 -0.00000000000E+00 -0.45593999997E+02  0.45594000000E+02  0.51100000000E-03 0.  1.
    9900012    2    1    2    0    0 -0.60273599425E+01 -0.13922189037E+02 -0.10978299520E+02  0.72461562117E+02  0.69999989347E+02 0.  0.
        -12    1    1    2    0    0  0.60273599425E+01  0.13922189037E+02  0.10978299520E+02  0.18726437883E+02  0.00000000000E+00 0.  1.
         11    1    3    3    0    0  0.21600511375E+02  0.99931948392E+01 -0.31884876743E+01  0.24012756790E+02  0.51100000000E-03 0. -1.
        -11    1    3    3    0    0 -0.81538584383E+01  0.64661810045E+01 -0.66378827831E+01  0.12343354176E+02  0.51100000000E-03 0.  1.
        -12    1    3    3    0    0 -0.19474012879E+02 -0.30381564880E+02 -0.11519290623E+01  0.36105451150E+02  0.00000000000E+00 0.  1.
</event>
<event>
 7    1  0.1891413E-013  0.7246154E+02  0.7816164E-02  0.1226708E+00
        -11   -1    0    0    0    0  0.00000000000E+00  0.00000000000E+00  0.45593999997E+02  0.45594000000E+02  0.51100000000E-03 0. -1.
         11   -1    0    0    0    0 -0.00000000000E+00 -0.00000000000E+00 -0.45593999997E+02  0.45594000000E+02  0.51100000000E-03 0.  1.
    9900012    2    1    2    0    0 -0.79203898497E+00  0.17017770606E+02  0.77748692965E+01  0.72461536513E+02  0.69999955993E+02 0.  0.
        -12    1    1    2    0    0  0.79203898497E+00 -0.17017770606E+02 -0.77748692965E+01  0.18726463487E+02  0.00000000000E+00 0.  1.
         11    1    3    3    0    0 -0.49203957558E+01  0.36558641384E+02  0.16632748057E+02  0.40464711322E+02  0.51100000000E-03 0. -1.
        -11    1    3    3    0    0 -0.70090261722E+01 -0.13563010527E+02  0.19176071836E+01  0.15386972412E+02  0.51100000000E-03 0.  1.
        -12    1    3    3    0    0  0.11137382943E+02 -0.59778602507E+01 -0.10775485944E+02  0.16609852779E+02  0.00000000000E+00 0.  1.
</event>
<event>
 7    1  0.1891413E-013  0.7246161E+02  0.7816164E-02  0.1226708E+00
        -11   -1    0    0    0    0  0.00000000000E+00  0.00000000000E+00  0.45593999997E+02  0.45594000000E+02  0.51100000000E-03 0.  1.
         11   -1    0    0    0    0 -0.00000000000E+00 -0.00000000000E+00 -0.45593999997E+02  0.45594000000E+02  0.51100000000E-03 0. -1.
    9900012    2    1    2    0    0  0.12620365484E+02  0.45384431550E+01 -0.13069303517E+02  0.72461607244E+02  0.70000048134E+02 0.  0.
        -12    1    1    2    0    0 -0.12620365484E+02 -0.45384431550E+01  0.13069303517E+02  0.18726392756E+02  0.00000000000E+00 0.  1.
         11    1    3    3    0    0  0.24631669973E+02  0.12042927884E+02  0.52427985279E+01  0.27914838605E+02  0.51100000000E-03 0. -1.
        -11    1    3    3    0    0  0.11690707667E+02  0.61375596942E+01 -0.48616849281E+01  0.14070474952E+02  0.51100000000E-03 0.  1.
         12    1    3    3    0    0 -0.23702012156E+02 -0.13642044423E+02 -0.13450417117E+02  0.30476293688E+02  0.00000000000E+00 0. -1.
</event>
<event>
 7    1  0.1891413E-013  0.7246149E+02  0.7816164E-02  0.1226708E+00
        -11   -1    0    0    0    0  0.00000000000E+00  0.00000000000E+00  0.45593999997E+02  0.45594000000E+02  0.51100000000E-03 0.  1.
         11   -1    0    0    0    0 -0.00000000000E+00 -0.00000000000E+00 -0.45593999997E+02  0.45594000000E+02  0.51100000000E-03 0. -1.
    9900012    2    1    2    0    0  0.10039283200E+02  0.80385353457E+01 -0.13611650916E+02  0.72461486755E+02  0.69999891174E+02 0.  0.
        -12    1    1    2    0    0 -0.10039283200E+02 -0.80385353457E+01  0.13611650916E+02  0.18726513245E+02  0.00000000000E+00 0.  1.
         11    1    3    3    0    0 -0.16919978736E+02 -0.19768716936E+00 -0.10546395666E+02  0.19938686578E+02  0.51100000000E-03 0. -1.
        -11    1    3    3    0    0  0.29631981708E+02  0.21437742504E+02  0.48595387359E+01  0.36895070953E+02  0.51100000000E-03 0.  1.
         12    1    3    3    0    0 -0.26727197721E+01 -0.13201519989E+02 -0.79247939855E+01  0.15627729224E+02  0.00000000000E+00 0. -1.
</event>
<event>
 7    1  0.1891413E-013  0.7246157E+02  0.7816164E-02  0.1226708E+00
        -11   -1    0    0    0    0  0.00000000000E+00  0.00000000000E+00  0.45593999997E+02  0.45594000000E+02  0.51100000000E-03 0. -1.
         11   -1    0    0    0    0 -0.00000000000E+00 -0.00000000000E+00 -0.45593999997E+02  0.45594000000E+02  0.51100000000E-03 0.  1.
    9900012    2    1    2    0    0  0.12169591104E+02 -0.44861279896E+01  0.13507590471E+02  0.72461567016E+02  0.69999995729E+02 0.  0.
        -12    1    1    2    0    0 -0.12169591104E+02  0.44861279896E+01 -0.13507590471E+02  0.18726432984E+02  0.00000000000E+00 0.  1.
         11    1    3    3    0    0  0.96029798903E+01 -0.21069885510E+02  0.27787591263E+02  0.36170533955E+02  0.51100000000E-03 0. -1.
        -11    1    3    3    0    0 -0.68364421191E+01 -0.57814026872E+01 -0.23579612373E+01  0.92585927298E+01  0.51100000000E-03 0.  1.
        -12    1    3    3    0    0  0.94030533328E+01  0.22365160208E+02 -0.11922039554E+02  0.27032440330E+02  0.00000000000E+00 0.  1.
</event>
<event>
 7    1  0.1891413E-013  0.7246160E+02  0.7816164E-02  0.1226708E+00
        -11   -1    0    0    0    0  0.00000000000E+00  0.00000000000E+00  0.45593999997E+02  0.45594000000E+02  0.51100000000E-03 0. -1.
         11   -1    0    0    0    0 -0.00000000000E+00 -0.00000000000E+00 -0.45593999997E+02  0.45594000000E+02  0.51100000000E-03 0.  1.
    9900012    2    1    2    0    0  0.25306714450E+01  0.72147705986E+01  0.17094464329E+02  0.72461603565E+02  0.70000043341E+02 0.  0.
        -12    1    1    2    0    0 -0.25306714450E+01 -0.72147705986E+01 -0.17094464329E+02  0.18726396435E+02  0.00000000000E+00 0.  1.
         11    1    3    3    0    0  0.29715225331E+01  0.82722730531E+00  0.45938804960E+01  0.55333524605E+01  0.51100000000E-03 0. -1.
        -11    1    3    3    0    0  0.28448679963E+02 -0.79100181413E+01  0.17477075718E+02  0.34312446059E+02  0.51100000000E-03 0.  1.
        -12    1    3    3    0    0 -0.28889531051E+02  0.14297561435E+02 -0.49764918852E+01  0.32615805046E+02  0.00000000000E+00 0.  1.
</event>
<event>
 7    1  0.1891413E-013  0.7246161E+02  0.7816164E-02  0.1226708E+00
        -11   -1    0    0    0    0  0.00000000000E+00  0.00000000000E+00  0.45593999997E+02  0.45594000000E+02  0.51100000000E-03 0.  1.
         11   -1    0    0    0    0 -0.00000000000E+00 -0.00000000000E+00 -0.45593999997E+02  0.45594000000E+02  0.51100000000E-03 0. -1.
    9900012    2    1    2    0    0 -0.16873783366E+02 -0.73973558547E+01  0.33514321205E+01  0.72461613910E+02  0.70000056817E+02 0.  0.
        -12    1    1    2    0    0  0.16873783366E+02  0.73973558547E+01 -0.33514321205E+01  0.18726386090E+02  0.00000000000E+00 0.  1.
         11    1    3    3    0    0  0.14934740734E+02  0.20903153840E+01 -0.18806946705E+01  0.15197134989E+02  0.51100000000E-03 0. -1.
        -11    1    3    3    0    0 -0.16561114271E+02  0.72346319778E+01  0.22456273334E+02  0.28825242723E+02  0.51100000000E-03 0.  1.
         12    1    3    3    0    0 -0.15247409829E+02 -0.16722303217E+02 -0.17224146543E+02  0.28439236198E+02  0.00000000000E+00 0. -1.
</event>
<event>
 7    1  0.1891413E-013  0.7246160E+02  0.7816164E-02  0.1226708E+00
        -11   -1    0    0    0    0  0.00000000000E+00  0.00000000000E+00  0.45593999997E+02  0.45594000000E+02  0.51100000000E-03 0. -1.
         11   -1    0    0    0    0 -0.00000000000E+00 -0.00000000000E+00 -0.45593999997E+02  0.45594000000E+02  0.51100000000E-03 0.  1.
    9900012    2    1    2    0    0 -0.56074698968E+01  0.14958335656E+02  0.97715226854E+01  0.72461596720E+02  0.70000034424E+02 0.  0.
        -12    1    1    2    0    0  0.56074698968E+01 -0.14958335656E+02 -0.97715226854E+01  0.18726403280E+02  0.00000000000E+00 0.  1.
         11    1    3    3    0    0  0.13560378302E+02  0.69175189285E+01 -0.13333834741E+02  0.20236775360E+02  0.51100000000E-03 0. -1.
        -11    1    3    3    0    0  0.32744948805E+01 -0.57413531537E+01 -0.87031885957E+01  0.10928446585E+02  0.51100000000E-03 0.  1.
         12    1    3    3    0    0 -0.22442343079E+02  0.13782169881E+02  0.31808546022E+02  0.41296374775E+02  0.00000000000E+00 0. -1.
</event>
<event>
 7    1  0.1891413E-013  0.7246161E+02  0.7816164E-02  0.1226708E+00
        -11   -1    0    0    0    0  0.00000000000E+00  0.00000000000E+00  0.45593999997E+02  0.45594000000E+02  0.51100000000E-03 0.  1.
         11   -1    0    0    0    0 -0.00000000000E+00 -0.00000000000E+00 -0.45593999997E+02  0.45594000000E+02  0.51100000000E-03 0. -1.
    9900012    2    1    2    0    0  0.14640804622E+02 -0.57072037870E+01 -0.10185889459E+02  0.72461610088E+02  0.70000051839E+02 0.  0.
        -12    1    1    2    0    0 -0.14640804622E+02  0.57072037870E+01  0.10185889459E+02  0.18726389912E+02  0.00000000000E+00 0.  1.
         11    1    3    3    0    0 -0.11195176933E+02 -0.14299006893E+02  0.21589968037E+01  0.18288106850E+02  0.51100000000E-03 0. -1.
        -11    1    3    3    0    0  0.63415123543E+01  0.14861801014E+02  0.13600634229E+02  0.21120254733E+02  0.51100000000E-03 0.  1.
         12    1    3    3    0    0  0.19494469201E+02 -0.62699979082E+01 -0.25945520491E+02  0.33053248506E+02  0.00000000000E+00 0. -1.
</event>
<event>
 7    1  0.1891413E-013  0.7246144E+02  0.7816164E-02  0.1226708E+00
        -11   -1    0    0    0    0  0.00000000000E+00  0.00000000000E+00  0.45593999997E+02  0.45594000000E+02  0.51100000000E-03 0.  1.
         11   -1    0    0    0    0 -0.00000000000E+00 -0.00000000000E+00 -0.45593999997E+02  0.45594000000E+02  0.51100000000E-03 0. -1.
    9900012    2    1    2    0    0 -0.12829355249E+02  0.24949177618E+01 -0.13411459823E+02  0.72461435303E+02  0.69999824149E+02 0.  0.
        -12    1    1    2    0    0  0.12829355249E+02 -0.24949177618E+01  0.13411459823E+02  0.18726564697E+02  0.00000000000E+00 0.  1.
         11    1    3    3    0    0  0.78176057821E+00  0.39011833002E+00  0.11354492014E+01  0.14326852631E+01  0.51100000000E-03 0. -1.
        -11    1    3    3    0    0  0.20175553628E+02  0.12129022424E+02  0.12453897153E+02  0.26632042800E+02  0.51100000000E-03 0.  1.
         12    1    3    3    0    0 -0.33786669455E+02 -0.10024222992E+02 -0.27000806178E+02  0.44396707240E+02  0.00000000000E+00 0. -1.
</event>
<event>
 7    1  0.1891413E-013  0.7246160E+02  0.7816164E-02  0.1226708E+00
        -11   -1    0    0    0    0  0.00000000000E+00  0.00000000000E+00  0.45593999997E+02  0.45594000000E+02  0.51100000000E-03 0.  1.
         11   -1    0    0    0    0 -0.00000000000E+00 -0.00000000000E+00 -0.45593999997E+02  0.45594000000E+02  0.51100000000E-03 0. -1.
    9900012    2    1    2    0    0  0.65817861094E+01  0.17430940792E+02  0.18762747873E+01  0.72461601190E+02  0.70000040248E+02 0.  0.
        -12    1    1    2    0    0 -0.65817861094E+01 -0.17430940792E+02 -0.18762747873E+01  0.18726398810E+02  0.00000000000E+00 0.  1.
         11    1    3    3    0    0  0.13072166673E+02 -0.11944240139E+01 -0.43594398225E+01  0.13831590873E+02  0.51100000000E-03 0. -1.
        -11    1    3    3    0    0  0.72465144387E+01 -0.17878412947E+02  0.17676188151E+01  0.19371992606E+02  0.51100000000E-03 0.  1.
         12    1    3    3    0    0 -0.13736895002E+02  0.36503777753E+02  0.44680957946E+01  0.39258017711E+02  0.00000000000E+00 0. -1.
</event>
<event>
 7    1  0.1891413E-013  0.7246150E+02  0.7816164E-02  0.1226708E+00
        -11   -1    0    0    0    0  0.00000000000E+00  0.00000000000E+00  0.45593999997E+02  0.45594000000E+02  0.51100000000E-03 0. -1.
         11   -1    0    0    0    0 -0.00000000000E+00 -0.00000000000E+00 -0.45593999997E+02  0.45594000000E+02  0.51100000000E-03 0.  1.
    9900012    2    1    2    0    0 -0.68298294724E+00 -0.24028308806E+01  0.18559143070E+02  0.72461498634E+02  0.69999906649E+02 0.  0.
        -12    1    1    2    0    0  0.68298294724E+00  0.24028308806E+01 -0.18559143070E+02  0.18726501366E+02  0.00000000000E+00 0.  1.
         11    1    3    3    0    0  0.18747297375E+02 -0.11584930083E+02 -0.82443502899E+01  0.23529578744E+02  0.51100000000E-03 0. -1.
        -11    1    3    3    0    0  0.21432681585E+01 -0.11110700236E+02  0.77340590300E+01  0.13706090890E+02  0.51100000000E-03 0.  1.
        -12    1    3    3    0    0 -0.21573548481E+02  0.20292799438E+02  0.19069434329E+02  0.35225829000E+02  0.00000000000E+00 0.  1.
</event>
<event>
 7    1  0.1891413E-013  0.7246156E+02  0.7816164E-02  0.1226708E+00
        -11   -1    0    0    0    0  0.00000000000E+00  0.00000000000E+00  0.45593999997E+02  0.45594000000E+02  0.51100000000E-03 0.  1.
         11   -1    0    0    0    0 -0.00000000000E+00 -0.00000000000E+00 -0.45593999997E+02  0.45594000000E+02  0.51100000000E-03 0. -1.
    9900012    2    1    2    0    0  0.11473113319E+02  0.13210162331E+02 -0.66737319414E+01  0.72461563712E+02  0.69999991425E+02 0.  0.
        -12    1    1    2    0    0 -0.11473113319E+02 -0.13210162331E+02  0.66737319414E+01  0.18726436288E+02  0.00000000000E+00 0.  1.
         11    1    3    3    0    0 -0.85766047959E+01 -0.61233840323E+00 -0.23409835593E+02  0.24938995787E+02  0.51100000000E-03 0. -1.
        -11    1    3    3    0    0 -0.56040942483E+01  0.17657220284E+02  0.63856578977E+01  0.19594895446E+02  0.51100000000E-03 0.  1.
        -12    1    3    3    0    0  0.25653812363E+02 -0.38347195498E+01  0.10350445753E+02  0.27927672479E+02  0.00000000000E+00 0.  1.
</event>
<event>
 7    1  0.1891413E-013  0.7246159E+02  0.7816164E-02  0.1226708E+00
        -11   -1    0    0    0    0  0.00000000000E+00  0.00000000000E+00  0.45593999997E+02  0.45594000000E+02  0.51100000000E-03 0. -1.
         11   -1    0    0    0    0 -0.00000000000E+00 -0.00000000000E+00 -0.45593999997E+02  0.45594000000E+02  0.51100000000E-03 0.  1.
    9900012    2    1    2    0    0 -0.14565279945E+02  0.97035211924E+01  0.66612771675E+01  0.72461593059E+02  0.70000029655E+02 0.  0.
        -12    1    1    2    0    0  0.14565279945E+02 -0.97035211924E+01 -0.66612771675E+01  0.18726406941E+02  0.00000000000E+00 0.  1.
         11    1    3    3    0    0 -0.23835976415E+02 -0.17342293869E+02  0.55369749915E+01  0.29992782809E+02  0.51100000000E-03 0. -1.
        -11    1    3    3    0    0 -0.92240699556E+00 -0.61824141341E+01 -0.38751494632E+01  0.73545810768E+01  0.51100000000E-03 0.  1.
        -12    1    3    3    0    0  0.10193103466E+02  0.33228229196E+02  0.49994516392E+01  0.35114229173E+02  0.00000000000E+00 0.  1.
</event>
<event>
 7    1  0.1891413E-013  0.7246163E+02  0.7816164E-02  0.1226708E+00
        -11   -1    0    0    0    0  0.00000000000E+00  0.00000000000E+00  0.45593999997E+02  0.45594000000E+02  0.51100000000E-03 0. -1.
         11   -1    0    0    0    0 -0.00000000000E+00 -0.00000000000E+00 -0.45593999997E+02  0.45594000000E+02  0.51100000000E-03 0.  1.
    9900012    2    1    2    0    0  0.82297784308E+01 -0.64379023934E+01  0.15540304382E+02  0.72461630877E+02  0.70000078920E+02 0.  0.
        -12    1    1    2    0    0 -0.82297784308E+01  0.64379023934E+01 -0.15540304382E+02  0.18726369123E+02  0.00000000000E+00 0.  1.
         11    1    3    3    0    0 -0.20312379913E+02  0.31190958892E+01  0.26421175769E+02  0.33472377659E+02  0.51100000000E-03 0. -1.
        -11    1    3    3    0    0 -0.15570458734E+00 -0.68835135529E+01  0.23501307095E+01  0.72753087470E+01  0.51100000000E-03 0.  1.
        -12    1    3    3    0    0  0.28697862931E+02 -0.26734847297E+01 -0.13231002096E+02  0.31713944471E+02  0.00000000000E+00 0.  1.
</event>
<event>
 7    1  0.1891413E-013  0.7246155E+02  0.7816164E-02  0.1226708E+00
        -11   -1    0    0    0    0  0.00000000000E+00  0.00000000000E+00  0.45593999997E+02  0.45594000000E+02  0.51100000000E-03 0.  1.
         11   -1    0    0    0    0 -0.00000000000E+00 -0.00000000000E+00 -0.45593999997E+02  0.45594000000E+02  0.51100000000E-03 0. -1.
    9900012    2    1    2    0    0  0.80219770813E+01 -0.50526639472E+01 -0.16149256896E+02  0.72461547385E+02  0.69999970156E+02 0.  0.
        -12    1    1    2    0    0 -0.80219770813E+01  0.50526639472E+01  0.16149256896E+02  0.18726452615E+02  0.00000000000E+00 0.  1.
         11    1    3    3    0    0  0.18388940802E+02 -0.87473591644E+01  0.46183210266E+01  0.20880572921E+02  0.51100000000E-03 0. -1.
        -11    1    3    3    0    0 -0.17243716430E+02 -0.17706399482E+02 -0.11645220845E+02  0.27321667367E+02  0.51100000000E-03 0.  1.
        -12    1    3    3    0    0  0.68767527092E+01  0.21401094699E+02 -0.91223570773E+01  0.24259307096E+02  0.00000000000E+00 0.  1.
</event>
<event>
 7    1  0.1891413E-013  0.7246166E+02  0.7816164E-02  0.1226708E+00
        -11   -1    0    0    0    0  0.00000000000E+00  0.00000000000E+00  0.45593999997E+02  0.45594000000E+02  0.51100000000E-03 0.  1.
         11   -1    0    0    0    0 -0.00000000000E+00 -0.00000000000E+00 -0.45593999997E+02  0.45594000000E+02  0.51100000000E-03 0. -1.
    9900012    2    1    2    0    0 -0.25807027846E+01  0.16011557024E+02 -0.93619279709E+01  0.72461663452E+02  0.70000121354E+02 0.  0.
        -12    1    1    2    0    0  0.25807027846E+01 -0.16011557024E+02  0.93619279709E+01  0.18726336548E+02  0.00000000000E+00 0.  1.
         11    1    3    3    0    0 -0.51972454733E+00  0.10117005028E+02 -0.87600228749E+01  0.13392606369E+02  0.51100000000E-03 0. -1.
        -11    1    3    3    0    0 -0.22632671782E+02  0.13371085952E+02 -0.17360008729E+02  0.31502280472E+02  0.51100000000E-03 0.  1.
         12    1    3    3    0    0  0.20571693545E+02 -0.74765339560E+01  0.16758103633E+02  0.27566776611E+02  0.00000000000E+00 0. -1.
</event>
<event>
 7    1  0.1891413E-013  0.7246158E+02  0.7816164E-02  0.1226708E+00
        -11   -1    0    0    0    0  0.00000000000E+00  0.00000000000E+00  0.45593999997E+02  0.45594000000E+02  0.51100000000E-03 0. -1.
         11   -1    0    0    0    0 -0.00000000000E+00 -0.00000000000E+00 -0.45593999997E+02  0.45594000000E+02  0.51100000000E-03 0.  1.
    9900012    2    1    2    0    0 -0.13880575784E+02 -0.12469124523E+02  0.15903592760E+01  0.72461583015E+02  0.70000016571E+02 0.  0.
        -12    1    1    2    0    0  0.13880575784E+02  0.12469124523E+02 -0.15903592760E+01  0.18726416985E+02  0.00000000000E+00 0.  1.
         11    1    3    3    0    0  0.13467150680E+02  0.43922167910E+01 -0.39802303794E+00  0.14170890529E+02  0.51100000000E-03 0. -1.
        -11    1    3    3    0    0  0.28318245716E+01 -0.26436221954E+02  0.13668060076E+01  0.26622569758E+02  0.51100000000E-03 0.  1.
         12    1    3    3    0    0 -0.30179551036E+02  0.95748806403E+01  0.62157630636E+00  0.31668122728E+02  0.00000000000E+00 0. -1.
</event>
<event>
 7    1  0.1891413E-013  0.7246159E+02  0.7816164E-02  0.1226708E+00
        -11   -1    0    0    0    0  0.00000000000E+00  0.00000000000E+00  0.45593999997E+02  0.45594000000E+02  0.51100000000E-03 0.  1.
         11   -1    0    0    0    0 -0.00000000000E+00 -0.00000000000E+00 -0.45593999997E+02  0.45594000000E+02  0.51100000000E-03 0. -1.
    9900012    2    1    2    0    0  0.15547007888E+02  0.41241669200E+01 -0.95895962206E+01  0.72461586496E+02  0.70000021105E+02 0.  0.
        -12    1    1    2    0    0 -0.15547007888E+02 -0.41241669200E+01  0.95895962206E+01  0.18726413504E+02  0.00000000000E+00 0.  1.
         11    1    3    3    0    0 -0.77652211203E+01 -0.11879119863E+02 -0.11921357174E+02  0.18534586721E+02  0.51100000000E-03 0. -1.
        -11    1    3    3    0    0 -0.10995347765E+02  0.39146365806E+01 -0.10152531713E+02  0.15469193660E+02  0.51100000000E-03 0.  1.
        -12    1    3    3    0    0  0.34307576774E+02  0.12088650203E+02  0.12484292666E+02  0.38457806115E+02  0.00000000000E+00 0.  1.
</event>
<event>
 7    1  0.1891413E-013  0.7246162E+02  0.7816164E-02  0.1226708E+00
        -11   -1    0    0    0    0  0.00000000000E+00  0.00000000000E+00  0.45593999997E+02  0.45594000000E+02  0.51100000000E-03 0.  1.
         11   -1    0    0    0    0 -0.00000000000E+00 -0.00000000000E+00 -0.45593999997E+02  0.45594000000E+02  0.51100000000E-03 0. -1.
    9900012    2    1    2    0    0 -0.98434219132E+01 -0.11342755076E+02  0.11185991956E+02  0.72461615840E+02  0.70000059331E+02 0.  0.
        -12    1    1    2    0    0  0.98434219132E+01  0.11342755076E+02 -0.11185991956E+02  0.18726384160E+02  0.00000000000E+00 0.  1.
         11    1    3    3    0    0 -0.55791387795E+01  0.22265170816E+01 -0.23178838374E+02  0.23944575930E+02  0.51100000000E-03 0. -1.
        -11    1    3    3    0    0  0.35281512330E+01  0.84785223108E+01  0.35767695801E+01  0.98552763831E+01  0.51100000000E-03 0.  1.
        -12    1    3    3    0    0 -0.77924343668E+01 -0.22047794469E+02  0.30788060749E+02  0.38661763527E+02  0.00000000000E+00 0.  1.
</event>
<event>
 7    1  0.1891413E-013  0.7246161E+02  0.7816164E-02  0.1226708E+00
        -11   -1    0    0    0    0  0.00000000000E+00  0.00000000000E+00  0.45593999997E+02  0.45594000000E+02  0.51100000000E-03 0. -1.
         11   -1    0    0    0    0 -0.00000000000E+00 -0.00000000000E+00 -0.45593999997E+02  0.45594000000E+02  0.51100000000E-03 0.  1.
    9900012    2    1    2    0    0 -0.12138260240E+02  0.11896999894E+02  0.78614011402E+01  0.72461612307E+02  0.70000054729E+02 0.  0.
        -12    1    1    2    0    0  0.12138260240E+02 -0.11896999894E+02 -0.78614011402E+01  0.18726387693E+02  0.00000000000E+00 0.  1.
         11    1    3    3    0    0 -0.10022464305E+02  0.89878984036E+01 -0.80488267446E+01  0.15684888290E+02  0.51100000000E-03 0. -1.
        -11    1    3    3    0    0 -0.14057330996E+01  0.13729599396E+02 -0.17132586877E+02  0.22000079965E+02  0.51100000000E-03 0.  1.
         12    1    3    3    0    0 -0.71006283527E+00 -0.10820497905E+02  0.33042814762E+02  0.34776644052E+02  0.00000000000E+00 0. -1.
</event>
<event>
 7    1  0.1891413E-013  0.7246154E+02  0.7816164E-02  0.1226708E+00
        -11   -1    0    0    0    0  0.00000000000E+00  0.00000000000E+00  0.45593999997E+02  0.45594000000E+02  0.51100000000E-03 0. -1.
         11   -1    0    0    0    0 -0.00000000000E+00 -0.00000000000E+00 -0.45593999997E+02  0.45594000000E+02  0.51100000000E-03 0.  1.
    9900012    2    1    2    0    0  0.42116323365E+01  0.17674009674E+02  0.45356065688E+01  0.72461542998E+02  0.69999964441E+02 0.  0.
        -12    1    1    2    0    0 -0.42116323365E+01 -0.17674009674E+02 -0.45356065688E+01  0.18726457002E+02  0.00000000000E+00 0.  1.
         11    1    3    3    0    0  0.71796622166E+01 -0.15705204969E+02 -0.27693993423E+01  0.17489156230E+02  0.51100000000E-03 0. -1.
        -11    1    3    3    0    0  0.57081238877E+01  0.17219484846E+01 -0.14423764089E+02  0.15607458334E+02  0.51100000000E-03 0.  1.
        -12    1    3    3    0    0 -0.86761537677E+01  0.31657266159E+02  0.21728770000E+02  0.39364928433E+02  0.00000000000E+00 0.  1.
</event>
<event>
 7    1  0.1891413E-013  0.7246156E+02  0.7816164E-02  0.1226708E+00
        -11   -1    0    0    0    0  0.00000000000E+00  0.00000000000E+00  0.45593999997E+02  0.45594000000E+02  0.51100000000E-03 0. -1.
         11   -1    0    0    0    0 -0.00000000000E+00 -0.00000000000E+00 -0.45593999997E+02  0.45594000000E+02  0.51100000000E-03 0.  1.
    9900012    2    1    2    0    0 -0.53484568862E+01 -0.13613018980E+02  0.11694415748E+02  0.72461557826E+02  0.69999983758E+02 0.  0.
        -12    1    1    2    0    0  0.53484568862E+01  0.13613018980E+02 -0.11694415748E+02  0.18726442174E+02  0.00000000000E+00 0.  1.
         11    1    3    3    0    0 -0.26933775360E+02 -0.14979517330E+02  0.22301967845E+02  0.38041976350E+02  0.51100000000E-03 0. -1.
        -11    1    3    3    0    0  0.12323209861E+01  0.38678018415E+01  0.65341644507E+01  0.76924515876E+01  0.51100000000E-03 0.  1.
        -12    1    3    3    0    0  0.20352997487E+02 -0.25013034912E+01 -0.17141716548E+02  0.26727129889E+02  0.00000000000E+00 0.  1.
</event>
<event>
 7    1  0.1891413E-013  0.7246181E+02  0.7816164E-02  0.1226707E+00
        -11   -1    0    0    0    0  0.00000000000E+00  0.00000000000E+00  0.45593999997E+02  0.45594000000E+02  0.51100000000E-03 0.  1.
         11   -1    0    0    0    0 -0.00000000000E+00 -0.00000000000E+00 -0.45593999997E+02  0.45594000000E+02  0.51100000000E-03 0. -1.
    9900012    2    1    2    0    0  0.15694006706E+02 -0.43251739623E+01  0.92553376708E+01  0.72461808404E+02  0.70000310181E+02 0.  0.
        -12    1    1    2    0    0 -0.15694006706E+02  0.43251739623E+01 -0.92553376708E+01  0.18726191596E+02  0.00000000000E+00 0.  1.
         11    1    3    3    0    0 -0.44382483521E+01 -0.11475487541E+01 -0.25051236230E+02  0.25467221157E+02  0.51100000000E-03 0. -1.
        -11    1    3    3    0    0  0.28479842117E+01 -0.12172428105E+02  0.15515495425E+02  0.19925100216E+02  0.51100000000E-03 0.  1.
        -12    1    3    3    0    0  0.17284270846E+02  0.89948028972E+01  0.18791078475E+02  0.27069487031E+02  0.00000000000E+00 0.  1.
</event>
<event>
 7    1  0.1891413E-013  0.7246154E+02  0.7816164E-02  0.1226708E+00
        -11   -1    0    0    0    0  0.00000000000E+00  0.00000000000E+00  0.45593999997E+02  0.45594000000E+02  0.51100000000E-03 0.  1.
         11   -1    0    0    0    0 -0.00000000000E+00 -0.00000000000E+00 -0.45593999997E+02  0.45594000000E+02  0.51100000000E-03 0. -1.
    9900012    2    1    2    0    0 -0.10751177887E+02 -0.13634342495E+02  0.70140646130E+01  0.72461542150E+02  0.69999963337E+02 0.  0.
        -12    1    1    2    0    0  0.10751177887E+02  0.13634342495E+02 -0.70140646130E+01  0.18726457850E+02  0.00000000000E+00 0.  1.
         11    1    3    3    0    0 -0.24296023150E+02  0.34820884323E+00 -0.11585484802E+02  0.26919165081E+02  0.51100000000E-03 0. -1.
        -11    1    3    3    0    0 -0.42113675441E+01 -0.89661976022E+01 -0.82995275592E+01  0.12923253228E+02  0.51100000000E-03 0.  1.
        -12    1    3    3    0    0  0.17756212808E+02 -0.50163537360E+01  0.26899076974E+02  0.32619123840E+02  0.00000000000E+00 0.  1.
</event>
<event>
 7    1  0.1891413E-013  0.7246154E+02  0.7816164E-02  0.1226708E+00
        -11   -1    0    0    0    0  0.00000000000E+00  0.00000000000E+00  0.45593999997E+02  0.45594000000E+02  0.51100000000E-03 0. -1.
         11   -1    0    0    0    0 -0.00000000000E+00 -0.00000000000E+00 -0.45593999997E+02  0.45594000000E+02  0.51100000000E-03 0.  1.
    9900012    2    1    2    0    0 -0.12929389726E+02 -0.24832415951E+00  0.13544356571E+02  0.72461538015E+02  0.69999957950E+02 0.  0.
        -12    1    1    2    0    0  0.12929389726E+02  0.24832415951E+00 -0.13544356571E+02  0.18726461985E+02  0.00000000000E+00 0.  1.
         11    1    3    3    0    0  0.21246187870E+01  0.17270838635E+02  0.20250821720E+01  0.17518471115E+02  0.51100000000E-03 0. -1.
        -11    1    3    3    0    0 -0.12810670204E+02  0.89210640285E+01 -0.11838388678E+02  0.19591990742E+02  0.51100000000E-03 0.  1.
         12    1    3    3    0    0 -0.22433383091E+01 -0.26440226823E+02  0.23357663076E+02  0.35351076159E+02  0.00000000000E+00 0. -1.
</event>
<event>
 7    1  0.1891413E-013  0.7246156E+02  0.7816164E-02  0.1226708E+00
        -11   -1    0    0    0    0  0.00000000000E+00  0.00000000000E+00  0.45593999997E+02  0.45594000000E+02  0.51100000000E-03 0. -1.
         11   -1    0    0    0    0 -0.00000000000E+00 -0.00000000000E+00 -0.45593999997E+02  0.45594000000E+02  0.51100000000E-03 0.  1.
    9900012    2    1    2    0    0  0.13678976493E+02  0.10738694295E+02  0.69458985909E+01  0.72461562531E+02  0.69999989887E+02 0.  0.
        -12    1    1    2    0    0 -0.13678976493E+02 -0.10738694295E+02 -0.69458985909E+01  0.18726437469E+02  0.00000000000E+00 0.  1.
         11    1    3    3    0    0  0.24688251137E+01 -0.87311927689E+01  0.25837500640E+02  0.27384398190E+02  0.51100000000E-03 0. -1.
        -11    1    3    3    0    0  0.31752896353E+01 -0.79948189438E+01 -0.13423782350E+02  0.15943573221E+02  0.51100000000E-03 0.  1.
         12    1    3    3    0    0  0.80348617437E+01  0.27464706007E+02 -0.54678196997E+01  0.29133591120E+02  0.00000000000E+00 0. -1.
</event>
<event>
 7    1  0.1891413E-013  0.7246155E+02  0.7816164E-02  0.1226708E+00
        -11   -1    0    0    0    0  0.00000000000E+00  0.00000000000E+00  0.45593999997E+02  0.45594000000E+02  0.51100000000E-03 0.  1.
         11   -1    0    0    0    0 -0.00000000000E+00 -0.00000000000E+00 -0.45593999997E+02  0.45594000000E+02  0.51100000000E-03 0. -1.
    9900012    2    1    2    0    0  0.11737533097E+02 -0.14589810421E+02 -0.21840629654E+00  0.72461549385E+02  0.69999972762E+02 0.  0.
        -12    1    1    2    0    0 -0.11737533097E+02  0.14589810421E+02  0.21840629654E+00  0.18726450615E+02  0.00000000000E+00 0.  1.
         11    1    3    3    0    0  0.23858552544E+02 -0.18064039052E+02 -0.53128362566E+01  0.30393523417E+02  0.51100000000E-03 0. -1.
        -11    1    3    3    0    0  0.26320288410E+01 -0.87846775756E+01  0.17125002661E+02  0.19425855253E+02  0.51100000000E-03 0.  1.
        -12    1    3    3    0    0 -0.14753048288E+02  0.12258906207E+02 -0.12030572700E+02  0.22642170715E+02  0.00000000000E+00 0.  1.
</event>
<event>
 7    1  0.1891413E-013  0.7246154E+02  0.7816164E-02  0.1226708E+00
        -11   -1    0    0    0    0  0.00000000000E+00  0.00000000000E+00  0.45593999997E+02  0.45594000000E+02  0.51100000000E-03 0.  1.
         11   -1    0    0    0    0 -0.00000000000E+00 -0.00000000000E+00 -0.45593999997E+02  0.45594000000E+02  0.51100000000E-03 0. -1.
    9900012    2    1    2    0    0 -0.10931307562E+02  0.10785188423E+02  0.10717579735E+02  0.72461540385E+02  0.69999961038E+02 0.  0.
        -12    1    1    2    0    0  0.10931307562E+02 -0.10785188423E+02 -0.10717579735E+02  0.18726459615E+02  0.00000000000E+00 0.  1.
         11    1    3    3    0    0 -0.26999238360E+01  0.12175244412E+02  0.20659471134E+02  0.24131720059E+02  0.51100000000E-03 0. -1.
        -11    1    3    3    0    0  0.15119682561E+02 -0.13549407849E+02 -0.33709859791E+00  0.20305292156E+02  0.51100000000E-03 0.  1.
         12    1    3    3    0    0 -0.23351066287E+02  0.12159351859E+02 -0.96047928013E+01  0.28024528170E+02  0.00000000000E+00 0. -1.
</event>
<event>
 7    1  0.1891413E-013  0.7246156E+02  0.7816164E-02  0.1226708E+00
        -11   -1    0    0    0    0  0.00000000000E+00  0.00000000000E+00  0.45593999997E+02  0.45594000000E+02  0.51100000000E-03 0.  1.
         11   -1    0    0    0    0 -0.00000000000E+00 -0.00000000000E+00 -0.45593999997E+02  0.45594000000E+02  0.51100000000E-03 0. -1.
    9900012    2    1    2    0    0 -0.46164181715E+01  0.11887443132E+02 -0.13713379438E+02  0.72461564232E+02  0.69999992103E+02 0.  0.
        -12    1    1    2    0    0  0.46164181715E+01 -0.11887443132E+02  0.13713379438E+02  0.18726435768E+02  0.00000000000E+00 0.  1.
         11    1    3    3    0    0  0.55488853239E+01  0.36524404243E+01 -0.16016371305E+01  0.68334245551E+01  0.51100000000E-03 0. -1.
        -11    1    3    3    0    0 -0.12562423385E+02 -0.89926786049E+00  0.24645519607E+02  0.27677153050E+02  0.51100000000E-03 0.  1.
         12    1    3    3    0    0  0.23971198895E+01  0.91342705684E+01 -0.36757261914E+02  0.37950986628E+02  0.00000000000E+00 0. -1.
</event>
<event>
 7    1  0.1891413E-013  0.7246206E+02  0.7816164E-02  0.1226707E+00
        -11   -1    0    0    0    0  0.00000000000E+00  0.00000000000E+00  0.45593999997E+02  0.45594000000E+02  0.51100000000E-03 0. -1.
         11   -1    0    0    0    0 -0.00000000000E+00 -0.00000000000E+00 -0.45593999997E+02  0.45594000000E+02  0.51100000000E-03 0.  1.
    9900012    2    1    2    0    0 -0.99213358747E+01 -0.14662322826E+02  0.61028101868E+01  0.72462057877E+02  0.70000635165E+02 0.  0.
        -12    1    1    2    0    0  0.99213358747E+01  0.14662322826E+02 -0.61028101868E+01  0.18725942123E+02  0.00000000000E+00 0.  1.
         11    1    3    3    0    0 -0.73661551384E+01 -0.79302495588E+01  0.19534401303E+02  0.22332530849E+02  0.51100000000E-03 0. -1.
        -11    1    3    3    0    0  0.13797014864E+02 -0.32622550304E+01  0.12749483342E+02  0.19066967582E+02  0.51100000000E-03 0.  1.
         12    1    3    3    0    0 -0.16352195600E+02 -0.34698182373E+01 -0.26181074459E+02  0.31062559446E+02  0.00000000000E+00 0. -1.
</event>
<event>
 7    1  0.1891413E-013  0.7246157E+02  0.7816164E-02  0.1226708E+00
        -11   -1    0    0    0    0  0.00000000000E+00  0.00000000000E+00  0.45593999997E+02  0.45594000000E+02  0.51100000000E-03 0.  1.
         11   -1    0    0    0    0 -0.00000000000E+00 -0.00000000000E+00 -0.45593999997E+02  0.45594000000E+02  0.51100000000E-03 0. -1.
    9900012    2    1    2    0    0  0.13568149872E+01 -0.23294387117E+01 -0.18531373728E+02  0.72461573650E+02  0.70000004371E+02 0.  0.
        -12    1    1    2    0    0 -0.13568149872E+01  0.23294387117E+01  0.18531373728E+02  0.18726426350E+02  0.00000000000E+00 0.  1.
         11    1    3    3    0    0 -0.33755325158E+01  0.13014753485E+02 -0.13828148665E+02  0.19287190666E+02  0.51100000000E-03 0. -1.
        -11    1    3    3    0    0 -0.13851303880E+02  0.45249447849E+00 -0.20038239685E+02  0.24363793227E+02  0.51100000000E-03 0.  1.
        -12    1    3    3    0    0  0.18583651383E+02 -0.15796686675E+02  0.15335014622E+02  0.28810589757E+02  0.00000000000E+00 0.  1.
</event>
<event>
 7    1  0.1891413E-013  0.7246156E+02  0.7816164E-02  0.1226708E+00
        -11   -1    0    0    0    0  0.00000000000E+00  0.00000000000E+00  0.45593999997E+02  0.45594000000E+02  0.51100000000E-03 0. -1.
         11   -1    0    0    0    0 -0.00000000000E+00 -0.00000000000E+00 -0.45593999997E+02  0.45594000000E+02  0.51100000000E-03 0.  1.
    9900012    2    1    2    0    0  0.87811352845E+01  0.16317912747E+02  0.27012570829E+01  0.72461564057E+02  0.69999991875E+02 0.  0.
        -12    1    1    2    0    0 -0.87811352845E+01 -0.16317912747E+02 -0.27012570829E+01  0.18726435943E+02  0.00000000000E+00 0.  1.
         11    1    3    3    0    0  0.34878055702E+01  0.25735778544E+02  0.21336464382E+02  0.33611602127E+02  0.51100000000E-03 0. -1.
        -11    1    3    3    0    0  0.59475458292E+01  0.93447644114E+01  0.16626084581E+01  0.11200990601E+02  0.51100000000E-03 0.  1.
        -12    1    3    3    0    0 -0.65421611495E+00 -0.18762630209E+02 -0.20297815757E+02  0.27648971329E+02  0.00000000000E+00 0.  1.
</event>
<event>
 7    1  0.1891413E-013  0.7246159E+02  0.7816164E-02  0.1226708E+00
        -11   -1    0    0    0    0  0.00000000000E+00  0.00000000000E+00  0.45593999997E+02  0.45594000000E+02  0.51100000000E-03 0. -1.
         11   -1    0    0    0    0 -0.00000000000E+00 -0.00000000000E+00 -0.45593999997E+02  0.45594000000E+02  0.51100000000E-03 0.  1.
    9900012    2    1    2    0    0 -0.16797504317E+02  0.81970833296E+01  0.11532957490E+01  0.72461590374E+02  0.70000026157E+02 0.  0.
        -12    1    1    2    0    0  0.16797504317E+02 -0.81970833296E+01 -0.11532957490E+01  0.18726409626E+02  0.00000000000E+00 0.  1.
         11    1    3    3    0    0 -0.29473079365E+02 -0.22470187646E+01 -0.17004018669E+02  0.34100559405E+02  0.51100000000E-03 0. -1.
        -11    1    3    3    0    0  0.67271210027E+01  0.33627839139E+01 -0.77820541873E+01  0.10822330630E+02  0.51100000000E-03 0.  1.
         12    1    3    3    0    0  0.59484540449E+01  0.70813181804E+01  0.25939368605E+02  0.27538700338E+02  0.00000000000E+00 0. -1.
</event>
<event>
 7    1  0.1891413E-013  0.7246157E+02  0.7816164E-02  0.1226708E+00
        -11   -1    0    0    0    0  0.00000000000E+00  0.00000000000E+00  0.45593999997E+02  0.45594000000E+02  0.51100000000E-03 0. -1.
         11   -1    0    0    0    0 -0.00000000000E+00 -0.00000000000E+00 -0.45593999997E+02  0.45594000000E+02  0.51100000000E-03 0.  1.
    9900012    2    1    2    0    0  0.18626249661E+02  0.19005723738E+01  0.36018257085E+00  0.72461572597E+02  0.70000003000E+02 0.  0.
        -12    1    1    2    0    0 -0.18626249661E+02 -0.19005723738E+01 -0.36018257085E+00  0.18726427403E+02  0.00000000000E+00 0.  1.
         11    1    3    3    0    0  0.11666865122E+02  0.23730703362E+02  0.69169264117E+01  0.27333237918E+02  0.51100000000E-03 0. -1.
        -11    1    3    3    0    0  0.16636462041E+02  0.35267192981E+01 -0.58307353374E+01  0.17977961316E+02  0.51100000000E-03 0.  1.
        -12    1    3    3    0    0 -0.96770775015E+01 -0.25356850286E+02 -0.72600850345E+00  0.27150373363E+02  0.00000000000E+00 0.  1.
</event>
<event>
 7    1  0.1891413E-013  0.7246161E+02  0.7816164E-02  0.1226708E+00
        -11   -1    0    0    0    0  0.00000000000E+00  0.00000000000E+00  0.45593999997E+02  0.45594000000E+02  0.51100000000E-03 0.  1.
         11   -1    0    0    0    0 -0.00000000000E+00 -0.00000000000E+00 -0.45593999997E+02  0.45594000000E+02  0.51100000000E-03 0. -1.
    9900012    2    1    2    0    0 -0.18243654813E+02  0.41911050949E+01 -0.53057451349E+00  0.72461606536E+02  0.70000047211E+02 0.  0.
        -12    1    1    2    0    0  0.18243654813E+02 -0.41911050949E+01  0.53057451349E+00  0.18726393464E+02  0.00000000000E+00 0.  1.
         11    1    3    3    0    0 -0.86266835475E+01 -0.23878036749E+02 -0.60036706021E+01  0.26088778603E+02  0.51100000000E-03 0. -1.
        -11    1    3    3    0    0  0.11880149831E+02  0.12010636825E+02 -0.49232370080E+01  0.17596352459E+02  0.51100000000E-03 0.  1.
        -12    1    3    3    0    0 -0.21497121097E+02  0.16058505019E+02  0.10396333097E+02  0.28776475475E+02  0.00000000000E+00 0.  1.
</event>
<event>
 7    1  0.1891413E-013  0.7246150E+02  0.7816164E-02  0.1226708E+00
        -11   -1    0    0    0    0  0.00000000000E+00  0.00000000000E+00  0.45593999997E+02  0.45594000000E+02  0.51100000000E-03 0.  1.
         11   -1    0    0    0    0 -0.00000000000E+00 -0.00000000000E+00 -0.45593999997E+02  0.45594000000E+02  0.51100000000E-03 0. -1.
    9900012    2    1    2    0    0  0.24316894255E+01 -0.13223846456E+02 -0.13034508927E+02  0.72461504025E+02  0.69999913671E+02 0.  0.
        -12    1    1    2    0    0 -0.24316894255E+01  0.13223846456E+02  0.13034508927E+02  0.18726495975E+02  0.00000000000E+00 0.  1.
         11    1    3    3    0    0 -0.11314433673E+02  0.13314105869E+02  0.88867840622E+01  0.19602468101E+02  0.51100000000E-03 0. -1.
        -11    1    3    3    0    0 -0.29428086707E+01 -0.52984273222E+01  0.95963284445E+01  0.11350020918E+02  0.51100000000E-03 0.  1.
         12    1    3    3    0    0  0.16688931769E+02 -0.21239525003E+02 -0.31517621434E+02  0.41509015006E+02  0.00000000000E+00 0. -1.
</event>
<event>
 7    1  0.1891413E-013  0.7246156E+02  0.7816164E-02  0.1226708E+00
        -11   -1    0    0    0    0  0.00000000000E+00  0.00000000000E+00  0.45593999997E+02  0.45594000000E+02  0.51100000000E-03 0.  1.
         11   -1    0    0    0    0 -0.00000000000E+00 -0.00000000000E+00 -0.45593999997E+02  0.45594000000E+02  0.51100000000E-03 0. -1.
    9900012    2    1    2    0    0  0.65028405106E+01 -0.45759476963E+01 -0.16954446168E+02  0.72461562088E+02  0.69999989309E+02 0.  0.
        -12    1    1    2    0    0 -0.65028405106E+01  0.45759476963E+01  0.16954446168E+02  0.18726437912E+02  0.00000000000E+00 0.  1.
         11    1    3    3    0    0  0.13054596253E+02 -0.72264518240E+01 -0.72073237929E+01  0.16570745481E+02  0.51100000000E-03 0. -1.
        -11    1    3    3    0    0  0.10153377919E+01  0.17245875845E+02 -0.27003375606E+02  0.32056722210E+02  0.51100000000E-03 0.  1.
        -12    1    3    3    0    0 -0.75670935341E+01 -0.14595371718E+02  0.17256253231E+02  0.23834094396E+02  0.00000000000E+00 0.  1.
</event>
<event>
 7    1  0.1891413E-013  0.7246148E+02  0.7816164E-02  0.1226708E+00
        -11   -1    0    0    0    0  0.00000000000E+00  0.00000000000E+00  0.45593999997E+02  0.45594000000E+02  0.51100000000E-03 0.  1.
         11   -1    0    0    0    0 -0.00000000000E+00 -0.00000000000E+00 -0.45593999997E+02  0.45594000000E+02  0.51100000000E-03 0. -1.
    9900012    2    1    2    0    0 -0.16288937073E+02  0.88343891564E+01 -0.27030946549E+01  0.72461478074E+02  0.69999879865E+02 0.  0.
        -12    1    1    2    0    0  0.16288937073E+02 -0.88343891564E+01  0.27030946549E+01  0.18726521926E+02  0.00000000000E+00 0.  1.
         11    1    3    3    0    0 -0.14243199946E+02 -0.44093302289E+01  0.56554866796E+01  0.15946644400E+02  0.51100000000E-03 0. -1.
        -11    1    3    3    0    0  0.31140396362E+01 -0.44500384520E+01  0.21087822868E+02  0.21776050116E+02  0.51100000000E-03 0.  1.
         12    1    3    3    0    0 -0.51597767638E+01  0.17693757837E+02 -0.29446404202E+02  0.34738783558E+02  0.00000000000E+00 0. -1.
</event>
<event>
 7    1  0.1891413E-013  0.7246161E+02  0.7816164E-02  0.1226708E+00
        -11   -1    0    0    0    0  0.00000000000E+00  0.00000000000E+00  0.45593999997E+02  0.45594000000E+02  0.51100000000E-03 0. -1.
         11   -1    0    0    0    0 -0.00000000000E+00 -0.00000000000E+00 -0.45593999997E+02  0.45594000000E+02  0.51100000000E-03 0.  1.
    9900012    2    1    2    0    0 -0.15224776193E+02 -0.10974614206E+01  0.10848020799E+02  0.72461607209E+02  0.70000048089E+02 0.  0.
        -12    1    1    2    0    0  0.15224776193E+02  0.10974614206E+01 -0.10848020799E+02  0.18726392791E+02  0.00000000000E+00 0.  1.
         11    1    3    3    0    0 -0.94823743372E+01 -0.23917320604E+02  0.23962501757E+01  0.25839807722E+02  0.51100000000E-03 0. -1.
        -11    1    3    3    0    0 -0.11572481994E+02 -0.79687237816E+01 -0.41140744809E+00  0.14056747652E+02  0.51100000000E-03 0.  1.
        -12    1    3    3    0    0  0.58300801386E+01  0.30788582966E+02  0.88631780715E+01  0.32565051834E+02  0.00000000000E+00 0.  1.
</event>
<event>
 7    1  0.1891413E-013  0.7246156E+02  0.7816164E-02  0.1226708E+00
        -11   -1    0    0    0    0  0.00000000000E+00  0.00000000000E+00  0.45593999997E+02  0.45594000000E+02  0.51100000000E-03 0.  1.
         11   -1    0    0    0    0 -0.00000000000E+00 -0.00000000000E+00 -0.45593999997E+02  0.45594000000E+02  0.51100000000E-03 0. -1.
    9900012    2    1    2    0    0 -0.12684224836E+02 -0.12324813849E+02  0.61554099510E+01  0.72461556991E+02  0.69999982669E+02 0.  0.
        -12    1    1    2    0    0  0.12684224836E+02  0.12324813849E+02 -0.61554099510E+01  0.18726443009E+02  0.00000000000E+00 0.  1.
         11    1    3    3    0    0 -0.38788926603E+01 -0.25638467269E+02 -0.17549824102E+02  0.31310910853E+02  0.51100000000E-03 0. -1.
        -11    1    3    3    0    0 -0.13144654763E+02 -0.45528557617E+01  0.46397898289E+01  0.14664177247E+02  0.51100000000E-03 0.  1.
        -12    1    3    3    0    0  0.43393225870E+01  0.17866509181E+02  0.19065444224E+02  0.26486468890E+02  0.00000000000E+00 0.  1.
</event>
<event>
 7    1  0.1891413E-013  0.7246160E+02  0.7816164E-02  0.1226708E+00
        -11   -1    0    0    0    0  0.00000000000E+00  0.00000000000E+00  0.45593999997E+02  0.45594000000E+02  0.51100000000E-03 0.  1.
         11   -1    0    0    0    0 -0.00000000000E+00 -0.00000000000E+00 -0.45593999997E+02  0.45594000000E+02  0.51100000000E-03 0. -1.
    9900012    2    1    2    0    0 -0.14019273310E+02 -0.60649860502E+01  0.10833008946E+02  0.72461597175E+02  0.70000035017E+02 0.  0.
        -12    1    1    2    0    0  0.14019273310E+02  0.60649860502E+01 -0.10833008946E+02  0.18726402825E+02  0.00000000000E+00 0.  1.
         11    1    3    3    0    0 -0.20220789009E+02  0.15470648482E+02 -0.49346873768E+01  0.25934001087E+02  0.51100000000E-03 0. -1.
        -11    1    3    3    0    0 -0.14175176506E+02 -0.98422678623E+00  0.15819538027E+01  0.14297094441E+02  0.51100000000E-03 0.  1.
        -12    1    3    3    0    0  0.20376692205E+02 -0.20551407746E+02  0.14185742521E+02  0.32230501647E+02  0.00000000000E+00 0.  1.
</event>
<event>
 7    1  0.1891413E-013  0.7246155E+02  0.7816164E-02  0.1226708E+00
        -11   -1    0    0    0    0  0.00000000000E+00  0.00000000000E+00  0.45593999997E+02  0.45594000000E+02  0.51100000000E-03 0. -1.
         11   -1    0    0    0    0 -0.00000000000E+00 -0.00000000000E+00 -0.45593999997E+02  0.45594000000E+02  0.51100000000E-03 0.  1.
    9900012    2    1    2    0    0  0.12709933152E+02 -0.63356261467E+01  0.12206446554E+02  0.72461550874E+02  0.69999974702E+02 0.  0.
        -12    1    1    2    0    0 -0.12709933152E+02  0.63356261467E+01 -0.12206446554E+02  0.18726449126E+02  0.00000000000E+00 0.  1.
         11    1    3    3    0    0 -0.65626539809E+01 -0.25808950389E+02 -0.33853097568E+01  0.26844564996E+02  0.51100000000E-03 0. -1.
        -11    1    3    3    0    0 -0.85363122131E+01  0.53982311379E+01  0.94868123034E+01  0.13856736036E+02  0.51100000000E-03 0.  1.
        -12    1    3    3    0    0  0.27808899346E+02  0.14075093104E+02  0.61049440071E+01  0.31760249842E+02  0.00000000000E+00 0.  1.
</event>
<event>
 7    1  0.1891413E-013  0.7246159E+02  0.7816164E-02  0.1226708E+00
        -11   -1    0    0    0    0  0.00000000000E+00  0.00000000000E+00  0.45593999997E+02  0.45594000000E+02  0.51100000000E-03 0. -1.
         11   -1    0    0    0    0 -0.00000000000E+00 -0.00000000000E+00 -0.45593999997E+02  0.45594000000E+02  0.51100000000E-03 0.  1.
    9900012    2    1    2    0    0 -0.39532719047E+01 -0.26208653184E+01  0.18115772166E+02  0.72461588306E+02  0.70000023464E+02 0.  0.
        -12    1    1    2    0    0  0.39532719047E+01  0.26208653184E+01 -0.18115772166E+02  0.18726411694E+02  0.00000000000E+00 0.  1.
         11    1    3    3    0    0 -0.23292135587E+02  0.19284183865E+02 -0.13238051904E+01  0.30268065482E+02  0.51100000000E-03 0. -1.
        -11    1    3    3    0    0 -0.26407370841E+01  0.26929502396E+01 -0.24457629831E+00  0.37795887564E+01  0.51100000000E-03 0.  1.
         12    1    3    3    0    0  0.21979600767E+02 -0.24597999423E+02  0.19684153655E+02  0.38413934068E+02  0.00000000000E+00 0. -1.
</event>
<event>
 7    1  0.1891413E-013  0.7246157E+02  0.7816164E-02  0.1226708E+00
        -11   -1    0    0    0    0  0.00000000000E+00  0.00000000000E+00  0.45593999997E+02  0.45594000000E+02  0.51100000000E-03 0. -1.
         11   -1    0    0    0    0 -0.00000000000E+00 -0.00000000000E+00 -0.45593999997E+02  0.45594000000E+02  0.51100000000E-03 0.  1.
    9900012    2    1    2    0    0  0.16622580444E+02  0.20172453360E+01  0.83845019540E+01  0.72461565946E+02  0.69999994336E+02 0.  0.
        -12    1    1    2    0    0 -0.16622580444E+02 -0.20172453360E+01 -0.83845019540E+01  0.18726434054E+02  0.00000000000E+00 0.  1.
         11    1    3    3    0    0  0.42325118118E-01  0.69970778403E+01 -0.26795440971E+01  0.74927195695E+01  0.51100000000E-03 0.  1.
        -11    1    3    3    0    0 -0.16045542122E+02  0.17383159060E+02 -0.81072729787E+00  0.23670465139E+02  0.51100000000E-03 0. -1.
        -12    1    3    3    0    0  0.32625797447E+02 -0.22362991564E+02  0.11874773349E+02  0.41298381238E+02  0.00000000000E+00 0.  1.
</event>
<event>
 7    1  0.1891413E-013  0.7246151E+02  0.7816164E-02  0.1226708E+00
        -11   -1    0    0    0    0  0.00000000000E+00  0.00000000000E+00  0.45593999997E+02  0.45594000000E+02  0.51100000000E-03 0. -1.
         11   -1    0    0    0    0 -0.00000000000E+00 -0.00000000000E+00 -0.45593999997E+02  0.45594000000E+02  0.51100000000E-03 0.  1.
    9900012    2    1    2    0    0  0.12010348233E+02  0.18594049109E+01  0.14246943826E+02  0.72461514486E+02  0.69999927300E+02 0.  0.
        -12    1    1    2    0    0 -0.12010348233E+02 -0.18594049109E+01 -0.14246943826E+02  0.18726485514E+02  0.00000000000E+00 0.  1.
         11    1    3    3    0    0  0.11906918608E+02  0.20357309833E+01  0.57303681675E+01  0.13369967501E+02  0.51100000000E-03 0. -1.
        -11    1    3    3    0    0  0.25819940564E+02 -0.13821466037E+02  0.27680657743E+01  0.29417077396E+02  0.51100000000E-03 0.  1.
         12    1    3    3    0    0 -0.25716510939E+02  0.13645139965E+02  0.57485098844E+01  0.29674469590E+02  0.00000000000E+00 0. -1.
</event>
<event>
 7    1  0.1891413E-013  0.7246157E+02  0.7816164E-02  0.1226708E+00
        -11   -1    0    0    0    0  0.00000000000E+00  0.00000000000E+00  0.45593999997E+02  0.45594000000E+02  0.51100000000E-03 0. -1.
         11   -1    0    0    0    0 -0.00000000000E+00 -0.00000000000E+00 -0.45593999997E+02  0.45594000000E+02  0.51100000000E-03 0.  1.
    9900012    2    1    2    0    0  0.13152028628E+01 -0.12409825565E+02  0.13962296298E+02  0.72461568225E+02  0.69999997304E+02 0.  0.
        -12    1    1    2    0    0 -0.13152028628E+01  0.12409825565E+02 -0.13962296298E+02  0.18726431775E+02  0.00000000000E+00 0.  1.
         11    1    3    3    0    0  0.11021105405E+02 -0.74836139241E+01 -0.54354150339E+01  0.14387945599E+02  0.51100000000E-03 0. -1.
        -11    1    3    3    0    0 -0.11793263692E+02  0.19643963527E+02 -0.49274624161E+01  0.23436003450E+02  0.51100000000E-03 0.  1.
         12    1    3    3    0    0  0.20873611501E+01 -0.24570175167E+02  0.24325173748E+02  0.34637619176E+02  0.00000000000E+00 0. -1.
</event>
<event>
 7    1  0.1891413E-013  0.7246155E+02  0.7816164E-02  0.1226708E+00
        -11   -1    0    0    0    0  0.00000000000E+00  0.00000000000E+00  0.45593999997E+02  0.45594000000E+02  0.51100000000E-03 0. -1.
         11   -1    0    0    0    0 -0.00000000000E+00 -0.00000000000E+00 -0.45593999997E+02  0.45594000000E+02  0.51100000000E-03 0.  1.
    9900012    2    1    2    0    0 -0.60237719266E+01 -0.52281579276E+01  0.16942858694E+02  0.72461550142E+02  0.69999973748E+02 0.  0.
        -12    1    1    2    0    0  0.60237719266E+01  0.52281579276E+01 -0.16942858694E+02  0.18726449858E+02  0.00000000000E+00 0.  1.
         11    1    3    3    0    0 -0.87718461814E+01  0.23279601800E+01  0.44668385805E+01  0.10115202973E+02  0.51100000000E-03 0. -1.
        -11    1    3    3    0    0  0.76806746475E+01 -0.33482389360E+02  0.10312106562E+02  0.35866456506E+02  0.51100000000E-03 0.  1.
         12    1    3    3    0    0 -0.49326003927E+01  0.25926271252E+02  0.21639135524E+01  0.26479890663E+02  0.00000000000E+00 0. -1.
</event>
<event>
 7    1  0.1891413E-013  0.7246146E+02  0.7816164E-02  0.1226708E+00
        -11   -1    0    0    0    0  0.00000000000E+00  0.00000000000E+00  0.45593999997E+02  0.45594000000E+02  0.51100000000E-03 0.  1.
         11   -1    0    0    0    0 -0.00000000000E+00 -0.00000000000E+00 -0.45593999997E+02  0.45594000000E+02  0.51100000000E-03 0. -1.
    9900012    2    1    2    0    0  0.14265781736E+02  0.83208741973E+01 -0.88280221850E+01  0.72461455961E+02  0.69999851059E+02 0.  0.
        -12    1    1    2    0    0 -0.14265781736E+02 -0.83208741973E+01  0.88280221850E+01  0.18726544039E+02  0.00000000000E+00 0.  1.
         11    1    3    3    0    0 -0.34143287350E+01 -0.55322956699E+01 -0.24799143079E+02  0.25637110481E+02  0.51100000000E-03 0. -1.
        -11    1    3    3    0    0 -0.39863026209E+01  0.55123025556E+01 -0.99328573935E+01  0.12039009274E+02  0.51100000000E-03 0.  1.
        -12    1    3    3    0    0  0.21666413092E+02  0.83408673116E+01  0.25903978288E+02  0.34785336205E+02  0.00000000000E+00 0.  1.
</event>
<event>
 7    1  0.1891413E-013  0.7246161E+02  0.7816164E-02  0.1226708E+00
        -11   -1    0    0    0    0  0.00000000000E+00  0.00000000000E+00  0.45593999997E+02  0.45594000000E+02  0.51100000000E-03 0.  1.
         11   -1    0    0    0    0 -0.00000000000E+00 -0.00000000000E+00 -0.45593999997E+02  0.45594000000E+02  0.51100000000E-03 0. -1.
    9900012    2    1    2    0    0 -0.51274793739E+01  0.17150235313E+02  0.55005630637E+01  0.72461606593E+02  0.70000047286E+02 0.  0.
        -12    1    1    2    0    0  0.51274793739E+01 -0.17150235313E+02 -0.55005630637E+01  0.18726393407E+02  0.00000000000E+00 0.  1.
         11    1    3    3    0    0 -0.18683892795E+02 -0.29133857546E+01 -0.17020763917E+02  0.25441738760E+02  0.51100000000E-03 0. -1.
        -11    1    3    3    0    0 -0.94229569869E+01  0.97503722637E+01  0.50910668841E+00  0.13569121841E+02  0.51100000000E-03 0.  1.
         12    1    3    3    0    0  0.22979370408E+02  0.10313248804E+02  0.22012220292E+02  0.33450745992E+02  0.00000000000E+00 0. -1.
</event>
<event>
 7    1  0.1891413E-013  0.7246154E+02  0.7816164E-02  0.1226708E+00
        -11   -1    0    0    0    0  0.00000000000E+00  0.00000000000E+00  0.45593999997E+02  0.45594000000E+02  0.51100000000E-03 0.  1.
         11   -1    0    0    0    0 -0.00000000000E+00 -0.00000000000E+00 -0.45593999997E+02  0.45594000000E+02  0.51100000000E-03 0. -1.
    9900012    2    1    2    0    0  0.26896051222E+01  0.17151678780E+02 -0.70189813908E+01  0.72461543836E+02  0.69999965534E+02 0.  0.
        -12    1    1    2    0    0 -0.26896051222E+01 -0.17151678780E+02  0.70189813908E+01  0.18726456164E+02  0.00000000000E+00 0.  1.
         11    1    3    3    0    0 -0.10123704730E+02  0.25561102479E+02 -0.11443211136E+02  0.29779295471E+02  0.51100000000E-03 0. -1.
        -11    1    3    3    0    0  0.48993112505E+01  0.12951276938E+02 -0.87379098611E+01  0.16373450890E+02  0.51100000000E-03 0.  1.
        -12    1    3    3    0    0  0.79139986013E+01 -0.21360700637E+02  0.13162139606E+02  0.26308797475E+02  0.00000000000E+00 0.  1.
</event>
<event>
 7    1  0.1891413E-013  0.7246157E+02  0.7816164E-02  0.1226708E+00
        -11   -1    0    0    0    0  0.00000000000E+00  0.00000000000E+00  0.45593999997E+02  0.45594000000E+02  0.51100000000E-03 0. -1.
         11   -1    0    0    0    0 -0.00000000000E+00 -0.00000000000E+00 -0.45593999997E+02  0.45594000000E+02  0.51100000000E-03 0.  1.
    9900012    2    1    2    0    0 -0.85501541805E+01 -0.15844864428E+02  0.51492056439E+01  0.72461569908E+02  0.69999999496E+02 0.  0.
        -12    1    1    2    0    0  0.85501541805E+01  0.15844864428E+02 -0.51492056439E+01  0.18726430092E+02  0.00000000000E+00 0.  1.
         11    1    3    3    0    0 -0.34863979918E+01 -0.26082552611E+02  0.18238301678E+02  0.32017029375E+02  0.51100000000E-03 0. -1.
        -11    1    3    3    0    0 -0.15544980940E+02 -0.66321310788E+01 -0.45667790020E+00  0.16906807801E+02  0.51100000000E-03 0.  1.
        -12    1    3    3    0    0  0.10481224751E+02  0.16869819262E+02 -0.12632418134E+02  0.23537732731E+02  0.00000000000E+00 0.  1.
</event>
<event>
 7    1  0.1891413E-013  0.7246127E+02  0.7816164E-02  0.1226709E+00
        -11   -1    0    0    0    0  0.00000000000E+00  0.00000000000E+00  0.45593999997E+02  0.45594000000E+02  0.51100000000E-03 0. -1.
         11   -1    0    0    0    0 -0.00000000000E+00 -0.00000000000E+00 -0.45593999997E+02  0.45594000000E+02  0.51100000000E-03 0.  1.
    9900012    2    1    2    0    0  0.31736238930E+01 -0.86803918780E+01  0.16287091455E+02  0.72461269377E+02  0.69999607998E+02 0.  0.
        -12    1    1    2    0    0 -0.31736238930E+01  0.86803918780E+01 -0.16287091455E+02  0.18726730623E+02  0.00000000000E+00 0.  1.
         11    1    3    3    0    0  0.35188369370E+01 -0.34123978112E+01 -0.33536215863E+01  0.59391455796E+01  0.51100000000E-03 0. -1.
        -11    1    3    3    0    0  0.27666696415E+02  0.11528210483E+02  0.37693833646E+01  0.30208508382E+02  0.51100000000E-03 0.  1.
         12    1    3    3    0    0 -0.28011909459E+02 -0.16796204550E+02  0.15871329677E+02  0.36313615415E+02  0.00000000000E+00 0. -1.
</event>
<event>
 7    1  0.1891413E-013  0.7246152E+02  0.7816164E-02  0.1226708E+00
        -11   -1    0    0    0    0  0.00000000000E+00  0.00000000000E+00  0.45593999997E+02  0.45594000000E+02  0.51100000000E-03 0.  1.
         11   -1    0    0    0    0 -0.00000000000E+00 -0.00000000000E+00 -0.45593999997E+02  0.45594000000E+02  0.51100000000E-03 0. -1.
    9900012    2    1    2    0    0  0.11787509907E+02  0.40907390286E+01 -0.13964299858E+02  0.72461515917E+02  0.69999929163E+02 0.  0.
        -12    1    1    2    0    0 -0.11787509907E+02 -0.40907390286E+01  0.13964299858E+02  0.18726484083E+02  0.00000000000E+00 0.  1.
         11    1    3    3    0    0 -0.16223375944E+02  0.16782357486E+02 -0.15900295758E+02  0.28242961163E+02  0.51100000000E-03 0. -1.
        -11    1    3    3    0    0 -0.27453708666E+01  0.30951539819E+00  0.95741698473E+01  0.99648175850E+01  0.51100000000E-03 0.  1.
         12    1    3    3    0    0  0.30756256717E+02 -0.13001133856E+02 -0.76381739471E+01  0.34253737169E+02  0.00000000000E+00 0. -1.
</event>
<event>
 7    1  0.1891413E-013  0.7246157E+02  0.7816164E-02  0.1226708E+00
        -11   -1    0    0    0    0  0.00000000000E+00  0.00000000000E+00  0.45593999997E+02  0.45594000000E+02  0.51100000000E-03 0. -1.
         11   -1    0    0    0    0 -0.00000000000E+00 -0.00000000000E+00 -0.45593999997E+02  0.45594000000E+02  0.51100000000E-03 0.  1.
    9900012    2    1    2    0    0 -0.14112575769E+02  0.11925715458E+02 -0.30482573217E+01  0.72461565296E+02  0.69999993488E+02 0.  0.
        -12    1    1    2    0    0  0.14112575769E+02 -0.11925715458E+02  0.30482573217E+01  0.18726434704E+02  0.00000000000E+00 0.  1.
         11    1    3    3    0    0 -0.14706290664E+02  0.79382952354E+01  0.81263851248E+01  0.18583047430E+02  0.51100000000E-03 0. -1.
        -11    1    3    3    0    0 -0.15781924162E+02 -0.15662262591E+02  0.60474643569E+01  0.23042296438E+02  0.51100000000E-03 0.  1.
         12    1    3    3    0    0  0.16375639056E+02  0.19649682814E+02 -0.17222106803E+02  0.30836221428E+02  0.00000000000E+00 0. -1.
</event>
<event>
 7    1  0.1891413E-013  0.7246166E+02  0.7816164E-02  0.1226708E+00
        -11   -1    0    0    0    0  0.00000000000E+00  0.00000000000E+00  0.45593999997E+02  0.45594000000E+02  0.51100000000E-03 0.  1.
         11   -1    0    0    0    0 -0.00000000000E+00 -0.00000000000E+00 -0.45593999997E+02  0.45594000000E+02  0.51100000000E-03 0. -1.
    9900012    2    1    2    0    0 -0.73671271233E+01  0.12487706950E+02 -0.11851517988E+02  0.72461658512E+02  0.70000114919E+02 0.  0.
        -12    1    1    2    0    0  0.73671271233E+01 -0.12487706950E+02  0.11851517988E+02  0.18726341488E+02  0.00000000000E+00 0.  1.
         11    1    3    3    0    0 -0.32255172983E+02 -0.89279995849E+01 -0.49416408789E+01  0.33830831731E+02  0.51100000000E-03 0. -1.
        -11    1    3    3    0    0 -0.23243021050E+01  0.75815636042E+00 -0.35370535419E+01  0.42997592213E+01  0.51100000000E-03 0.  1.
        -12    1    3    3    0    0  0.27212347965E+02  0.20657550175E+02 -0.33728235673E+01  0.34331067560E+02  0.00000000000E+00 0.  1.
</event>
<event>
 7    1  0.1891413E-013  0.7246158E+02  0.7816164E-02  0.1226708E+00
        -11   -1    0    0    0    0  0.00000000000E+00  0.00000000000E+00  0.45593999997E+02  0.45594000000E+02  0.51100000000E-03 0.  1.
         11   -1    0    0    0    0 -0.00000000000E+00 -0.00000000000E+00 -0.45593999997E+02  0.45594000000E+02  0.51100000000E-03 0. -1.
    9900012    2    1    2    0    0 -0.26509511501E+01 -0.40347931540E+01 -0.18093420565E+02  0.72461575741E+02  0.70000007095E+02 0.  0.
        -12    1    1    2    0    0  0.26509511501E+01  0.40347931540E+01  0.18093420565E+02  0.18726424259E+02  0.00000000000E+00 0.  1.
         11    1    3    3    0    0  0.31737721824E+01 -0.85021090121E+01 -0.12712176040E+02  0.15619158347E+02  0.51100000000E-03 0. -1.
        -11    1    3    3    0    0  0.24527096440E+02  0.68421564608E+00  0.39754378790E+01  0.24856603095E+02  0.51100000000E-03 0.  1.
        -12    1    3    3    0    0 -0.30351819773E+02  0.37831002121E+01 -0.93566824041E+01  0.31985814299E+02  0.00000000000E+00 0.  1.
</event>
<event>
 7    1  0.1891413E-013  0.7246159E+02  0.7816164E-02  0.1226708E+00
        -11   -1    0    0    0    0  0.00000000000E+00  0.00000000000E+00  0.45593999997E+02  0.45594000000E+02  0.51100000000E-03 0.  1.
         11   -1    0    0    0    0 -0.00000000000E+00 -0.00000000000E+00 -0.45593999997E+02  0.45594000000E+02  0.51100000000E-03 0. -1.
    9900012    2    1    2    0    0 -0.13249344064E+02 -0.70601106278E+01  0.11193225871E+02  0.72461585886E+02  0.70000020311E+02 0.  0.
        -12    1    1    2    0    0  0.13249344064E+02  0.70601106278E+01 -0.11193225871E+02  0.18726414114E+02  0.00000000000E+00 0.  1.
         11    1    3    3    0    0 -0.47726652710E+01  0.45839418500E+01  0.31678489930E+00  0.66250441211E+01  0.51100000000E-03 0. -1.
        -11    1    3    3    0    0 -0.34061462289E+02  0.55382687932E+00  0.14949065932E+02  0.37201673484E+02  0.51100000000E-03 0.  1.
         12    1    3    3    0    0  0.25584783497E+02 -0.12197879357E+02 -0.40726249602E+01  0.28634868281E+02  0.00000000000E+00 0. -1.
</event>
<event>
 7    1  0.1891413E-013  0.7246168E+02  0.7816164E-02  0.1226708E+00
        -11   -1    0    0    0    0  0.00000000000E+00  0.00000000000E+00  0.45593999997E+02  0.45594000000E+02  0.51100000000E-03 0. -1.
         11   -1    0    0    0    0 -0.00000000000E+00 -0.00000000000E+00 -0.45593999997E+02  0.45594000000E+02  0.51100000000E-03 0.  1.
    9900012    2    1    2    0    0  0.12023199425E+02 -0.13401304420E+02 -0.51500118115E+01  0.72461684126E+02  0.70000148286E+02 0.  0.
        -12    1    1    2    0    0 -0.12023199425E+02  0.13401304420E+02  0.51500118115E+01  0.18726315874E+02  0.00000000000E+00 0.  1.
         11    1    3    3    0    0  0.12493852076E+02  0.55918718186E+01  0.34680697523E+00  0.13692539774E+02  0.51100000000E-03 0. -1.
        -11    1    3    3    0    0 -0.77340516878E+01 -0.18326450542E+02 -0.28433469488E+02  0.34700670488E+02  0.51100000000E-03 0.  1.
         12    1    3    3    0    0  0.72633990374E+01 -0.66672569648E+00  0.22936650701E+02  0.24068473863E+02  0.00000000000E+00 0. -1.
</event>
<event>
 7    1  0.1891413E-013  0.7246157E+02  0.7816164E-02  0.1226708E+00
        -11   -1    0    0    0    0  0.00000000000E+00  0.00000000000E+00  0.45593999997E+02  0.45594000000E+02  0.51100000000E-03 0.  1.
         11   -1    0    0    0    0 -0.00000000000E+00 -0.00000000000E+00 -0.45593999997E+02  0.45594000000E+02  0.51100000000E-03 0. -1.
    9900012    2    1    2    0    0 -0.23307991701E+01  0.16635862288E+02 -0.82761465376E+01  0.72461571074E+02  0.70000001015E+02 0.  0.
        -12    1    1    2    0    0  0.23307991701E+01 -0.16635862288E+02  0.82761465376E+01  0.18726428926E+02  0.00000000000E+00 0.  1.
         11    1    3    3    0    0 -0.18008103021E+02  0.41841277054E+01 -0.32286081963E+02  0.37204701152E+02  0.51100000000E-03 0. -1.
        -11    1    3    3    0    0  0.20863237439E+01  0.54908752321E+01 -0.99557945617E+00  0.59576535896E+01  0.51100000000E-03 0.  1.
        -12    1    3    3    0    0  0.13590980107E+02  0.69608593502E+01  0.25005514881E+02  0.29299216332E+02  0.00000000000E+00 0.  1.
</event>
<event>
 7    1  0.1891413E-013  0.7246159E+02  0.7816164E-02  0.1226708E+00
        -11   -1    0    0    0    0  0.00000000000E+00  0.00000000000E+00  0.45593999997E+02  0.45594000000E+02  0.51100000000E-03 0. -1.
         11   -1    0    0    0    0 -0.00000000000E+00 -0.00000000000E+00 -0.45593999997E+02  0.45594000000E+02  0.51100000000E-03 0.  1.
    9900012    2    1    2    0    0  0.12678424926E+02  0.13268351511E+02 -0.37264917176E+01  0.72461592151E+02  0.70000028472E+02 0.  0.
        -12    1    1    2    0    0 -0.12678424926E+02 -0.13268351511E+02  0.37264917176E+01  0.18726407849E+02  0.00000000000E+00 0.  1.
         11    1    3    3    0    0 -0.23145715799E+01  0.49570177162E+01 -0.83450168919E+01  0.99784053548E+01  0.51100000000E-03 0. -1.
        -11    1    3    3    0    0  0.67716651553E+01 -0.84367844376E+01 -0.25134811692E+02  0.27364092158E+02  0.51100000000E-03 0.  1.
         12    1    3    3    0    0  0.82213313505E+01  0.16748118232E+02  0.29753336866E+02  0.35119094637E+02  0.00000000000E+00 0. -1.
</event>
<event>
 7    1  0.1891413E-013  0.7246158E+02  0.7816164E-02  0.1226708E+00
        -11   -1    0    0    0    0  0.00000000000E+00  0.00000000000E+00  0.45593999997E+02  0.45594000000E+02  0.51100000000E-03 0. -1.
         11   -1    0    0    0    0 -0.00000000000E+00 -0.00000000000E+00 -0.45593999997E+02  0.45594000000E+02  0.51100000000E-03 0.  1.
    9900012    2    1    2    0    0  0.30932388515E+01  0.18094837791E+02  0.36996710630E+01  0.72461578899E+02  0.70000011210E+02 0.  0.
        -12    1    1    2    0    0 -0.30932388515E+01 -0.18094837791E+02 -0.36996710630E+01  0.18726421101E+02  0.00000000000E+00 0.  1.
         11    1    3    3    0    0 -0.12910770149E+02 -0.72791866932E+01  0.20480385916E+02  0.25280837650E+02  0.51100000000E-03 0. -1.
        -11    1    3    3    0    0  0.14941113357E+02  0.24652647935E+02  0.14895679688E+01  0.28865355213E+02  0.51100000000E-03 0.  1.
        -12    1    3    3    0    0  0.10628956434E+01  0.72137654885E+00 -0.18270282822E+02  0.18315386037E+02  0.00000000000E+00 0.  1.
</event>
<event>
 7    1  0.1891413E-013  0.7246198E+02  0.7816164E-02  0.1226707E+00
        -11   -1    0    0    0    0  0.00000000000E+00  0.00000000000E+00  0.45593999997E+02  0.45594000000E+02  0.51100000000E-03 0. -1.
         11   -1    0    0    0    0 -0.00000000000E+00 -0.00000000000E+00 -0.45593999997E+02  0.45594000000E+02  0.51100000000E-03 0.  1.
    9900012    2    1    2    0    0  0.65092013090E+01  0.13225552686E+02  0.11548972075E+02  0.72461983298E+02  0.70000538012E+02 0.  0.
        -12    1    1    2    0    0 -0.65092013090E+01 -0.13225552686E+02 -0.11548972075E+02  0.18726016702E+02  0.00000000000E+00 0.  1.
         11    1    3    3    0    0  0.32382644545E+01 -0.39518679716E+01  0.82428259979E+00  0.51752351838E+01  0.51100000000E-03 0. -1.
        -11    1    3    3    0    0  0.21112678013E+02 -0.36887735776E+01 -0.17679418488E+02  0.27783341443E+02  0.51100000000E-03 0.  1.
         12    1    3    3    0    0 -0.17841741159E+02  0.20866194235E+02  0.28404107964E+02  0.39503406671E+02  0.00000000000E+00 0. -1.
</event>
<event>
 7    1  0.1891413E-013  0.7246156E+02  0.7816164E-02  0.1226708E+00
        -11   -1    0    0    0    0  0.00000000000E+00  0.00000000000E+00  0.45593999997E+02  0.45594000000E+02  0.51100000000E-03 0.  1.
         11   -1    0    0    0    0 -0.00000000000E+00 -0.00000000000E+00 -0.45593999997E+02  0.45594000000E+02  0.51100000000E-03 0. -1.
    9900012    2    1    2    0    0 -0.21672593349E+00  0.10628472939E+02 -0.15416484308E+02  0.72461564259E+02  0.69999992138E+02 0.  0.
        -12    1    1    2    0    0  0.21672593349E+00 -0.10628472939E+02  0.15416484308E+02  0.18726435741E+02  0.00000000000E+00 0.  1.
         11    1    3    3    0    0  0.41962344073E+01 -0.20996618172E+02  0.13516490337E+02  0.25321174324E+02  0.51100000000E-03 0. -1.
        -11    1    3    3    0    0 -0.14928273591E+01 -0.18355257394E+01 -0.60560862570E+01  0.65018358390E+01  0.51100000000E-03 0.  1.
        -12    1    3    3    0    0 -0.29201329817E+01  0.33460616851E+02 -0.22876888387E+02  0.40638554096E+02  0.00000000000E+00 0.  1.
</event>
<event>
 7    1  0.1891413E-013  0.7246160E+02  0.7816164E-02  0.1226708E+00
        -11   -1    0    0    0    0  0.00000000000E+00  0.00000000000E+00  0.45593999997E+02  0.45594000000E+02  0.51100000000E-03 0.  1.
         11   -1    0    0    0    0 -0.00000000000E+00 -0.00000000000E+00 -0.45593999997E+02  0.45594000000E+02  0.51100000000E-03 0. -1.
    9900012    2    1    2    0    0 -0.52924670417E+01 -0.14663613701E+02 -0.10375279610E+02  0.72461596150E+02  0.70000033682E+02 0.  0.
        -12    1    1    2    0    0  0.52924670417E+01  0.14663613701E+02  0.10375279610E+02  0.18726403850E+02  0.00000000000E+00 0.  1.
         11    1    3    3    0    0 -0.14533640643E+02 -0.28726523677E+02 -0.82662995515E+01  0.33238104360E+02  0.51100000000E-03 0. -1.
        -11    1    3    3    0    0 -0.49132230530E+01  0.68204266535E+01  0.14165240619E+02  0.16471551917E+02  0.51100000000E-03 0.  1.
        -12    1    3    3    0    0  0.14154396654E+02  0.72424833225E+01 -0.16274220678E+02  0.22751939873E+02  0.00000000000E+00 0.  1.
</event>
<event>
 7    1  0.1891413E-013  0.7246156E+02  0.7816164E-02  0.1226708E+00
        -11   -1    0    0    0    0  0.00000000000E+00  0.00000000000E+00  0.45593999997E+02  0.45594000000E+02  0.51100000000E-03 0.  1.
         11   -1    0    0    0    0 -0.00000000000E+00 -0.00000000000E+00 -0.45593999997E+02  0.45594000000E+02  0.51100000000E-03 0. -1.
    9900012    2    1    2    0    0  0.14637285942E+02 -0.39919344868E+01 -0.10976963371E+02  0.72461563992E+02  0.69999991790E+02 0.  0.
        -12    1    1    2    0    0 -0.14637285942E+02  0.39919344868E+01  0.10976963371E+02  0.18726436008E+02  0.00000000000E+00 0.  1.
         11    1    3    3    0    0 -0.33187542449E+01  0.13145941995E+01 -0.63524146331E+01  0.72866631306E+01  0.51100000000E-03 0. -1.
        -11    1    3    3    0    0 -0.23367251067E+02 -0.35174701250E+00 -0.24667617089E+01  0.23499724721E+02  0.51100000000E-03 0.  1.
         12    1    3    3    0    0  0.41323291254E+02 -0.49547816738E+01 -0.21577870293E+01  0.41675176141E+02  0.00000000000E+00 0. -1.
</event>
<event>
 7    1  0.1891413E-013  0.7246160E+02  0.7816164E-02  0.1226708E+00
        -11   -1    0    0    0    0  0.00000000000E+00  0.00000000000E+00  0.45593999997E+02  0.45594000000E+02  0.51100000000E-03 0.  1.
         11   -1    0    0    0    0 -0.00000000000E+00 -0.00000000000E+00 -0.45593999997E+02  0.45594000000E+02  0.51100000000E-03 0. -1.
    9900012    2    1    2    0    0  0.85253603975E+01  0.15312057214E+02 -0.65982593768E+01  0.72461604382E+02  0.70000044405E+02 0.  0.
        -12    1    1    2    0    0 -0.85253603975E+01 -0.15312057214E+02  0.65982593768E+01  0.18726395618E+02  0.00000000000E+00 0.  1.
         11    1    3    3    0    0 -0.10417352192E+02 -0.90812241770E+01 -0.67765334281E+01  0.15391922064E+02  0.51100000000E-03 0.  1.
        -11    1    3    3    0    0  0.17213372079E+02  0.42600220553E+01  0.21382504905E+02  0.27778759557E+02  0.51100000000E-03 0. -1.
         12    1    3    3    0    0  0.17293405103E+01  0.20133259336E+02 -0.21204230854E+02  0.29290922761E+02  0.00000000000E+00 0. -1.
</event>
<event>
 7    1  0.1891413E-013  0.7246179E+02  0.7816164E-02  0.1226707E+00
        -11   -1    0    0    0    0  0.00000000000E+00  0.00000000000E+00  0.45593999997E+02  0.45594000000E+02  0.51100000000E-03 0.  1.
         11   -1    0    0    0    0 -0.00000000000E+00 -0.00000000000E+00 -0.45593999997E+02  0.45594000000E+02  0.51100000000E-03 0. -1.
    9900012    2    1    2    0    0  0.13086477075E+02 -0.19082009184E+01 -0.13257968354E+02  0.72461792753E+02  0.70000289793E+02 0.  0.
        -12    1    1    2    0    0 -0.13086477075E+02  0.19082009184E+01  0.13257968354E+02  0.18726207247E+02  0.00000000000E+00 0.  1.
         11    1    3    3    0    0  0.10539830400E+02 -0.16005237210E+02  0.11711040010E+01  0.19199664784E+02  0.51100000000E-03 0. -1.
        -11    1    3    3    0    0  0.19480844956E+02 -0.97373443526E+01 -0.87886529719E+01  0.23485306397E+02  0.51100000000E-03 0.  1.
        -12    1    3    3    0    0 -0.16934198281E+02  0.23834380644E+02 -0.56404193832E+01  0.29776821572E+02  0.00000000000E+00 0.  1.
</event>
<event>
 7    1  0.1891413E-013  0.7246156E+02  0.7816164E-02  0.1226708E+00
        -11   -1    0    0    0    0  0.00000000000E+00  0.00000000000E+00  0.45593999997E+02  0.45594000000E+02  0.51100000000E-03 0.  1.
         11   -1    0    0    0    0 -0.00000000000E+00 -0.00000000000E+00 -0.45593999997E+02  0.45594000000E+02  0.51100000000E-03 0. -1.
    9900012    2    1    2    0    0 -0.79802824780E+01  0.13116993262E+02 -0.10720966972E+02  0.72461560042E+02  0.69999986645E+02 0.  0.
        -12    1    1    2    0    0  0.79802824780E+01 -0.13116993262E+02  0.10720966972E+02  0.18726439958E+02  0.00000000000E+00 0.  1.
         11    1    3    3    0    0  0.16241590704E+01 -0.91848336199E+01  0.61625721922E+01  0.11179282517E+02  0.51100000000E-03 0. -1.
        -11    1    3    3    0    0  0.92381469304E+01  0.33814396352E+02 -0.17527853041E+02  0.39191611244E+02  0.51100000000E-03 0.  1.
         12    1    3    3    0    0 -0.18842588479E+02 -0.11512569471E+02  0.64431387683E+00  0.22090666282E+02  0.00000000000E+00 0. -1.
</event>
<event>
 7    1  0.1891413E-013  0.7246147E+02  0.7816164E-02  0.1226708E+00
        -11   -1    0    0    0    0  0.00000000000E+00  0.00000000000E+00  0.45593999997E+02  0.45594000000E+02  0.51100000000E-03 0.  1.
         11   -1    0    0    0    0 -0.00000000000E+00 -0.00000000000E+00 -0.45593999997E+02  0.45594000000E+02  0.51100000000E-03 0. -1.
    9900012    2    1    2    0    0 -0.77035184627E+01 -0.87888635737E+01 -0.14631973581E+02  0.72461468808E+02  0.69999867795E+02 0.  0.
        -12    1    1    2    0    0  0.77035184627E+01  0.87888635737E+01  0.14631973581E+02  0.18726531192E+02  0.00000000000E+00 0.  1.
         11    1    3    3    0    0  0.16080809668E+02  0.63603694621E+01 -0.57571686534E+01  0.18226127686E+02  0.51100000000E-03 0. -1.
        -11    1    3    3    0    0 -0.96348135688E+01  0.16171970662E+02 -0.59485090769E+01  0.19742011754E+02  0.51100000000E-03 0.  1.
         12    1    3    3    0    0 -0.14149514562E+02 -0.31321203698E+02 -0.29262958503E+01  0.34493329367E+02  0.00000000000E+00 0. -1.
</event>
<event>
 7    1  0.1891413E-013  0.7246164E+02  0.7816164E-02  0.1226708E+00
        -11   -1    0    0    0    0  0.00000000000E+00  0.00000000000E+00  0.45593999997E+02  0.45594000000E+02  0.51100000000E-03 0. -1.
         11   -1    0    0    0    0 -0.00000000000E+00 -0.00000000000E+00 -0.45593999997E+02  0.45594000000E+02  0.51100000000E-03 0.  1.
    9900012    2    1    2    0    0 -0.15654790678E+01  0.18172711788E+02 -0.42400892460E+01  0.72461640630E+02  0.70000091626E+02 0.  0.
        -12    1    1    2    0    0  0.15654790678E+01 -0.18172711788E+02  0.42400892460E+01  0.18726359370E+02  0.00000000000E+00 0.  1.
         11    1    3    3    0    0 -0.25257826729E+01 -0.13498104090E+02  0.15947046506E+02  0.21044873120E+02  0.51100000000E-03 0. -1.
        -11    1    3    3    0    0 -0.50289299104E+00 -0.12082238105E+01 -0.18410830538E+02  0.18457285486E+02  0.51100000000E-03 0.  1.
         12    1    3    3    0    0  0.14631965961E+01  0.32879039688E+02 -0.17763052136E+01  0.32959482024E+02  0.00000000000E+00 0. -1.
</event>
<event>
 7    1  0.1891413E-013  0.7246157E+02  0.7816164E-02  0.1226708E+00
        -11   -1    0    0    0    0  0.00000000000E+00  0.00000000000E+00  0.45593999997E+02  0.45594000000E+02  0.51100000000E-03 0.  1.
         11   -1    0    0    0    0 -0.00000000000E+00 -0.00000000000E+00 -0.45593999997E+02  0.45594000000E+02  0.51100000000E-03 0. -1.
    9900012    2    1    2    0    0 -0.57207957406E+01  0.11509945566E+02 -0.13618846608E+02  0.72461565909E+02  0.69999994287E+02 0.  0.
        -12    1    1    2    0    0  0.57207957406E+01 -0.11509945566E+02  0.13618846608E+02  0.18726434091E+02  0.00000000000E+00 0.  1.
         11    1    3    3    0    0  0.63501933017E+01 -0.13643889424E+02 -0.97532823140E+00  0.15080846760E+02  0.51100000000E-03 0. -1.
        -11    1    3    3    0    0  0.13431222141E+02  0.26471204273E+02 -0.11453660185E+02  0.31816799270E+02  0.51100000000E-03 0.  1.
         12    1    3    3    0    0 -0.25502211183E+02 -0.13173692831E+01 -0.11898581913E+01  0.25563919879E+02  0.00000000000E+00 0. -1.
</event>
<event>
 7    1  0.1891413E-013  0.7246130E+02  0.7816164E-02  0.1226709E+00
        -11   -1    0    0    0    0  0.00000000000E+00  0.00000000000E+00  0.45593999997E+02  0.45594000000E+02  0.51100000000E-03 0.  1.
         11   -1    0    0    0    0 -0.00000000000E+00 -0.00000000000E+00 -0.45593999997E+02  0.45594000000E+02  0.51100000000E-03 0. -1.
    9900012    2    1    2    0    0  0.12389169786E+02 -0.10691077316E+02 -0.91048640112E+01  0.72461302191E+02  0.69999650745E+02 0.  0.
        -12    1    1    2    0    0 -0.12389169786E+02  0.10691077316E+02  0.91048640112E+01  0.18726697809E+02  0.00000000000E+00 0.  1.
         11    1    3    3    0    0 -0.19407364905E+02 -0.15087289938E+02 -0.37454063636E+01  0.24865642950E+02  0.51100000000E-03 0. -1.
        -11    1    3    3    0    0 -0.41718834567E+01  0.89703162404E+01  0.30933032072E+01  0.10365312828E+02  0.51100000000E-03 0.  1.
         12    1    3    3    0    0  0.35968418147E+02 -0.45741036185E+01 -0.84527608548E+01  0.37230346413E+02  0.00000000000E+00 0. -1.
</event>
<event>
 7    1  0.1891413E-013  0.7246164E+02  0.7816164E-02  0.1226708E+00
        -11   -1    0    0    0    0  0.00000000000E+00  0.00000000000E+00  0.45593999997E+02  0.45594000000E+02  0.51100000000E-03 0. -1.
         11   -1    0    0    0    0 -0.00000000000E+00 -0.00000000000E+00 -0.45593999997E+02  0.45594000000E+02  0.51100000000E-03 0.  1.
    9900012    2    1    2    0    0  0.17937570193E+02 -0.48381266384E+01 -0.23479405798E+01  0.72461635731E+02  0.70000085243E+02 0.  0.
        -12    1    1    2    0    0 -0.17937570193E+02  0.48381266384E+01  0.23479405798E+01  0.18726364269E+02  0.00000000000E+00 0.  1.
         11    1    3    3    0    0  0.15355743923E+02 -0.52491471243E+01  0.25032372854E+01  0.16420067422E+02  0.51100000000E-03 0. -1.
        -11    1    3    3    0    0  0.23337939263E+02 -0.47251057887E+01 -0.18948209485E+02  0.30430587847E+02  0.51100000000E-03 0.  1.
         12    1    3    3    0    0 -0.20756112993E+02  0.51361262746E+01  0.14097031620E+02  0.25610980462E+02  0.00000000000E+00 0. -1.
</event>
<event>
 7    1  0.1891413E-013  0.7246163E+02  0.7816164E-02  0.1226708E+00
        -11   -1    0    0    0    0  0.00000000000E+00  0.00000000000E+00  0.45593999997E+02  0.45594000000E+02  0.51100000000E-03 0.  1.
         11   -1    0    0    0    0 -0.00000000000E+00 -0.00000000000E+00 -0.45593999997E+02  0.45594000000E+02  0.51100000000E-03 0. -1.
    9900012    2    1    2    0    0 -0.85955361427E+01 -0.13704335066E+02 -0.94331763693E+01  0.72461632023E+02  0.70000080414E+02 0.  0.
        -12    1    1    2    0    0  0.85955361427E+01  0.13704335066E+02  0.94331763693E+01  0.18726367977E+02  0.00000000000E+00 0.  1.
         11    1    3    3    0    0 -0.66747530479E+01 -0.17490860538E+02 -0.22952310223E+01  0.18861352452E+02  0.51100000000E-03 0. -1.
        -11    1    3    3    0    0 -0.79961899567E+01 -0.13264914348E+02  0.17279406716E+02  0.23205062017E+02  0.51100000000E-03 0.  1.
         12    1    3    3    0    0  0.60754068618E+01  0.17051439819E+02 -0.24417352063E+02  0.30395217555E+02  0.00000000000E+00 0. -1.
</event>
<event>
 7    1  0.1891413E-013  0.7246159E+02  0.7816164E-02  0.1226708E+00
        -11   -1    0    0    0    0  0.00000000000E+00  0.00000000000E+00  0.45593999997E+02  0.45594000000E+02  0.51100000000E-03 0.  1.
         11   -1    0    0    0    0 -0.00000000000E+00 -0.00000000000E+00 -0.45593999997E+02  0.45594000000E+02  0.51100000000E-03 0. -1.
    9900012    2    1    2    0    0 -0.53784081572E+01 -0.79088042453E+01 -0.16099747342E+02  0.72461592886E+02  0.70000029430E+02 0.  0.
        -12    1    1    2    0    0  0.53784081572E+01  0.79088042453E+01  0.16099747342E+02  0.18726407114E+02  0.00000000000E+00 0.  1.
         11    1    3    3    0    0  0.57714943567E+01 -0.59908753731E+01 -0.17428879928E+02  0.19312342961E+02  0.51100000000E-03 0. -1.
        -11    1    3    3    0    0 -0.51529005317E+01 -0.26925001945E+02  0.96239599181E+00  0.27430536268E+02  0.51100000000E-03 0.  1.
         12    1    3    3    0    0 -0.59970019821E+01  0.25007073073E+02  0.36673659332E+00  0.25718713657E+02  0.00000000000E+00 0. -1.
</event>
<event>
 7    1  0.1891413E-013  0.7246159E+02  0.7816164E-02  0.1226708E+00
        -11   -1    0    0    0    0  0.00000000000E+00  0.00000000000E+00  0.45593999997E+02  0.45594000000E+02  0.51100000000E-03 0.  1.
         11   -1    0    0    0    0 -0.00000000000E+00 -0.00000000000E+00 -0.45593999997E+02  0.45594000000E+02  0.51100000000E-03 0. -1.
    9900012    2    1    2    0    0  0.64263406337E+01  0.15864209281E+01 -0.17517525172E+02  0.72461594219E+02  0.70000031167E+02 0.  0.
        -12    1    1    2    0    0 -0.64263406337E+01 -0.15864209281E+01  0.17517525172E+02  0.18726405781E+02  0.00000000000E+00 0.  1.
         11    1    3    3    0    0  0.21211643076E+02 -0.25347463063E+02 -0.25398198168E+00  0.33052869661E+02  0.51100000000E-03 0. -1.
        -11    1    3    3    0    0  0.10455250269E+01 -0.16925921311E+01 -0.32731541743E+01  0.38303432240E+01  0.51100000000E-03 0.  1.
        -12    1    3    3    0    0 -0.15830827469E+02  0.28626476122E+02 -0.13990389017E+02  0.35578381334E+02  0.00000000000E+00 0.  1.
</event>
<event>
 7    1  0.1891413E-013  0.7246158E+02  0.7816164E-02  0.1226708E+00
        -11   -1    0    0    0    0  0.00000000000E+00  0.00000000000E+00  0.45593999997E+02  0.45594000000E+02  0.51100000000E-03 0.  1.
         11   -1    0    0    0    0 -0.00000000000E+00 -0.00000000000E+00 -0.45593999997E+02  0.45594000000E+02  0.51100000000E-03 0. -1.
    9900012    2    1    2    0    0 -0.18201689299E+02 -0.42935542003E+01 -0.97093108998E+00  0.72461579942E+02  0.70000012568E+02 0.  0.
        -12    1    1    2    0    0  0.18201689299E+02  0.42935542003E+01  0.97093108998E+00  0.18726420058E+02  0.00000000000E+00 0.  1.
         11    1    3    3    0    0  0.66250815318E+01 -0.75354976665E+01 -0.24619465987E+01  0.10331341234E+02  0.51100000000E-03 0. -1.
        -11    1    3    3    0    0  0.18189939523E+01  0.26582060977E+02 -0.53745352702E+00  0.26649644675E+02  0.51100000000E-03 0.  1.
         12    1    3    3    0    0 -0.26645764783E+02 -0.23340117511E+02  0.20284690358E+01  0.35480594032E+02  0.00000000000E+00 0. -1.
</event>
<event>
 7    1  0.1891413E-013  0.7246111E+02  0.7816164E-02  0.1226709E+00
        -11   -1    0    0    0    0  0.00000000000E+00  0.00000000000E+00  0.45593999997E+02  0.45594000000E+02  0.51100000000E-03 0.  1.
         11   -1    0    0    0    0 -0.00000000000E+00 -0.00000000000E+00 -0.45593999997E+02  0.45594000000E+02  0.51100000000E-03 0. -1.
    9900012    2    1    2    0    0  0.58271300333E+01 -0.12171288349E+02 -0.12984631395E+02  0.72461111392E+02  0.69999402192E+02 0.  0.
        -12    1    1    2    0    0 -0.58271300333E+01  0.12171288349E+02  0.12984631395E+02  0.18726888608E+02  0.00000000000E+00 0.  1.
         11    1    3    3    0    0  0.11519727484E+02 -0.25405438409E+01 -0.68599954347E+01  0.13646172428E+02  0.51100000000E-03 0. -1.
        -11    1    3    3    0    0 -0.51052969086E+01  0.23245540754E+02 -0.97803634927E+01  0.25730812886E+02  0.51100000000E-03 0.  1.
        -12    1    3    3    0    0 -0.58730054201E+00 -0.32876285262E+02  0.36557275326E+01  0.33084126078E+02  0.00000000000E+00 0.  1.
</event>
<event>
 7    1  0.1891413E-013  0.7246152E+02  0.7816164E-02  0.1226708E+00
        -11   -1    0    0    0    0  0.00000000000E+00  0.00000000000E+00  0.45593999997E+02  0.45594000000E+02  0.51100000000E-03 0.  1.
         11   -1    0    0    0    0 -0.00000000000E+00 -0.00000000000E+00 -0.45593999997E+02  0.45594000000E+02  0.51100000000E-03 0. -1.
    9900012    2    1    2    0    0  0.15940072824E+02  0.80213924775E+01  0.56791068726E+01  0.72461523722E+02  0.69999939331E+02 0.  0.
        -12    1    1    2    0    0 -0.15940072824E+02 -0.80213924775E+01 -0.56791068726E+01  0.18726476278E+02  0.00000000000E+00 0.  1.
         11    1    3    3    0    0 -0.17771286499E+01  0.19852307887E+02 -0.22205762954E+02  0.29839038579E+02  0.51100000000E-03 0. -1.
        -11    1    3    3    0    0  0.27843552091E+01 -0.20861403383E+00 -0.43939473822E+01  0.52060472149E+01  0.51100000000E-03 0.  1.
        -12    1    3    3    0    0  0.14932846265E+02 -0.11622301375E+02  0.32278817209E+02  0.37416437928E+02  0.00000000000E+00 0.  1.
</event>
<event>
 7    1  0.1891413E-013  0.7246159E+02  0.7816164E-02  0.1226708E+00
        -11   -1    0    0    0    0  0.00000000000E+00  0.00000000000E+00  0.45593999997E+02  0.45594000000E+02  0.51100000000E-03 0.  1.
         11   -1    0    0    0    0 -0.00000000000E+00 -0.00000000000E+00 -0.45593999997E+02  0.45594000000E+02  0.51100000000E-03 0. -1.
    9900012    2    1    2    0    0  0.16677244064E+02 -0.76831160002E+01 -0.36766191747E+01  0.72461594323E+02  0.70000031301E+02 0.  0.
        -12    1    1    2    0    0 -0.16677244064E+02  0.76831160002E+01  0.36766191747E+01  0.18726405677E+02  0.00000000000E+00 0.  1.
         11    1    3    3    0    0  0.27180518611E+02 -0.27644814430E+02 -0.11187522077E+02  0.40350675426E+02  0.51100000000E-03 0. -1.
        -11    1    3    3    0    0  0.65221251645E+00 -0.14443007493E+01 -0.47711992973E+01  0.50274972717E+01  0.51100000000E-03 0.  1.
        -12    1    3    3    0    0 -0.11155487064E+02  0.21405999179E+02  0.12282102199E+02  0.27083421625E+02  0.00000000000E+00 0.  1.
</event>
<event>
 7    1  0.1891413E-013  0.7246148E+02  0.7816164E-02  0.1226708E+00
        -11   -1    0    0    0    0  0.00000000000E+00  0.00000000000E+00  0.45593999997E+02  0.45594000000E+02  0.51100000000E-03 0. -1.
         11   -1    0    0    0    0 -0.00000000000E+00 -0.00000000000E+00 -0.45593999997E+02  0.45594000000E+02  0.51100000000E-03 0.  1.
    9900012    2    1    2    0    0 -0.14984776158E+02 -0.65937062375E+01  0.90918710736E+01  0.72461478752E+02  0.69999880748E+02 0.  0.
        -12    1    1    2    0    0  0.14984776158E+02  0.65937062375E+01 -0.90918710736E+01  0.18726521248E+02  0.00000000000E+00 0.  1.
         11    1    3    3    0    0 -0.34178009683E+01 -0.72391291133E+01  0.23128456825E+02  0.24474718980E+02  0.51100000000E-03 0. -1.
        -11    1    3    3    0    0 -0.16439973629E+02 -0.93484793359E+01  0.10079897806E+02  0.21430612190E+02  0.51100000000E-03 0.  1.
        -12    1    3    3    0    0  0.48729984396E+01  0.99939022116E+01 -0.24116483557E+02  0.26556147581E+02  0.00000000000E+00 0.  1.
</event>
<event>
 7    1  0.1891413E-013  0.7246156E+02  0.7816164E-02  0.1226708E+00
        -11   -1    0    0    0    0  0.00000000000E+00  0.00000000000E+00  0.45593999997E+02  0.45594000000E+02  0.51100000000E-03 0.  1.
         11   -1    0    0    0    0 -0.00000000000E+00 -0.00000000000E+00 -0.45593999997E+02  0.45594000000E+02  0.51100000000E-03 0. -1.
    9900012    2    1    2    0    0 -0.11942952128E+02 -0.12573741257E+02  0.70672926728E+01  0.72461556118E+02  0.69999981533E+02 0.  0.
        -12    1    1    2    0    0  0.11942952128E+02  0.12573741257E+02 -0.70672926728E+01  0.18726443882E+02  0.00000000000E+00 0.  1.
         11    1    3    3    0    0  0.15697827241E+02 -0.22173703376E+02 -0.16750858088E+02  0.31916863073E+02  0.51100000000E-03 0. -1.
        -11    1    3    3    0    0 -0.25395575206E+01 -0.35854151444E+01  0.23661372126E+01  0.49903065766E+01  0.51100000000E-03 0.  1.
        -12    1    3    3    0    0 -0.25101221848E+02  0.13185377264E+02  0.21452013549E+02  0.35554386468E+02  0.00000000000E+00 0.  1.
</event>
<event>
 7    1  0.1891413E-013  0.7246165E+02  0.7816164E-02  0.1226708E+00
        -11   -1    0    0    0    0  0.00000000000E+00  0.00000000000E+00  0.45593999997E+02  0.45594000000E+02  0.51100000000E-03 0. -1.
         11   -1    0    0    0    0 -0.00000000000E+00 -0.00000000000E+00 -0.45593999997E+02  0.45594000000E+02  0.51100000000E-03 0.  1.
    9900012    2    1    2    0    0  0.46916634040E+01 -0.16621518224E+01  0.18052744830E+02  0.72461653585E+02  0.70000108501E+02 0.  0.
        -12    1    1    2    0    0 -0.46916634040E+01  0.16621518224E+01 -0.18052744830E+02  0.18726346415E+02  0.00000000000E+00 0.  1.
         11    1    3    3    0    0 -0.19229111073E+01 -0.95450823744E+01  0.20754080333E+02  0.22924616363E+02  0.51100000000E-03 0. -1.
        -11    1    3    3    0    0 -0.13615430039E+02 -0.61343262276E+01 -0.15729878033E+02  0.21689604805E+02  0.51100000000E-03 0.  1.
        -12    1    3    3    0    0  0.20230004551E+02  0.14017256780E+02  0.13028542529E+02  0.27847432416E+02  0.00000000000E+00 0.  1.
</event>
<event>
 7    1  0.1891413E-013  0.7246162E+02  0.7816164E-02  0.1226708E+00
        -11   -1    0    0    0    0  0.00000000000E+00  0.00000000000E+00  0.45593999997E+02  0.45594000000E+02  0.51100000000E-03 0. -1.
         11   -1    0    0    0    0 -0.00000000000E+00 -0.00000000000E+00 -0.45593999997E+02  0.45594000000E+02  0.51100000000E-03 0.  1.
    9900012    2    1    2    0    0  0.14569709860E+02  0.95053504463E+01  0.69317429810E+01  0.72461623061E+02  0.70000068739E+02 0.  0.
        -12    1    1    2    0    0 -0.14569709860E+02 -0.95053504463E+01 -0.69317429810E+01  0.18726376939E+02  0.00000000000E+00 0.  1.
         11    1    3    3    0    0  0.13285428436E+02 -0.52246168557E+01 -0.30102279260E+01  0.14589746483E+02  0.51100000000E-03 0. -1.
        -11    1    3    3    0    0  0.53224293126E+01 -0.36043898832E+01 -0.20844273368E+02  0.21812923067E+02  0.51100000000E-03 0.  1.
         12    1    3    3    0    0 -0.40381478891E+01  0.18334357185E+02  0.30786244275E+02  0.36058953511E+02  0.00000000000E+00 0. -1.
</event>
<event>
 7    1  0.1891413E-013  0.7246156E+02  0.7816164E-02  0.1226708E+00
        -11   -1    0    0    0    0  0.00000000000E+00  0.00000000000E+00  0.45593999997E+02  0.45594000000E+02  0.51100000000E-03 0. -1.
         11   -1    0    0    0    0 -0.00000000000E+00 -0.00000000000E+00 -0.45593999997E+02  0.45594000000E+02  0.51100000000E-03 0.  1.
    9900012    2    1    2    0    0  0.14676364381E+01  0.18643853619E+02 -0.96547881222E+00  0.72461564573E+02  0.69999992546E+02 0.  0.
        -12    1    1    2    0    0 -0.14676364381E+01 -0.18643853619E+02  0.96547881222E+00  0.18726435427E+02  0.00000000000E+00 0.  1.
         11    1    3    3    0    0 -0.13412817162E+02 -0.10734705132E+02  0.15741738534E+02  0.23301070594E+02  0.51100000000E-03 0. -1.
        -11    1    3    3    0    0  0.18229448055E+01 -0.62651515362E+01  0.20223611558E+01  0.68311929003E+01  0.51100000000E-03 0.  1.
        -12    1    3    3    0    0  0.13057508795E+02  0.35643710287E+02 -0.18729578502E+02  0.42329301078E+02  0.00000000000E+00 0.  1.
</event>
<event>
 7    1  0.1891413E-013  0.7246158E+02  0.7816164E-02  0.1226708E+00
        -11   -1    0    0    0    0  0.00000000000E+00  0.00000000000E+00  0.45593999997E+02  0.45594000000E+02  0.51100000000E-03 0. -1.
         11   -1    0    0    0    0 -0.00000000000E+00 -0.00000000000E+00 -0.45593999997E+02  0.45594000000E+02  0.51100000000E-03 0.  1.
    9900012    2    1    2    0    0  0.90109209298E+01 -0.75670831880E+01  0.14567816659E+02  0.72461582131E+02  0.70000015420E+02 0.  0.
        -12    1    1    2    0    0 -0.90109209298E+01  0.75670831880E+01 -0.14567816659E+02  0.18726417869E+02  0.00000000000E+00 0.  1.
         11    1    3    3    0    0  0.20106483050E+02 -0.11241079000E+02 -0.83263370905E+01  0.24494089233E+02  0.51100000000E-03 0. -1.
        -11    1    3    3    0    0 -0.47043802020E+01 -0.12987556671E+02 -0.51373314111E+01  0.14737706594E+02  0.51100000000E-03 0.  1.
        -12    1    3    3    0    0 -0.63911819185E+01  0.16661552484E+02  0.28031485161E+02  0.33229786304E+02  0.00000000000E+00 0.  1.
</event>
<event>
 7    1  0.1891413E-013  0.7246165E+02  0.7816164E-02  0.1226708E+00
        -11   -1    0    0    0    0  0.00000000000E+00  0.00000000000E+00  0.45593999997E+02  0.45594000000E+02  0.51100000000E-03 0.  1.
         11   -1    0    0    0    0 -0.00000000000E+00 -0.00000000000E+00 -0.45593999997E+02  0.45594000000E+02  0.51100000000E-03 0. -1.
    9900012    2    1    2    0    0  0.30711367097E+01  0.61391082671E+01  0.17422852783E+02  0.72461646108E+02  0.70000098761E+02 0.  0.
        -12    1    1    2    0    0 -0.30711367097E+01 -0.61391082671E+01 -0.17422852783E+02  0.18726353892E+02  0.00000000000E+00 0.  1.
         11    1    3    3    0    0 -0.11929186974E+02  0.12996660271E+02  0.16541084594E+02  0.24183179275E+02  0.51100000000E-03 0. -1.
        -11    1    3    3    0    0 -0.10720517698E+02 -0.87408648287E+01 -0.13006574517E+02  0.18986921778E+02  0.51100000000E-03 0.  1.
        -12    1    3    3    0    0  0.25720841382E+02  0.18833128249E+01  0.13888342706E+02  0.29291545055E+02  0.00000000000E+00 0.  1.
</event>
<event>
 7    1  0.1891413E-013  0.7246157E+02  0.7816164E-02  0.1226708E+00
        -11   -1    0    0    0    0  0.00000000000E+00  0.00000000000E+00  0.45593999997E+02  0.45594000000E+02  0.51100000000E-03 0.  1.
         11   -1    0    0    0    0 -0.00000000000E+00 -0.00000000000E+00 -0.45593999997E+02  0.45594000000E+02  0.51100000000E-03 0. -1.
    9900012    2    1    2    0    0 -0.70301429864E+00 -0.14894347449E+02 -0.11328880686E+02  0.72461565405E+02  0.69999993631E+02 0.  0.
        -12    1    1    2    0    0  0.70301429864E+00  0.14894347449E+02  0.11328880686E+02  0.18726434595E+02  0.00000000000E+00 0.  1.
         11    1    3    3    0    0  0.51869766549E-01  0.60417922875E+01 -0.53947853764E+01  0.80999786442E+01  0.51100000000E-03 0. -1.
        -11    1    3    3    0    0  0.59230640332E+00  0.21253241406E+02  0.21969484162E+01  0.21374697185E+02  0.51100000000E-03 0.  1.
         12    1    3    3    0    0 -0.13471904685E+01 -0.42189381143E+02 -0.81310437260E+01  0.42986889576E+02  0.00000000000E+00 0. -1.
</event>
<event>
 7    1  0.1891413E-013  0.7246150E+02  0.7816164E-02  0.1226708E+00
        -11   -1    0    0    0    0  0.00000000000E+00  0.00000000000E+00  0.45593999997E+02  0.45594000000E+02  0.51100000000E-03 0.  1.
         11   -1    0    0    0    0 -0.00000000000E+00 -0.00000000000E+00 -0.45593999997E+02  0.45594000000E+02  0.51100000000E-03 0. -1.
    9900012    2    1    2    0    0 -0.37639404827E+01 -0.15422239871E+02 -0.99332359882E+01  0.72461497182E+02  0.69999904757E+02 0.  0.
        -12    1    1    2    0    0  0.37639404827E+01  0.15422239871E+02  0.99332359882E+01  0.18726502818E+02  0.00000000000E+00 0.  1.
         11    1    3    3    0    0  0.34153328097E+01 -0.27851484652E+02 -0.24657429224E+02  0.37354497878E+02  0.51100000000E-03 0. -1.
        -11    1    3    3    0    0 -0.10131723661E+02 -0.58400082466E+01  0.11348066532E+02  0.16295279530E+02  0.51100000000E-03 0.  1.
        -12    1    3    3    0    0  0.29524503687E+01  0.18269253027E+02  0.33761267037E+01  0.18811719774E+02  0.00000000000E+00 0.  1.
</event>
<event>
 7    1  0.1891413E-013  0.7246155E+02  0.7816164E-02  0.1226708E+00
        -11   -1    0    0    0    0  0.00000000000E+00  0.00000000000E+00  0.45593999997E+02  0.45594000000E+02  0.51100000000E-03 0.  1.
         11   -1    0    0    0    0 -0.00000000000E+00 -0.00000000000E+00 -0.45593999997E+02  0.45594000000E+02  0.51100000000E-03 0. -1.
    9900012    2    1    2    0    0  0.25379977070E+01  0.25113635437E+01 -0.18382919034E+02  0.72461545679E+02  0.69999967934E+02 0.  0.
        -12    1    1    2    0    0 -0.25379977070E+01 -0.25113635437E+01  0.18382919034E+02  0.18726454321E+02  0.00000000000E+00 0.  1.
         11    1    3    3    0    0  0.20511711169E+02 -0.10052584421E+02 -0.20530765752E+02  0.30713141996E+02  0.51100000000E-03 0. -1.
        -11    1    3    3    0    0  0.61401068883E+01 -0.79105092189E+01  0.13535761555E+01  0.10104911547E+02  0.51100000000E-03 0.  1.
        -12    1    3    3    0    0 -0.24113820350E+02  0.20474457184E+02  0.79427056208E+00  0.31643492136E+02  0.00000000000E+00 0.  1.
</event>
<event>
 7    1  0.1891413E-013  0.7246153E+02  0.7816164E-02  0.1226708E+00
        -11   -1    0    0    0    0  0.00000000000E+00  0.00000000000E+00  0.45593999997E+02  0.45594000000E+02  0.51100000000E-03 0.  1.
         11   -1    0    0    0    0 -0.00000000000E+00 -0.00000000000E+00 -0.45593999997E+02  0.45594000000E+02  0.51100000000E-03 0. -1.
    9900012    2    1    2    0    0 -0.13487591058E+02 -0.12952368135E+02  0.10009306539E+01  0.72461526359E+02  0.69999942766E+02 0.  0.
        -12    1    1    2    0    0  0.13487591058E+02  0.12952368135E+02 -0.10009306539E+01  0.18726473641E+02  0.00000000000E+00 0.  1.
         11    1    3    3    0    0  0.11661597726E+02 -0.13762127314E+01  0.16565437105E+02  0.20305184799E+02  0.51100000000E-03 0. -1.
        -11    1    3    3    0    0 -0.13830078527E+02  0.63744558509E+01  0.10535587061E+02  0.18517649809E+02  0.51100000000E-03 0.  1.
         12    1    3    3    0    0 -0.11319110257E+02 -0.17950611255E+02 -0.26100093511E+02  0.33638691751E+02  0.00000000000E+00 0. -1.
</event>
<event>
 7    1  0.1891413E-013  0.7246155E+02  0.7816164E-02  0.1226708E+00
        -11   -1    0    0    0    0  0.00000000000E+00  0.00000000000E+00  0.45593999997E+02  0.45594000000E+02  0.51100000000E-03 0.  1.
         11   -1    0    0    0    0 -0.00000000000E+00 -0.00000000000E+00 -0.45593999997E+02  0.45594000000E+02  0.51100000000E-03 0. -1.
    9900012    2    1    2    0    0  0.14625307366E+02  0.10959003064E+02 -0.40841685925E+01  0.72461553546E+02  0.69999978182E+02 0.  0.
        -12    1    1    2    0    0 -0.14625307366E+02 -0.10959003064E+02  0.40841685925E+01  0.18726446454E+02  0.00000000000E+00 0.  1.
         11    1    3    3    0    0  0.15674475917E+02  0.16255604860E+02 -0.23534680513E+02  0.32616178067E+02  0.51100000000E-03 0. -1.
        -11    1    3    3    0    0 -0.93995381941E+01  0.11853533654E+02  0.12216188183E+02  0.19444609339E+02  0.51100000000E-03 0.  1.
        -12    1    3    3    0    0  0.83503696438E+01 -0.17150135450E+02  0.72343237375E+01  0.20400766140E+02  0.00000000000E+00 0.  1.
</event>
<event>
 7    1  0.2073193E-013  0.7246145E+02  0.7816164E-02  0.1226708E+00
        -11   -1    0    0    0    0  0.00000000000E+00  0.00000000000E+00  0.45593999997E+02  0.45594000000E+02  0.51100000000E-03 0. -1.
         11   -1    0    0    0    0 -0.00000000000E+00 -0.00000000000E+00 -0.45593999997E+02  0.45594000000E+02  0.51100000000E-03 0.  1.
    9900012    2    1    2    0    0  0.11375543614E+01  0.56794350893E+01  0.17808249754E+02  0.72461447403E+02  0.69999839912E+02 0.  0.
        -12    1    1    2    0    0 -0.11375543614E+01 -0.56794350893E+01 -0.17808249754E+02  0.18726552597E+02  0.00000000000E+00 0.  1.
         11    1    3    3    0    0  0.89823822125E+01 -0.27411097355E+01  0.13305538004E+02  0.16286012852E+02  0.51100000000E-03 0. -1.
        -11    1    3    3    0    0  0.23380683338E+01  0.30981605472E+02  0.31654845025E+00  0.31071315459E+02  0.51100000000E-03 0.  1.
         12    1    3    3    0    0 -0.10182896185E+02 -0.22561060647E+02  0.41861632997E+01  0.25104119092E+02  0.00000000000E+00 0. -1.
</event>
<event>
 7    1  0.1891413E-013  0.7246165E+02  0.7816164E-02  0.1226708E+00
        -11   -1    0    0    0    0  0.00000000000E+00  0.00000000000E+00  0.45593999997E+02  0.45594000000E+02  0.51100000000E-03 0.  1.
         11   -1    0    0    0    0 -0.00000000000E+00 -0.00000000000E+00 -0.45593999997E+02  0.45594000000E+02  0.51100000000E-03 0. -1.
    9900012    2    1    2    0    0  0.12277023201E+02 -0.46013493590E+01 -0.13370803454E+02  0.72461652262E+02  0.70000106778E+02 0.  0.
        -12    1    1    2    0    0 -0.12277023201E+02  0.46013493590E+01  0.13370803454E+02  0.18726347738E+02  0.00000000000E+00 0.  1.
         11    1    3    3    0    0 -0.73702573953E+01 -0.57193307176E+01 -0.20202513338E+02  0.22252482633E+02  0.51100000000E-03 0. -1.
        -11    1    3    3    0    0 -0.14354759657E+02  0.56690062896E+01  0.18508332613E+01  0.15544206031E+02  0.51100000000E-03 0.  1.
        -12    1    3    3    0    0  0.34002040253E+02 -0.45510249310E+01  0.49808766224E+01  0.34664963598E+02  0.00000000000E+00 0.  1.
</event>
<event>
 7    1  0.1891413E-013  0.7246155E+02  0.7816164E-02  0.1226708E+00
        -11   -1    0    0    0    0  0.00000000000E+00  0.00000000000E+00  0.45593999997E+02  0.45594000000E+02  0.51100000000E-03 0.  1.
         11   -1    0    0    0    0 -0.00000000000E+00 -0.00000000000E+00 -0.45593999997E+02  0.45594000000E+02  0.51100000000E-03 0. -1.
    9900012    2    1    2    0    0 -0.10606141209E+02  0.15414350156E+02 -0.76639818792E+00  0.72461553774E+02  0.69999978479E+02 0.  0.
        -12    1    1    2    0    0  0.10606141209E+02 -0.15414350156E+02  0.76639818792E+00  0.18726446226E+02  0.00000000000E+00 0.  1.
         11    1    3    3    0    0  0.50175414279E+01  0.14582725493E+02 -0.34052119999E+01  0.15793260392E+02  0.51100000000E-03 0. -1.
        -11    1    3    3    0    0  0.18585056513E+02  0.75519908709E+01  0.76045491010E+01  0.21453812225E+02  0.51100000000E-03 0.  1.
         12    1    3    3    0    0 -0.34208739150E+02 -0.67203662076E+01 -0.49657352890E+01  0.35214481157E+02  0.00000000000E+00 0. -1.
</event>
<event>
 7    1  0.1891413E-013  0.7246157E+02  0.7816164E-02  0.1226708E+00
        -11   -1    0    0    0    0  0.00000000000E+00  0.00000000000E+00  0.45593999997E+02  0.45594000000E+02  0.51100000000E-03 0.  1.
         11   -1    0    0    0    0 -0.00000000000E+00 -0.00000000000E+00 -0.45593999997E+02  0.45594000000E+02  0.51100000000E-03 0. -1.
    9900012    2    1    2    0    0 -0.11095787270E+02  0.51195888040E+01 -0.14189877355E+02  0.72461566704E+02  0.69999995322E+02 0.  0.
        -12    1    1    2    0    0  0.11095787270E+02 -0.51195888040E+01  0.14189877355E+02  0.18726433296E+02  0.00000000000E+00 0.  1.
         11    1    3    3    0    0 -0.39953918116E+01  0.33113403885E+01 -0.33773724665E+02  0.34170054271E+02  0.51100000000E-03 0. -1.
        -11    1    3    3    0    0  0.56355437097E+01  0.97413037409E+01 -0.25613587399E+01  0.11541789737E+02  0.51100000000E-03 0.  1.
         12    1    3    3    0    0 -0.12735939168E+02 -0.79330553253E+01  0.22145206050E+02  0.26749722695E+02  0.00000000000E+00 0. -1.
</event>
<event>
 7    1  0.1891413E-013  0.7246157E+02  0.7816164E-02  0.1226708E+00
        -11   -1    0    0    0    0  0.00000000000E+00  0.00000000000E+00  0.45593999997E+02  0.45594000000E+02  0.51100000000E-03 0.  1.
         11   -1    0    0    0    0 -0.00000000000E+00 -0.00000000000E+00 -0.45593999997E+02  0.45594000000E+02  0.51100000000E-03 0. -1.
    9900012    2    1    2    0    0 -0.89647043057E+01 -0.70414983430E+01 -0.14857009919E+02  0.72461565050E+02  0.69999993169E+02 0.  0.
        -12    1    1    2    0    0  0.89647043057E+01  0.70414983430E+01  0.14857009919E+02  0.18726434950E+02  0.00000000000E+00 0.  1.
         11    1    3    3    0    0 -0.12522859719E+01 -0.10860791065E+02 -0.34562202720E+02  0.36250115308E+02  0.51100000000E-03 0. -1.
        -11    1    3    3    0    0 -0.60139175335E+01 -0.41970061188E+01 -0.58459224369E+01  0.93785326070E+01  0.51100000000E-03 0.  1.
        -12    1    3    3    0    0 -0.16985008003E+01  0.80162988408E+01  0.25551115238E+02  0.26832917135E+02  0.00000000000E+00 0.  1.
</event>
<event>
 7    1  0.1891413E-013  0.7246157E+02  0.7816164E-02  0.1226708E+00
        -11   -1    0    0    0    0  0.00000000000E+00  0.00000000000E+00  0.45593999997E+02  0.45594000000E+02  0.51100000000E-03 0. -1.
         11   -1    0    0    0    0 -0.00000000000E+00 -0.00000000000E+00 -0.45593999997E+02  0.45594000000E+02  0.51100000000E-03 0.  1.
    9900012    2    1    2    0    0  0.25085153790E+01 -0.17273703274E+02 -0.67827382136E+01  0.72461574503E+02  0.70000005483E+02 0.  0.
        -12    1    1    2    0    0 -0.25085153790E+01  0.17273703274E+02  0.67827382136E+01  0.18726425497E+02  0.00000000000E+00 0.  1.
         11    1    3    3    0    0  0.89151135255E+01 -0.27926365110E+02  0.15262728350E+02  0.33050143636E+02  0.51100000000E-03 0. -1.
        -11    1    3    3    0    0 -0.50076349580E+01 -0.29727053252E+01  0.58998933359E+01  0.82898809677E+01  0.51100000000E-03 0.  1.
        -12    1    3    3    0    0 -0.13989631885E+01  0.13625367161E+02 -0.27945359899E+02  0.31121549900E+02  0.00000000000E+00 0.  1.
</event>
<event>
 7    1  0.1891413E-013  0.7246155E+02  0.7816164E-02  0.1226708E+00
        -11   -1    0    0    0    0  0.00000000000E+00  0.00000000000E+00  0.45593999997E+02  0.45594000000E+02  0.51100000000E-03 0. -1.
         11   -1    0    0    0    0 -0.00000000000E+00 -0.00000000000E+00 -0.45593999997E+02  0.45594000000E+02  0.51100000000E-03 0.  1.
    9900012    2    1    2    0    0 -0.18454116478E+02  0.21509864658E+01  0.23449267568E+01  0.72461552412E+02  0.69999976705E+02 0.  0.
        -12    1    1    2    0    0  0.18454116478E+02 -0.21509864658E+01 -0.23449267568E+01  0.18726447588E+02  0.00000000000E+00 0.  1.
         11    1    3    3    0    0  0.19804095742E+02 -0.42142550489E+01  0.17727457112E+02  0.26911426749E+02  0.51100000000E-03 0. -1.
        -11    1    3    3    0    0  0.46262273840E+00  0.39911088579E+01 -0.74144341926E+00  0.40856710977E+01  0.51100000000E-03 0.  1.
        -12    1    3    3    0    0 -0.38720834958E+02  0.23741326568E+01 -0.14641086936E+02  0.41464454565E+02  0.00000000000E+00 0.  1.
</event>
<event>
 7    1  0.1891413E-013  0.7246162E+02  0.7816164E-02  0.1226708E+00
        -11   -1    0    0    0    0  0.00000000000E+00  0.00000000000E+00  0.45593999997E+02  0.45594000000E+02  0.51100000000E-03 0.  1.
         11   -1    0    0    0    0 -0.00000000000E+00 -0.00000000000E+00 -0.45593999997E+02  0.45594000000E+02  0.51100000000E-03 0. -1.
    9900012    2    1    2    0    0 -0.57702126316E+01  0.17801622345E+02 -0.69581343558E+00  0.72461621059E+02  0.70000066130E+02 0.  0.
        -12    1    1    2    0    0  0.57702126316E+01 -0.17801622345E+02  0.69581343558E+00  0.18726378941E+02  0.00000000000E+00 0.  1.
         11    1    3    3    0    0 -0.11667534442E+02 -0.10532814448E+02  0.11970272368E+02  0.19757503915E+02  0.51100000000E-03 0. -1.
        -11    1    3    3    0    0  0.15769394762E+02 -0.89071278231E+00  0.57135725295E+01  0.16796192775E+02  0.51100000000E-03 0.  1.
         12    1    3    3    0    0 -0.98720729521E+01  0.29225149574E+02 -0.18379658333E+02  0.35907924369E+02  0.00000000000E+00 0. -1.
</event>
<event>
 7    1  0.1891413E-013  0.7246144E+02  0.7816164E-02  0.1226708E+00
        -11   -1    0    0    0    0  0.00000000000E+00  0.00000000000E+00  0.45593999997E+02  0.45594000000E+02  0.51100000000E-03 0.  1.
         11   -1    0    0    0    0 -0.00000000000E+00 -0.00000000000E+00 -0.45593999997E+02  0.45594000000E+02  0.51100000000E-03 0. -1.
    9900012    2    1    2    0    0 -0.10473498946E+02  0.91141196707E+01 -0.12566724133E+02  0.72461443644E+02  0.69999835014E+02 0.  0.
        -12    1    1    2    0    0  0.10473498946E+02 -0.91141196707E+01  0.12566724133E+02  0.18726556356E+02  0.00000000000E+00 0.  1.
         11    1    3    3    0    0  0.20265545684E+02  0.18775774776E+01 -0.11670891879E+02  0.23461188302E+02  0.51100000000E-03 0.  1.
        -11    1    3    3    0    0  0.46704864603E+01  0.60734984609E+01 -0.98293942715E+01  0.12462656993E+02  0.51100000000E-03 0. -1.
        -12    1    3    3    0    0 -0.35409531090E+02  0.11630437322E+01  0.89335620174E+01  0.36537598348E+02  0.00000000000E+00 0.  1.
</event>
<event>
 7    1  0.1891413E-013  0.7246158E+02  0.7816164E-02  0.1226708E+00
        -11   -1    0    0    0    0  0.00000000000E+00  0.00000000000E+00  0.45593999997E+02  0.45594000000E+02  0.51100000000E-03 0. -1.
         11   -1    0    0    0    0 -0.00000000000E+00 -0.00000000000E+00 -0.45593999997E+02  0.45594000000E+02  0.51100000000E-03 0.  1.
    9900012    2    1    2    0    0 -0.92890977064E+00  0.14763140685E+02  0.11483277366E+02  0.72461578684E+02  0.70000010929E+02 0.  0.
        -12    1    1    2    0    0  0.92890977064E+00 -0.14763140685E+02 -0.11483277366E+02  0.18726421316E+02  0.00000000000E+00 0.  1.
         11    1    3    3    0    0 -0.81643119591E+01 -0.13305768727E+02  0.12090701741E+02  0.19745494171E+02  0.51100000000E-03 0. -1.
        -11    1    3    3    0    0  0.14137768524E+01 -0.68094911088E+01 -0.13412234483E+02  0.15108142448E+02  0.51100000000E-03 0.  1.
        -12    1    3    3    0    0  0.58216253361E+01  0.34878400521E+02  0.12804810108E+02  0.37607942065E+02  0.00000000000E+00 0.  1.
</event>
<event>
 7    1  0.1891413E-013  0.7246152E+02  0.7816164E-02  0.1226708E+00
        -11   -1    0    0    0    0  0.00000000000E+00  0.00000000000E+00  0.45593999997E+02  0.45594000000E+02  0.51100000000E-03 0.  1.
         11   -1    0    0    0    0 -0.00000000000E+00 -0.00000000000E+00 -0.45593999997E+02  0.45594000000E+02  0.51100000000E-03 0. -1.
    9900012    2    1    2    0    0  0.57451815648E+01  0.14028566116E+02  0.10994246267E+02  0.72461515293E+02  0.69999928351E+02 0.  0.
        -12    1    1    2    0    0 -0.57451815648E+01 -0.14028566116E+02 -0.10994246267E+02  0.18726484707E+02  0.00000000000E+00 0.  1.
         11    1    3    3    0    0  0.10554680471E+01  0.71243958677E+01 -0.64706273204E+01  0.96819444049E+01  0.51100000000E-03 0. -1.
        -11    1    3    3    0    0  0.26619653537E+02 -0.13101591770E+02  0.31862109300E+01  0.29839731931E+02  0.51100000000E-03 0.  1.
         12    1    3    3    0    0 -0.21929940020E+02  0.20005762019E+02  0.14278662658E+02  0.32939838957E+02  0.00000000000E+00 0. -1.
</event>
<event>
 7    1  0.1891413E-013  0.7246159E+02  0.7816164E-02  0.1226708E+00
        -11   -1    0    0    0    0  0.00000000000E+00  0.00000000000E+00  0.45593999997E+02  0.45594000000E+02  0.51100000000E-03 0.  1.
         11   -1    0    0    0    0 -0.00000000000E+00 -0.00000000000E+00 -0.45593999997E+02  0.45594000000E+02  0.51100000000E-03 0. -1.
    9900012    2    1    2    0    0  0.12641835799E+02 -0.13105473626E+02 -0.43713740019E+01  0.72461591856E+02  0.70000028088E+02 0.  0.
        -12    1    1    2    0    0 -0.12641835799E+02  0.13105473626E+02  0.43713740019E+01  0.18726408144E+02  0.00000000000E+00 0.  1.
         11    1    3    3    0    0  0.26447015972E+02 -0.18254147247E+02 -0.35132137124E+01  0.32326478564E+02  0.51100000000E-03 0. -1.
        -11    1    3    3    0    0 -0.10637429180E+02 -0.15737050929E+02 -0.76311483737E+00  0.19010313412E+02  0.51100000000E-03 0.  1.
        -12    1    3    3    0    0 -0.31677509931E+01  0.20885724550E+02 -0.95045452071E-01  0.21124799880E+02  0.00000000000E+00 0.  1.
</event>
<event>
 7    1  0.1891413E-013  0.7246153E+02  0.7816164E-02  0.1226708E+00
        -11   -1    0    0    0    0  0.00000000000E+00  0.00000000000E+00  0.45593999997E+02  0.45594000000E+02  0.51100000000E-03 0.  1.
         11   -1    0    0    0    0 -0.00000000000E+00 -0.00000000000E+00 -0.45593999997E+02  0.45594000000E+02  0.51100000000E-03 0. -1.
    9900012    2    1    2    0    0 -0.18568603878E+02  0.18538187065E+00 -0.24193188668E+01  0.72461534231E+02  0.69999953021E+02 0.  0.
        -12    1    1    2    0    0  0.18568603878E+02 -0.18538187065E+00  0.24193188668E+01  0.18726465769E+02  0.00000000000E+00 0.  1.
         11    1    3    3    0    0 -0.99905959981E+01 -0.92961529478E+01 -0.11391067395E+02  0.17776019934E+02  0.51100000000E-03 0. -1.
        -11    1    3    3    0    0 -0.24953207102E+02  0.98369923045E+01 -0.10883678419E+02  0.28946215961E+02  0.51100000000E-03 0.  1.
        -12    1    3    3    0    0  0.16375199222E+02 -0.35545748598E+00  0.19855426948E+02  0.25739298337E+02  0.00000000000E+00 0.  1.
</event>
<event>
 7    1  0.1891413E-013  0.7246173E+02  0.7816164E-02  0.1226708E+00
        -11   -1    0    0    0    0  0.00000000000E+00  0.00000000000E+00  0.45593999997E+02  0.45594000000E+02  0.51100000000E-03 0.  1.
         11   -1    0    0    0    0 -0.00000000000E+00 -0.00000000000E+00 -0.45593999997E+02  0.45594000000E+02  0.51100000000E-03 0. -1.
    9900012    2    1    2    0    0  0.46723590135E+01 -0.16848272034E+02 -0.67065699698E+01  0.72461727278E+02  0.70000204501E+02 0.  0.
        -12    1    1    2    0    0 -0.46723590135E+01  0.16848272034E+02  0.67065699698E+01  0.18726272722E+02  0.00000000000E+00 0.  1.
         11    1    3    3    0    0 -0.78634354903E+01  0.25394099013E+01  0.16892187421E+02  0.18805005091E+02  0.51100000000E-03 0. -1.
        -11    1    3    3    0    0  0.18990091302E+02  0.74911496149E+01 -0.80760810051E+01  0.21953677935E+02  0.51100000000E-03 0.  1.
        -12    1    3    3    0    0 -0.64542967980E+01 -0.26878831550E+02 -0.15522676386E+02  0.31703044252E+02  0.00000000000E+00 0.  1.
</event>
<event>
 7    1  0.1891413E-013  0.7246154E+02  0.7816164E-02  0.1226708E+00
        -11   -1    0    0    0    0  0.00000000000E+00  0.00000000000E+00  0.45593999997E+02  0.45594000000E+02  0.51100000000E-03 0. -1.
         11   -1    0    0    0    0 -0.00000000000E+00 -0.00000000000E+00 -0.45593999997E+02  0.45594000000E+02  0.51100000000E-03 0.  1.
    9900012    2    1    2    0    0 -0.16270375425E+02 -0.87171192648E+01  0.31570831572E+01  0.72461535870E+02  0.69999955156E+02 0.  0.
        -12    1    1    2    0    0  0.16270375425E+02  0.87171192648E+01 -0.31570831572E+01  0.18726464130E+02  0.00000000000E+00 0.  1.
         11    1    3    3    0    0  0.98125068903E+01  0.13685239637E+01  0.10635322189E+02  0.14535068890E+02  0.51100000000E-03 0. -1.
        -11    1    3    3    0    0 -0.12273436788E+02 -0.17278102434E+02 -0.26120633538E+02  0.33637145702E+02  0.51100000000E-03 0.  1.
         12    1    3    3    0    0 -0.13809445527E+02  0.71924592052E+01  0.18642394507E+02  0.24289321278E+02  0.00000000000E+00 0. -1.
</event>
<event>
 7    1  0.1891413E-013  0.7246160E+02  0.7816164E-02  0.1226708E+00
        -11   -1    0    0    0    0  0.00000000000E+00  0.00000000000E+00  0.45593999997E+02  0.45594000000E+02  0.51100000000E-03 0.  1.
         11   -1    0    0    0    0 -0.00000000000E+00 -0.00000000000E+00 -0.45593999997E+02  0.45594000000E+02  0.51100000000E-03 0. -1.
    9900012    2    1    2    0    0  0.39298886588E+01 -0.17064078662E+02  0.66371117776E+01  0.72461599967E+02  0.70000038654E+02 0.  0.
        -12    1    1    2    0    0 -0.39298886588E+01  0.17064078662E+02 -0.66371117776E+01  0.18726400033E+02  0.00000000000E+00 0.  1.
         11    1    3    3    0    0 -0.14818298708E+02 -0.14629837596E+02 -0.54449536721E+01  0.21523513780E+02  0.51100000000E-03 0. -1.
        -11    1    3    3    0    0  0.58665294048E+00  0.17373872357E+02 -0.61764919397E+01  0.18448432326E+02  0.51100000000E-03 0.  1.
         12    1    3    3    0    0  0.18161534426E+02 -0.19808113422E+02  0.18258557389E+02  0.32489653861E+02  0.00000000000E+00 0. -1.
</event>
<event>
 7    1  0.1891413E-013  0.7246156E+02  0.7816164E-02  0.1226708E+00
        -11   -1    0    0    0    0  0.00000000000E+00  0.00000000000E+00  0.45593999997E+02  0.45594000000E+02  0.51100000000E-03 0. -1.
         11   -1    0    0    0    0 -0.00000000000E+00 -0.00000000000E+00 -0.45593999997E+02  0.45594000000E+02  0.51100000000E-03 0.  1.
    9900012    2    1    2    0    0 -0.89498576790E+01 -0.17831807684E+00  0.16448337850E+02  0.72461559659E+02  0.69999986145E+02 0.  0.
        -12    1    1    2    0    0  0.89498576790E+01  0.17831807684E+00 -0.16448337850E+02  0.18726440341E+02  0.00000000000E+00 0.  1.
         11    1    3    3    0    0  0.77625151561E+01 -0.14653869384E+02  0.14187314100E+02  0.21823666307E+02  0.51100000000E-03 0. -1.
        -11    1    3    3    0    0 -0.48728510033E+01 -0.16401191535E+02  0.38250158650E+01  0.17532099341E+02  0.51100000000E-03 0.  1.
         12    1    3    3    0    0 -0.11839521832E+02  0.30876742842E+02 -0.15639921148E+01  0.33105794011E+02  0.00000000000E+00 0. -1.
</event>
<event>
 7    1 -0.1891413E-013  0.7246104E+02  0.7816164E-02  0.1226709E+00
        -11   -1    0    0    0    0  0.00000000000E+00  0.00000000000E+00  0.45593999997E+02  0.45594000000E+02  0.51100000000E-03 0.  1.
         11   -1    0    0    0    0 -0.00000000000E+00 -0.00000000000E+00 -0.45593999997E+02  0.45594000000E+02  0.51100000000E-03 0. -1.
    9900012    2    1    2    0    0 -0.39938321531E+01  0.15983822180E+02 -0.89031261264E+01  0.72461042918E+02  0.69999312990E+02 0.  0.
        -12    1    1    2    0    0  0.39938321531E+01 -0.15983822180E+02  0.89031261264E+01  0.18726957082E+02  0.00000000000E+00 0.  1.
         11    1    3    3    0    0 -0.24175873646E+02  0.12790370096E+02  0.11354365145E+02  0.29613983891E+02  0.51100000000E-03 0. -1.
        -11    1    3    3    0    0 -0.56119705139E+01  0.77700122601E+01  0.23434007876E+00  0.95876075798E+01  0.51100000000E-03 0.  1.
        -12    1    3    3    0    0  0.25794012007E+02 -0.45765601767E+01 -0.20491831350E+02  0.33259451447E+02  0.00000000000E+00 0.  1.
</event>
<event>
 7    1  0.1891413E-013  0.7246156E+02  0.7816164E-02  0.1226708E+00
        -11   -1    0    0    0    0  0.00000000000E+00  0.00000000000E+00  0.45593999997E+02  0.45594000000E+02  0.51100000000E-03 0. -1.
         11   -1    0    0    0    0 -0.00000000000E+00 -0.00000000000E+00 -0.45593999997E+02  0.45594000000E+02  0.51100000000E-03 0.  1.
    9900012    2    1    2    0    0  0.99264947432E+01  0.15454395712E+02 -0.36477418482E+01  0.72461557057E+02  0.69999982756E+02 0.  0.
        -12    1    1    2    0    0 -0.99264947432E+01 -0.15454395712E+02  0.36477418482E+01  0.18726442943E+02  0.00000000000E+00 0.  1.
         11    1    3    3    0    0 -0.62167956713E+01 -0.80836947565E+01 -0.96211732190E-01  0.10198231528E+02  0.51100000000E-03 0. -1.
        -11    1    3    3    0    0  0.14461753804E+02 -0.11893766428E+02  0.13324784604E+02  0.22981598899E+02  0.51100000000E-03 0.  1.
        -12    1    3    3    0    0  0.16815366101E+01  0.35431856897E+02 -0.16876314720E+02  0.39281726630E+02  0.00000000000E+00 0.  1.
</event>
<event>
 7    1  0.1891413E-013  0.7246180E+02  0.7816164E-02  0.1226707E+00
        -11   -1    0    0    0    0  0.00000000000E+00  0.00000000000E+00  0.45593999997E+02  0.45594000000E+02  0.51100000000E-03 0.  1.
         11   -1    0    0    0    0 -0.00000000000E+00 -0.00000000000E+00 -0.45593999997E+02  0.45594000000E+02  0.51100000000E-03 0. -1.
    9900012    2    1    2    0    0 -0.11400282622E+02  0.99241727870E+01 -0.11055090425E+02  0.72461797137E+02  0.70000295504E+02 0.  0.
        -12    1    1    2    0    0  0.11400282622E+02 -0.99241727870E+01  0.11055090425E+02  0.18726202863E+02  0.00000000000E+00 0.  1.
         11    1    3    3    0    0 -0.11724168632E+01 -0.68197264535E+01  0.42528068838E+01  0.81221670048E+01  0.51100000000E-03 0. -1.
        -11    1    3    3    0    0 -0.10001209343E+02 -0.12898792036E+02 -0.27747300425E+02  0.32191857750E+02  0.51100000000E-03 0.  1.
        -12    1    3    3    0    0 -0.22665641590E+00  0.29642691276E+02  0.12439403116E+02  0.32147772382E+02  0.00000000000E+00 0.  1.
</event>
<event>
 7    1  0.1891413E-013  0.7246171E+02  0.7816164E-02  0.1226708E+00
        -11   -1    0    0    0    0  0.00000000000E+00  0.00000000000E+00  0.45593999997E+02  0.45594000000E+02  0.51100000000E-03 0.  1.
         11   -1    0    0    0    0 -0.00000000000E+00 -0.00000000000E+00 -0.45593999997E+02  0.45594000000E+02  0.51100000000E-03 0. -1.
    9900012    2    1    2    0    0  0.20023049901E+01  0.15562597457E+02  0.10221072433E+02  0.72461708681E+02  0.70000180275E+02 0.  0.
        -12    1    1    2    0    0 -0.20023049901E+01 -0.15562597457E+02 -0.10221072433E+02  0.18726291319E+02  0.00000000000E+00 0.  1.
         11    1    3    3    0    0  0.10791005027E+02 -0.67731669033E+01 -0.20668897830E+02  0.24280134208E+02  0.51100000000E-03 0. -1.
        -11    1    3    3    0    0 -0.11936935026E+01  0.16024927831E+02  0.33742073711E+00  0.16072867485E+02  0.51100000000E-03 0.  1.
        -12    1    3    3    0    0 -0.75950065339E+01  0.63108365289E+01  0.30552549526E+02  0.32108706989E+02  0.00000000000E+00 0.  1.
</event>
<event>
 7    1  0.1891413E-013  0.7246158E+02  0.7816164E-02  0.1226708E+00
        -11   -1    0    0    0    0  0.00000000000E+00  0.00000000000E+00  0.45593999997E+02  0.45594000000E+02  0.51100000000E-03 0.  1.
         11   -1    0    0    0    0 -0.00000000000E+00 -0.00000000000E+00 -0.45593999997E+02  0.45594000000E+02  0.51100000000E-03 0. -1.
    9900012    2    1    2    0    0 -0.53803790675E+01 -0.17675207953E+02 -0.30524171103E+01  0.72461582689E+02  0.70000016146E+02 0.  0.
        -12    1    1    2    0    0  0.53803790675E+01  0.17675207953E+02  0.30524171103E+01  0.18726417311E+02  0.00000000000E+00 0.  1.
         11    1    3    3    0    0  0.14370221912E+02 -0.27286798815E+02 -0.82837130700E+01  0.31932625477E+02  0.51100000000E-03 0. -1.
        -11    1    3    3    0    0  0.62618035140E+01 -0.51779342610E+01 -0.42109947899E+01  0.91517027837E+01  0.51100000000E-03 0.  1.
        -12    1    3    3    0    0 -0.26012404493E+02  0.14789525123E+02  0.94422907496E+01  0.31377254429E+02  0.00000000000E+00 0.  1.
</event>
<event>
 7    1  0.1891413E-013  0.7246166E+02  0.7816164E-02  0.1226708E+00
        -11   -1    0    0    0    0  0.00000000000E+00  0.00000000000E+00  0.45593999997E+02  0.45594000000E+02  0.51100000000E-03 0. -1.
         11   -1    0    0    0    0 -0.00000000000E+00 -0.00000000000E+00 -0.45593999997E+02  0.45594000000E+02  0.51100000000E-03 0.  1.
    9900012    2    1    2    0    0 -0.74939910431E+01  0.11782856629E+02 -0.12477186592E+02  0.72461660333E+02  0.70000117291E+02 0.  0.
        -12    1    1    2    0    0  0.74939910431E+01 -0.11782856629E+02  0.12477186592E+02  0.18726339667E+02  0.00000000000E+00 0.  1.
         11    1    3    3    0    0  0.36167625807E+01 -0.17076056493E+02  0.18640449866E+02  0.25537013302E+02  0.51100000000E-03 0. -1.
        -11    1    3    3    0    0 -0.35818162880E+01  0.10291975605E+02 -0.12631244360E+01  0.10970398961E+02  0.51100000000E-03 0.  1.
        -12    1    3    3    0    0 -0.75289373358E+01  0.18566937518E+02 -0.29854512021E+02  0.35954248069E+02  0.00000000000E+00 0.  1.
</event>
<event>
 7    1  0.1891413E-013  0.7246155E+02  0.7816164E-02  0.1226708E+00
        -11   -1    0    0    0    0  0.00000000000E+00  0.00000000000E+00  0.45593999997E+02  0.45594000000E+02  0.51100000000E-03 0. -1.
         11   -1    0    0    0    0 -0.00000000000E+00 -0.00000000000E+00 -0.45593999997E+02  0.45594000000E+02  0.51100000000E-03 0.  1.
    9900012    2    1    2    0    0 -0.16167150492E+02  0.60215161571E+01  0.72831688109E+01  0.72461549194E+02  0.69999972513E+02 0.  0.
        -12    1    1    2    0    0  0.16167150492E+02 -0.60215161571E+01 -0.72831688109E+01  0.18726450806E+02  0.00000000000E+00 0.  1.
         11    1    3    3    0    0 -0.26971221347E+02 -0.48418667818E+01  0.87340087021E+01  0.28760621745E+02  0.51100000000E-03 0. -1.
        -11    1    3    3    0    0 -0.58179749821E+01  0.22491141455E+02 -0.26384620944E+01  0.23380798945E+02  0.51100000000E-03 0.  1.
        -12    1    3    3    0    0  0.16622045837E+02 -0.11627758516E+02  0.11876222031E+01  0.20320128504E+02  0.00000000000E+00 0.  1.
</event>
<event>
 7    1  0.1891413E-013  0.7246156E+02  0.7816164E-02  0.1226708E+00
        -11   -1    0    0    0    0  0.00000000000E+00  0.00000000000E+00  0.45593999997E+02  0.45594000000E+02  0.51100000000E-03 0. -1.
         11   -1    0    0    0    0 -0.00000000000E+00 -0.00000000000E+00 -0.45593999997E+02  0.45594000000E+02  0.51100000000E-03 0.  1.
    9900012    2    1    2    0    0 -0.40714182215E+01  0.34688595173E+01  0.17946313075E+02  0.72461559183E+02  0.69999985526E+02 0.  0.
        -12    1    1    2    0    0  0.40714182215E+01 -0.34688595173E+01 -0.17946313075E+02  0.18726440817E+02  0.00000000000E+00 0.  1.
         11    1    3    3    0    0 -0.32806559610E+00  0.95822110638E+01  0.25337040467E+02  0.27090441410E+02  0.51100000000E-03 0. -1.
        -11    1    3    3    0    0 -0.34619119437E+01 -0.83282214712E+01  0.17867297950E+02  0.20014605754E+02  0.51100000000E-03 0.  1.
        -12    1    3    3    0    0 -0.28144068175E+00  0.22148699247E+01 -0.25258025342E+02  0.25356512020E+02  0.00000000000E+00 0.  1.
</event>
<event>
 7    1  0.1891413E-013  0.7246144E+02  0.7816164E-02  0.1226708E+00
        -11   -1    0    0    0    0  0.00000000000E+00  0.00000000000E+00  0.45593999997E+02  0.45594000000E+02  0.51100000000E-03 0.  1.
         11   -1    0    0    0    0 -0.00000000000E+00 -0.00000000000E+00 -0.45593999997E+02  0.45594000000E+02  0.51100000000E-03 0. -1.
    9900012    2    1    2    0    0  0.92507340577E+01 -0.23572532344E+01 -0.16110601318E+02  0.72461436027E+02  0.69999825091E+02 0.  0.
        -12    1    1    2    0    0 -0.92507340577E+01  0.23572532344E+01  0.16110601318E+02  0.18726563973E+02  0.00000000000E+00 0.  1.
         11    1    3    3    0    0 -0.11106056707E+01 -0.31639214942E+02 -0.99611404486E+01  0.33188818696E+02  0.51100000000E-03 0. -1.
        -11    1    3    3    0    0  0.90671008393E+01  0.14451684575E+01 -0.67557378576E+01  0.11399158906E+02  0.51100000000E-03 0.  1.
        -12    1    3    3    0    0  0.12942388891E+01  0.27836793251E+02  0.60627698808E+00  0.27873458425E+02  0.00000000000E+00 0.  1.
</event>
<event>
 7    1  0.1891413E-013  0.7246160E+02  0.7816164E-02  0.1226708E+00
        -11   -1    0    0    0    0  0.00000000000E+00  0.00000000000E+00  0.45593999997E+02  0.45594000000E+02  0.51100000000E-03 0.  1.
         11   -1    0    0    0    0 -0.00000000000E+00 -0.00000000000E+00 -0.45593999997E+02  0.45594000000E+02  0.51100000000E-03 0. -1.
    9900012    2    1    2    0    0  0.13329351293E+02 -0.23624269738E+01 -0.12939291268E+02  0.72461603507E+02  0.70000043265E+02 0.  0.
        -12    1    1    2    0    0 -0.13329351293E+02  0.23624269738E+01  0.12939291268E+02  0.18726396493E+02  0.00000000000E+00 0.  1.
         11    1    3    3    0    0 -0.12473677458E+02  0.30890687183E+01 -0.97701699559E+01  0.16142837300E+02  0.51100000000E-03 0. -1.
        -11    1    3    3    0    0  0.19593446147E+02 -0.14360928808E+02 -0.23163065295E+02  0.33565860666E+02  0.51100000000E-03 0.  1.
        -12    1    3    3    0    0  0.62095826034E+01  0.89094331163E+01  0.19993943982E+02  0.22752905540E+02  0.00000000000E+00 0.  1.
</event>
<event>
 7    1  0.1891413E-013  0.7246143E+02  0.7816164E-02  0.1226708E+00
        -11   -1    0    0    0    0  0.00000000000E+00  0.00000000000E+00  0.45593999997E+02  0.45594000000E+02  0.51100000000E-03 0.  1.
         11   -1    0    0    0    0 -0.00000000000E+00 -0.00000000000E+00 -0.45593999997E+02  0.45594000000E+02  0.51100000000E-03 0. -1.
    9900012    2    1    2    0    0  0.13437781707E+02 -0.11220139406E+02  0.66497430508E+01  0.72461425616E+02  0.69999811529E+02 0.  0.
        -12    1    1    2    0    0 -0.13437781707E+02  0.11220139406E+02 -0.66497430508E+01  0.18726574384E+02  0.00000000000E+00 0.  1.
         11    1    3    3    0    0  0.38183443650E+01  0.42949052789E+01 -0.21766084504E+02  0.22511961264E+02  0.51100000000E-03 0. -1.
        -11    1    3    3    0    0 -0.99284949046E+01 -0.80366809265E+01 -0.21009093927E+01  0.12945156311E+02  0.51100000000E-03 0.  1.
        -12    1    3    3    0    0  0.19547932247E+02 -0.74783637588E+01  0.30516736948E+02  0.37004308041E+02  0.00000000000E+00 0.  1.
</event>
<event>
 7    1  0.1891413E-013  0.7246159E+02  0.7816164E-02  0.1226708E+00
        -11   -1    0    0    0    0  0.00000000000E+00  0.00000000000E+00  0.45593999997E+02  0.45594000000E+02  0.51100000000E-03 0.  1.
         11   -1    0    0    0    0 -0.00000000000E+00 -0.00000000000E+00 -0.45593999997E+02  0.45594000000E+02  0.51100000000E-03 0. -1.
    9900012    2    1    2    0    0 -0.16536283914E+02 -0.68310135580E+01  0.55287444226E+01  0.72461589591E+02  0.70000025137E+02 0.  0.
        -12    1    1    2    0    0  0.16536283914E+02  0.68310135580E+01 -0.55287444226E+01  0.18726410409E+02  0.00000000000E+00 0.  1.
         11    1    3    3    0    0  0.12594686349E+02 -0.11299259524E+02 -0.23233917635E+01  0.17079155119E+02  0.51100000000E-03 0. -1.
        -11    1    3    3    0    0 -0.13035676409E+02 -0.20890379566E+02  0.56680881453E+01  0.25267845997E+02  0.51100000000E-03 0.  1.
         12    1    3    3    0    0 -0.16095293854E+02  0.25358625532E+02  0.21840480408E+01  0.30114588475E+02  0.00000000000E+00 0. -1.
</event>
<event>
 7    1  0.1891413E-013  0.7246156E+02  0.7816164E-02  0.1226708E+00
        -11   -1    0    0    0    0  0.00000000000E+00  0.00000000000E+00  0.45593999997E+02  0.45594000000E+02  0.51100000000E-03 0. -1.
         11   -1    0    0    0    0 -0.00000000000E+00 -0.00000000000E+00 -0.45593999997E+02  0.45594000000E+02  0.51100000000E-03 0.  1.
    9900012    2    1    2    0    0  0.11778352898E+02 -0.22160627286E+01 -0.14388853340E+02  0.72461557960E+02  0.69999983933E+02 0.  0.
        -12    1    1    2    0    0 -0.11778352898E+02  0.22160627286E+01  0.14388853340E+02  0.18726442040E+02  0.00000000000E+00 0.  1.
         11    1    3    3    0    0 -0.92189579588E+01  0.18937644120E+02 -0.53720783247E+01  0.21736668936E+02  0.51100000000E-03 0.  1.
        -11    1    3    3    0    0  0.77559422974E+00  0.71763321479E+01  0.89956898790E+01  0.11533591209E+02  0.51100000000E-03 0. -1.
         12    1    3    3    0    0  0.20221716627E+02 -0.28330038996E+02 -0.18012464895E+02  0.39191297816E+02  0.00000000000E+00 0. -1.
</event>
<event>
 7    1  0.1891413E-013  0.7246159E+02  0.7816164E-02  0.1226708E+00
        -11   -1    0    0    0    0  0.00000000000E+00  0.00000000000E+00  0.45593999997E+02  0.45594000000E+02  0.51100000000E-03 0.  1.
         11   -1    0    0    0    0 -0.00000000000E+00 -0.00000000000E+00 -0.45593999997E+02  0.45594000000E+02  0.51100000000E-03 0. -1.
    9900012    2    1    2    0    0  0.17050270281E+02 -0.50623193821E+01  0.58599893155E+01  0.72461594339E+02  0.70000031323E+02 0.  0.
        -12    1    1    2    0    0 -0.17050270281E+02  0.50623193821E+01 -0.58599893155E+01  0.18726405661E+02  0.00000000000E+00 0.  1.
         11    1    3    3    0    0  0.11076795273E+02  0.19127180194E+02 -0.17362315903E+02  0.28106839549E+02  0.51100000000E-03 0. -1.
        -11    1    3    3    0    0  0.14357988747E+02 -0.35856118830E+01  0.50688562585E+01  0.15642945933E+02  0.51100000000E-03 0.  1.
        -12    1    3    3    0    0 -0.83845137391E+01 -0.20603887693E+02  0.18153448960E+02  0.28711808857E+02  0.00000000000E+00 0.  1.
</event>
<event>
 7    1  0.1891413E-013  0.7246148E+02  0.7816164E-02  0.1226708E+00
        -11   -1    0    0    0    0  0.00000000000E+00  0.00000000000E+00  0.45593999997E+02  0.45594000000E+02  0.51100000000E-03 0.  1.
         11   -1    0    0    0    0 -0.00000000000E+00 -0.00000000000E+00 -0.45593999997E+02  0.45594000000E+02  0.51100000000E-03 0. -1.
    9900012    2    1    2    0    0 -0.92185444956E+01  0.13539238751E+02 -0.90768839936E+01  0.72461484798E+02  0.69999888625E+02 0.  0.
        -12    1    1    2    0    0  0.92185444956E+01 -0.13539238751E+02  0.90768839936E+01  0.18726515202E+02  0.00000000000E+00 0.  1.
         11    1    3    3    0    0  0.10191267289E+02  0.18835044917E+02  0.82875916951E+01  0.22963123097E+02  0.51100000000E-03 0. -1.
        -11    1    3    3    0    0 -0.11319563228E+02  0.13417222993E+02  0.59427448503E+01  0.18532959859E+02  0.51100000000E-03 0.  1.
        -12    1    3    3    0    0 -0.80902485565E+01 -0.18713029159E+02 -0.23307220539E+02  0.30965401843E+02  0.00000000000E+00 0.  1.
</event>
<event>
 7    1  0.1891413E-013  0.7246161E+02  0.7816164E-02  0.1226708E+00
        -11   -1    0    0    0    0  0.00000000000E+00  0.00000000000E+00  0.45593999997E+02  0.45594000000E+02  0.51100000000E-03 0. -1.
         11   -1    0    0    0    0 -0.00000000000E+00 -0.00000000000E+00 -0.45593999997E+02  0.45594000000E+02  0.51100000000E-03 0.  1.
    9900012    2    1    2    0    0 -0.65532092454E+01 -0.70721299765E+01  0.16053596985E+02  0.72461613536E+02  0.70000056331E+02 0.  0.
        -12    1    1    2    0    0  0.65532092454E+01  0.70721299765E+01 -0.16053596985E+02  0.18726386464E+02  0.00000000000E+00 0.  1.
         11    1    3    3    0    0  0.18696636220E+01 -0.58385856866E+01  0.16124814849E+02  0.17250924006E+02  0.51100000000E-03 0. -1.
        -11    1    3    3    0    0 -0.10519579528E+02  0.21530834392E+02  0.14587295853E+02  0.28054011899E+02  0.51100000000E-03 0.  1.
        -12    1    3    3    0    0  0.20967066605E+01 -0.22764378682E+02 -0.14658513717E+02  0.27156677631E+02  0.00000000000E+00 0.  1.
</event>
<event>
 7    1  0.1891413E-013  0.7246153E+02  0.7816164E-02  0.1226708E+00
        -11   -1    0    0    0    0  0.00000000000E+00  0.00000000000E+00  0.45593999997E+02  0.45594000000E+02  0.51100000000E-03 0.  1.
         11   -1    0    0    0    0 -0.00000000000E+00 -0.00000000000E+00 -0.45593999997E+02  0.45594000000E+02  0.51100000000E-03 0. -1.
    9900012    2    1    2    0    0 -0.14587689467E+02  0.56265322195E+01  0.10306410420E+02  0.72461530911E+02  0.69999948696E+02 0.  0.
        -12    1    1    2    0    0  0.14587689467E+02 -0.56265322195E+01 -0.10306410420E+02  0.18726469089E+02  0.00000000000E+00 0.  1.
         11    1    3    3    0    0 -0.37245633176E+02 -0.56337510976E+01  0.19036643734E+02  0.42206280895E+02  0.51100000000E-03 0. -1.
        -11    1    3    3    0    0  0.18755298110E+01 -0.31587496120E+01 -0.10796581095E+01  0.38289650140E+01  0.51100000000E-03 0.  1.
        -12    1    3    3    0    0  0.20782413898E+02  0.14419032929E+02 -0.76505752053E+01  0.26426285002E+02  0.00000000000E+00 0.  1.
</event>
<event>
 7    1  0.1891413E-013  0.7246157E+02  0.7816164E-02  0.1226708E+00
        -11   -1    0    0    0    0  0.00000000000E+00  0.00000000000E+00  0.45593999997E+02  0.45594000000E+02  0.51100000000E-03 0.  1.
         11   -1    0    0    0    0 -0.00000000000E+00 -0.00000000000E+00 -0.45593999997E+02  0.45594000000E+02  0.51100000000E-03 0. -1.
    9900012    2    1    2    0    0 -0.15687803944E+02  0.68578810861E+01 -0.75856135851E+01  0.72461567904E+02  0.69999996886E+02 0.  0.
        -12    1    1    2    0    0  0.15687803944E+02 -0.68578810861E+01  0.75856135851E+01  0.18726432096E+02  0.00000000000E+00 0.  1.
         11    1    3    3    0    0 -0.63184535852E+01  0.24246413472E+02 -0.19583289842E+02  0.31801205374E+02  0.51100000000E-03 0. -1.
        -11    1    3    3    0    0 -0.61077963359E+01  0.89276918559E+01 -0.14739543271E+01  0.10917023384E+02  0.51100000000E-03 0.  1.
        -12    1    3    3    0    0 -0.32615540231E+01 -0.26316224241E+02  0.13471630584E+02  0.29743339146E+02  0.00000000000E+00 0.  1.
</event>
<event>
 7    1  0.1891413E-013  0.7246161E+02  0.7816164E-02  0.1226708E+00
        -11   -1    0    0    0    0  0.00000000000E+00  0.00000000000E+00  0.45593999997E+02  0.45594000000E+02  0.51100000000E-03 0.  1.
         11   -1    0    0    0    0 -0.00000000000E+00 -0.00000000000E+00 -0.45593999997E+02  0.45594000000E+02  0.51100000000E-03 0. -1.
    9900012    2    1    2    0    0  0.72350219933E+01 -0.92559657535E+01 -0.14582841581E+02  0.72461609161E+02  0.70000050631E+02 0.  0.
        -12    1    1    2    0    0 -0.72350219933E+01  0.92559657535E+01  0.14582841581E+02  0.18726390839E+02  0.00000000000E+00 0.  1.
         11    1    3    3    0    0  0.15510257866E+02 -0.21621518212E+02  0.80242779340E+01  0.27792934092E+02  0.51100000000E-03 0. -1.
        -11    1    3    3    0    0  0.34757046921E+01  0.30106775862E+01  0.87585114332E+01  0.98922305585E+01  0.51100000000E-03 0.  1.
        -12    1    3    3    0    0 -0.11750940564E+02  0.93548748719E+01 -0.31365630948E+02  0.34776444511E+02  0.00000000000E+00 0.  1.
</event>
<event>
 7    1  0.1891413E-013  0.7246165E+02  0.7816164E-02  0.1226708E+00
        -11   -1    0    0    0    0  0.00000000000E+00  0.00000000000E+00  0.45593999997E+02  0.45594000000E+02  0.51100000000E-03 0.  1.
         11   -1    0    0    0    0 -0.00000000000E+00 -0.00000000000E+00 -0.45593999997E+02  0.45594000000E+02  0.51100000000E-03 0. -1.
    9900012    2    1    2    0    0 -0.71565825027E+01  0.17191805389E+02 -0.19751513804E+01  0.72461653089E+02  0.70000107856E+02 0.  0.
        -12    1    1    2    0    0  0.71565825027E+01 -0.17191805389E+02  0.19751513804E+01  0.18726346911E+02  0.00000000000E+00 0.  1.
         11    1    3    3    0    0 -0.20404235186E+02  0.88101264638E+01 -0.30552766971E+02  0.37781248149E+02  0.51100000000E-03 0. -1.
        -11    1    3    3    0    0  0.26234901136E+01 -0.16657505625E+01  0.67760717824E+00  0.31806567030E+01  0.51100000000E-03 0.  1.
        -12    1    3    3    0    0  0.10624162569E+02  0.10047429487E+02  0.27900008413E+02  0.31499748238E+02  0.00000000000E+00 0.  1.
</event>
<event>
 7    1  0.1891413E-013  0.7246158E+02  0.7816164E-02  0.1226708E+00
        -11   -1    0    0    0    0  0.00000000000E+00  0.00000000000E+00  0.45593999997E+02  0.45594000000E+02  0.51100000000E-03 0. -1.
         11   -1    0    0    0    0 -0.00000000000E+00 -0.00000000000E+00 -0.45593999997E+02  0.45594000000E+02  0.51100000000E-03 0.  1.
    9900012    2    1    2    0    0 -0.63511606849E+01 -0.16421996886E+02  0.63764752846E+01  0.72461583877E+02  0.70000017694E+02 0.  0.
        -12    1    1    2    0    0  0.63511606849E+01  0.16421996886E+02 -0.63764752846E+01  0.18726416123E+02  0.00000000000E+00 0.  1.
         11    1    3    3    0    0 -0.24649304021E+02 -0.10003064652E+02  0.44617758862E+01  0.26973263344E+02  0.51100000000E-03 0. -1.
        -11    1    3    3    0    0  0.53022920131E+01 -0.22497318259E+02  0.70898139263E+01  0.24176622825E+02  0.51100000000E-03 0.  1.
        -12    1    3    3    0    0  0.12995851323E+02  0.16078386026E+02 -0.51751145279E+01  0.21311697707E+02  0.00000000000E+00 0.  1.
</event>
<event>
 7    1  0.1891413E-013  0.7246158E+02  0.7816164E-02  0.1226708E+00
        -11   -1    0    0    0    0  0.00000000000E+00  0.00000000000E+00  0.45593999997E+02  0.45594000000E+02  0.51100000000E-03 0.  1.
         11   -1    0    0    0    0 -0.00000000000E+00 -0.00000000000E+00 -0.45593999997E+02  0.45594000000E+02  0.51100000000E-03 0. -1.
    9900012    2    1    2    0    0 -0.74042997421E+01 -0.67509211774E+01 -0.15820248723E+02  0.72461578530E+02  0.70000010728E+02 0.  0.
        -12    1    1    2    0    0  0.74042997421E+01  0.67509211774E+01  0.15820248723E+02  0.18726421470E+02  0.00000000000E+00 0.  1.
         11    1    3    3    0    0 -0.11277811874E+02 -0.97932327540E+01 -0.27856935576E+02  0.31608627120E+02  0.51100000000E-03 0. -1.
        -11    1    3    3    0    0 -0.68053236080E+01 -0.10918450479E+02 -0.72425070261E+01  0.14764108458E+02  0.51100000000E-03 0.  1.
        -12    1    3    3    0    0  0.10678835740E+02  0.13960762056E+02  0.19279193879E+02  0.26088842952E+02  0.00000000000E+00 0.  1.
</event>
<event>
 7    1  0.1891413E-013  0.7246158E+02  0.7816164E-02  0.1226708E+00
        -11   -1    0    0    0    0  0.00000000000E+00  0.00000000000E+00  0.45593999997E+02  0.45594000000E+02  0.51100000000E-03 0. -1.
         11   -1    0    0    0    0 -0.00000000000E+00 -0.00000000000E+00 -0.45593999997E+02  0.45594000000E+02  0.51100000000E-03 0.  1.
    9900012    2    1    2    0    0  0.10502543516E+02  0.14583494541E+02 -0.52627902766E+01  0.72461582969E+02  0.70000016511E+02 0.  0.
        -12    1    1    2    0    0 -0.10502543516E+02 -0.14583494541E+02  0.52627902766E+01  0.18726417031E+02  0.00000000000E+00 0.  1.
         11    1    3    3    0    0 -0.12787771381E+02  0.20243752360E+02  0.17658897224E+02  0.29751861419E+02  0.51100000000E-03 0. -1.
        -11    1    3    3    0    0  0.77089760260E+01  0.68204159028E+01  0.22964381479E+01  0.10546089933E+02  0.51100000000E-03 0.  1.
        -12    1    3    3    0    0  0.15581338870E+02 -0.12480673722E+02 -0.25218125648E+02  0.32163631616E+02  0.00000000000E+00 0.  1.
</event>
<event>
 7    1  0.1891413E-013  0.7246158E+02  0.7816164E-02  0.1226708E+00
        -11   -1    0    0    0    0  0.00000000000E+00  0.00000000000E+00  0.45593999997E+02  0.45594000000E+02  0.51100000000E-03 0. -1.
         11   -1    0    0    0    0 -0.00000000000E+00 -0.00000000000E+00 -0.45593999997E+02  0.45594000000E+02  0.51100000000E-03 0.  1.
    9900012    2    1    2    0    0  0.11357537048E+02 -0.88496886672E+01 -0.11973648085E+02  0.72461577870E+02  0.70000009869E+02 0.  0.
        -12    1    1    2    0    0 -0.11357537048E+02  0.88496886672E+01  0.11973648085E+02  0.18726422130E+02  0.00000000000E+00 0.  1.
         11    1    3    3    0    0 -0.90818233150E+00 -0.14976203517E+02 -0.28450029726E+02  0.32163887492E+02  0.51100000000E-03 0. -1.
        -11    1    3    3    0    0 -0.45348492491E+01 -0.11398650862E+02  0.34359801056E+01  0.12739704028E+02  0.51100000000E-03 0.  1.
        -12    1    3    3    0    0  0.16800568629E+02  0.17525165712E+02  0.13040401535E+02  0.27557986350E+02  0.00000000000E+00 0.  1.
</event>
<event>
 7    1  0.1891413E-013  0.7246164E+02  0.7816164E-02  0.1226708E+00
        -11   -1    0    0    0    0  0.00000000000E+00  0.00000000000E+00  0.45593999997E+02  0.45594000000E+02  0.51100000000E-03 0.  1.
         11   -1    0    0    0    0 -0.00000000000E+00 -0.00000000000E+00 -0.45593999997E+02  0.45594000000E+02  0.51100000000E-03 0. -1.
    9900012    2    1    2    0    0  0.12348507365E+02  0.65490743757E+01  0.12461970498E+02  0.72461635750E+02  0.70000085269E+02 0.  0.
        -12    1    1    2    0    0 -0.12348507365E+02 -0.65490743757E+01 -0.12461970498E+02  0.18726364250E+02  0.00000000000E+00 0.  1.
         11    1    3    3    0    0  0.13811374267E+02  0.40884293267E+01 -0.12744670025E+02  0.19232678644E+02  0.51100000000E-03 0. -1.
        -11    1    3    3    0    0  0.15058256590E+01  0.96029661275E+01 -0.11876834069E+02  0.15347431613E+02  0.51100000000E-03 0.  1.
        -12    1    3    3    0    0 -0.29686925616E+01 -0.71423210785E+01  0.37083474592E+02  0.37881525493E+02  0.00000000000E+00 0.  1.
</event>
<event>
 7    1  0.1891413E-013  0.7246156E+02  0.7816164E-02  0.1226708E+00
        -11   -1    0    0    0    0  0.00000000000E+00  0.00000000000E+00  0.45593999997E+02  0.45594000000E+02  0.51100000000E-03 0. -1.
         11   -1    0    0    0    0 -0.00000000000E+00 -0.00000000000E+00 -0.45593999997E+02  0.45594000000E+02  0.51100000000E-03 0.  1.
    9900012    2    1    2    0    0  0.13761434263E+02  0.21857466736E+01  0.12510999711E+02  0.72461556790E+02  0.69999982409E+02 0.  0.
        -12    1    1    2    0    0 -0.13761434263E+02 -0.21857466736E+01 -0.12510999711E+02  0.18726443210E+02  0.00000000000E+00 0.  1.
         11    1    3    3    0    0  0.18359553440E+02  0.88266520112E+01  0.25216541706E+02  0.32416924039E+02  0.51100000000E-03 0. -1.
        -11    1    3    3    0    0  0.13657312226E+02  0.43644684320E+01 -0.12032752689E+02  0.18717849756E+02  0.51100000000E-03 0.  1.
        -12    1    3    3    0    0 -0.18255431403E+02 -0.11005373770E+02 -0.67278930580E+00  0.21326782996E+02  0.00000000000E+00 0.  1.
</event>
<event>
 7    1  0.1891413E-013  0.7246157E+02  0.7816164E-02  0.1226708E+00
        -11   -1    0    0    0    0  0.00000000000E+00  0.00000000000E+00  0.45593999997E+02  0.45594000000E+02  0.51100000000E-03 0. -1.
         11   -1    0    0    0    0 -0.00000000000E+00 -0.00000000000E+00 -0.45593999997E+02  0.45594000000E+02  0.51100000000E-03 0.  1.
    9900012    2    1    2    0    0  0.17891500736E+02 -0.21472214911E+01  0.50953845003E+01  0.72461566759E+02  0.69999995395E+02 0.  0.
        -12    1    1    2    0    0 -0.17891500736E+02  0.21472214911E+01 -0.50953845003E+01  0.18726433241E+02  0.00000000000E+00 0.  1.
         11    1    3    3    0    0 -0.14899687927E+01  0.39133033998E+01  0.50501666360E+01  0.65603455560E+01  0.51100000000E-03 0. -1.
        -11    1    3    3    0    0 -0.10440035275E+02  0.22263190173E+02 -0.23595631305E+01  0.24702459627E+02  0.51100000000E-03 0.  1.
        -12    1    3    3    0    0  0.29821504804E+02 -0.28323715063E+02  0.24047809948E+01  0.41198761576E+02  0.00000000000E+00 0.  1.
</event>
<event>
 7    1  0.1891413E-013  0.7246159E+02  0.7816164E-02  0.1226708E+00
        -11   -1    0    0    0    0  0.00000000000E+00  0.00000000000E+00  0.45593999997E+02  0.45594000000E+02  0.51100000000E-03 0. -1.
         11   -1    0    0    0    0 -0.00000000000E+00 -0.00000000000E+00 -0.45593999997E+02  0.45594000000E+02  0.51100000000E-03 0.  1.
    9900012    2    1    2    0    0  0.47771981393E+01 -0.32483153348E+01  0.17813068426E+02  0.72461585999E+02  0.70000020458E+02 0.  0.
        -12    1    1    2    0    0 -0.47771981393E+01  0.32483153348E+01 -0.17813068426E+02  0.18726414001E+02  0.00000000000E+00 0.  1.
         11    1    3    3    0    0  0.60140851460E+01 -0.53416009101E+01 -0.22906083825E+01  0.83635403657E+01  0.51100000000E-03 0. -1.
        -11    1    3    3    0    0  0.15819860821E+02 -0.12635266231E+02 -0.12993345790E+02  0.24057119200E+02  0.51100000000E-03 0.  1.
         12    1    3    3    0    0 -0.17056747827E+02  0.14728551806E+02  0.33097022599E+02  0.40040926434E+02  0.00000000000E+00 0. -1.
</event>
<event>
 7    1  0.1891413E-013  0.7246148E+02  0.7816164E-02  0.1226708E+00
        -11   -1    0    0    0    0  0.00000000000E+00  0.00000000000E+00  0.45593999997E+02  0.45594000000E+02  0.51100000000E-03 0.  1.
         11   -1    0    0    0    0 -0.00000000000E+00 -0.00000000000E+00 -0.45593999997E+02  0.45594000000E+02  0.51100000000E-03 0. -1.
    9900012    2    1    2    0    0 -0.96746680259E+01 -0.31743124119E+01 -0.15716463396E+02  0.72461476501E+02  0.69999877816E+02 0.  0.
        -12    1    1    2    0    0  0.96746680259E+01  0.31743124119E+01  0.15716463396E+02  0.18726523499E+02  0.00000000000E+00 0.  1.
         11    1    3    3    0    0  0.44590857962E+01  0.68583078343E+01  0.11419845078E+02  0.14047515594E+02  0.51100000000E-03 0. -1.
        -11    1    3    3    0    0 -0.11623697610E+02 -0.13019606653E+02  0.10637236150E+02  0.20439454413E+02  0.51100000000E-03 0.  1.
         12    1    3    3    0    0 -0.25100562124E+01  0.29869864065E+01 -0.37773544624E+02  0.37974506494E+02  0.00000000000E+00 0. -1.
</event>
<event>
 7    1  0.1891413E-013  0.7246157E+02  0.7816164E-02  0.1226708E+00
        -11   -1    0    0    0    0  0.00000000000E+00  0.00000000000E+00  0.45593999997E+02  0.45594000000E+02  0.51100000000E-03 0.  1.
         11   -1    0    0    0    0 -0.00000000000E+00 -0.00000000000E+00 -0.45593999997E+02  0.45594000000E+02  0.51100000000E-03 0. -1.
    9900012    2    1    2    0    0 -0.88689516498E+01  0.13444641817E+02 -0.95531403046E+01  0.72461569838E+02  0.69999999405E+02 0.  0.
        -12    1    1    2    0    0  0.88689516498E+01 -0.13444641817E+02  0.95531403046E+01  0.18726430162E+02  0.00000000000E+00 0.  1.
         11    1    3    3    0    0 -0.58929121189E+01  0.24825601266E+02 -0.23238103798E+02  0.34511539518E+02  0.51100000000E-03 0. -1.
        -11    1    3    3    0    0  0.90310691251E+01  0.21101215468E+01  0.17209000085E+02  0.19548977126E+02  0.51100000000E-03 0.  1.
        -12    1    3    3    0    0 -0.12007108656E+02 -0.13491080996E+02 -0.35240365916E+01  0.18401053193E+02  0.00000000000E+00 0.  1.
</event>
<event>
 7    1  0.1891413E-013  0.7246158E+02  0.7816164E-02  0.1226708E+00
        -11   -1    0    0    0    0  0.00000000000E+00  0.00000000000E+00  0.45593999997E+02  0.45594000000E+02  0.51100000000E-03 0. -1.
         11   -1    0    0    0    0 -0.00000000000E+00 -0.00000000000E+00 -0.45593999997E+02  0.45594000000E+02  0.51100000000E-03 0.  1.
    9900012    2    1    2    0    0  0.13358703023E+02  0.48039114895E+01  0.12212543252E+02  0.72461582171E+02  0.70000015471E+02 0.  0.
        -12    1    1    2    0    0 -0.13358703023E+02 -0.48039114895E+01 -0.12212543252E+02  0.18726417829E+02  0.00000000000E+00 0.  1.
         11    1    3    3    0    0  0.89446402321E+01  0.12771974645E+02 -0.77292248729E+01  0.17403184841E+02  0.51100000000E-03 0. -1.
        -11    1    3    3    0    0  0.24287574959E+02 -0.16792855029E+02  0.10309320187E+02  0.31275683212E+02  0.51100000000E-03 0.  1.
        -12    1    3    3    0    0 -0.19873512169E+02  0.88247918733E+01  0.96324479374E+01  0.23782714117E+02  0.00000000000E+00 0.  1.
</event>
<event>
 7    1  0.1891413E-013  0.7246162E+02  0.7816164E-02  0.1226708E+00
        -11   -1    0    0    0    0  0.00000000000E+00  0.00000000000E+00  0.45593999997E+02  0.45594000000E+02  0.51100000000E-03 0.  1.
         11   -1    0    0    0    0 -0.00000000000E+00 -0.00000000000E+00 -0.45593999997E+02  0.45594000000E+02  0.51100000000E-03 0. -1.
    9900012    2    1    2    0    0  0.16993979658E+02 -0.33617395103E+00 -0.78593315960E+01  0.72461616188E+02  0.70000059785E+02 0.  0.
        -12    1    1    2    0    0 -0.16993979658E+02  0.33617395103E+00  0.78593315960E+01  0.18726383812E+02  0.00000000000E+00 0.  1.
         11    1    3    3    0    0  0.31891960984E+01  0.82906253271E+01  0.14725814764E+01  0.90041066484E+01  0.51100000000E-03 0. -1.
        -11    1    3    3    0    0  0.36856446081E+02 -0.13992854134E+01 -0.12822835339E+02  0.39048440734E+02  0.51100000000E-03 0.  1.
         12    1    3    3    0    0 -0.23051662521E+02 -0.72275138648E+01  0.34909222670E+01  0.24409068805E+02  0.00000000000E+00 0. -1.
</event>
<event>
 7    1  0.1891413E-013  0.7246139E+02  0.7816164E-02  0.1226708E+00
        -11   -1    0    0    0    0  0.00000000000E+00  0.00000000000E+00  0.45593999997E+02  0.45594000000E+02  0.51100000000E-03 0.  1.
         11   -1    0    0    0    0 -0.00000000000E+00 -0.00000000000E+00 -0.45593999997E+02  0.45594000000E+02  0.51100000000E-03 0. -1.
    9900012    2    1    2    0    0 -0.12034760965E+02  0.73272565714E+01 -0.12335388942E+02  0.72461388435E+02  0.69999763094E+02 0.  0.
        -12    1    1    2    0    0  0.12034760965E+02 -0.73272565714E+01  0.12335388942E+02  0.18726611565E+02  0.00000000000E+00 0.  1.
         11    1    3    3    0    0  0.89948151388E+01  0.14022645272E+02  0.44689008951E+00  0.16665563021E+02  0.51100000000E-03 0. -1.
        -11    1    3    3    0    0  0.61008506034E+01  0.10480607587E+02  0.10573991797E+02  0.16089525048E+02  0.51100000000E-03 0.  1.
        -12    1    3    3    0    0 -0.27130426707E+02 -0.17175996287E+02 -0.23356270829E+02  0.39706300366E+02  0.00000000000E+00 0.  1.
</event>
<event>
 7    1  0.1891413E-013  0.7246159E+02  0.7816164E-02  0.1226708E+00
        -11   -1    0    0    0    0  0.00000000000E+00  0.00000000000E+00  0.45593999997E+02  0.45594000000E+02  0.51100000000E-03 0.  1.
         11   -1    0    0    0    0 -0.00000000000E+00 -0.00000000000E+00 -0.45593999997E+02  0.45594000000E+02  0.51100000000E-03 0. -1.
    9900012    2    1    2    0    0 -0.12451713666E+02  0.98634100771E+01 -0.99169842439E+01  0.72461585285E+02  0.70000019529E+02 0.  0.
        -12    1    1    2    0    0  0.12451713666E+02 -0.98634100771E+01  0.99169842439E+01  0.18726414715E+02  0.00000000000E+00 0.  1.
         11    1    3    3    0    0 -0.57245103277E+01  0.82506496669E+01  0.12233742661E+02  0.15827434984E+02  0.51100000000E-03 0. -1.
        -11    1    3    3    0    0  0.48043577368E+01 -0.38136258884E+01  0.15614684589E+02  0.16776291925E+02  0.51100000000E-03 0.  1.
        -12    1    3    3    0    0 -0.11531561075E+02  0.54263862987E+01 -0.37765411494E+02  0.39857858377E+02  0.00000000000E+00 0.  1.
</event>
<event>
 7    1  0.1891413E-013  0.7246156E+02  0.7816164E-02  0.1226708E+00
        -11   -1    0    0    0    0  0.00000000000E+00  0.00000000000E+00  0.45593999997E+02  0.45594000000E+02  0.51100000000E-03 0.  1.
         11   -1    0    0    0    0 -0.00000000000E+00 -0.00000000000E+00 -0.45593999997E+02  0.45594000000E+02  0.51100000000E-03 0. -1.
    9900012    2    1    2    0    0  0.48549189244E+01 -0.11232063176E+02 -0.14175683914E+02  0.72461561594E+02  0.69999988666E+02 0.  0.
        -12    1    1    2    0    0 -0.48549189244E+01  0.11232063176E+02  0.14175683914E+02  0.18726438406E+02  0.00000000000E+00 0.  1.
         11    1    3    3    0    0 -0.10668065180E+02 -0.23428654044E+02 -0.13662223583E+02  0.29143880979E+02  0.51100000000E-03 0. -1.
        -11    1    3    3    0    0 -0.12176654538E+02  0.95359443712E+01  0.46667038267E+00  0.15473297396E+02  0.51100000000E-03 0.  1.
        -12    1    3    3    0    0  0.27699638642E+02  0.26606464966E+01 -0.98013071356E+00  0.27844383220E+02  0.00000000000E+00 0.  1.
</event>
<event>
 7    1  0.1891413E-013  0.7246156E+02  0.7816164E-02  0.1226708E+00
        -11   -1    0    0    0    0  0.00000000000E+00  0.00000000000E+00  0.45593999997E+02  0.45594000000E+02  0.51100000000E-03 0. -1.
         11   -1    0    0    0    0 -0.00000000000E+00 -0.00000000000E+00 -0.45593999997E+02  0.45594000000E+02  0.51100000000E-03 0.  1.
    9900012    2    1    2    0    0 -0.18848254533E+01  0.15554633537E+02  0.10255740158E+02  0.72461564203E+02  0.69999992065E+02 0.  0.
        -12    1    1    2    0    0  0.18848254533E+01 -0.15554633537E+02 -0.10255740158E+02  0.18726435797E+02  0.00000000000E+00 0.  1.
         11    1    3    3    0    0 -0.47191340868E+00  0.25791696183E+02  0.13790449072E+02  0.29250825289E+02  0.51100000000E-03 0. -1.
        -11    1    3    3    0    0 -0.21044105825E+02 -0.68857512295E+00 -0.37106399472E+01  0.21379835704E+02  0.51100000000E-03 0.  1.
         12    1    3    3    0    0  0.19631193780E+02 -0.95484875226E+01  0.17593103294E+00  0.21830903209E+02  0.00000000000E+00 0. -1.
</event>
<event>
 7    1  0.1891413E-013  0.7246148E+02  0.7816164E-02  0.1226708E+00
        -11   -1    0    0    0    0  0.00000000000E+00  0.00000000000E+00  0.45593999997E+02  0.45594000000E+02  0.51100000000E-03 0. -1.
         11   -1    0    0    0    0 -0.00000000000E+00 -0.00000000000E+00 -0.45593999997E+02  0.45594000000E+02  0.51100000000E-03 0.  1.
    9900012    2    1    2    0    0  0.17274314954E+01  0.18510754470E+02 -0.22473203621E+01  0.72461481385E+02  0.69999884179E+02 0.  0.
        -12    1    1    2    0    0 -0.17274314954E+01 -0.18510754470E+02  0.22473203621E+01  0.18726518615E+02  0.00000000000E+00 0.  1.
         11    1    3    3    0    0  0.18631165204E+02 -0.19288772874E+02 -0.15230591385E+01  0.26860692195E+02  0.51100000000E-03 0. -1.
        -11    1    3    3    0    0  0.19082013763E+01  0.40444217819E+01 -0.50159725149E+01  0.67200119475E+01  0.51100000000E-03 0.  1.
        -12    1    3    3    0    0 -0.18811935085E+02  0.33755105562E+02  0.42917112912E+01  0.38880777242E+02  0.00000000000E+00 0.  1.
</event>
<event>
 7    1  0.1891413E-013  0.7246157E+02  0.7816164E-02  0.1226708E+00
        -11   -1    0    0    0    0  0.00000000000E+00  0.00000000000E+00  0.45593999997E+02  0.45594000000E+02  0.51100000000E-03 0.  1.
         11   -1    0    0    0    0 -0.00000000000E+00 -0.00000000000E+00 -0.45593999997E+02  0.45594000000E+02  0.51100000000E-03 0. -1.
    9900012    2    1    2    0    0  0.10668136670E+02  0.60162954212E+01 -0.14165955630E+02  0.72461568159E+02  0.69999997218E+02 0.  0.
        -12    1    1    2    0    0 -0.10668136670E+02 -0.60162954212E+01  0.14165955630E+02  0.18726431841E+02  0.00000000000E+00 0.  1.
         11    1    3    3    0    0  0.32100455731E+01  0.69632798518E+01 -0.20184293711E+02  0.21591604196E+02  0.51100000000E-03 0. -1.
        -11    1    3    3    0    0 -0.70540140229E+01  0.17383723999E+02  0.16745317411E+02  0.25146741924E+02  0.51100000000E-03 0.  1.
         12    1    3    3    0    0  0.14512105120E+02 -0.18330708430E+02 -0.10726979330E+02  0.25723222040E+02  0.00000000000E+00 0. -1.
</event>
<event>
 7    1  0.1891413E-013  0.7246158E+02  0.7816164E-02  0.1226708E+00
        -11   -1    0    0    0    0  0.00000000000E+00  0.00000000000E+00  0.45593999997E+02  0.45594000000E+02  0.51100000000E-03 0.  1.
         11   -1    0    0    0    0 -0.00000000000E+00 -0.00000000000E+00 -0.45593999997E+02  0.45594000000E+02  0.51100000000E-03 0. -1.
    9900012    2    1    2    0    0 -0.15365181027E+02  0.10069869888E+02 -0.36314752480E+01  0.72461583364E+02  0.70000017025E+02 0.  0.
        -12    1    1    2    0    0  0.15365181027E+02 -0.10069869888E+02  0.36314752480E+01  0.18726416636E+02  0.00000000000E+00 0.  1.
         11    1    3    3    0    0 -0.27712216798E+02 -0.12208730983E+02 -0.22414942589E+02  0.37675585245E+02  0.51100000000E-03 0. -1.
        -11    1    3    3    0    0 -0.13250461744E+01  0.86189053111E+01  0.14792601908E+01  0.88447434727E+01  0.51100000000E-03 0.  1.
        -12    1    3    3    0    0  0.13672081945E+02  0.13659695560E+02  0.17304207150E+02  0.25941254646E+02  0.00000000000E+00 0.  1.
</event>
<event>
 7    1  0.1891413E-013  0.7246147E+02  0.7816164E-02  0.1226708E+00
        -11   -1    0    0    0    0  0.00000000000E+00  0.00000000000E+00  0.45593999997E+02  0.45594000000E+02  0.51100000000E-03 0.  1.
         11   -1    0    0    0    0 -0.00000000000E+00 -0.00000000000E+00 -0.45593999997E+02  0.45594000000E+02  0.51100000000E-03 0. -1.
    9900012    2    1    2    0    0 -0.82371592561E+01  0.76761849584E+01 -0.14963565665E+02  0.72461470542E+02  0.69999870054E+02 0.  0.
        -12    1    1    2    0    0  0.82371592561E+01 -0.76761849584E+01  0.14963565665E+02  0.18726529458E+02  0.00000000000E+00 0.  1.
         11    1    3    3    0    0 -0.78594439784E+01  0.91369877636E+01 -0.18294037130E+02  0.21907240808E+02  0.51100000000E-03 0. -1.
        -11    1    3    3    0    0  0.24237719112E+02 -0.56222701690E+01 -0.22194250451E+01  0.24980047986E+02  0.51100000000E-03 0.  1.
         12    1    3    3    0    0 -0.24615434389E+02  0.41614673638E+01  0.55498965103E+01  0.25574181748E+02  0.00000000000E+00 0. -1.
</event>
<event>
 7    1  0.1891413E-013  0.7246158E+02  0.7816164E-02  0.1226708E+00
        -11   -1    0    0    0    0  0.00000000000E+00  0.00000000000E+00  0.45593999997E+02  0.45594000000E+02  0.51100000000E-03 0.  1.
         11   -1    0    0    0    0 -0.00000000000E+00 -0.00000000000E+00 -0.45593999997E+02  0.45594000000E+02  0.51100000000E-03 0. -1.
    9900012    2    1    2    0    0 -0.64584197797E+00 -0.12912626698E+02 -0.13547175002E+02  0.72461575071E+02  0.70000006222E+02 0.  0.
        -12    1    1    2    0    0  0.64584197797E+00  0.12912626698E+02  0.13547175002E+02  0.18726424929E+02  0.00000000000E+00 0.  1.
         11    1    3    3    0    0  0.86423901482E+01 -0.87343524854E+01 -0.33904517637E+02  0.36062392284E+02  0.51100000000E-03 0. -1.
        -11    1    3    3    0    0 -0.15718261490E+02  0.70783391192E+00  0.14036077550E+01  0.15796673324E+02  0.51100000000E-03 0.  1.
        -12    1    3    3    0    0  0.64300293643E+01 -0.48861081247E+01  0.18953734880E+02  0.20602509462E+02  0.00000000000E+00 0.  1.
</event>
<event>
 7    1  0.1891413E-013  0.7246161E+02  0.7816164E-02  0.1226708E+00
        -11   -1    0    0    0    0  0.00000000000E+00  0.00000000000E+00  0.45593999997E+02  0.45594000000E+02  0.51100000000E-03 0. -1.
         11   -1    0    0    0    0 -0.00000000000E+00 -0.00000000000E+00 -0.45593999997E+02  0.45594000000E+02  0.51100000000E-03 0.  1.
    9900012    2    1    2    0    0  0.15379067956E+02 -0.38517954822E+01 -0.99662265268E+01  0.72461608708E+02  0.70000050042E+02 0.  0.
        -12    1    1    2    0    0 -0.15379067956E+02  0.38517954822E+01  0.99662265268E+01  0.18726391292E+02  0.00000000000E+00 0.  1.
         11    1    3    3    0    0  0.93758000149E+01 -0.54740791187E+01 -0.20610961982E+02  0.23295555847E+02  0.51100000000E-03 0. -1.
        -11    1    3    3    0    0  0.29061760708E+01  0.87174731560E+01 -0.17613551085E+02  0.19866488861E+02  0.51100000000E-03 0.  1.
         12    1    3    3    0    0  0.30970918699E+01 -0.70951895195E+01  0.28258286541E+02  0.29299564000E+02  0.00000000000E+00 0. -1.
</event>
<event>
 7    1  0.1891413E-013  0.7246149E+02  0.7816164E-02  0.1226708E+00
        -11   -1    0    0    0    0  0.00000000000E+00  0.00000000000E+00  0.45593999997E+02  0.45594000000E+02  0.51100000000E-03 0. -1.
         11   -1    0    0    0    0 -0.00000000000E+00 -0.00000000000E+00 -0.45593999997E+02  0.45594000000E+02  0.51100000000E-03 0.  1.
    9900012    2    1    2    0    0 -0.13108166789E+02 -0.18817400562E+01  0.13240744304E+02  0.72461486926E+02  0.69999891397E+02 0.  0.
        -12    1    1    2    0    0  0.13108166789E+02  0.18817400562E+01 -0.13240744304E+02  0.18726513074E+02  0.00000000000E+00 0.  1.
         11    1    3    3    0    0  0.52503511830E+01 -0.11891894120E+02  0.10201663789E+02  0.16524444851E+02  0.51100000000E-03 0. -1.
        -11    1    3    3    0    0  0.17964539261E+02 -0.39440286025E+00 -0.59588332260E+00  0.17978745832E+02  0.51100000000E-03 0.  1.
        -12    1    3    3    0    0 -0.36323057234E+02  0.10404556924E+02  0.36349638374E+01  0.37958296243E+02  0.00000000000E+00 0.  1.
</event>
<event>
 7    1  0.1891413E-013  0.7246083E+02  0.7816164E-02  0.1226710E+00
        -11   -1    0    0    0    0  0.00000000000E+00  0.00000000000E+00  0.45593999997E+02  0.45594000000E+02  0.51100000000E-03 0.  1.
         11   -1    0    0    0    0 -0.00000000000E+00 -0.00000000000E+00 -0.45593999997E+02  0.45594000000E+02  0.51100000000E-03 0. -1.
    9900012    2    1    2    0    0  0.17338158753E+02  0.68827955706E+01  0.16498837447E+01  0.72460834166E+02  0.69999041050E+02 0.  0.
        -12    1    1    2    0    0 -0.17338158753E+02 -0.68827955706E+01 -0.16498837447E+01  0.18727165834E+02  0.00000000000E+00 0.  1.
         11    1    3    3    0    0  0.15988255070E+02 -0.42793743692E+01 -0.15037418570E+02  0.22362050503E+02  0.51100000000E-03 0. -1.
        -11    1    3    3    0    0  0.18077712301E+02  0.19965408526E+02  0.37518446013E+01  0.27193704379E+02  0.51100000000E-03 0.  1.
         12    1    3    3    0    0 -0.16727808618E+02 -0.88032385864E+01  0.12935457714E+02  0.22905079285E+02  0.00000000000E+00 0. -1.
</event>
<event>
 7    1  0.1891413E-013  0.7246157E+02  0.7816164E-02  0.1226708E+00
        -11   -1    0    0    0    0  0.00000000000E+00  0.00000000000E+00  0.45593999997E+02  0.45594000000E+02  0.51100000000E-03 0.  1.
         11   -1    0    0    0    0 -0.00000000000E+00 -0.00000000000E+00 -0.45593999997E+02  0.45594000000E+02  0.51100000000E-03 0. -1.
    9900012    2    1    2    0    0  0.10061763750E+02 -0.77600882856E+01 -0.13755771875E+02  0.72461566281E+02  0.69999994771E+02 0.  0.
        -12    1    1    2    0    0 -0.10061763750E+02  0.77600882856E+01  0.13755771875E+02  0.18726433719E+02  0.00000000000E+00 0.  1.
         11    1    3    3    0    0 -0.42957026061E+01 -0.19786234935E+01 -0.35003388817E+01  0.58839089352E+01  0.51100000000E-03 0. -1.
        -11    1    3    3    0    0  0.64339039125E+01  0.22434711780E+02  0.15121950008E+02  0.27809796557E+02  0.51100000000E-03 0.  1.
         12    1    3    3    0    0  0.79235624435E+01 -0.28216176572E+02 -0.25377383002E+02  0.38767860789E+02  0.00000000000E+00 0. -1.
</event>
<event>
 7    1  0.1891413E-013  0.7246155E+02  0.7816164E-02  0.1226708E+00
        -11   -1    0    0    0    0  0.00000000000E+00  0.00000000000E+00  0.45593999997E+02  0.45594000000E+02  0.51100000000E-03 0.  1.
         11   -1    0    0    0    0 -0.00000000000E+00 -0.00000000000E+00 -0.45593999997E+02  0.45594000000E+02  0.51100000000E-03 0. -1.
    9900012    2    1    2    0    0  0.47463100954E+01  0.49837881411E+01 -0.17415923510E+02  0.72461548242E+02  0.69999971272E+02 0.  0.
        -12    1    1    2    0    0 -0.47463100954E+01 -0.49837881411E+01  0.17415923510E+02  0.18726451758E+02  0.00000000000E+00 0.  1.
         11    1    3    3    0    0  0.98506737185E+01  0.26623974798E+02 -0.36856324075E+01  0.28626136541E+02  0.51100000000E-03 0. -1.
        -11    1    3    3    0    0  0.12953849442E+02 -0.17170152341E+01 -0.10479773451E+02  0.16750403234E+02  0.51100000000E-03 0.  1.
        -12    1    3    3    0    0 -0.18058213065E+02 -0.19923171423E+02 -0.32505176514E+01  0.27085008467E+02  0.00000000000E+00 0.  1.
</event>
<event>
 7    1  0.1891413E-013  0.7246153E+02  0.7816164E-02  0.1226708E+00
        -11   -1    0    0    0    0  0.00000000000E+00  0.00000000000E+00  0.45593999997E+02  0.45594000000E+02  0.51100000000E-03 0. -1.
         11   -1    0    0    0    0 -0.00000000000E+00 -0.00000000000E+00 -0.45593999997E+02  0.45594000000E+02  0.51100000000E-03 0.  1.
    9900012    2    1    2    0    0  0.55452470454E+00 -0.14893232699E+02  0.11338643968E+02  0.72461528765E+02  0.69999945900E+02 0.  0.
        -12    1    1    2    0    0 -0.55452470454E+00  0.14893232699E+02 -0.11338643968E+02  0.18726471235E+02  0.00000000000E+00 0.  1.
         11    1    3    3    0    0  0.28098887516E+01 -0.12804265072E+02  0.24619363024E+02  0.27891893353E+02  0.51100000000E-03 0. -1.
        -11    1    3    3    0    0 -0.17177993975E+02 -0.14899767312E+02 -0.53284658587E+01  0.23355493821E+02  0.51100000000E-03 0.  1.
         12    1    3    3    0    0  0.14922629928E+02  0.12810799685E+02 -0.79522531978E+01  0.21214141591E+02  0.00000000000E+00 0. -1.
</event>
<event>
 7    1  0.1891413E-013  0.7246155E+02  0.7816164E-02  0.1226708E+00
        -11   -1    0    0    0    0  0.00000000000E+00  0.00000000000E+00  0.45593999997E+02  0.45594000000E+02  0.51100000000E-03 0.  1.
         11   -1    0    0    0    0 -0.00000000000E+00 -0.00000000000E+00 -0.45593999997E+02  0.45594000000E+02  0.51100000000E-03 0. -1.
    9900012    2    1    2    0    0 -0.67656740534E+01  0.16700052060E+02  0.51003685278E+01  0.72461552304E+02  0.69999976564E+02 0.  0.
        -12    1    1    2    0    0  0.67656740534E+01 -0.16700052060E+02 -0.51003685278E+01  0.18726447696E+02  0.00000000000E+00 0.  1.
         11    1    3    3    0    0  0.12263519233E+02  0.16909470711E+02 -0.29333705027E+01  0.21093334646E+02  0.51100000000E-03 0. -1.
        -11    1    3    3    0    0 -0.78775585446E+01 -0.23354735761E+02  0.72926149412E+00  0.24658293405E+02  0.51100000000E-03 0.  1.
         12    1    3    3    0    0 -0.11151634742E+02  0.23145317109E+02  0.73044775364E+01  0.26709924253E+02  0.00000000000E+00 0. -1.
</event>
<event>
 7    1  0.1891413E-013  0.7246158E+02  0.7816164E-02  0.1226708E+00
        -11   -1    0    0    0    0  0.00000000000E+00  0.00000000000E+00  0.45593999997E+02  0.45594000000E+02  0.51100000000E-03 0. -1.
         11   -1    0    0    0    0 -0.00000000000E+00 -0.00000000000E+00 -0.45593999997E+02  0.45594000000E+02  0.51100000000E-03 0.  1.
    9900012    2    1    2    0    0  0.12255983986E+02 -0.13653973269E+02  0.37468277792E+01  0.72461578882E+02  0.70000011187E+02 0.  0.
        -12    1    1    2    0    0 -0.12255983986E+02  0.13653973269E+02 -0.37468277792E+01  0.18726421118E+02  0.00000000000E+00 0.  1.
         11    1    3    3    0    0 -0.55356844871E+01 -0.28399358007E+01  0.17535815255E+02  0.18606822808E+02  0.51100000000E-03 0. -1.
        -11    1    3    3    0    0 -0.91784420111E+01 -0.21014674632E+02 -0.32815876634E+01  0.23165257725E+02  0.51100000000E-03 0.  1.
        -12    1    3    3    0    0  0.26970110484E+02  0.10200637164E+02 -0.10507399812E+02  0.30689498349E+02  0.00000000000E+00 0.  1.
</event>
<event>
 7    1  0.1891413E-013  0.7246152E+02  0.7816164E-02  0.1226708E+00
        -11   -1    0    0    0    0  0.00000000000E+00  0.00000000000E+00  0.45593999997E+02  0.45594000000E+02  0.51100000000E-03 0. -1.
         11   -1    0    0    0    0 -0.00000000000E+00 -0.00000000000E+00 -0.45593999997E+02  0.45594000000E+02  0.51100000000E-03 0.  1.
    9900012    2    1    2    0    0  0.87318725263E+01  0.15050784746E+02  0.69216555564E+01  0.72461520487E+02  0.69999935117E+02 0.  0.
        -12    1    1    2    0    0 -0.87318725263E+01 -0.15050784746E+02 -0.69216555564E+01  0.18726479513E+02  0.00000000000E+00 0.  1.
         11    1    3    3    0    0  0.46668983085E+01  0.15973393256E+02  0.12676467701E+01  0.16689402641E+02  0.51100000000E-03 0. -1.
        -11    1    3    3    0    0  0.14961502373E+02 -0.77035291948E+01 -0.20569633883E+02  0.26576319415E+02  0.51100000000E-03 0.  1.
         12    1    3    3    0    0 -0.10896528156E+02  0.67809206852E+01  0.26223642669E+02  0.29195798431E+02  0.00000000000E+00 0. -1.
</event>
<event>
 7    1  0.1891413E-013  0.7246162E+02  0.7816164E-02  0.1226708E+00
        -11   -1    0    0    0    0  0.00000000000E+00  0.00000000000E+00  0.45593999997E+02  0.45594000000E+02  0.51100000000E-03 0. -1.
         11   -1    0    0    0    0 -0.00000000000E+00 -0.00000000000E+00 -0.45593999997E+02  0.45594000000E+02  0.51100000000E-03 0.  1.
    9900012    2    1    2    0    0 -0.14015348192E+02  0.63224264498E+01  0.10689916611E+02  0.72461618120E+02  0.70000062302E+02 0.  0.
        -12    1    1    2    0    0  0.14015348192E+02 -0.63224264498E+01 -0.10689916611E+02  0.18726381880E+02  0.00000000000E+00 0.  1.
         11    1    3    3    0    0  0.40578471579E+01  0.12626311020E+02  0.32809628979E+02  0.35388721474E+02  0.51100000000E-03 0. -1.
        -11    1    3    3    0    0 -0.18686941492E+02  0.14747878353E-01 -0.58069932755E+01  0.19568422803E+02  0.51100000000E-03 0.  1.
        -12    1    3    3    0    0  0.61374614234E+00 -0.63186324481E+01 -0.16312719093E+02  0.17504473844E+02  0.00000000000E+00 0.  1.
</event>
<event>
 7    1  0.1891413E-013  0.7246166E+02  0.7816164E-02  0.1226708E+00
        -11   -1    0    0    0    0  0.00000000000E+00  0.00000000000E+00  0.45593999997E+02  0.45594000000E+02  0.51100000000E-03 0.  1.
         11   -1    0    0    0    0 -0.00000000000E+00 -0.00000000000E+00 -0.45593999997E+02  0.45594000000E+02  0.51100000000E-03 0. -1.
    9900012    2    1    2    0    0 -0.56271124272E+01 -0.16250865879E+02 -0.74108480656E+01  0.72461662795E+02  0.70000120499E+02 0.  0.
        -12    1    1    2    0    0  0.56271124272E+01  0.16250865879E+02  0.74108480656E+01  0.18726337205E+02  0.00000000000E+00 0.  1.
         11    1    3    3    0    0 -0.18558253313E+02 -0.43505239275E+01 -0.16244668053E+01  0.19130465680E+02  0.51100000000E-03 0. -1.
        -11    1    3    3    0    0 -0.14196060603E+02 -0.16613185468E+02 -0.12246417390E+02  0.25049966211E+02  0.51100000000E-03 0.  1.
        -12    1    3    3    0    0  0.27127201489E+02  0.47128435165E+01  0.64600361295E+01  0.28281230904E+02  0.00000000000E+00 0.  1.
</event>
<event>
 7    1  0.1891413E-013  0.7246159E+02  0.7816164E-02  0.1226708E+00
        -11   -1    0    0    0    0  0.00000000000E+00  0.00000000000E+00  0.45593999997E+02  0.45594000000E+02  0.51100000000E-03 0.  1.
         11   -1    0    0    0    0 -0.00000000000E+00 -0.00000000000E+00 -0.45593999997E+02  0.45594000000E+02  0.51100000000E-03 0. -1.
    9900012    2    1    2    0    0  0.10245127387E+02  0.49550847225E+01 -0.14871548509E+02  0.72461589377E+02  0.70000024858E+02 0.  0.
        -12    1    1    2    0    0 -0.10245127387E+02 -0.49550847225E+01  0.14871548509E+02  0.18726410623E+02  0.00000000000E+00 0.  1.
         11    1    3    3    0    0  0.36561764461E+02  0.94968202385E+01 -0.14706285347E+02  0.40536736970E+02  0.51100000000E-03 0. -1.
        -11    1    3    3    0    0 -0.34958978632E+01  0.58693360409E+01  0.28336944306E+00  0.68374487884E+01  0.51100000000E-03 0.  1.
        -12    1    3    3    0    0 -0.22820739211E+02 -0.10411071557E+02 -0.44863260457E+00  0.25087403619E+02  0.00000000000E+00 0.  1.
</event>
<event>
 7    1  0.1891413E-013  0.7246155E+02  0.7816164E-02  0.1226708E+00
        -11   -1    0    0    0    0  0.00000000000E+00  0.00000000000E+00  0.45593999997E+02  0.45594000000E+02  0.51100000000E-03 0. -1.
         11   -1    0    0    0    0 -0.00000000000E+00 -0.00000000000E+00 -0.45593999997E+02  0.45594000000E+02  0.51100000000E-03 0.  1.
    9900012    2    1    2    0    0  0.69210470556E+01  0.11612856650E+02  0.12958416011E+02  0.72461551393E+02  0.69999975377E+02 0.  0.
        -12    1    1    2    0    0 -0.69210470556E+01 -0.11612856650E+02 -0.12958416011E+02  0.18726448607E+02  0.00000000000E+00 0.  1.
         11    1    3    3    0    0 -0.63508642210E+01 -0.56408826977E+01  0.58187339538E+01  0.10296149720E+02  0.51100000000E-03 0. -1.
        -11    1    3    3    0    0 -0.71522182418E+01  0.86704264888E+01 -0.22505780456E+02  0.25156324761E+02  0.51100000000E-03 0.  1.
         12    1    3    3    0    0  0.20424129518E+02  0.85833128586E+01  0.29645462514E+02  0.37009076912E+02  0.00000000000E+00 0. -1.
</event>
<event>
 7    1  0.1891413E-013  0.7246158E+02  0.7816164E-02  0.1226708E+00
        -11   -1    0    0    0    0  0.00000000000E+00  0.00000000000E+00  0.45593999997E+02  0.45594000000E+02  0.51100000000E-03 0.  1.
         11   -1    0    0    0    0 -0.00000000000E+00 -0.00000000000E+00 -0.45593999997E+02  0.45594000000E+02  0.51100000000E-03 0. -1.
    9900012    2    1    2    0    0 -0.20173839853E+01  0.12460940060E+02 -0.13832345147E+02  0.72461584497E+02  0.70000018501E+02 0.  0.
        -12    1    1    2    0    0  0.20173839853E+01 -0.12460940060E+02  0.13832345147E+02  0.18726415503E+02  0.00000000000E+00 0.  1.
         11    1    3    3    0    0  0.44760663977E+01  0.95228359748E+01  0.41665926688E+01  0.11317246579E+02  0.51100000000E-03 0. -1.
        -11    1    3    3    0    0 -0.11155357023E+02 -0.48627365700E+01  0.19265930605E+02  0.22787371055E+02  0.51100000000E-03 0.  1.
         12    1    3    3    0    0  0.46619066397E+01  0.78008406553E+01 -0.37264868421E+02  0.38356966863E+02  0.00000000000E+00 0. -1.
</event>
<event>
 7    1  0.1891413E-013  0.7246152E+02  0.7816164E-02  0.1226708E+00
        -11   -1    0    0    0    0  0.00000000000E+00  0.00000000000E+00  0.45593999997E+02  0.45594000000E+02  0.51100000000E-03 0. -1.
         11   -1    0    0    0    0 -0.00000000000E+00 -0.00000000000E+00 -0.45593999997E+02  0.45594000000E+02  0.51100000000E-03 0.  1.
    9900012    2    1    2    0    0 -0.38477705323E+01 -0.13352446666E+02  0.12553406418E+02  0.72461516541E+02  0.69999929977E+02 0.  0.
        -12    1    1    2    0    0  0.38477705323E+01  0.13352446666E+02 -0.12553406418E+02  0.18726483459E+02  0.00000000000E+00 0.  1.
         11    1    3    3    0    0 -0.34511156580E+01  0.90888003232E+01 -0.89381914570E+01  0.13206352918E+02  0.51100000000E-03 0. -1.
        -11    1    3    3    0    0 -0.68807224410E+01 -0.27181611611E+00 -0.14750244282E+02  0.16278449925E+02  0.51100000000E-03 0.  1.
         12    1    3    3    0    0  0.64840675667E+01 -0.22169430873E+02  0.36241842157E+02  0.42976713699E+02  0.00000000000E+00 0. -1.
</event>
<event>
 7    1  0.1891413E-013  0.7246159E+02  0.7816164E-02  0.1226708E+00
        -11   -1    0    0    0    0  0.00000000000E+00  0.00000000000E+00  0.45593999997E+02  0.45594000000E+02  0.51100000000E-03 0.  1.
         11   -1    0    0    0    0 -0.00000000000E+00 -0.00000000000E+00 -0.45593999997E+02  0.45594000000E+02  0.51100000000E-03 0. -1.
    9900012    2    1    2    0    0 -0.68763270340E+01  0.47486014968E+01 -0.16758444691E+02  0.72461586619E+02  0.70000021266E+02 0.  0.
        -12    1    1    2    0    0  0.68763270340E+01 -0.47486014968E+01  0.16758444691E+02  0.18726413381E+02  0.00000000000E+00 0.  1.
         11    1    3    3    0    0 -0.44916083253E+01  0.18306247498E+02  0.19249296268E+01  0.18947258301E+02  0.51100000000E-03 0. -1.
        -11    1    3    3    0    0  0.12970634891E+02  0.13588787951E+02 -0.91914887126E+01  0.20913536106E+02  0.51100000000E-03 0.  1.
         12    1    3    3    0    0 -0.15355353599E+02 -0.27146433952E+02 -0.94918856054E+01  0.32600792212E+02  0.00000000000E+00 0. -1.
</event>
<event>
 7    1  0.1891413E-013  0.7246153E+02  0.7816164E-02  0.1226708E+00
        -11   -1    0    0    0    0  0.00000000000E+00  0.00000000000E+00  0.45593999997E+02  0.45594000000E+02  0.51100000000E-03 0.  1.
         11   -1    0    0    0    0 -0.00000000000E+00 -0.00000000000E+00 -0.45593999997E+02  0.45594000000E+02  0.51100000000E-03 0. -1.
    9900012    2    1    2    0    0 -0.11328072596E+01  0.95114860695E+00  0.18667964459E+02  0.72461525879E+02  0.69999942141E+02 0.  0.
        -12    1    1    2    0    0  0.11328072596E+01 -0.95114860695E+00 -0.18667964459E+02  0.18726474121E+02  0.00000000000E+00 0.  1.
         11    1    3    3    0    0  0.87814264593E+01  0.75889741651E+00 -0.89320307398E+01  0.12548727001E+02  0.51100000000E-03 0. -1.
        -11    1    3    3    0    0 -0.69868433054E+01 -0.67262043150E+01 -0.14336501253E+02  0.17308757099E+02  0.51100000000E-03 0.  1.
        -12    1    3    3    0    0 -0.29273904136E+01  0.69184555054E+01  0.41936496452E+02  0.42604041779E+02  0.00000000000E+00 0.  1.
</event>
<event>
 7    1  0.1891413E-013  0.7246146E+02  0.7816164E-02  0.1226708E+00
        -11   -1    0    0    0    0  0.00000000000E+00  0.00000000000E+00  0.45593999997E+02  0.45594000000E+02  0.51100000000E-03 0.  1.
         11   -1    0    0    0    0 -0.00000000000E+00 -0.00000000000E+00 -0.45593999997E+02  0.45594000000E+02  0.51100000000E-03 0. -1.
    9900012    2    1    2    0    0  0.12793162682E+02  0.10881897224E+02  0.82826612750E+01  0.72461463310E+02  0.69999860633E+02 0.  0.
        -12    1    1    2    0    0 -0.12793162682E+02 -0.10881897224E+02 -0.82826612750E+01  0.18726536690E+02  0.00000000000E+00 0.  1.
         11    1    3    3    0    0 -0.53326322937E+01  0.45949285294E+01 -0.15648083101E+02  0.17158462646E+02  0.51100000000E-03 0. -1.
        -11    1    3    3    0    0  0.15388931824E+02  0.42660709283E+00 -0.11544736997E+02  0.19242717295E+02  0.51100000000E-03 0.  1.
        -12    1    3    3    0    0  0.27368631514E+01  0.58603616017E+01  0.35475481373E+02  0.36060283369E+02  0.00000000000E+00 0.  1.
</event>
<event>
 7    1  0.1891413E-013  0.7246160E+02  0.7816164E-02  0.1226708E+00
        -11   -1    0    0    0    0  0.00000000000E+00  0.00000000000E+00  0.45593999997E+02  0.45594000000E+02  0.51100000000E-03 0.  1.
         11   -1    0    0    0    0 -0.00000000000E+00 -0.00000000000E+00 -0.45593999997E+02  0.45594000000E+02  0.51100000000E-03 0. -1.
    9900012    2    1    2    0    0 -0.10987579927E+02  0.12813199899E+02 -0.81100612698E+01  0.72461598901E+02  0.70000037266E+02 0.  0.
        -12    1    1    2    0    0  0.10987579927E+02 -0.12813199899E+02  0.81100612698E+01  0.18726401099E+02  0.00000000000E+00 0.  1.
         11    1    3    3    0    0 -0.46587264206E+01  0.24941769744E+01  0.13644896838E+02  0.14632424974E+02  0.51100000000E-03 0. -1.
        -11    1    3    3    0    0  0.72693649161E+01 -0.17620000681E+02  0.13492141758E+01  0.19108335078E+02  0.51100000000E-03 0.  1.
         12    1    3    3    0    0 -0.13598218423E+02  0.27939023606E+02 -0.23104172284E+02  0.38720838850E+02  0.00000000000E+00 0. -1.
</event>
<event>
 7    1  0.1891413E-013  0.7246158E+02  0.7816164E-02  0.1226708E+00
        -11   -1    0    0    0    0  0.00000000000E+00  0.00000000000E+00  0.45593999997E+02  0.45594000000E+02  0.51100000000E-03 0. -1.
         11   -1    0    0    0    0 -0.00000000000E+00 -0.00000000000E+00 -0.45593999997E+02  0.45594000000E+02  0.51100000000E-03 0.  1.
    9900012    2    1    2    0    0 -0.12721816193E+02  0.76815503666E+00  0.13720210054E+02  0.72461579270E+02  0.70000011693E+02 0.  0.
        -12    1    1    2    0    0  0.12721816193E+02 -0.76815503666E+00 -0.13720210054E+02  0.18726420730E+02  0.00000000000E+00 0.  1.
         11    1    3    3    0    0  0.13296375227E+01 -0.13503957697E+02  0.19506192679E+01  0.13708746304E+02  0.51100000000E-03 0. -1.
        -11    1    3    3    0    0  0.18029595824E+02 -0.35549741258E+01  0.12184196698E+02  0.22049009412E+02  0.51100000000E-03 0.  1.
         12    1    3    3    0    0 -0.32081049540E+02  0.17827086860E+02 -0.41460591195E+00  0.36703823555E+02  0.00000000000E+00 0. -1.
</event>
<event>
 7    1  0.1891413E-013  0.7246154E+02  0.7816164E-02  0.1226708E+00
        -11   -1    0    0    0    0  0.00000000000E+00  0.00000000000E+00  0.45593999997E+02  0.45594000000E+02  0.51100000000E-03 0.  1.
         11   -1    0    0    0    0 -0.00000000000E+00 -0.00000000000E+00 -0.45593999997E+02  0.45594000000E+02  0.51100000000E-03 0. -1.
    9900012    2    1    2    0    0  0.13035213732E+02  0.11242738069E+02 -0.73732237383E+01  0.72461537851E+02  0.69999957736E+02 0.  0.
        -12    1    1    2    0    0 -0.13035213732E+02 -0.11242738069E+02  0.73732237383E+01  0.18726462149E+02  0.00000000000E+00 0.  1.
         11    1    3    3    0    0  0.12149324258E+02 -0.78370972781E+01 -0.32948411033E+02  0.35980883306E+02  0.51100000000E-03 0. -1.
        -11    1    3    3    0    0 -0.13707917711E+01  0.16002464834E+01 -0.25385905798E+01  0.32991364446E+01  0.51100000000E-03 0.  1.
        -12    1    3    3    0    0  0.22566812454E+01  0.17479588864E+02  0.28113777874E+02  0.33181518100E+02  0.00000000000E+00 0.  1.
</event>
<event>
 7    1  0.1891413E-013  0.7246168E+02  0.7816164E-02  0.1226708E+00
        -11   -1    0    0    0    0  0.00000000000E+00  0.00000000000E+00  0.45593999997E+02  0.45594000000E+02  0.51100000000E-03 0. -1.
         11   -1    0    0    0    0 -0.00000000000E+00 -0.00000000000E+00 -0.45593999997E+02  0.45594000000E+02  0.51100000000E-03 0.  1.
    9900012    2    1    2    0    0  0.26180017118E+00  0.16095705174E+02  0.95673798307E+01  0.72461681056E+02  0.70000144288E+02 0.  0.
        -12    1    1    2    0    0 -0.26180017118E+00 -0.16095705174E+02 -0.95673798307E+01  0.18726318944E+02  0.00000000000E+00 0.  1.
         11    1    3    3    0    0  0.37436129413E+01  0.52374170736E+01  0.10287216791E+02  0.12135567767E+02  0.51100000000E-03 0. -1.
        -11    1    3    3    0    0 -0.11592739089E+02 -0.22247290896E+02 -0.61048534549E+01  0.25818651936E+02  0.51100000000E-03 0.  1.
         12    1    3    3    0    0  0.81109263189E+01  0.33105578996E+02  0.53850164947E+01  0.34507461354E+02  0.00000000000E+00 0. -1.
</event>
<event>
 7    1  0.1891413E-013  0.7246150E+02  0.7816164E-02  0.1226708E+00
        -11   -1    0    0    0    0  0.00000000000E+00  0.00000000000E+00  0.45593999997E+02  0.45594000000E+02  0.51100000000E-03 0. -1.
         11   -1    0    0    0    0 -0.00000000000E+00 -0.00000000000E+00 -0.45593999997E+02  0.45594000000E+02  0.51100000000E-03 0.  1.
    9900012    2    1    2    0    0 -0.68912290677E+01  0.17291149493E+02  0.20515432921E+01  0.72461502230E+02  0.69999911334E+02 0.  0.
        -12    1    1    2    0    0  0.68912290677E+01 -0.17291149493E+02 -0.20515432921E+01  0.18726497770E+02  0.00000000000E+00 0.  1.
         11    1    3    3    0    0 -0.27394700035E+02  0.16947791719E+02 -0.52898123816E+01  0.32644744591E+02  0.51100000000E-03 0. -1.
        -11    1    3    3    0    0 -0.75179709289E+01  0.65277474745E+01  0.46688493826E+01  0.10996796297E+02  0.51100000000E-03 0.  1.
        -12    1    3    3    0    0  0.28021441896E+02 -0.61843897006E+01  0.26725062911E+01  0.28819961342E+02  0.00000000000E+00 0.  1.
</event>
<event>
 7    1  0.1891413E-013  0.7246155E+02  0.7816164E-02  0.1226708E+00
        -11   -1    0    0    0    0  0.00000000000E+00  0.00000000000E+00  0.45593999997E+02  0.45594000000E+02  0.51100000000E-03 0.  1.
         11   -1    0    0    0    0 -0.00000000000E+00 -0.00000000000E+00 -0.45593999997E+02  0.45594000000E+02  0.51100000000E-03 0. -1.
    9900012    2    1    2    0    0 -0.15118902601E+01  0.67759050021E+01 -0.17391985906E+02  0.72461551471E+02  0.69999975479E+02 0.  0.
        -12    1    1    2    0    0  0.15118902601E+01 -0.67759050021E+01  0.17391985906E+02  0.18726448529E+02  0.00000000000E+00 0.  1.
         11    1    3    3    0    0 -0.65666125959E+01  0.40269264875E+00 -0.21780654240E+02  0.22752570443E+02  0.51100000000E-03 0. -1.
        -11    1    3    3    0    0  0.12731291627E+02 -0.18246267455E+02  0.80529809999E+01  0.23661415126E+02  0.51100000000E-03 0.  1.
         12    1    3    3    0    0 -0.76765692915E+01  0.24619479808E+02 -0.36643126654E+01  0.26047565902E+02  0.00000000000E+00 0. -1.
</event>
<event>
 7    1  0.1891413E-013  0.7246159E+02  0.7816164E-02  0.1226708E+00
        -11   -1    0    0    0    0  0.00000000000E+00  0.00000000000E+00  0.45593999997E+02  0.45594000000E+02  0.51100000000E-03 0. -1.
         11   -1    0    0    0    0 -0.00000000000E+00 -0.00000000000E+00 -0.45593999997E+02  0.45594000000E+02  0.51100000000E-03 0.  1.
    9900012    2    1    2    0    0 -0.13884142174E+02 -0.30933768333E+01  0.12179486337E+02  0.72461594270E+02  0.70000031233E+02 0.  0.
        -12    1    1    2    0    0  0.13884142174E+02  0.30933768333E+01 -0.12179486337E+02  0.18726405730E+02  0.00000000000E+00 0.  1.
         11    1    3    3    0    0 -0.95535180015E+01 -0.15828941498E+02  0.21411461116E+02  0.28289145666E+02  0.51100000000E-03 0. -1.
        -11    1    3    3    0    0 -0.19893806927E+02 -0.29360273842E+01  0.31300332157E+00  0.20111732452E+02  0.51100000000E-03 0.  1.
         12    1    3    3    0    0  0.15563182755E+02  0.15671592048E+02 -0.95449781005E+01  0.24060716152E+02  0.00000000000E+00 0. -1.
</event>
<event>
 7    1  0.1891413E-013  0.7246164E+02  0.7816164E-02  0.1226708E+00
        -11   -1    0    0    0    0  0.00000000000E+00  0.00000000000E+00  0.45593999997E+02  0.45594000000E+02  0.51100000000E-03 0.  1.
         11   -1    0    0    0    0 -0.00000000000E+00 -0.00000000000E+00 -0.45593999997E+02  0.45594000000E+02  0.51100000000E-03 0. -1.
    9900012    2    1    2    0    0  0.18711702854E+02  0.72686994030E+00 -0.14332523724E+00  0.72461636079E+02  0.70000085696E+02 0.  0.
        -12    1    1    2    0    0 -0.18711702854E+02 -0.72686994030E+00  0.14332523724E+00  0.18726363921E+02  0.00000000000E+00 0.  1.
         11    1    3    3    0    0  0.10067704209E+02  0.65806891497E+01  0.12587608312E+02  0.17410112608E+02  0.51100000000E-03 0. -1.
        -11    1    3    3    0    0 -0.33654780497E+01 -0.24936944823E+01  0.19786390635E+02  0.20224890835E+02  0.51100000000E-03 0.  1.
         12    1    3    3    0    0  0.12009476695E+02 -0.33601247271E+01 -0.32517324184E+02  0.34826632636E+02  0.00000000000E+00 0. -1.
</event>
<event>
 7    1  0.1891413E-013  0.7246159E+02  0.7816164E-02  0.1226708E+00
        -11   -1    0    0    0    0  0.00000000000E+00  0.00000000000E+00  0.45593999997E+02  0.45594000000E+02  0.51100000000E-03 0. -1.
         11   -1    0    0    0    0 -0.00000000000E+00 -0.00000000000E+00 -0.45593999997E+02  0.45594000000E+02  0.51100000000E-03 0.  1.
    9900012    2    1    2    0    0  0.63269842852E+01  0.16198127734E+02  0.69475319247E+01  0.72461594256E+02  0.70000031215E+02 0.  0.
        -12    1    1    2    0    0 -0.63269842852E+01 -0.16198127734E+02 -0.69475319247E+01  0.18726405744E+02  0.00000000000E+00 0.  1.
         11    1    3    3    0    0 -0.15531286435E+01 -0.15021195031E+02  0.88737376605E+01  0.17515471135E+02  0.51100000000E-03 0. -1.
        -11    1    3    3    0    0 -0.14501213875E+02 -0.22136301017E+01 -0.44972603200E-01  0.14669266678E+02  0.51100000000E-03 0.  1.
         12    1    3    3    0    0  0.22381326803E+02  0.33432952867E+02 -0.18812331326E+01  0.40276856444E+02  0.00000000000E+00 0. -1.
</event>
<event>
 7    1  0.1891413E-013  0.7246197E+02  0.7816164E-02  0.1226707E+00
        -11   -1    0    0    0    0  0.00000000000E+00  0.00000000000E+00  0.45593999997E+02  0.45594000000E+02  0.51100000000E-03 0.  1.
         11   -1    0    0    0    0 -0.00000000000E+00 -0.00000000000E+00 -0.45593999997E+02  0.45594000000E+02  0.51100000000E-03 0. -1.
    9900012    2    1    2    0    0 -0.54939734277E+01  0.10142137888E+02 -0.14751860714E+02  0.72461972672E+02  0.70000524170E+02 0.  0.
        -12    1    1    2    0    0  0.54939734277E+01 -0.10142137888E+02  0.14751860714E+02  0.18726027328E+02  0.00000000000E+00 0.  1.
         11    1    3    3    0    0  0.93910049617E+01  0.58458283981E+01 -0.24588097369E+02  0.26961810331E+02  0.51100000000E-03 0. -1.
        -11    1    3    3    0    0  0.10646775730E+01  0.20093728654E+02 -0.18226968392E+01  0.20204298889E+02  0.51100000000E-03 0.  1.
         12    1    3    3    0    0 -0.15949655962E+02 -0.15797419165E+02  0.11658933494E+02  0.25295863452E+02  0.00000000000E+00 0. -1.
</event>
<event>
 7    1  0.1891413E-013  0.7246158E+02  0.7816164E-02  0.1226708E+00
        -11   -1    0    0    0    0  0.00000000000E+00  0.00000000000E+00  0.45593999997E+02  0.45594000000E+02  0.51100000000E-03 0.  1.
         11   -1    0    0    0    0 -0.00000000000E+00 -0.00000000000E+00 -0.45593999997E+02  0.45594000000E+02  0.51100000000E-03 0. -1.
    9900012    2    1    2    0    0  0.48848412566E+01  0.19879782032E+00 -0.18076986711E+02  0.72461584347E+02  0.70000018306E+02 0.  0.
        -12    1    1    2    0    0 -0.48848412566E+01 -0.19879782032E+00  0.18076986711E+02  0.18726415653E+02  0.00000000000E+00 0.  1.
         11    1    3    3    0    0  0.27804512250E+02 -0.16209102328E+02  0.19397699144E+01  0.32242651990E+02  0.51100000000E-03 0. -1.
        -11    1    3    3    0    0 -0.21780820469E+01 -0.22844541253E+01  0.27543741932E+01  0.41891943750E+01  0.51100000000E-03 0.  1.
         12    1    3    3    0    0 -0.20741588947E+02  0.18692354273E+02 -0.22771130818E+02  0.36029737982E+02  0.00000000000E+00 0. -1.
</event>
<event>
 7    1  0.1891413E-013  0.7246156E+02  0.7816164E-02  0.1226708E+00
        -11   -1    0    0    0    0  0.00000000000E+00  0.00000000000E+00  0.45593999997E+02  0.45594000000E+02  0.51100000000E-03 0.  1.
         11   -1    0    0    0    0 -0.00000000000E+00 -0.00000000000E+00 -0.45593999997E+02  0.45594000000E+02  0.51100000000E-03 0. -1.
    9900012    2    1    2    0    0  0.23195963203E+01  0.46617503792E+01 -0.17987968311E+02  0.72461562868E+02  0.69999990326E+02 0.  0.
        -12    1    1    2    0    0 -0.23195963203E+01 -0.46617503792E+01  0.17987968311E+02  0.18726437132E+02  0.00000000000E+00 0.  1.
         11    1    3    3    0    0  0.11034918545E+02  0.91468908520E+01  0.36710440108E+00  0.14337705725E+02  0.51100000000E-03 0. -1.
        -11    1    3    3    0    0  0.34652693152E+01  0.23906656852E+02 -0.63332633447E+01  0.24972916492E+02  0.51100000000E-03 0.  1.
         12    1    3    3    0    0 -0.12180591540E+02 -0.28391797324E+02 -0.12021809368E+02  0.33150940651E+02  0.00000000000E+00 0. -1.
</event>
<event>
 7    1  0.1891413E-013  0.7246159E+02  0.7816164E-02  0.1226708E+00
        -11   -1    0    0    0    0  0.00000000000E+00  0.00000000000E+00  0.45593999997E+02  0.45594000000E+02  0.51100000000E-03 0. -1.
         11   -1    0    0    0    0 -0.00000000000E+00 -0.00000000000E+00 -0.45593999997E+02  0.45594000000E+02  0.51100000000E-03 0.  1.
    9900012    2    1    2    0    0 -0.57221536947E+01 -0.21778487703E+01  0.17697243490E+02  0.72461588296E+02  0.70000023450E+02 0.  0.
        -12    1    1    2    0    0  0.57221536947E+01  0.21778487703E+01 -0.17697243490E+02  0.18726411704E+02  0.00000000000E+00 0.  1.
         11    1    3    3    0    0 -0.44676129813E+01 -0.84122299852E+01  0.26500043624E+02  0.28159856026E+02  0.51100000000E-03 0. -1.
        -11    1    3    3    0    0 -0.78356974631E+00 -0.17378963089E+02  0.33873437385E+01  0.17723330315E+02  0.51100000000E-03 0.  1.
         12    1    3    3    0    0 -0.47097096710E+00  0.23613344303E+02 -0.12190143873E+02  0.26578401955E+02  0.00000000000E+00 0. -1.
</event>
<event>
 7    1  0.1891413E-013  0.7246146E+02  0.7816164E-02  0.1226708E+00
        -11   -1    0    0    0    0  0.00000000000E+00  0.00000000000E+00  0.45593999997E+02  0.45594000000E+02  0.51100000000E-03 0.  1.
         11   -1    0    0    0    0 -0.00000000000E+00 -0.00000000000E+00 -0.45593999997E+02  0.45594000000E+02  0.51100000000E-03 0. -1.
    9900012    2    1    2    0    0 -0.38329902409E+01 -0.17124513108E+02 -0.65377900063E+01  0.72461455696E+02  0.69999850715E+02 0.  0.
        -12    1    1    2    0    0  0.38329902409E+01  0.17124513108E+02  0.65377900063E+01  0.18726544304E+02  0.00000000000E+00 0.  1.
         11    1    3    3    0    0 -0.59657643108E+01  0.14074669172E+01 -0.15872303721E+01  0.63317144163E+01  0.51100000000E-03 0. -1.
        -11    1    3    3    0    0 -0.17784668538E+02 -0.11761182215E+01  0.22051224273E+02  0.28353733111E+02  0.51100000000E-03 0.  1.
         12    1    3    3    0    0  0.19917442608E+02 -0.17355861804E+02 -0.27001783908E+02  0.37776008169E+02  0.00000000000E+00 0. -1.
</event>
<event>
 7    1  0.1891413E-013  0.7246157E+02  0.7816164E-02  0.1226708E+00
        -11   -1    0    0    0    0  0.00000000000E+00  0.00000000000E+00  0.45593999997E+02  0.45594000000E+02  0.51100000000E-03 0.  1.
         11   -1    0    0    0    0 -0.00000000000E+00 -0.00000000000E+00 -0.45593999997E+02  0.45594000000E+02  0.51100000000E-03 0. -1.
    9900012    2    1    2    0    0  0.21272000503E+01 -0.17405183823E+01 -0.18523623316E+02  0.72461574686E+02  0.70000005721E+02 0.  0.
        -12    1    1    2    0    0 -0.21272000503E+01  0.17405183823E+01  0.18523623316E+02  0.18726425314E+02  0.00000000000E+00 0.  1.
         11    1    3    3    0    0 -0.10383997266E+02 -0.23621650100E+02 -0.15006008433E+02  0.29849456311E+02  0.51100000000E-03 0. -1.
        -11    1    3    3    0    0  0.10373275800E+02 -0.70527739852E+01 -0.51353403707E+01  0.13554268430E+02  0.51100000000E-03 0.  1.
        -12    1    3    3    0    0  0.21379215172E+01  0.28933905703E+02  0.16177254875E+01  0.29057849945E+02  0.00000000000E+00 0.  1.
</event>
<event>
 7    1  0.1891413E-013  0.7246156E+02  0.7816164E-02  0.1226708E+00
        -11   -1    0    0    0    0  0.00000000000E+00  0.00000000000E+00  0.45593999997E+02  0.45594000000E+02  0.51100000000E-03 0. -1.
         11   -1    0    0    0    0 -0.00000000000E+00 -0.00000000000E+00 -0.45593999997E+02  0.45594000000E+02  0.51100000000E-03 0.  1.
    9900012    2    1    2    0    0 -0.16085177669E+02 -0.62995671034E+01  0.72292613390E+01  0.72461555975E+02  0.69999981346E+02 0.  0.
        -12    1    1    2    0    0  0.16085177669E+02  0.62995671034E+01 -0.72292613390E+01  0.18726444025E+02  0.00000000000E+00 0.  1.
         11    1    3    3    0    0 -0.22769454805E+02  0.69875012992E+01  0.16815548183E+02  0.29155375276E+02  0.51100000000E-03 0. -1.
        -11    1    3    3    0    0  0.12346039188E+02  0.11390326493E+02 -0.22610341153E+01  0.16949232926E+02  0.51100000000E-03 0.  1.
        -12    1    3    3    0    0 -0.56617620511E+01 -0.24677394896E+02 -0.73252527287E+01  0.26356947773E+02  0.00000000000E+00 0.  1.
</event>
<event>
 7    1  0.1891413E-013  0.7246160E+02  0.7816164E-02  0.1226708E+00
        -11   -1    0    0    0    0  0.00000000000E+00  0.00000000000E+00  0.45593999997E+02  0.45594000000E+02  0.51100000000E-03 0. -1.
         11   -1    0    0    0    0 -0.00000000000E+00 -0.00000000000E+00 -0.45593999997E+02  0.45594000000E+02  0.51100000000E-03 0.  1.
    9900012    2    1    2    0    0  0.14318736528E+02  0.10952055454E+02 -0.50699352719E+01  0.72461602106E+02  0.70000041440E+02 0.  0.
        -12    1    1    2    0    0 -0.14318736528E+02 -0.10952055454E+02  0.50699352719E+01  0.18726397894E+02  0.00000000000E+00 0.  1.
         11    1    3    3    0    0  0.19754556675E+02 -0.14322245564E+02  0.13764003330E+02  0.28014585760E+02  0.51100000000E-03 0. -1.
        -11    1    3    3    0    0  0.53825641168E+01 -0.27402499245E+01  0.35371694060E+01  0.69994666788E+01  0.51100000000E-03 0.  1.
        -12    1    3    3    0    0 -0.10818384263E+02  0.28014550942E+02 -0.22371108008E+02  0.37447549667E+02  0.00000000000E+00 0.  1.
</event>
<event>
 7    1  0.1891413E-013  0.7246157E+02  0.7816164E-02  0.1226708E+00
        -11   -1    0    0    0    0  0.00000000000E+00  0.00000000000E+00  0.45593999997E+02  0.45594000000E+02  0.51100000000E-03 0. -1.
         11   -1    0    0    0    0 -0.00000000000E+00 -0.00000000000E+00 -0.45593999997E+02  0.45594000000E+02  0.51100000000E-03 0.  1.
    9900012    2    1    2    0    0  0.11927259199E+02  0.18496909429E+00  0.14435558362E+02  0.72461572931E+02  0.70000003434E+02 0.  0.
        -12    1    1    2    0    0 -0.11927259199E+02 -0.18496909429E+00 -0.14435558362E+02  0.18726427069E+02  0.00000000000E+00 0.  1.
         11    1    3    3    0    0  0.23621341566E+02 -0.47850777935E+01  0.93855118983E+01  0.25864117628E+02  0.51100000000E-03 0. -1.
        -11    1    3    3    0    0  0.13393118274E+02  0.57942948375E+01  0.13731755026E+02  0.20037728567E+02  0.51100000000E-03 0.  1.
        -12    1    3    3    0    0 -0.25087200641E+02 -0.82424794965E+00 -0.86817085624E+01  0.26559726735E+02  0.00000000000E+00 0.  1.
</event>
<event>
 7    1  0.1891413E-013  0.7246154E+02  0.7816164E-02  0.1226708E+00
        -11   -1    0    0    0    0  0.00000000000E+00  0.00000000000E+00  0.45593999997E+02  0.45594000000E+02  0.51100000000E-03 0.  1.
         11   -1    0    0    0    0 -0.00000000000E+00 -0.00000000000E+00 -0.45593999997E+02  0.45594000000E+02  0.51100000000E-03 0. -1.
    9900012    2    1    2    0    0 -0.71539870556E+01  0.35945829968E+01 -0.16928671915E+02  0.72461535023E+02  0.69999954053E+02 0.  0.
        -12    1    1    2    0    0  0.71539870556E+01 -0.35945829968E+01  0.16928671915E+02  0.18726464977E+02  0.00000000000E+00 0.  1.
         11    1    3    3    0    0 -0.20754574026E+02 -0.11523442589E+02 -0.30236098459E+02  0.38441692501E+02  0.51100000000E-03 0. -1.
        -11    1    3    3    0    0 -0.66627112028E+01  0.51242435477E+01  0.57970171513E+01  0.10210533807E+02  0.51100000000E-03 0.  1.
        -12    1    3    3    0    0  0.20263298173E+02  0.99937820377E+01  0.75104093921E+01  0.23809308715E+02  0.00000000000E+00 0.  1.
</event>
<event>
 7    1  0.1891413E-013  0.7246158E+02  0.7816164E-02  0.1226708E+00
        -11   -1    0    0    0    0  0.00000000000E+00  0.00000000000E+00  0.45593999997E+02  0.45594000000E+02  0.51100000000E-03 0.  1.
         11   -1    0    0    0    0 -0.00000000000E+00 -0.00000000000E+00 -0.45593999997E+02  0.45594000000E+02  0.51100000000E-03 0. -1.
    9900012    2    1    2    0    0  0.15963121751E+02  0.75236157448E+01 -0.62652046781E+01  0.72461579104E+02  0.70000011476E+02 0.  0.
        -12    1    1    2    0    0 -0.15963121751E+02 -0.75236157448E+01  0.62652046781E+01  0.18726420896E+02  0.00000000000E+00 0.  1.
         11    1    3    3    0    0  0.17432736121E+02  0.23255183621E+02 -0.76062628703E+01  0.30042621208E+02  0.51100000000E-03 0. -1.
        -11    1    3    3    0    0  0.18333803925E+02 -0.96934990271E+01  0.51487681920E+01  0.21368249903E+02  0.51100000000E-03 0.  1.
        -12    1    3    3    0    0 -0.19803418295E+02 -0.60380688491E+01 -0.38077099997E+01  0.21050707993E+02  0.00000000000E+00 0.  1.
</event>
<event>
 7    1  0.1891413E-013  0.7246150E+02  0.7816164E-02  0.1226708E+00
        -11   -1    0    0    0    0  0.00000000000E+00  0.00000000000E+00  0.45593999997E+02  0.45594000000E+02  0.51100000000E-03 0.  1.
         11   -1    0    0    0    0 -0.00000000000E+00 -0.00000000000E+00 -0.45593999997E+02  0.45594000000E+02  0.51100000000E-03 0. -1.
    9900012    2    1    2    0    0 -0.91517272048E+01 -0.15940592007E+02 -0.35812258205E+01  0.72461501055E+02  0.69999909803E+02 0.  0.
        -12    1    1    2    0    0  0.91517272048E+01  0.15940592007E+02  0.35812258205E+01  0.18726498945E+02  0.00000000000E+00 0.  1.
         11    1    3    3    0    0  0.56184878145E+00  0.36674473295E+01 -0.10519555870E+02  0.11154680629E+02  0.51100000000E-03 0. -1.
        -11    1    3    3    0    0 -0.31384812431E+02 -0.82451960414E+01 -0.69285845069E+01  0.33181244591E+02  0.51100000000E-03 0.  1.
         12    1    3    3    0    0  0.21671236444E+02 -0.11362843295E+02  0.13866914556E+02  0.28125575836E+02  0.00000000000E+00 0. -1.
</event>
<event>
 7    1  0.1891413E-013  0.7246156E+02  0.7816164E-02  0.1226708E+00
        -11   -1    0    0    0    0  0.00000000000E+00  0.00000000000E+00  0.45593999997E+02  0.45594000000E+02  0.51100000000E-03 0. -1.
         11   -1    0    0    0    0 -0.00000000000E+00 -0.00000000000E+00 -0.45593999997E+02  0.45594000000E+02  0.51100000000E-03 0.  1.
    9900012    2    1    2    0    0  0.56581443267E+01  0.76397879237E+01  0.16133769670E+02  0.72461561991E+02  0.69999989183E+02 0.  0.
        -12    1    1    2    0    0 -0.56581443267E+01 -0.76397879237E+01 -0.16133769670E+02  0.18726438009E+02  0.00000000000E+00 0.  1.
         11    1    3    3    0    0  0.55930697572E+00  0.55296410226E+01 -0.15679327329E+02  0.16635235492E+02  0.51100000000E-03 0. -1.
        -11    1    3    3    0    0  0.18111023629E+02 -0.85810222760E+01  0.23990956405E+00  0.20042471830E+02  0.51100000000E-03 0.  1.
         12    1    3    3    0    0 -0.13012186278E+02  0.10691169177E+02  0.31573187435E+02  0.35783854668E+02  0.00000000000E+00 0. -1.
</event>
<event>
 7    1  0.1891413E-013  0.7246159E+02  0.7816164E-02  0.1226708E+00
        -11   -1    0    0    0    0  0.00000000000E+00  0.00000000000E+00  0.45593999997E+02  0.45594000000E+02  0.51100000000E-03 0. -1.
         11   -1    0    0    0    0 -0.00000000000E+00 -0.00000000000E+00 -0.45593999997E+02  0.45594000000E+02  0.51100000000E-03 0.  1.
    9900012    2    1    2    0    0 -0.12436987446E+02  0.13460834780E+02  0.38478391500E+01  0.72461585612E+02  0.70000019954E+02 0.  0.
        -12    1    1    2    0    0  0.12436987446E+02 -0.13460834780E+02 -0.38478391500E+01  0.18726414388E+02  0.00000000000E+00 0.  1.
         11    1    3    3    0    0 -0.90112359828E+01  0.13091040499E+02  0.17004165677E+02  0.23274865540E+02  0.51100000000E-03 0. -1.
        -11    1    3    3    0    0 -0.14556216079E+02 -0.18975829226E+02 -0.13902761885E+01  0.23956176438E+02  0.51100000000E-03 0.  1.
         12    1    3    3    0    0  0.11130464616E+02  0.19345623507E+02 -0.11766050339E+02  0.25230543633E+02  0.00000000000E+00 0. -1.
</event>
<event>
 7    1  0.1891413E-013  0.7246160E+02  0.7816164E-02  0.1226708E+00
        -11   -1    0    0    0    0  0.00000000000E+00  0.00000000000E+00  0.45593999997E+02  0.45594000000E+02  0.51100000000E-03 0.  1.
         11   -1    0    0    0    0 -0.00000000000E+00 -0.00000000000E+00 -0.45593999997E+02  0.45594000000E+02  0.51100000000E-03 0. -1.
    9900012    2    1    2    0    0  0.10653207739E+02  0.13149565196E+02 -0.80172478379E+01  0.72461597172E+02  0.70000035014E+02 0.  0.
        -12    1    1    2    0    0 -0.10653207739E+02 -0.13149565196E+02  0.80172478379E+01  0.18726402828E+02  0.00000000000E+00 0.  1.
         11    1    3    3    0    0 -0.89962151574E+00 -0.83107329484E+01  0.15284443928E+02  0.17421016832E+02  0.51100000000E-03 0.  1.
        -11    1    3    3    0    0  0.17167886295E+02  0.16109592095E+02  0.63559280813E+01  0.24385510029E+02  0.51100000000E-03 0. -1.
         12    1    3    3    0    0 -0.56150570403E+01  0.53507060490E+01 -0.29657619848E+02  0.30655070312E+02  0.00000000000E+00 0. -1.
</event>
<event>
 7    1  0.1891413E-013  0.7246156E+02  0.7816164E-02  0.1226708E+00
        -11   -1    0    0    0    0  0.00000000000E+00  0.00000000000E+00  0.45593999997E+02  0.45594000000E+02  0.51100000000E-03 0. -1.
         11   -1    0    0    0    0 -0.00000000000E+00 -0.00000000000E+00 -0.45593999997E+02  0.45594000000E+02  0.51100000000E-03 0.  1.
    9900012    2    1    2    0    0  0.23847329797E+01 -0.17141350254E+02  0.71530956807E+01  0.72461558327E+02  0.69999984411E+02 0.  0.
        -12    1    1    2    0    0 -0.23847329797E+01  0.17141350254E+02 -0.71530956807E+01  0.18726441673E+02  0.00000000000E+00 0.  1.
         11    1    3    3    0    0  0.22069343947E+01 -0.89089606437E+01  0.10061343662E+02  0.13618765573E+02  0.51100000000E-03 0. -1.
        -11    1    3    3    0    0 -0.22040529527E+02 -0.23143739865E+02 -0.33800746953E+00  0.31961412455E+02  0.51100000000E-03 0.  1.
         12    1    3    3    0    0  0.22218328112E+02  0.14911350255E+02 -0.25702405122E+01  0.26881380300E+02  0.00000000000E+00 0. -1.
</event>
<event>
 7    1  0.1891413E-013  0.7246136E+02  0.7816164E-02  0.1226709E+00
        -11   -1    0    0    0    0  0.00000000000E+00  0.00000000000E+00  0.45593999997E+02  0.45594000000E+02  0.51100000000E-03 0.  1.
         11   -1    0    0    0    0 -0.00000000000E+00 -0.00000000000E+00 -0.45593999997E+02  0.45594000000E+02  0.51100000000E-03 0. -1.
    9900012    2    1    2    0    0  0.99469009275E+01  0.51571125094E+01 -0.15005014000E+02  0.72461358746E+02  0.69999724419E+02 0.  0.
        -12    1    1    2    0    0 -0.99469009275E+01 -0.51571125094E+01  0.15005014000E+02  0.18726641254E+02  0.00000000000E+00 0.  1.
         11    1    3    3    0    0 -0.58515624204E+00 -0.52648121710E+01  0.28980297323E+01  0.60381480284E+01  0.51100000000E-03 0. -1.
        -11    1    3    3    0    0 -0.23820137920E+02 -0.70031946323E+01 -0.25560391963E+01  0.24959508052E+02  0.51100000000E-03 0.  1.
         12    1    3    3    0    0  0.34352195089E+02  0.17425119313E+02 -0.15347004536E+02  0.41463702666E+02  0.00000000000E+00 0. -1.
</event>
<event>
 7    1  0.1891413E-013  0.7246152E+02  0.7816164E-02  0.1226708E+00
        -11   -1    0    0    0    0  0.00000000000E+00  0.00000000000E+00  0.45593999997E+02  0.45594000000E+02  0.51100000000E-03 0. -1.
         11   -1    0    0    0    0 -0.00000000000E+00 -0.00000000000E+00 -0.45593999997E+02  0.45594000000E+02  0.51100000000E-03 0.  1.
    9900012    2    1    2    0    0 -0.17391796519E+02 -0.59843063501E+01  0.35205904155E+01  0.72461519670E+02  0.69999934053E+02 0.  0.
        -12    1    1    2    0    0  0.17391796519E+02  0.59843063501E+01 -0.35205904155E+01  0.18726480330E+02  0.00000000000E+00 0.  1.
         11    1    3    3    0    0 -0.14991731805E+02 -0.21439126829E+02  0.23750469671E+02  0.35333737299E+02  0.51100000000E-03 0. -1.
        -11    1    3    3    0    0 -0.38765587348E+01 -0.71060332042E+01 -0.27483866889E+01  0.85485112842E+01  0.51100000000E-03 0.  1.
        -12    1    3    3    0    0  0.14764940202E+01  0.22560853683E+02 -0.17481492566E+02  0.28579271087E+02  0.00000000000E+00 0.  1.
</event>
<event>
 7    1  0.1891413E-013  0.7246148E+02  0.7816164E-02  0.1226708E+00
        -11   -1    0    0    0    0  0.00000000000E+00  0.00000000000E+00  0.45593999997E+02  0.45594000000E+02  0.51100000000E-03 0. -1.
         11   -1    0    0    0    0 -0.00000000000E+00 -0.00000000000E+00 -0.45593999997E+02  0.45594000000E+02  0.51100000000E-03 0.  1.
    9900012    2    1    2    0    0  0.11530460652E+02 -0.14385379035E+02  0.32851077824E+01  0.72461479074E+02  0.69999881169E+02 0.  0.
        -12    1    1    2    0    0 -0.11530460652E+02  0.14385379035E+02 -0.32851077824E+01  0.18726520926E+02  0.00000000000E+00 0.  1.
         11    1    3    3    0    0  0.33384498834E+01 -0.25978828137E+02  0.17024939364E+02  0.31239291279E+02  0.51100000000E-03 0. -1.
        -11    1    3    3    0    0 -0.36096820116E+01  0.45269545876E+01  0.11275003226E+02  0.12674731558E+02  0.51100000000E-03 0.  1.
        -12    1    3    3    0    0  0.11801692780E+02  0.70664945139E+01 -0.25014834808E+02  0.28547456238E+02  0.00000000000E+00 0.  1.
</event>
<event>
 7    1  0.1891413E-013  0.7246161E+02  0.7816164E-02  0.1226708E+00
        -11   -1    0    0    0    0  0.00000000000E+00  0.00000000000E+00  0.45593999997E+02  0.45594000000E+02  0.51100000000E-03 0.  1.
         11   -1    0    0    0    0 -0.00000000000E+00 -0.00000000000E+00 -0.45593999997E+02  0.45594000000E+02  0.51100000000E-03 0. -1.
    9900012    2    1    2    0    0  0.89005049637E+01  0.16016494907E+02 -0.38640341058E+01  0.72461605331E+02  0.70000045642E+02 0.  0.
        -12    1    1    2    0    0 -0.89005049637E+01 -0.16016494907E+02  0.38640341058E+01  0.18726394669E+02  0.00000000000E+00 0.  1.
         11    1    3    3    0    0 -0.21212813137E+02  0.93326733843E+01  0.61135454686E+01  0.23967846631E+02  0.51100000000E-03 0. -1.
        -11    1    3    3    0    0  0.15816288411E+02  0.26358792272E+01  0.13330627660E+02  0.20852061588E+02  0.51100000000E-03 0.  1.
         12    1    3    3    0    0  0.14297029690E+02  0.40479422955E+01 -0.23308207234E+02  0.27641697112E+02  0.00000000000E+00 0. -1.
</event>
<event>
 7    1  0.1891413E-013  0.7246156E+02  0.7816164E-02  0.1226708E+00
        -11   -1    0    0    0    0  0.00000000000E+00  0.00000000000E+00  0.45593999997E+02  0.45594000000E+02  0.51100000000E-03 0. -1.
         11   -1    0    0    0    0 -0.00000000000E+00 -0.00000000000E+00 -0.45593999997E+02  0.45594000000E+02  0.51100000000E-03 0.  1.
    9900012    2    1    2    0    0  0.56542967710E+01  0.13970311204E+02  0.11114801816E+02  0.72461561831E+02  0.69999988974E+02 0.  0.
        -12    1    1    2    0    0 -0.56542967710E+01 -0.13970311204E+02 -0.11114801816E+02  0.18726438169E+02  0.00000000000E+00 0.  1.
         11    1    3    3    0    0 -0.56578047412E+00  0.20810232999E+02  0.96446917900E+01  0.22943539069E+02  0.51100000000E-03 0. -1.
        -11    1    3    3    0    0 -0.14654552211E+02  0.13494427166E+02  0.38110648579E+01  0.20282496904E+02  0.51100000000E-03 0.  1.
        -12    1    3    3    0    0  0.20874629456E+02 -0.20334348962E+02 -0.23409548317E+01  0.29235525858E+02  0.00000000000E+00 0.  1.
</event>
<event>
 7    1  0.1891413E-013  0.7246171E+02  0.7816164E-02  0.1226708E+00
        -11   -1    0    0    0    0  0.00000000000E+00  0.00000000000E+00  0.45593999997E+02  0.45594000000E+02  0.51100000000E-03 0. -1.
         11   -1    0    0    0    0 -0.00000000000E+00 -0.00000000000E+00 -0.45593999997E+02  0.45594000000E+02  0.51100000000E-03 0.  1.
    9900012    2    1    2    0    0  0.14394545517E+02 -0.11392076319E+02 -0.37002250716E+01  0.72461708079E+02  0.70000179490E+02 0.  0.
        -12    1    1    2    0    0 -0.14394545517E+02  0.11392076319E+02  0.37002250716E+01  0.18726291921E+02  0.00000000000E+00 0.  1.
         11    1    3    3    0    0  0.15795913643E+02  0.16413760833E+02  0.19626963071E+02  0.30068922696E+02  0.51100000000E-03 0. -1.
        -11    1    3    3    0    0  0.79521757416E+00  0.39337014103E+00 -0.11826006949E+02  0.11859239085E+02  0.51100000000E-03 0.  1.
        -12    1    3    3    0    0 -0.21965856995E+01 -0.28199207293E+02 -0.11501181194E+02  0.30533546298E+02  0.00000000000E+00 0.  1.
</event>
<event>
 7    1  0.1891413E-013  0.7246158E+02  0.7816164E-02  0.1226708E+00
        -11   -1    0    0    0    0  0.00000000000E+00  0.00000000000E+00  0.45593999997E+02  0.45594000000E+02  0.51100000000E-03 0.  1.
         11   -1    0    0    0    0 -0.00000000000E+00 -0.00000000000E+00 -0.45593999997E+02  0.45594000000E+02  0.51100000000E-03 0. -1.
    9900012    2    1    2    0    0  0.14021613933E+02 -0.12270620439E+02  0.18721798512E+01  0.72461579076E+02  0.70000011440E+02 0.  0.
        -12    1    1    2    0    0 -0.14021613933E+02  0.12270620439E+02 -0.18721798512E+01  0.18726420924E+02  0.00000000000E+00 0.  1.
         11    1    3    3    0    0 -0.61777921570E+01  0.41813036817E+01 -0.68990273312E+01  0.10160954423E+02  0.51100000000E-03 0. -1.
        -11    1    3    3    0    0 -0.16155642002E+02 -0.13205803682E+02 -0.77197491457E+01  0.22248427956E+02  0.51100000000E-03 0.  1.
         12    1    3    3    0    0  0.36355048091E+02 -0.32461204385E+01  0.16490956328E+02  0.40052196697E+02  0.00000000000E+00 0. -1.
</event>
<event>
 7    1  0.1891413E-013  0.7246158E+02  0.7816164E-02  0.1226708E+00
        -11   -1    0    0    0    0  0.00000000000E+00  0.00000000000E+00  0.45593999997E+02  0.45594000000E+02  0.51100000000E-03 0.  1.
         11   -1    0    0    0    0 -0.00000000000E+00 -0.00000000000E+00 -0.45593999997E+02  0.45594000000E+02  0.51100000000E-03 0. -1.
    9900012    2    1    2    0    0 -0.46340913354E+01  0.70436376270E+01 -0.16720977796E+02  0.72461581977E+02  0.70000015219E+02 0.  0.
        -12    1    1    2    0    0  0.46340913354E+01 -0.70436376270E+01  0.16720977796E+02  0.18726418023E+02  0.00000000000E+00 0.  1.
         11    1    3    3    0    0 -0.76953797497E+01  0.13380128120E+02 -0.28414338876E+02  0.32336068902E+02  0.51100000000E-03 0. -1.
        -11    1    3    3    0    0 -0.27816168917E+01 -0.80041644449E+00 -0.13433045099E+02  0.13741352187E+02  0.51100000000E-03 0.  1.
        -12    1    3    3    0    0  0.58429053060E+01 -0.55360740489E+01  0.25126406179E+02  0.26384160888E+02  0.00000000000E+00 0.  1.
</event>
<event>
 7    1  0.1891413E-013  0.7246157E+02  0.7816164E-02  0.1226708E+00
        -11   -1    0    0    0    0  0.00000000000E+00  0.00000000000E+00  0.45593999997E+02  0.45594000000E+02  0.51100000000E-03 0.  1.
         11   -1    0    0    0    0 -0.00000000000E+00 -0.00000000000E+00 -0.45593999997E+02  0.45594000000E+02  0.51100000000E-03 0. -1.
    9900012    2    1    2    0    0  0.11473485920E+02 -0.62772295943E+01 -0.13402788280E+02  0.72461568834E+02  0.69999998098E+02 0.  0.
        -12    1    1    2    0    0 -0.11473485920E+02  0.62772295943E+01  0.13402788280E+02  0.18726431166E+02  0.00000000000E+00 0.  1.
         11    1    3    3    0    0  0.19594202458E+02  0.21073304350E+02  0.41481996084E+00  0.28778273090E+02  0.51100000000E-03 0. -1.
        -11    1    3    3    0    0  0.20878047235E+01 -0.54865696946E+01 -0.18231343780E+02  0.19153153052E+02  0.51100000000E-03 0.  1.
        -12    1    3    3    0    0 -0.10208521261E+02 -0.21863964250E+02  0.44137355386E+01  0.24530142692E+02  0.00000000000E+00 0.  1.
</event>
<event>
 7    1  0.1891413E-013  0.7246162E+02  0.7816164E-02  0.1226708E+00
        -11   -1    0    0    0    0  0.00000000000E+00  0.00000000000E+00  0.45593999997E+02  0.45594000000E+02  0.51100000000E-03 0. -1.
         11   -1    0    0    0    0 -0.00000000000E+00 -0.00000000000E+00 -0.45593999997E+02  0.45594000000E+02  0.51100000000E-03 0.  1.
    9900012    2    1    2    0    0 -0.35643708999E+01  0.18342517678E+02  0.12347361827E+01  0.72461621062E+02  0.70000066135E+02 0.  0.
        -12    1    1    2    0    0  0.35643708999E+01 -0.18342517678E+02 -0.12347361827E+01  0.18726378938E+02  0.00000000000E+00 0.  1.
         11    1    3    3    0    0 -0.22124978037E+02  0.21421977270E+01 -0.18425543141E+02  0.28872206437E+02  0.51100000000E-03 0. -1.
        -11    1    3    3    0    0 -0.57238158128E+01  0.13070446962E+02  0.91021446377E+01  0.16924765538E+02  0.51100000000E-03 0.  1.
        -12    1    3    3    0    0  0.24284422950E+02  0.31298729894E+01  0.10558134686E+02  0.26664649088E+02  0.00000000000E+00 0.  1.
</event>
<event>
 7    1  0.1891413E-013  0.7246155E+02  0.7816164E-02  0.1226708E+00
        -11   -1    0    0    0    0  0.00000000000E+00  0.00000000000E+00  0.45593999997E+02  0.45594000000E+02  0.51100000000E-03 0.  1.
         11   -1    0    0    0    0 -0.00000000000E+00 -0.00000000000E+00 -0.45593999997E+02  0.45594000000E+02  0.51100000000E-03 0. -1.
    9900012    2    1    2    0    0  0.81522039921E+01  0.97692599729E+00 -0.16830544637E+02  0.72461546863E+02  0.69999969476E+02 0.  0.
        -12    1    1    2    0    0 -0.81522039921E+01 -0.97692599729E+00  0.16830544637E+02  0.18726453137E+02  0.00000000000E+00 0.  1.
         11    1    3    3    0    0 -0.82347650438E+01 -0.12137383104E+02 -0.37282578465E+02  0.40063924936E+02  0.51100000000E-03 0. -1.
        -11    1    3    3    0    0  0.81396719560E+00 -0.27624861926E+01  0.25888461129E+01  0.38724665289E+01  0.51100000000E-03 0.  1.
        -12    1    3    3    0    0  0.15573001840E+02  0.15876795294E+02  0.17863187716E+02  0.28525155398E+02  0.00000000000E+00 0.  1.
</event>
<event>
 7    1  0.1891413E-013  0.7246163E+02  0.7816164E-02  0.1226708E+00
        -11   -1    0    0    0    0  0.00000000000E+00  0.00000000000E+00  0.45593999997E+02  0.45594000000E+02  0.51100000000E-03 0.  1.
         11   -1    0    0    0    0 -0.00000000000E+00 -0.00000000000E+00 -0.45593999997E+02  0.45594000000E+02  0.51100000000E-03 0. -1.
    9900012    2    1    2    0    0 -0.12528945579E+02  0.10475922603E+02 -0.91628280653E+01  0.72461632230E+02  0.70000080683E+02 0.  0.
        -12    1    1    2    0    0  0.12528945579E+02 -0.10475922603E+02  0.91628280653E+01  0.18726367770E+02  0.00000000000E+00 0.  1.
         11    1    3    3    0    0  0.16484014742E+00 -0.15238251079E+02  0.64869340349E+01  0.16562360389E+02  0.51100000000E-03 0. -1.
        -11    1    3    3    0    0 -0.95282545001E+01  0.10131778896E+02  0.15561514016E+02  0.20871063608E+02  0.51100000000E-03 0.  1.
         12    1    3    3    0    0 -0.31655312263E+01  0.15582394785E+02 -0.31211276116E+02  0.35028208233E+02  0.00000000000E+00 0. -1.
</event>
<event>
 7    1  0.1891413E-013  0.7246155E+02  0.7816164E-02  0.1226708E+00
        -11   -1    0    0    0    0  0.00000000000E+00  0.00000000000E+00  0.45593999997E+02  0.45594000000E+02  0.51100000000E-03 0.  1.
         11   -1    0    0    0    0 -0.00000000000E+00 -0.00000000000E+00 -0.45593999997E+02  0.45594000000E+02  0.51100000000E-03 0. -1.
    9900012    2    1    2    0    0 -0.12193847681E+02  0.39956372856E+01 -0.13639089445E+02  0.72461553475E+02  0.69999978089E+02 0.  0.
        -12    1    1    2    0    0  0.12193847681E+02 -0.39956372856E+01  0.13639089445E+02  0.18726446525E+02  0.00000000000E+00 0.  1.
         11    1    3    3    0    0  0.13615399707E+02  0.64730690053E+01 -0.26368751820E+02  0.30374179895E+02  0.51100000000E-03 0. -1.
        -11    1    3    3    0    0  0.50622876153E+01 -0.71267715310E+01  0.12828640647E+01  0.88353476912E+01  0.51100000000E-03 0.  1.
        -12    1    3    3    0    0 -0.30871535003E+02  0.46493398113E+01  0.11446798310E+02  0.33252025888E+02  0.00000000000E+00 0.  1.
</event>
<event>
 7    1  0.1891413E-013  0.7246158E+02  0.7816164E-02  0.1226708E+00
        -11   -1    0    0    0    0  0.00000000000E+00  0.00000000000E+00  0.45593999997E+02  0.45594000000E+02  0.51100000000E-03 0.  1.
         11   -1    0    0    0    0 -0.00000000000E+00 -0.00000000000E+00 -0.45593999997E+02  0.45594000000E+02  0.51100000000E-03 0. -1.
    9900012    2    1    2    0    0  0.18150082299E+02  0.17469763718E+01  0.42663141715E+01  0.72461578812E+02  0.70000011096E+02 0.  0.
        -12    1    1    2    0    0 -0.18150082299E+02 -0.17469763718E+01 -0.42663141715E+01  0.18726421188E+02  0.00000000000E+00 0.  1.
         11    1    3    3    0    0  0.50548202266E+01 -0.21100918370E+00 -0.22880193010E+02  0.23432860791E+02  0.51100000000E-03 0. -1.
        -11    1    3    3    0    0  0.64431366021E+01 -0.13236758234E+02 -0.26197652970E+01  0.14952890968E+02  0.51100000000E-03 0.  1.
        -12    1    3    3    0    0  0.66521254700E+01  0.15194743789E+02  0.29766272479E+02  0.34075827054E+02  0.00000000000E+00 0.  1.
</event>
<event>
 7    1  0.1891413E-013  0.7246154E+02  0.7816164E-02  0.1226708E+00
        -11   -1    0    0    0    0  0.00000000000E+00  0.00000000000E+00  0.45593999997E+02  0.45594000000E+02  0.51100000000E-03 0.  1.
         11   -1    0    0    0    0 -0.00000000000E+00 -0.00000000000E+00 -0.45593999997E+02  0.45594000000E+02  0.51100000000E-03 0. -1.
    9900012    2    1    2    0    0  0.41634186080E+01 -0.94385862073E+01 -0.15628793930E+02  0.72461543747E+02  0.69999965417E+02 0.  0.
        -12    1    1    2    0    0 -0.41634186080E+01  0.94385862073E+01  0.15628793930E+02  0.18726456253E+02  0.00000000000E+00 0.  1.
         11    1    3    3    0    0 -0.15435867924E+01 -0.90104218078E+00 -0.19663799876E+00  0.17981112204E+01  0.51100000000E-03 0. -1.
        -11    1    3    3    0    0  0.94282220698E+01  0.19630892513E+02  0.16940225012E+02  0.27590479082E+02  0.51100000000E-03 0.  1.
         12    1    3    3    0    0 -0.37212166694E+01 -0.28168436539E+02 -0.32372380943E+02  0.43072953445E+02  0.00000000000E+00 0. -1.
</event>
<event>
 7    1  0.1891413E-013  0.7246158E+02  0.7816164E-02  0.1226708E+00
        -11   -1    0    0    0    0  0.00000000000E+00  0.00000000000E+00  0.45593999997E+02  0.45594000000E+02  0.51100000000E-03 0.  1.
         11   -1    0    0    0    0 -0.00000000000E+00 -0.00000000000E+00 -0.45593999997E+02  0.45594000000E+02  0.51100000000E-03 0. -1.
    9900012    2    1    2    0    0 -0.98514899056E+01  0.11740746627E+02 -0.10760194843E+02  0.72461580754E+02  0.70000013626E+02 0.  0.
        -12    1    1    2    0    0  0.98514899056E+01 -0.11740746627E+02  0.10760194843E+02  0.18726419246E+02  0.00000000000E+00 0.  1.
         11    1    3    3    0    0  0.89906670864E+01  0.34855001034E+02 -0.32661782248E+01  0.36143756200E+02  0.51100000000E-03 0. -1.
        -11    1    3    3    0    0  0.25090922965E-01 -0.12683207788E+02  0.18569603504E+01  0.12818451207E+02  0.51100000000E-03 0.  1.
        -12    1    3    3    0    0 -0.18867247915E+02 -0.10431046620E+02 -0.93509769687E+01  0.23499373348E+02  0.00000000000E+00 0.  1.
</event>
<event>
 7    1  0.1891413E-013  0.7246160E+02  0.7816164E-02  0.1226708E+00
        -11   -1    0    0    0    0  0.00000000000E+00  0.00000000000E+00  0.45593999997E+02  0.45594000000E+02  0.51100000000E-03 0.  1.
         11   -1    0    0    0    0 -0.00000000000E+00 -0.00000000000E+00 -0.45593999997E+02  0.45594000000E+02  0.51100000000E-03 0. -1.
    9900012    2    1    2    0    0 -0.14510520299E+02  0.69414153001E+01 -0.95885090546E+01  0.72461602813E+02  0.70000042362E+02 0.  0.
        -12    1    1    2    0    0  0.14510520299E+02 -0.69414153001E+01  0.95885090546E+01  0.18726397187E+02  0.00000000000E+00 0.  1.
         11    1    3    3    0    0 -0.13378975747E+02  0.11794426408E+02  0.14345177335E+02  0.22888634721E+02  0.51100000000E-03 0. -1.
        -11    1    3    3    0    0  0.17467151448E+02 -0.12708541519E+02 -0.19049650931E+02  0.28801000123E+02  0.51100000000E-03 0.  1.
         12    1    3    3    0    0 -0.18598696000E+02  0.78555304109E+01 -0.48840354590E+01  0.20771967969E+02  0.00000000000E+00 0. -1.
</event>
<event>
 7    1  0.1891413E-013  0.7246156E+02  0.7816164E-02  0.1226708E+00
        -11   -1    0    0    0    0  0.00000000000E+00  0.00000000000E+00  0.45593999997E+02  0.45594000000E+02  0.51100000000E-03 0.  1.
         11   -1    0    0    0    0 -0.00000000000E+00 -0.00000000000E+00 -0.45593999997E+02  0.45594000000E+02  0.51100000000E-03 0. -1.
    9900012    2    1    2    0    0 -0.13497014448E+02  0.77411404131E+01 -0.10420405645E+02  0.72461561264E+02  0.69999988237E+02 0.  0.
        -12    1    1    2    0    0  0.13497014448E+02 -0.77411404131E+01  0.10420405645E+02  0.18726438736E+02  0.00000000000E+00 0.  1.
         11    1    3    3    0    0 -0.17755889025E+02  0.27130138268E+00 -0.22553134363E+02  0.28705209795E+02  0.51100000000E-03 0. -1.
        -11    1    3    3    0    0  0.35661435236E+01 -0.91668182514E+01 -0.11318331499E+02  0.14995084684E+02  0.51100000000E-03 0.  1.
        -12    1    3    3    0    0  0.69273105332E+00  0.16636657282E+02  0.23451060217E+02  0.28761266786E+02  0.00000000000E+00 0.  1.
</event>
<event>
 7    1  0.1891413E-013  0.7246120E+02  0.7816164E-02  0.1226709E+00
        -11   -1    0    0    0    0  0.00000000000E+00  0.00000000000E+00  0.45593999997E+02  0.45594000000E+02  0.51100000000E-03 0.  1.
         11   -1    0    0    0    0 -0.00000000000E+00 -0.00000000000E+00 -0.45593999997E+02  0.45594000000E+02  0.51100000000E-03 0. -1.
    9900012    2    1    2    0    0 -0.22909719050E+01  0.17403870183E+02 -0.65230172715E+01  0.72461200916E+02  0.69999518814E+02 0.  0.
        -12    1    1    2    0    0  0.22909719050E+01 -0.17403870183E+02  0.65230172715E+01  0.18726799084E+02  0.00000000000E+00 0.  1.
         11    1    3    3    0    0 -0.49542619401E+01 -0.41901127663E+00 -0.56653045649E-01  0.49722722824E+01  0.51100000000E-03 0. -1.
        -11    1    3    3    0    0 -0.24386115013E+02  0.26631495305E+02  0.56854536322E+01  0.36554664967E+02  0.51100000000E-03 0.  1.
         12    1    3    3    0    0  0.27049405048E+02 -0.88086138449E+01 -0.12151817858E+02  0.30934263666E+02  0.00000000000E+00 0. -1.
</event>
<event>
 7    1  0.1891413E-013  0.7246155E+02  0.7816164E-02  0.1226708E+00
        -11   -1    0    0    0    0  0.00000000000E+00  0.00000000000E+00  0.45593999997E+02  0.45594000000E+02  0.51100000000E-03 0.  1.
         11   -1    0    0    0    0 -0.00000000000E+00 -0.00000000000E+00 -0.45593999997E+02  0.45594000000E+02  0.51100000000E-03 0. -1.
    9900012    2    1    2    0    0  0.12129553161E+02 -0.55156438528E+01  0.13157940410E+02  0.72461553919E+02  0.69999978668E+02 0.  0.
        -12    1    1    2    0    0 -0.12129553161E+02  0.55156438528E+01 -0.13157940410E+02  0.18726446081E+02  0.00000000000E+00 0.  1.
         11    1    3    3    0    0 -0.12065168131E+02  0.21548043191E+01 -0.12864557103E+02  0.17768182051E+02  0.51100000000E-03 0. -1.
        -11    1    3    3    0    0 -0.45200201726E+01 -0.91148730032E+01 -0.58767744403E+01  0.11749381699E+02  0.51100000000E-03 0.  1.
        -12    1    3    3    0    0  0.28714741465E+02  0.14444248313E+01  0.31899271953E+02  0.42943990169E+02  0.00000000000E+00 0.  1.
</event>
<event>
 7    1  0.1891413E-013  0.7246157E+02  0.7816164E-02  0.1226708E+00
        -11   -1    0    0    0    0  0.00000000000E+00  0.00000000000E+00  0.45593999997E+02  0.45594000000E+02  0.51100000000E-03 0. -1.
         11   -1    0    0    0    0 -0.00000000000E+00 -0.00000000000E+00 -0.45593999997E+02  0.45594000000E+02  0.51100000000E-03 0.  1.
    9900012    2    1    2    0    0 -0.16629531915E+02  0.53279258989E+01  0.67639599015E+01  0.72461567354E+02  0.69999996169E+02 0.  0.
        -12    1    1    2    0    0  0.16629531915E+02 -0.53279258989E+01 -0.67639599015E+01  0.18726432646E+02  0.00000000000E+00 0.  1.
         11    1    3    3    0    0  0.18008370270E+02  0.15066919055E+02  0.60030343244E+01  0.24235302163E+02  0.51100000000E-03 0. -1.
        -11    1    3    3    0    0  0.57962449342E+01 -0.21014799462E+01  0.33108897082E+01  0.69981900676E+01  0.51100000000E-03 0.  1.
        -12    1    3    3    0    0 -0.40434147119E+02 -0.76375132099E+01 -0.25499641312E+01  0.41228075123E+02  0.00000000000E+00 0.  1.
</event>
<event>
 7    1  0.1891413E-013  0.7246159E+02  0.7816164E-02  0.1226708E+00
        -11   -1    0    0    0    0  0.00000000000E+00  0.00000000000E+00  0.45593999997E+02  0.45594000000E+02  0.51100000000E-03 0.  1.
         11   -1    0    0    0    0 -0.00000000000E+00 -0.00000000000E+00 -0.45593999997E+02  0.45594000000E+02  0.51100000000E-03 0. -1.
    9900012    2    1    2    0    0  0.52102990755E+01  0.17928972719E+02  0.14432922778E+01  0.72461591594E+02  0.70000027746E+02 0.  0.
        -12    1    1    2    0    0 -0.52102990755E+01 -0.17928972719E+02 -0.14432922778E+01  0.18726408406E+02  0.00000000000E+00 0.  1.
         11    1    3    3    0    0  0.15875770538E+02  0.57266463074E+01  0.16552933101E+02  0.23639673488E+02  0.51100000000E-03 0. -1.
        -11    1    3    3    0    0  0.36648486017E+01  0.25569648372E+02 -0.35612158640E+01  0.26075281242E+02  0.51100000000E-03 0.  1.
        -12    1    3    3    0    0 -0.14330320064E+02 -0.13367321961E+02 -0.11548424960E+02  0.22746636864E+02  0.00000000000E+00 0.  1.
</event>
<event>
 7    1  0.1891413E-013  0.7246159E+02  0.7816164E-02  0.1226708E+00
        -11   -1    0    0    0    0  0.00000000000E+00  0.00000000000E+00  0.45593999997E+02  0.45594000000E+02  0.51100000000E-03 0. -1.
         11   -1    0    0    0    0 -0.00000000000E+00 -0.00000000000E+00 -0.45593999997E+02  0.45594000000E+02  0.51100000000E-03 0.  1.
    9900012    2    1    2    0    0 -0.76297476646E+01 -0.86658954314E+01  0.14743392734E+02  0.72461590244E+02  0.70000025988E+02 0.  0.
        -12    1    1    2    0    0  0.76297476646E+01  0.86658954314E+01 -0.14743392734E+02  0.18726409756E+02  0.00000000000E+00 0.  1.
         11    1    3    3    0    0  0.27139406161E+02 -0.20098363228E+00  0.14369644168E+01  0.27178164547E+02  0.51100000000E-03 0. -1.
        -11    1    3    3    0    0  0.36964280459E+01 -0.20492265465E+01  0.60131730099E+00  0.42690154011E+01  0.51100000000E-03 0.  1.
        -12    1    3    3    0    0 -0.38465581871E+02 -0.64156852526E+01  0.12705111016E+02  0.41014410295E+02  0.00000000000E+00 0.  1.
</event>
<event>
 7    1  0.1891413E-013  0.7246159E+02  0.7816164E-02  0.1226708E+00
        -11   -1    0    0    0    0  0.00000000000E+00  0.00000000000E+00  0.45593999997E+02  0.45594000000E+02  0.51100000000E-03 0.  1.
         11   -1    0    0    0    0 -0.00000000000E+00 -0.00000000000E+00 -0.45593999997E+02  0.45594000000E+02  0.51100000000E-03 0. -1.
    9900012    2    1    2    0    0 -0.14153681970E+02  0.11237181136E+02  0.49068886719E+01  0.72461587914E+02  0.70000022952E+02 0.  0.
        -12    1    1    2    0    0  0.14153681970E+02 -0.11237181136E+02 -0.49068886719E+01  0.18726412086E+02  0.00000000000E+00 0.  1.
         11    1    3    3    0    0 -0.40449969549E+01 -0.27390995159E+02  0.40479260937E+01  0.27982393073E+02  0.51100000000E-03 0. -1.
        -11    1    3    3    0    0 -0.61169706551E+01  0.16147253598E+01 -0.30927047739E+01  0.70419806207E+01  0.51100000000E-03 0.  1.
        -12    1    3    3    0    0 -0.39917143598E+01  0.37013450936E+02  0.39516673521E+01  0.37437214220E+02  0.00000000000E+00 0.  1.
</event>
<event>
 7    1  0.1891413E-013  0.7246161E+02  0.7816164E-02  0.1226708E+00
        -11   -1    0    0    0    0  0.00000000000E+00  0.00000000000E+00  0.45593999997E+02  0.45594000000E+02  0.51100000000E-03 0. -1.
         11   -1    0    0    0    0 -0.00000000000E+00 -0.00000000000E+00 -0.45593999997E+02  0.45594000000E+02  0.51100000000E-03 0.  1.
    9900012    2    1    2    0    0 -0.12563643410E+02 -0.10205577396E+02 -0.94169325086E+01  0.72461613173E+02  0.70000055857E+02 0.  0.
        -12    1    1    2    0    0  0.12563643410E+02  0.10205577396E+02  0.94169325086E+01  0.18726386827E+02  0.00000000000E+00 0.  1.
         11    1    3    3    0    0 -0.10119070506E+02  0.63846131643E+01  0.18251686216E+02  0.21823907147E+02  0.51100000000E-03 0. -1.
        -11    1    3    3    0    0 -0.17123116092E+02 -0.10130003368E+02 -0.15074587194E+01  0.19952205517E+02  0.51100000000E-03 0.  1.
        -12    1    3    3    0    0  0.14678543188E+02 -0.64601871920E+01 -0.26161160005E+02  0.30685500509E+02  0.00000000000E+00 0.  1.
</event>
<event>
 7    1  0.1891413E-013  0.7246143E+02  0.7816164E-02  0.1226708E+00
        -11   -1    0    0    0    0  0.00000000000E+00  0.00000000000E+00  0.45593999997E+02  0.45594000000E+02  0.51100000000E-03 0.  1.
         11   -1    0    0    0    0 -0.00000000000E+00 -0.00000000000E+00 -0.45593999997E+02  0.45594000000E+02  0.51100000000E-03 0. -1.
    9900012    2    1    2    0    0 -0.92162048919E+01 -0.15856173375E+02 -0.37852241570E+01  0.72461425603E+02  0.69999811513E+02 0.  0.
        -12    1    1    2    0    0  0.92162048919E+01  0.15856173375E+02  0.37852241570E+01  0.18726574397E+02  0.00000000000E+00 0.  1.
         11    1    3    3    0    0  0.22328347343E+02 -0.90555383650E+01 -0.70628432009E+01  0.25108596625E+02  0.51100000000E-03 0. -1.
        -11    1    3    3    0    0  0.27288633312E+01 -0.47867888506E+00 -0.97575772456E+01  0.10143280659E+02  0.51100000000E-03 0.  1.
        -12    1    3    3    0    0 -0.34273415566E+02 -0.63219561253E+01  0.13035196290E+02  0.37209548319E+02  0.00000000000E+00 0.  1.
</event>
<event>
 7    1  0.1891413E-013  0.7246151E+02  0.7816164E-02  0.1226708E+00
        -11   -1    0    0    0    0  0.00000000000E+00  0.00000000000E+00  0.45593999997E+02  0.45594000000E+02  0.51100000000E-03 0.  1.
         11   -1    0    0    0    0 -0.00000000000E+00 -0.00000000000E+00 -0.45593999997E+02  0.45594000000E+02  0.51100000000E-03 0. -1.
    9900012    2    1    2    0    0  0.76499093554E+01  0.62916063213E+01 -0.15892640434E+02  0.72461509586E+02  0.69999920916E+02 0.  0.
        -12    1    1    2    0    0 -0.76499093554E+01 -0.62916063213E+01  0.15892640434E+02  0.18726490414E+02  0.00000000000E+00 0.  1.
         11    1    3    3    0    0 -0.93731293949E+01  0.15201935670E+02  0.64298992553E+00  0.17870865650E+02  0.51100000000E-03 0. -1.
        -11    1    3    3    0    0  0.24725543083E+02  0.68377704825E+01  0.56961591487E+01  0.26278390651E+02  0.51100000000E-03 0.  1.
        -12    1    3    3    0    0 -0.77025043325E+01 -0.15748099832E+02 -0.22231789509E+02  0.28312253285E+02  0.00000000000E+00 0.  1.
</event>
<event>
 7    1  0.1891413E-013  0.7246158E+02  0.7816164E-02  0.1226708E+00
        -11   -1    0    0    0    0  0.00000000000E+00  0.00000000000E+00  0.45593999997E+02  0.45594000000E+02  0.51100000000E-03 0.  1.
         11   -1    0    0    0    0 -0.00000000000E+00 -0.00000000000E+00 -0.45593999997E+02  0.45594000000E+02  0.51100000000E-03 0. -1.
    9900012    2    1    2    0    0 -0.76971360573E+01  0.38228657256E+01 -0.16637870958E+02  0.72461575999E+02  0.70000007431E+02 0.  0.
        -12    1    1    2    0    0  0.76971360573E+01 -0.38228657256E+01  0.16637870958E+02  0.18726424001E+02  0.00000000000E+00 0.  1.
         11    1    3    3    0    0 -0.13103204609E+00 -0.99130418311E+01 -0.30476701973E+02  0.32048633842E+02  0.51100000000E-03 0. -1.
        -11    1    3    3    0    0  0.64826578503E+01  0.43831582362E+01 -0.90567212190E+01  0.11969174091E+02  0.51100000000E-03 0.  1.
        -12    1    3    3    0    0 -0.14048761862E+02  0.93527493205E+01  0.22895552233E+02  0.28443768066E+02  0.00000000000E+00 0.  1.
</event>
<event>
 7    1  0.1891413E-013  0.7246155E+02  0.7816164E-02  0.1226708E+00
        -11   -1    0    0    0    0  0.00000000000E+00  0.00000000000E+00  0.45593999997E+02  0.45594000000E+02  0.51100000000E-03 0. -1.
         11   -1    0    0    0    0 -0.00000000000E+00 -0.00000000000E+00 -0.45593999997E+02  0.45594000000E+02  0.51100000000E-03 0.  1.
    9900012    2    1    2    0    0 -0.16444930043E+01  0.18653476413E+02 -0.15263469461E+00  0.72461552475E+02  0.69999976788E+02 0.  0.
        -12    1    1    2    0    0  0.16444930043E+01 -0.18653476413E+02  0.15263469461E+00  0.18726447525E+02  0.00000000000E+00 0.  1.
         11    1    3    3    0    0 -0.24599341968E+01 -0.61496769893E+00 -0.15208353043E+02  0.15418283435E+02  0.51100000000E-03 0. -1.
        -11    1    3    3    0    0 -0.10926221185E+02  0.17890490888E+02 -0.14313678794E+02  0.25383722628E+02  0.51100000000E-03 0.  1.
         12    1    3    3    0    0  0.11741662377E+02  0.13779532244E+01  0.29369397143E+02  0.31659546412E+02  0.00000000000E+00 0. -1.
</event>
<event>
 7    1  0.1891413E-013  0.7246157E+02  0.7816164E-02  0.1226708E+00
        -11   -1    0    0    0    0  0.00000000000E+00  0.00000000000E+00  0.45593999997E+02  0.45594000000E+02  0.51100000000E-03 0. -1.
         11   -1    0    0    0    0 -0.00000000000E+00 -0.00000000000E+00 -0.45593999997E+02  0.45594000000E+02  0.51100000000E-03 0.  1.
    9900012    2    1    2    0    0  0.18488561835E+02 -0.29712199334E+01  0.15482194018E+00  0.72461573848E+02  0.70000004629E+02 0.  0.
        -12    1    1    2    0    0 -0.18488561835E+02  0.29712199334E+01 -0.15482194018E+00  0.18726426152E+02  0.00000000000E+00 0.  1.
         11    1    3    3    0    0 -0.24637582293E+01  0.73488422952E+01  0.17449209877E+02  0.19093205945E+02  0.51100000000E-03 0. -1.
        -11    1    3    3    0    0 -0.48129459595E+01 -0.75218612935E+01  0.11544519423E+02  0.14595162729E+02  0.51100000000E-03 0.  1.
        -12    1    3    3    0    0  0.25765266023E+02 -0.27982009350E+01 -0.28838907359E+02  0.38773205173E+02  0.00000000000E+00 0.  1.
</event>
<event>
 7    1  0.1891413E-013  0.7246155E+02  0.7816164E-02  0.1226708E+00
        -11   -1    0    0    0    0  0.00000000000E+00  0.00000000000E+00  0.45593999997E+02  0.45594000000E+02  0.51100000000E-03 0.  1.
         11   -1    0    0    0    0 -0.00000000000E+00 -0.00000000000E+00 -0.45593999997E+02  0.45594000000E+02  0.51100000000E-03 0. -1.
    9900012    2    1    2    0    0 -0.18466062424E+02 -0.15628293017E+01 -0.26910690952E+01  0.72461554803E+02  0.69999979819E+02 0.  0.
        -12    1    1    2    0    0  0.18466062424E+02  0.15628293017E+01  0.26910690952E+01  0.18726445197E+02  0.00000000000E+00 0.  1.
         11    1    3    3    0    0 -0.91517223965E+01 -0.15893049912E+02  0.29369806231E+02  0.34625548034E+02  0.51100000000E-03 0.  1.
        -11    1    3    3    0    0  0.19126443363E+01  0.52276904869E+01 -0.75361677092E+01  0.93691397784E+01  0.51100000000E-03 0. -1.
        -12    1    3    3    0    0 -0.11226984363E+02  0.91025301239E+01 -0.24524707617E+02  0.28466866990E+02  0.00000000000E+00 0.  1.
</event>
<event>
 7    1  0.1891413E-013  0.7246151E+02  0.7816164E-02  0.1226708E+00
        -11   -1    0    0    0    0  0.00000000000E+00  0.00000000000E+00  0.45593999997E+02  0.45594000000E+02  0.51100000000E-03 0.  1.
         11   -1    0    0    0    0 -0.00000000000E+00 -0.00000000000E+00 -0.45593999997E+02  0.45594000000E+02  0.51100000000E-03 0. -1.
    9900012    2    1    2    0    0 -0.61786506364E+01  0.16648516601E+02  0.59441080776E+01  0.72461514757E+02  0.69999927652E+02 0.  0.
        -12    1    1    2    0    0  0.61786506364E+01 -0.16648516601E+02 -0.59441080776E+01  0.18726485243E+02  0.00000000000E+00 0.  1.
         11    1    3    3    0    0 -0.45068117116E+01 -0.59680556848E+01  0.18898497619E+01  0.77136614422E+01  0.51100000000E-03 0. -1.
        -11    1    3    3    0    0  0.18370960130E+02 -0.67468261757E+01  0.17970300283E+02  0.26569597891E+02  0.51100000000E-03 0.  1.
         12    1    3    3    0    0 -0.20042799055E+02  0.29363398462E+02 -0.13916041968E+02  0.38178255424E+02  0.00000000000E+00 0. -1.
</event>
<event>
 7    1  0.1891413E-013  0.7246156E+02  0.7816164E-02  0.1226708E+00
        -11   -1    0    0    0    0  0.00000000000E+00  0.00000000000E+00  0.45593999997E+02  0.45594000000E+02  0.51100000000E-03 0.  1.
         11   -1    0    0    0    0 -0.00000000000E+00 -0.00000000000E+00 -0.45593999997E+02  0.45594000000E+02  0.51100000000E-03 0. -1.
    9900012    2    1    2    0    0 -0.93425438464E+01  0.13520619544E+02 -0.89771533891E+01  0.72461559833E+02  0.69999986372E+02 0.  0.
        -12    1    1    2    0    0  0.93425438464E+01 -0.13520619544E+02  0.89771533891E+01  0.18726440167E+02  0.00000000000E+00 0.  1.
         11    1    3    3    0    0 -0.43249794963E+01  0.14229649560E+02  0.19099592746E+02  0.24207081972E+02  0.51100000000E-03 0.  1.
        -11    1    3    3    0    0 -0.14047423506E+02 -0.99977698014E+01  0.10016978804E+00  0.17242260363E+02  0.51100000000E-03 0. -1.
        -12    1    3    3    0    0  0.90298591563E+01  0.92887397850E+01 -0.28176915923E+02  0.31012217498E+02  0.00000000000E+00 0.  1.
</event>
<event>
 7    1  0.1891413E-013  0.7246158E+02  0.7816164E-02  0.1226708E+00
        -11   -1    0    0    0    0  0.00000000000E+00  0.00000000000E+00  0.45593999997E+02  0.45594000000E+02  0.51100000000E-03 0. -1.
         11   -1    0    0    0    0 -0.00000000000E+00 -0.00000000000E+00 -0.45593999997E+02  0.45594000000E+02  0.51100000000E-03 0.  1.
    9900012    2    1    2    0    0  0.25892013280E+01  0.15921531239E+02  0.95120872321E+01  0.72461576849E+02  0.70000008539E+02 0.  0.
        -12    1    1    2    0    0 -0.25892013280E+01 -0.15921531239E+02 -0.95120872321E+01  0.18726423151E+02  0.00000000000E+00 0.  1.
         11    1    3    3    0    0 -0.14492155241E+02  0.14417960736E+02  0.24938444641E+01  0.20594159749E+02  0.51100000000E-03 0. -1.
        -11    1    3    3    0    0 -0.11969505899E+02  0.80559758710E+01 -0.10011683911E+02  0.17561367649E+02  0.51100000000E-03 0.  1.
        -12    1    3    3    0    0  0.29050862468E+02 -0.65524053677E+01  0.17029926679E+02  0.34306049451E+02  0.00000000000E+00 0.  1.
</event>
<event>
 7    1  0.1891413E-013  0.7246154E+02  0.7816164E-02  0.1226708E+00
        -11   -1    0    0    0    0  0.00000000000E+00  0.00000000000E+00  0.45593999997E+02  0.45594000000E+02  0.51100000000E-03 0. -1.
         11   -1    0    0    0    0 -0.00000000000E+00 -0.00000000000E+00 -0.45593999997E+02  0.45594000000E+02  0.51100000000E-03 0.  1.
    9900012    2    1    2    0    0  0.15912501951E+02  0.35870921407E+01  0.91981212407E+01  0.72461537902E+02  0.69999957803E+02 0.  0.
        -12    1    1    2    0    0 -0.15912501951E+02 -0.35870921407E+01 -0.91981212407E+01  0.18726462098E+02  0.00000000000E+00 0.  1.
         11    1    3    3    0    0 -0.21281024569E+02  0.15840975944E+02  0.95040922976E+01  0.28180601417E+02  0.51100000000E-03 0. -1.
        -11    1    3    3    0    0 -0.19679397523E+01 -0.58930355555E+00  0.26027615026E+01  0.33157854650E+01  0.51100000000E-03 0.  1.
         12    1    3    3    0    0  0.39161466272E+02 -0.11664580248E+02 -0.29087325595E+01  0.40965151020E+02  0.00000000000E+00 0. -1.
</event>
<event>
 7    1  0.1891413E-013  0.7246140E+02  0.7816164E-02  0.1226708E+00
        -11   -1    0    0    0    0  0.00000000000E+00  0.00000000000E+00  0.45593999997E+02  0.45594000000E+02  0.51100000000E-03 0.  1.
         11   -1    0    0    0    0 -0.00000000000E+00 -0.00000000000E+00 -0.45593999997E+02  0.45594000000E+02  0.51100000000E-03 0. -1.
    9900012    2    1    2    0    0  0.36970592381E+01  0.67402593561E+01 -0.17075891733E+02  0.72461403361E+02  0.69999782538E+02 0.  0.
        -12    1    1    2    0    0 -0.36970592381E+01 -0.67402593561E+01  0.17075891733E+02  0.18726596639E+02  0.00000000000E+00 0.  1.
         11    1    3    3    0    0 -0.89150020822E+01 -0.22956675128E+02 -0.22097822696E+02  0.33087761532E+02  0.51100000000E-03 0. -1.
        -11    1    3    3    0    0 -0.19884216033E-01  0.82998299960E+01 -0.78201736084E+01  0.11403626128E+02  0.51100000000E-03 0.  1.
        -12    1    3    3    0    0  0.12631945536E+02  0.21397104488E+02  0.12842104572E+02  0.27970015701E+02  0.00000000000E+00 0.  1.
</event>
<event>
 7    1  0.1891413E-013  0.7246163E+02  0.7816164E-02  0.1226708E+00
        -11   -1    0    0    0    0  0.00000000000E+00  0.00000000000E+00  0.45593999997E+02  0.45594000000E+02  0.51100000000E-03 0.  1.
         11   -1    0    0    0    0 -0.00000000000E+00 -0.00000000000E+00 -0.45593999997E+02  0.45594000000E+02  0.51100000000E-03 0. -1.
    9900012    2    1    2    0    0  0.91932175645E+01 -0.15516591674E+02 -0.50395599074E+01  0.72461627409E+02  0.70000074402E+02 0.  0.
        -12    1    1    2    0    0 -0.91932175645E+01  0.15516591674E+02  0.50395599074E+01  0.18726372591E+02  0.00000000000E+00 0.  1.
         11    1    3    3    0    0 -0.46178936281E+01  0.10719267791E+02 -0.38610953129E+01  0.12293726075E+02  0.51100000000E-03 0. -1.
        -11    1    3    3    0    0 -0.12574785462E+02  0.52355908806E+01 -0.11494504664E+02  0.17823026652E+02  0.51100000000E-03 0.  1.
        -12    1    3    3    0    0  0.26385896654E+02 -0.31471450346E+02  0.10316040070E+02  0.42344874682E+02  0.00000000000E+00 0.  1.
</event>
<event>
 7    1  0.1891413E-013  0.7246157E+02  0.7816164E-02  0.1226708E+00
        -11   -1    0    0    0    0  0.00000000000E+00  0.00000000000E+00  0.45593999997E+02  0.45594000000E+02  0.51100000000E-03 0.  1.
         11   -1    0    0    0    0 -0.00000000000E+00 -0.00000000000E+00 -0.45593999997E+02  0.45594000000E+02  0.51100000000E-03 0. -1.
    9900012    2    1    2    0    0 -0.11724839332E+02 -0.83530559775E+01 -0.11976382370E+02  0.72461571184E+02  0.70000001159E+02 0.  0.
        -12    1    1    2    0    0  0.11724839332E+02  0.83530559775E+01  0.11976382370E+02  0.18726428816E+02  0.00000000000E+00 0.  1.
         11    1    3    3    0    0  0.28950614557E+01 -0.60027603844E+01 -0.13968072521E+02  0.15476484202E+02  0.51100000000E-03 0. -1.
        -11    1    3    3    0    0 -0.20863050422E+02  0.37021355596E+01 -0.22553238711E+02  0.30945456165E+02  0.51100000000E-03 0.  1.
        -12    1    3    3    0    0  0.62431496343E+01 -0.60524311527E+01  0.24544928862E+02  0.26039630817E+02  0.00000000000E+00 0.  1.
</event>
<event>
 7    1  0.1891413E-013  0.7246156E+02  0.7816164E-02  0.1226708E+00
        -11   -1    0    0    0    0  0.00000000000E+00  0.00000000000E+00  0.45593999997E+02  0.45594000000E+02  0.51100000000E-03 0.  1.
         11   -1    0    0    0    0 -0.00000000000E+00 -0.00000000000E+00 -0.45593999997E+02  0.45594000000E+02  0.51100000000E-03 0. -1.
    9900012    2    1    2    0    0  0.14483506615E+02 -0.88114873367E+01 -0.79539538685E+01  0.72461557330E+02  0.69999983111E+02 0.  0.
        -12    1    1    2    0    0 -0.14483506615E+02  0.88114873367E+01  0.79539538685E+01  0.18726442670E+02  0.00000000000E+00 0.  1.
         11    1    3    3    0    0 -0.84521792230E-02 -0.14072543986E+02 -0.11756481398E+01  0.14121569123E+02  0.51100000000E-03 0. -1.
        -11    1    3    3    0    0  0.11945230860E+02 -0.23597904813E+02  0.52605573578E+01  0.26967074662E+02  0.51100000000E-03 0.  1.
         12    1    3    3    0    0  0.25467279337E+01  0.28858961462E+02 -0.12038863087E+02  0.31372913544E+02  0.00000000000E+00 0. -1.
</event>
<event>
 7    1  0.1891413E-013  0.7246158E+02  0.7816164E-02  0.1226708E+00
        -11   -1    0    0    0    0  0.00000000000E+00  0.00000000000E+00  0.45593999997E+02  0.45594000000E+02  0.51100000000E-03 0.  1.
         11   -1    0    0    0    0 -0.00000000000E+00 -0.00000000000E+00 -0.45593999997E+02  0.45594000000E+02  0.51100000000E-03 0. -1.
    9900012    2    1    2    0    0 -0.15405654111E+02  0.73086278964E+00 -0.10621225844E+02  0.72461580763E+02  0.70000013637E+02 0.  0.
        -12    1    1    2    0    0  0.15405654111E+02 -0.73086278964E+00  0.10621225844E+02  0.18726419237E+02  0.00000000000E+00 0.  1.
         11    1    3    3    0    0 -0.87552801950E+00  0.16994809239E+02 -0.48624158394E+01  0.17698394799E+02  0.51100000000E-03 0. -1.
        -11    1    3    3    0    0  0.16386120619E+02  0.39353865703E+01 -0.58332187505E+01  0.17833077627E+02  0.51100000000E-03 0.  1.
         12    1    3    3    0    0 -0.30916246711E+02 -0.20199333020E+02  0.74408745576E-01  0.36930108337E+02  0.00000000000E+00 0. -1.
</event>
<event>
 7    1  0.1891413E-013  0.7246160E+02  0.7816164E-02  0.1226708E+00
        -11   -1    0    0    0    0  0.00000000000E+00  0.00000000000E+00  0.45593999997E+02  0.45594000000E+02  0.51100000000E-03 0.  1.
         11   -1    0    0    0    0 -0.00000000000E+00 -0.00000000000E+00 -0.45593999997E+02  0.45594000000E+02  0.51100000000E-03 0. -1.
    9900012    2    1    2    0    0  0.18548358427E+02  0.25286351789E+01  0.49225861261E+00  0.72461603797E+02  0.70000043643E+02 0.  0.
        -12    1    1    2    0    0 -0.18548358427E+02 -0.25286351789E+01 -0.49225861261E+00  0.18726396203E+02  0.00000000000E+00 0.  1.
         11    1    3    3    0    0  0.32750393139E+01 -0.62983391818E+01 -0.17804523270E+02  0.19167577001E+02  0.51100000000E-03 0. -1.
        -11    1    3    3    0    0 -0.13506225712E+02  0.59703081564E+01  0.19365464551E+02  0.24353314559E+02  0.51100000000E-03 0.  1.
         12    1    3    3    0    0  0.28779544825E+02  0.28566662043E+01 -0.10686826687E+01  0.28940712237E+02  0.00000000000E+00 0. -1.
</event>
<event>
 7    1  0.1891413E-013  0.7246153E+02  0.7816164E-02  0.1226708E+00
        -11   -1    0    0    0    0  0.00000000000E+00  0.00000000000E+00  0.45593999997E+02  0.45594000000E+02  0.51100000000E-03 0. -1.
         11   -1    0    0    0    0 -0.00000000000E+00 -0.00000000000E+00 -0.45593999997E+02  0.45594000000E+02  0.51100000000E-03 0.  1.
    9900012    2    1    2    0    0  0.27827935530E+01  0.13491070093E+02  0.12685729866E+02  0.72461530647E+02  0.69999948352E+02 0.  0.
        -12    1    1    2    0    0 -0.27827935530E+01 -0.13491070093E+02 -0.12685729866E+02  0.18726469353E+02  0.00000000000E+00 0.  1.
         11    1    3    3    0    0  0.14357304550E+02 -0.18392372535E+02  0.48576080571E+00  0.23337684659E+02  0.51100000000E-03 0. -1.
        -11    1    3    3    0    0  0.60766053285E+01 -0.17043537180E+01 -0.44150342127E+01  0.77021088849E+01  0.51100000000E-03 0.  1.
         12    1    3    3    0    0 -0.17651116326E+02  0.33587796345E+02  0.16615003273E+02  0.41421737103E+02  0.00000000000E+00 0. -1.
</event>
<event>
 7    1  0.1891413E-013  0.7246160E+02  0.7816164E-02  0.1226708E+00
        -11   -1    0    0    0    0  0.00000000000E+00  0.00000000000E+00  0.45593999997E+02  0.45594000000E+02  0.51100000000E-03 0. -1.
         11   -1    0    0    0    0 -0.00000000000E+00 -0.00000000000E+00 -0.45593999997E+02  0.45594000000E+02  0.51100000000E-03 0.  1.
    9900012    2    1    2    0    0 -0.17241995334E+02  0.30583730674E+01 -0.66361202672E+01  0.72461597753E+02  0.70000035770E+02 0.  0.
        -12    1    1    2    0    0  0.17241995334E+02 -0.30583730674E+01  0.66361202672E+01  0.18726402247E+02  0.00000000000E+00 0.  1.
         11    1    3    3    0    0  0.87237722068E+01  0.18581170812E+02  0.16170250897E+02  0.26131228915E+02  0.51100000000E-03 0. -1.
        -11    1    3    3    0    0  0.26105358175E+01 -0.86801869106E+01  0.11273184962E+00  0.90649462651E+01  0.51100000000E-03 0.  1.
        -12    1    3    3    0    0 -0.28576303358E+02 -0.68426108342E+01 -0.22919103013E+02  0.37265422573E+02  0.00000000000E+00 0.  1.
</event>
<event>
 7    1  0.1891413E-013  0.7246158E+02  0.7816164E-02  0.1226708E+00
        -11   -1    0    0    0    0  0.00000000000E+00  0.00000000000E+00  0.45593999997E+02  0.45594000000E+02  0.51100000000E-03 0.  1.
         11   -1    0    0    0    0 -0.00000000000E+00 -0.00000000000E+00 -0.45593999997E+02  0.45594000000E+02  0.51100000000E-03 0. -1.
    9900012    2    1    2    0    0  0.16293056501E+01  0.17547700159E+02 -0.63326582447E+01  0.72461575403E+02  0.70000006654E+02 0.  0.
        -12    1    1    2    0    0 -0.16293056501E+01 -0.17547700159E+02  0.63326582447E+01  0.18726424597E+02  0.00000000000E+00 0.  1.
         11    1    3    3    0    0 -0.31072202963E+01  0.33809147103E+00  0.36533351558E+01  0.48079082597E+01  0.51100000000E-03 0. -1.
        -11    1    3    3    0    0  0.48726419434E+00  0.26586515694E+02  0.21709891151E+02  0.34327825699E+02  0.51100000000E-03 0.  1.
         12    1    3    3    0    0  0.42492617520E+01 -0.93769070067E+01 -0.31695884551E+02  0.33325841444E+02  0.00000000000E+00 0. -1.
</event>
<event>
 7    1  0.1891413E-013  0.7246154E+02  0.7816164E-02  0.1226708E+00
        -11   -1    0    0    0    0  0.00000000000E+00  0.00000000000E+00  0.45593999997E+02  0.45594000000E+02  0.51100000000E-03 0.  1.
         11   -1    0    0    0    0 -0.00000000000E+00 -0.00000000000E+00 -0.45593999997E+02  0.45594000000E+02  0.51100000000E-03 0. -1.
    9900012    2    1    2    0    0 -0.34426873700E+01  0.12878179042E+00 -0.18406840085E+02  0.72461536293E+02  0.69999955707E+02 0.  0.
        -12    1    1    2    0    0  0.34426873700E+01 -0.12878179042E+00  0.18406840085E+02  0.18726463707E+02  0.00000000000E+00 0.  1.
         11    1    3    3    0    0 -0.10516454533E+02  0.56916630456E+01  0.40681759151E+01  0.12630950072E+02  0.51100000000E-03 0. -1.
        -11    1    3    3    0    0 -0.44457762526E-01  0.19371129859E+02  0.69779313772E+01  0.20589661850E+02  0.51100000000E-03 0.  1.
         12    1    3    3    0    0  0.71182249259E+01 -0.24934011114E+02 -0.29452947377E+02  0.39240924372E+02  0.00000000000E+00 0. -1.
</event>
<event>
 7    1  0.1891413E-013  0.7246154E+02  0.7816164E-02  0.1226708E+00
        -11   -1    0    0    0    0  0.00000000000E+00  0.00000000000E+00  0.45593999997E+02  0.45594000000E+02  0.51100000000E-03 0.  1.
         11   -1    0    0    0    0 -0.00000000000E+00 -0.00000000000E+00 -0.45593999997E+02  0.45594000000E+02  0.51100000000E-03 0. -1.
    9900012    2    1    2    0    0  0.10036024631E+02  0.89012056782E+01 -0.13066262688E+02  0.72461535476E+02  0.69999954643E+02 0.  0.
        -12    1    1    2    0    0 -0.10036024631E+02 -0.89012056782E+01  0.13066262688E+02  0.18726464524E+02  0.00000000000E+00 0.  1.
         11    1    3    3    0    0 -0.10683052774E+02  0.53384355803E+01 -0.43096823932E+01  0.12696451221E+02  0.51100000000E-03 0.  1.
        -11    1    3    3    0    0  0.31040519087E+02  0.14522880795E+02 -0.21144868492E+02  0.40268267352E+02  0.51100000000E-03 0. -1.
         12    1    3    3    0    0 -0.10321441681E+02 -0.10960110698E+02  0.12388288197E+02  0.19496816902E+02  0.00000000000E+00 0. -1.
</event>
<event>
 7    1  0.1891413E-013  0.7246159E+02  0.7816164E-02  0.1226708E+00
        -11   -1    0    0    0    0  0.00000000000E+00  0.00000000000E+00  0.45593999997E+02  0.45594000000E+02  0.51100000000E-03 0. -1.
         11   -1    0    0    0    0 -0.00000000000E+00 -0.00000000000E+00 -0.45593999997E+02  0.45594000000E+02  0.51100000000E-03 0.  1.
    9900012    2    1    2    0    0 -0.13299040873E+02 -0.12654987980E+02 -0.36966423557E+01  0.72461591545E+02  0.70000027683E+02 0.  0.
        -12    1    1    2    0    0  0.13299040873E+02  0.12654987980E+02  0.36966423557E+01  0.18726408455E+02  0.00000000000E+00 0.  1.
         11    1    3    3    0    0  0.85392374838E+01 -0.27921825837E+02 -0.17744214227E+02  0.34167295381E+02  0.51100000000E-03 0. -1.
        -11    1    3    3    0    0 -0.74310816646E+01 -0.45443926590E+00 -0.55863671995E+01  0.93077918166E+01  0.51100000000E-03 0.  1.
        -12    1    3    3    0    0 -0.14407196692E+02  0.15721277123E+02  0.19633939071E+02  0.28986504348E+02  0.00000000000E+00 0.  1.
</event>
<event>
 7    1  0.1891413E-013  0.7246157E+02  0.7816164E-02  0.1226708E+00
        -11   -1    0    0    0    0  0.00000000000E+00  0.00000000000E+00  0.45593999997E+02  0.45594000000E+02  0.51100000000E-03 0.  1.
         11   -1    0    0    0    0 -0.00000000000E+00 -0.00000000000E+00 -0.45593999997E+02  0.45594000000E+02  0.51100000000E-03 0. -1.
    9900012    2    1    2    0    0  0.11867082274E+02  0.11567485211E+02 -0.87203632692E+01  0.72461572382E+02  0.70000002719E+02 0.  0.
        -12    1    1    2    0    0 -0.11867082274E+02 -0.11567485211E+02  0.87203632692E+01  0.18726427618E+02  0.00000000000E+00 0.  1.
         11    1    3    3    0    0  0.72441790787E+01  0.12356084035E+02  0.12773117176E+01  0.14379932847E+02  0.51100000000E-03 0. -1.
        -11    1    3    3    0    0  0.27363834465E+01  0.21888752932E+01  0.23822217730E+02  0.24078559493E+02  0.51100000000E-03 0.  1.
         12    1    3    3    0    0  0.18865197486E+01 -0.29774741171E+01 -0.33819892717E+02  0.34003080041E+02  0.00000000000E+00 0. -1.
</event>
<event>
 7    1  0.1891413E-013  0.7246155E+02  0.7816164E-02  0.1226708E+00
        -11   -1    0    0    0    0  0.00000000000E+00  0.00000000000E+00  0.45593999997E+02  0.45594000000E+02  0.51100000000E-03 0. -1.
         11   -1    0    0    0    0 -0.00000000000E+00 -0.00000000000E+00 -0.45593999997E+02  0.45594000000E+02  0.51100000000E-03 0.  1.
    9900012    2    1    2    0    0  0.66550294678E+01  0.10267735800E+02 -0.14176180859E+02  0.72461550271E+02  0.69999973916E+02 0.  0.
        -12    1    1    2    0    0 -0.66550294678E+01 -0.10267735800E+02  0.14176180859E+02  0.18726449729E+02  0.00000000000E+00 0.  1.
         11    1    3    3    0    0  0.21864953167E+02 -0.40639504506E+01 -0.18169221471E+02  0.28717807706E+02  0.51100000000E-03 0. -1.
        -11    1    3    3    0    0  0.18831447286E+01 -0.62689237325E+01  0.13769163553E+02  0.15245835630E+02  0.51100000000E-03 0.  1.
        -12    1    3    3    0    0 -0.17093068428E+02  0.20600609984E+02 -0.97761229410E+01  0.28497906936E+02  0.00000000000E+00 0.  1.
</event>
<event>
 7    1  0.1891413E-013  0.7246157E+02  0.7816164E-02  0.1226708E+00
        -11   -1    0    0    0    0  0.00000000000E+00  0.00000000000E+00  0.45593999997E+02  0.45594000000E+02  0.51100000000E-03 0.  1.
         11   -1    0    0    0    0 -0.00000000000E+00 -0.00000000000E+00 -0.45593999997E+02  0.45594000000E+02  0.51100000000E-03 0. -1.
    9900012    2    1    2    0    0  0.18138242793E+02 -0.44316568022E+01 -0.14296403319E+01  0.72461566674E+02  0.69999995284E+02 0.  0.
        -12    1    1    2    0    0 -0.18138242793E+02  0.44316568022E+01  0.14296403319E+01  0.18726433326E+02  0.00000000000E+00 0.  1.
         11    1    3    3    0    0 -0.12021672318E+02 -0.35176992950E+01 -0.17788128433E+02  0.21755742393E+02  0.51100000000E-03 0. -1.
        -11    1    3    3    0    0  0.12544176449E+02 -0.97638373876E+01 -0.92473606624E+01  0.18390284468E+02  0.51100000000E-03 0.  1.
        -12    1    3    3    0    0  0.17615738662E+02  0.88498798805E+01  0.25605848764E+02  0.32315539813E+02  0.00000000000E+00 0.  1.
</event>
<event>
 7    1  0.1891413E-013  0.7246157E+02  0.7816164E-02  0.1226708E+00
        -11   -1    0    0    0    0  0.00000000000E+00  0.00000000000E+00  0.45593999997E+02  0.45594000000E+02  0.51100000000E-03 0.  1.
         11   -1    0    0    0    0 -0.00000000000E+00 -0.00000000000E+00 -0.45593999997E+02  0.45594000000E+02  0.51100000000E-03 0. -1.
    9900012    2    1    2    0    0  0.99208223340E+01 -0.15385229926E+02 -0.39435128134E+01  0.72461566571E+02  0.69999995150E+02 0.  0.
        -12    1    1    2    0    0 -0.99208223340E+01  0.15385229926E+02  0.39435128134E+01  0.18726433429E+02  0.00000000000E+00 0.  1.
         11    1    3    3    0    0  0.16426178404E+01 -0.18080127290E+02 -0.25030438672E+01  0.18326331468E+02  0.51100000000E-03 0. -1.
        -11    1    3    3    0    0 -0.22546542130E+02 -0.21563834579E+01 -0.32361275251E+01  0.22879446524E+02  0.51100000000E-03 0.  1.
        -12    1    3    3    0    0  0.30824746623E+02  0.48512808220E+01  0.17956585789E+01  0.31255788580E+02  0.00000000000E+00 0.  1.
</event>
<event>
 7    1  0.1891413E-013  0.7246155E+02  0.7816164E-02  0.1226708E+00
        -11   -1    0    0    0    0  0.00000000000E+00  0.00000000000E+00  0.45593999997E+02  0.45594000000E+02  0.51100000000E-03 0. -1.
         11   -1    0    0    0    0 -0.00000000000E+00 -0.00000000000E+00 -0.45593999997E+02  0.45594000000E+02  0.51100000000E-03 0.  1.
    9900012    2    1    2    0    0  0.67579564578E+01 -0.15856653452E+02 -0.73195889351E+01  0.72461553024E+02  0.69999977502E+02 0.  0.
        -12    1    1    2    0    0 -0.67579564578E+01  0.15856653452E+02  0.73195889351E+01  0.18726446976E+02  0.00000000000E+00 0.  1.
         11    1    3    3    0    0  0.28442095728E+01 -0.91105536176E+01 -0.66833991957E+01  0.11651589608E+02  0.51100000000E-03 0. -1.
        -11    1    3    3    0    0  0.28625796936E+02 -0.20855211304E+01  0.13763805484E+02  0.31831242361E+02  0.51100000000E-03 0.  1.
         12    1    3    3    0    0 -0.24712050051E+02 -0.46605787037E+01 -0.14399995223E+02  0.28978721055E+02  0.00000000000E+00 0. -1.
</event>
<event>
 7    1  0.1891413E-013  0.7246157E+02  0.7816164E-02  0.1226708E+00
        -11   -1    0    0    0    0  0.00000000000E+00  0.00000000000E+00  0.45593999997E+02  0.45594000000E+02  0.51100000000E-03 0.  1.
         11   -1    0    0    0    0 -0.00000000000E+00 -0.00000000000E+00 -0.45593999997E+02  0.45594000000E+02  0.51100000000E-03 0. -1.
    9900012    2    1    2    0    0  0.62650292338E+01 -0.17232136920E+02  0.38055089570E+01  0.72461573951E+02  0.70000004764E+02 0.  0.
        -12    1    1    2    0    0 -0.62650292338E+01  0.17232136920E+02 -0.38055089570E+01  0.18726426049E+02  0.00000000000E+00 0.  1.
         11    1    3    3    0    0 -0.16438724194E+02 -0.40212195731E+01  0.39324912971E+01  0.17374301368E+02  0.51100000000E-03 0. -1.
        -11    1    3    3    0    0  0.65519359991E+01  0.15877138861E+01  0.22562720207E+02  0.23548355444E+02  0.51100000000E-03 0.  1.
         12    1    3    3    0    0  0.16151817429E+02 -0.14798631233E+02 -0.22689702547E+02  0.31538917139E+02  0.00000000000E+00 0. -1.
</event>
<event>
 7    1  0.1891413E-013  0.7246161E+02  0.7816164E-02  0.1226708E+00
        -11   -1    0    0    0    0  0.00000000000E+00  0.00000000000E+00  0.45593999997E+02  0.45594000000E+02  0.51100000000E-03 0. -1.
         11   -1    0    0    0    0 -0.00000000000E+00 -0.00000000000E+00 -0.45593999997E+02  0.45594000000E+02  0.51100000000E-03 0.  1.
    9900012    2    1    2    0    0  0.12688971865E+01 -0.95155485473E+01  0.16078617059E+02  0.72461609777E+02  0.70000051434E+02 0.  0.
        -12    1    1    2    0    0 -0.12688971865E+01  0.95155485473E+01 -0.16078617059E+02  0.18726390223E+02  0.00000000000E+00 0.  1.
         11    1    3    3    0    0 -0.16622303597E+02  0.13521722463E+02  0.87907013282E+00  0.21445529133E+02  0.51100000000E-03 0.  1.
        -11    1    3    3    0    0 -0.82931367352E+01 -0.22847707031E+01  0.15360136306E+02  0.17604831202E+02  0.51100000000E-03 0. -1.
         12    1    3    3    0    0  0.26184337519E+02 -0.20752500307E+02 -0.16058937923E+00  0.33411249442E+02  0.00000000000E+00 0. -1.
</event>
<event>
 7    1  0.1891413E-013  0.7246156E+02  0.7816164E-02  0.1226708E+00
        -11   -1    0    0    0    0  0.00000000000E+00  0.00000000000E+00  0.45593999997E+02  0.45594000000E+02  0.51100000000E-03 0.  1.
         11   -1    0    0    0    0 -0.00000000000E+00 -0.00000000000E+00 -0.45593999997E+02  0.45594000000E+02  0.51100000000E-03 0. -1.
    9900012    2    1    2    0    0  0.72509594915E+01 -0.11672269843E+00 -0.17265264331E+02  0.72461564403E+02  0.69999992326E+02 0.  0.
        -12    1    1    2    0    0 -0.72509594915E+01  0.11672269843E+00  0.17265264331E+02  0.18726435597E+02  0.00000000000E+00 0.  1.
         11    1    3    3    0    0 -0.23272908642E+02  0.19094722485E+02 -0.13590487138E+01  0.30134427439E+02  0.51100000000E-03 0. -1.
        -11    1    3    3    0    0  0.36214412285E+01 -0.20983859257E+01  0.30995442919E+01  0.52081892384E+01  0.51100000000E-03 0.  1.
        -12    1    3    3    0    0  0.26902426905E+02 -0.17113059258E+02 -0.19005759909E+02  0.37118947725E+02  0.00000000000E+00 0.  1.
</event>
<event>
 7    1  0.1891413E-013  0.7246156E+02  0.7816164E-02  0.1226708E+00
        -11   -1    0    0    0    0  0.00000000000E+00  0.00000000000E+00  0.45593999997E+02  0.45594000000E+02  0.51100000000E-03 0.  1.
         11   -1    0    0    0    0 -0.00000000000E+00 -0.00000000000E+00 -0.45593999997E+02  0.45594000000E+02  0.51100000000E-03 0. -1.
    9900012    2    1    2    0    0 -0.14871285409E+02  0.60116224106E+01  0.96635792781E+01  0.72461561519E+02  0.69999988568E+02 0.  0.
        -12    1    1    2    0    0  0.14871285409E+02 -0.60116224106E+01 -0.96635792781E+01  0.18726438481E+02  0.00000000000E+00 0.  1.
         11    1    3    3    0    0  0.37148322569E+01 -0.86762574249E+01  0.19002588016E+01  0.96274817774E+01  0.51100000000E-03 0. -1.
        -11    1    3    3    0    0 -0.23398602016E+02 -0.12895422069E+02  0.18873117702E+02  0.32710564940E+02  0.51100000000E-03 0.  1.
         12    1    3    3    0    0  0.48124843502E+01  0.27583301905E+02 -0.11109797225E+02  0.30123514801E+02  0.00000000000E+00 0. -1.
</event>
<event>
 7    1  0.1891413E-013  0.7246160E+02  0.7816164E-02  0.1226708E+00
        -11   -1    0    0    0    0  0.00000000000E+00  0.00000000000E+00  0.45593999997E+02  0.45594000000E+02  0.51100000000E-03 0.  1.
         11   -1    0    0    0    0 -0.00000000000E+00 -0.00000000000E+00 -0.45593999997E+02  0.45594000000E+02  0.51100000000E-03 0. -1.
    9900012    2    1    2    0    0 -0.24853928099E+01 -0.12124448007E+02 -0.14053424306E+02  0.72461597472E+02  0.70000035404E+02 0.  0.
        -12    1    1    2    0    0  0.24853928099E+01  0.12124448007E+02  0.14053424306E+02  0.18726402528E+02  0.00000000000E+00 0.  1.
         11    1    3    3    0    0 -0.34763958440E+01 -0.19416408504E+02 -0.11291373220E+02  0.22728338186E+02  0.51100000000E-03 0. -1.
        -11    1    3    3    0    0 -0.13282947072E+02 -0.16356100469E+02 -0.60360914425E+01  0.21917871831E+02  0.51100000000E-03 0.  1.
         12    1    3    3    0    0  0.14273950106E+02  0.23648060965E+02  0.32740403563E+01  0.27815387455E+02  0.00000000000E+00 0. -1.
</event>
<event>
 7    1  0.1891413E-013  0.7246157E+02  0.7816164E-02  0.1226708E+00
        -11   -1    0    0    0    0  0.00000000000E+00  0.00000000000E+00  0.45593999997E+02  0.45594000000E+02  0.51100000000E-03 0.  1.
         11   -1    0    0    0    0 -0.00000000000E+00 -0.00000000000E+00 -0.45593999997E+02  0.45594000000E+02  0.51100000000E-03 0. -1.
    9900012    2    1    2    0    0  0.42182814540E+01 -0.14236446633E+02 -0.11410914836E+02  0.72461567116E+02  0.69999995860E+02 0.  0.
        -12    1    1    2    0    0 -0.42182814540E+01  0.14236446633E+02  0.11410914836E+02  0.18726432884E+02  0.00000000000E+00 0.  1.
         11    1    3    3    0    0 -0.16223143837E+02 -0.19894165849E+02 -0.41192554087E+01  0.25998778743E+02  0.51100000000E-03 0. -1.
        -11    1    3    3    0    0 -0.32181397522E+01  0.72251789612E+01  0.13024584203E+02  0.15238091364E+02  0.51100000000E-03 0.  1.
         12    1    3    3    0    0  0.23659565043E+02 -0.15674597458E+01 -0.20316243630E+02  0.31224697009E+02  0.00000000000E+00 0. -1.
</event>
<event>
 7    1  0.1891413E-013  0.7246159E+02  0.7816164E-02  0.1226708E+00
        -11   -1    0    0    0    0  0.00000000000E+00  0.00000000000E+00  0.45593999997E+02  0.45594000000E+02  0.51100000000E-03 0. -1.
         11   -1    0    0    0    0 -0.00000000000E+00 -0.00000000000E+00 -0.45593999997E+02  0.45594000000E+02  0.51100000000E-03 0.  1.
    9900012    2    1    2    0    0  0.13973218617E+02  0.12428005968E+02 -0.98607498454E+00  0.72461587778E+02  0.70000022775E+02 0.  0.
        -12    1    1    2    0    0 -0.13973218617E+02 -0.12428005968E+02  0.98607498454E+00  0.18726412222E+02  0.00000000000E+00 0.  1.
         11    1    3    3    0    0  0.11793690552E+02  0.78906471620E+01  0.28769740874E+02  0.32078831645E+02  0.51100000000E-03 0. -1.
        -11    1    3    3    0    0 -0.68732338232E+01 -0.50423945283E+01 -0.79230989575E+00  0.85612406226E+01  0.51100000000E-03 0.  1.
        -12    1    3    3    0    0  0.90527618880E+01  0.95797533339E+01 -0.28963505963E+02  0.31821515511E+02  0.00000000000E+00 0.  1.
</event>
<event>
 7    1  0.1891413E-013  0.7246156E+02  0.7816164E-02  0.1226708E+00
        -11   -1    0    0    0    0  0.00000000000E+00  0.00000000000E+00  0.45593999997E+02  0.45594000000E+02  0.51100000000E-03 0.  1.
         11   -1    0    0    0    0 -0.00000000000E+00 -0.00000000000E+00 -0.45593999997E+02  0.45594000000E+02  0.51100000000E-03 0. -1.
    9900012    2    1    2    0    0 -0.63017227568E+01 -0.20150452367E+01 -0.17518770879E+02  0.72461562802E+02  0.69999990240E+02 0.  0.
        -12    1    1    2    0    0  0.63017227568E+01  0.20150452367E+01  0.17518770879E+02  0.18726437198E+02  0.00000000000E+00 0.  1.
         11    1    3    3    0    0 -0.20785941126E+02  0.92487016223E+01 -0.24845884118E+02  0.33688451851E+02  0.51100000000E-03 0. -1.
        -11    1    3    3    0    0  0.49121796641E+01  0.36260010911E+01 -0.11444894341E+02  0.12971622863E+02  0.51100000000E-03 0.  1.
        -12    1    3    3    0    0  0.95720387055E+01 -0.14889747950E+02  0.18772007580E+02  0.25801488089E+02  0.00000000000E+00 0.  1.
</event>
<event>
 7    1  0.1891413E-013  0.7246158E+02  0.7816164E-02  0.1226708E+00
        -11   -1    0    0    0    0  0.00000000000E+00  0.00000000000E+00  0.45593999997E+02  0.45594000000E+02  0.51100000000E-03 0.  1.
         11   -1    0    0    0    0 -0.00000000000E+00 -0.00000000000E+00 -0.45593999997E+02  0.45594000000E+02  0.51100000000E-03 0. -1.
    9900012    2    1    2    0    0  0.72044903459E+01  0.27921487030E+01 -0.17058080878E+02  0.72461577523E+02  0.70000009417E+02 0.  0.
        -12    1    1    2    0    0 -0.72044903459E+01 -0.27921487030E+01  0.17058080878E+02  0.18726422477E+02  0.00000000000E+00 0.  1.
         11    1    3    3    0    0  0.43076896367E+01 -0.14168242421E+01 -0.36325973830E+01  0.58102792486E+01  0.51100000000E-03 0. -1.
        -11    1    3    3    0    0  0.65974923133E+01 -0.48490800309E+01 -0.38695886824E+02  0.39552650219E+02  0.51100000000E-03 0.  1.
        -12    1    3    3    0    0 -0.37006916041E+01  0.90580529760E+01  0.25270403329E+02  0.27098648056E+02  0.00000000000E+00 0.  1.
</event>
<event>
 7    1  0.1891413E-013  0.7246158E+02  0.7816164E-02  0.1226708E+00
        -11   -1    0    0    0    0  0.00000000000E+00  0.00000000000E+00  0.45593999997E+02  0.45594000000E+02  0.51100000000E-03 0.  1.
         11   -1    0    0    0    0 -0.00000000000E+00 -0.00000000000E+00 -0.45593999997E+02  0.45594000000E+02  0.51100000000E-03 0. -1.
    9900012    2    1    2    0    0  0.82521364051E+01 -0.72644127025E+01 -0.15159462717E+02  0.72461581308E+02  0.70000014347E+02 0.  0.
        -12    1    1    2    0    0 -0.82521364051E+01  0.72644127025E+01  0.15159462717E+02  0.18726418692E+02  0.00000000000E+00 0.  1.
         11    1    3    3    0    0 -0.18336551815E+02 -0.94795577314E+01 -0.25462207687E+02  0.32778272801E+02  0.51100000000E-03 0. -1.
        -11    1    3    3    0    0  0.22355946775E+01  0.16964759994E+01 -0.84746815666E+01  0.89272695879E+01  0.51100000000E-03 0.  1.
        -12    1    3    3    0    0  0.24353093542E+02  0.51866902952E+00  0.18777426537E+02  0.30756038919E+02  0.00000000000E+00 0.  1.
</event>
<event>
 7    1  0.1891413E-013  0.7246161E+02  0.7816164E-02  0.1226708E+00
        -11   -1    0    0    0    0  0.00000000000E+00  0.00000000000E+00  0.45593999997E+02  0.45594000000E+02  0.51100000000E-03 0. -1.
         11   -1    0    0    0    0 -0.00000000000E+00 -0.00000000000E+00 -0.45593999997E+02  0.45594000000E+02  0.51100000000E-03 0.  1.
    9900012    2    1    2    0    0 -0.13636088812E+02 -0.81468297806E+01  0.99178570979E+01  0.72461611053E+02  0.70000053096E+02 0.  0.
        -12    1    1    2    0    0  0.13636088812E+02  0.81468297806E+01 -0.99178570979E+01  0.18726388947E+02  0.00000000000E+00 0.  1.
         11    1    3    3    0    0 -0.17066273976E+02 -0.21468311170E+02  0.42562117779E+01  0.27753584109E+02  0.51100000000E-03 0. -1.
        -11    1    3    3    0    0 -0.92136471495E+01  0.13067282072E+02 -0.14052303464E+02  0.21286436701E+02  0.51100000000E-03 0.  1.
         12    1    3    3    0    0  0.12643832314E+02  0.25419931734E+00  0.19713948784E+02  0.23421590243E+02  0.00000000000E+00 0. -1.
</event>
<event>
 7    1  0.1891413E-013  0.7246187E+02  0.7816164E-02  0.1226707E+00
        -11   -1    0    0    0    0  0.00000000000E+00  0.00000000000E+00  0.45593999997E+02  0.45594000000E+02  0.51100000000E-03 0.  1.
         11   -1    0    0    0    0 -0.00000000000E+00 -0.00000000000E+00 -0.45593999997E+02  0.45594000000E+02  0.51100000000E-03 0. -1.
    9900012    2    1    2    0    0  0.27277811698E+00  0.13069390196E+02 -0.13408377696E+02  0.72461869582E+02  0.70000389877E+02 0.  0.
        -12    1    1    2    0    0 -0.27277811698E+00 -0.13069390196E+02  0.13408377696E+02  0.18726130418E+02  0.00000000000E+00 0.  1.
         11    1    3    3    0    0  0.20510504600E+02  0.23863059693E+02 -0.22601424952E+01  0.31547340003E+02  0.51100000000E-03 0.  1.
        -11    1    3    3    0    0  0.59203008315E+01  0.31032913350E+01 -0.90076743727E+01  0.11216888023E+02  0.51100000000E-03 0. -1.
         12    1    3    3    0    0 -0.26158027315E+02 -0.13896960832E+02 -0.21405608280E+01  0.29697641557E+02  0.00000000000E+00 0. -1.
</event>
<event>
 7    1  0.1891413E-013  0.7246156E+02  0.7816164E-02  0.1226708E+00
        -11   -1    0    0    0    0  0.00000000000E+00  0.00000000000E+00  0.45593999997E+02  0.45594000000E+02  0.51100000000E-03 0.  1.
         11   -1    0    0    0    0 -0.00000000000E+00 -0.00000000000E+00 -0.45593999997E+02  0.45594000000E+02  0.51100000000E-03 0. -1.
    9900012    2    1    2    0    0 -0.11114159969E+02 -0.15019221570E+02 -0.12561586586E+01  0.72461561391E+02  0.69999988402E+02 0.  0.
        -12    1    1    2    0    0  0.11114159969E+02  0.15019221570E+02  0.12561586586E+01  0.18726438609E+02  0.00000000000E+00 0.  1.
         11    1    3    3    0    0 -0.79013648612E+01  0.11761001356E+02  0.96660728707E+01  0.17151842016E+02  0.51100000000E-03 0. -1.
        -11    1    3    3    0    0  0.14449211181E+02  0.48210413679E+01  0.46125875819E+01  0.15915341909E+02  0.51100000000E-03 0.  1.
         12    1    3    3    0    0 -0.17662006289E+02 -0.31601264294E+02 -0.15534819111E+02  0.39394377466E+02  0.00000000000E+00 0. -1.
</event>
<event>
 7    1  0.1891413E-013  0.7246130E+02  0.7816164E-02  0.1226709E+00
        -11   -1    0    0    0    0  0.00000000000E+00  0.00000000000E+00  0.45593999997E+02  0.45594000000E+02  0.51100000000E-03 0.  1.
         11   -1    0    0    0    0 -0.00000000000E+00 -0.00000000000E+00 -0.45593999997E+02  0.45594000000E+02  0.51100000000E-03 0. -1.
    9900012    2    1    2    0    0  0.14664848398E+02  0.48391359171E+01 -0.10593122207E+02  0.72461301064E+02  0.69999649277E+02 0.  0.
        -12    1    1    2    0    0 -0.14664848398E+02 -0.48391359171E+01  0.10593122207E+02  0.18726698936E+02  0.00000000000E+00 0.  1.
         11    1    3    3    0    0  0.22454164582E+02  0.74588068635E+01 -0.42176003782E+01  0.24033548637E+02  0.51100000000E-03 0. -1.
        -11    1    3    3    0    0  0.15236882727E+02 -0.49098521941E+01 -0.16660670308E+02  0.23105133178E+02  0.51100000000E-03 0.  1.
         12    1    3    3    0    0 -0.23026198911E+02  0.22901812476E+01  0.10285148479E+02  0.25322619250E+02  0.00000000000E+00 0. -1.
</event>
<event>
 7    1  0.1891413E-013  0.7246158E+02  0.7816164E-02  0.1226708E+00
        -11   -1    0    0    0    0  0.00000000000E+00  0.00000000000E+00  0.45593999997E+02  0.45594000000E+02  0.51100000000E-03 0. -1.
         11   -1    0    0    0    0 -0.00000000000E+00 -0.00000000000E+00 -0.45593999997E+02  0.45594000000E+02  0.51100000000E-03 0.  1.
    9900012    2    1    2    0    0  0.15198219025E+02  0.28275825242E+01  0.10568719142E+02  0.72461577256E+02  0.70000009069E+02 0.  0.
        -12    1    1    2    0    0 -0.15198219025E+02 -0.28275825242E+01 -0.10568719142E+02  0.18726422744E+02  0.00000000000E+00 0.  1.
         11    1    3    3    0    0 -0.14361806462E+02  0.18966514806E+02  0.15894632463E+02  0.28611702329E+02  0.51100000000E-03 0. -1.
        -11    1    3    3    0    0 -0.46975760621E+01 -0.17305159832E+01  0.29008412456E+01  0.57859127734E+01  0.51100000000E-03 0.  1.
        -12    1    3    3    0    0  0.34257601550E+02 -0.14408416299E+02 -0.82267545669E+01  0.38063962154E+02  0.00000000000E+00 0.  1.
</event>
<event>
 7    1  0.1891413E-013  0.7246143E+02  0.7816164E-02  0.1226708E+00
        -11   -1    0    0    0    0  0.00000000000E+00  0.00000000000E+00  0.45593999997E+02  0.45594000000E+02  0.51100000000E-03 0. -1.
         11   -1    0    0    0    0 -0.00000000000E+00 -0.00000000000E+00 -0.45593999997E+02  0.45594000000E+02  0.51100000000E-03 0.  1.
    9900012    2    1    2    0    0  0.15707203387E+02  0.10195610637E+02  0.13292586430E+00  0.72461431073E+02  0.69999818638E+02 0.  0.
        -12    1    1    2    0    0 -0.15707203387E+02 -0.10195610637E+02 -0.13292586430E+00  0.18726568927E+02  0.00000000000E+00 0.  1.
         11    1    3    3    0    0  0.18294433252E+02 -0.85957747439E+01  0.18591626128E+02  0.27463106048E+02  0.51100000000E-03 0. -1.
        -11    1    3    3    0    0 -0.14057380897E+02 -0.44775372635E+01 -0.95246784697E+01  0.17560688991E+02  0.51100000000E-03 0.  1.
        -12    1    3    3    0    0  0.11470151031E+02  0.23268922645E+02 -0.89340217940E+01  0.27437636034E+02  0.00000000000E+00 0.  1.
</event>
<event>
 7    1  0.1891413E-013  0.7246156E+02  0.7816164E-02  0.1226708E+00
        -11   -1    0    0    0    0  0.00000000000E+00  0.00000000000E+00  0.45593999997E+02  0.45594000000E+02  0.51100000000E-03 0.  1.
         11   -1    0    0    0    0 -0.00000000000E+00 -0.00000000000E+00 -0.45593999997E+02  0.45594000000E+02  0.51100000000E-03 0. -1.
    9900012    2    1    2    0    0 -0.53255730467E-01  0.34553486502E+01 -0.18404811801E+02  0.72461564998E+02  0.69999993101E+02 0.  0.
        -12    1    1    2    0    0  0.53255730467E-01 -0.34553486502E+01  0.18404811801E+02  0.18726435002E+02  0.00000000000E+00 0.  1.
         11    1    3    3    0    0  0.26411380463E+02 -0.14256301280E+02 -0.82264068986E+01  0.31120361741E+02  0.51100000000E-03 0. -1.
        -11    1    3    3    0    0 -0.58727887405E+01  0.13471896698E+02 -0.13620553341E+02  0.20037492903E+02  0.51100000000E-03 0.  1.
        -12    1    3    3    0    0 -0.20591847453E+02  0.42397532324E+01  0.34421484394E+01  0.21303710355E+02  0.00000000000E+00 0.  1.
</event>
<event>
 7    1  0.1891413E-013  0.7246157E+02  0.7816164E-02  0.1226708E+00
        -11   -1    0    0    0    0  0.00000000000E+00  0.00000000000E+00  0.45593999997E+02  0.45594000000E+02  0.51100000000E-03 0. -1.
         11   -1    0    0    0    0 -0.00000000000E+00 -0.00000000000E+00 -0.45593999997E+02  0.45594000000E+02  0.51100000000E-03 0.  1.
    9900012    2    1    2    0    0 -0.29049789484E+00 -0.12532202246E+02  0.13911815549E+02  0.72461572310E+02  0.70000002625E+02 0.  0.
        -12    1    1    2    0    0  0.29049789484E+00  0.12532202246E+02 -0.13911815549E+02  0.18726427690E+02  0.00000000000E+00 0.  1.
         11    1    3    3    0    0  0.22147674468E+01  0.14886758663E+02  0.51518607857E+01  0.15907936640E+02  0.51100000000E-03 0. -1.
        -11    1    3    3    0    0  0.50654078943E+01 -0.65067978846E+01  0.26722221573E+02  0.27965584240E+02  0.51100000000E-03 0.  1.
        -12    1    3    3    0    0 -0.75706732359E+01 -0.20912163025E+02 -0.17962266809E+02  0.28588051430E+02  0.00000000000E+00 0.  1.
</event>
<event>
 7    1  0.1891413E-013  0.7246158E+02  0.7816164E-02  0.1226708E+00
        -11   -1    0    0    0    0  0.00000000000E+00  0.00000000000E+00  0.45593999997E+02  0.45594000000E+02  0.51100000000E-03 0. -1.
         11   -1    0    0    0    0 -0.00000000000E+00 -0.00000000000E+00 -0.45593999997E+02  0.45594000000E+02  0.51100000000E-03 0.  1.
    9900012    2    1    2    0    0 -0.45293487447E+01  0.13389011771E+02  0.12284056982E+02  0.72461583039E+02  0.70000016603E+02 0.  0.
        -12    1    1    2    0    0  0.45293487447E+01 -0.13389011771E+02 -0.12284056982E+02  0.18726416961E+02  0.00000000000E+00 0.  1.
         11    1    3    3    0    0 -0.14152477369E+02  0.22911411564E+02 -0.60405148301E+01  0.27599152437E+02  0.51100000000E-03 0. -1.
        -11    1    3    3    0    0 -0.14127839214E+02 -0.78692951611E+01  0.12260474570E+02  0.20293863213E+02  0.51100000000E-03 0.  1.
        -12    1    3    3    0    0  0.23750967839E+02 -0.16531046324E+01  0.60640972419E+01  0.24568567389E+02  0.00000000000E+00 0.  1.
</event>
<event>
 7    1  0.1891413E-013  0.7246144E+02  0.7816164E-02  0.1226708E+00
        -11   -1    0    0    0    0  0.00000000000E+00  0.00000000000E+00  0.45593999997E+02  0.45594000000E+02  0.51100000000E-03 0.  1.
         11   -1    0    0    0    0 -0.00000000000E+00 -0.00000000000E+00 -0.45593999997E+02  0.45594000000E+02  0.51100000000E-03 0. -1.
    9900012    2    1    2    0    0 -0.18555391797E+02  0.20568913567E+01 -0.14665693099E+01  0.72461436185E+02  0.69999825297E+02 0.  0.
        -12    1    1    2    0    0  0.18555391797E+02 -0.20568913567E+01  0.14665693099E+01  0.18726563815E+02  0.00000000000E+00 0.  1.
         11    1    3    3    0    0 -0.10200262043E+02  0.13469662697E+00 -0.20394696102E+01  0.10403024823E+02  0.51100000000E-03 0. -1.
        -11    1    3    3    0    0 -0.28589510430E+02  0.19287506696E+02  0.55577468209E+01  0.34932171005E+02  0.51100000000E-03 0.  1.
         12    1    3    3    0    0  0.20234380676E+02 -0.17365311966E+02 -0.49848465206E+01  0.27126240356E+02  0.00000000000E+00 0. -1.
</event>
<event>
 7    1  0.1891413E-013  0.7246169E+02  0.7816164E-02  0.1226708E+00
        -11   -1    0    0    0    0  0.00000000000E+00  0.00000000000E+00  0.45593999997E+02  0.45594000000E+02  0.51100000000E-03 0. -1.
         11   -1    0    0    0    0 -0.00000000000E+00 -0.00000000000E+00 -0.45593999997E+02  0.45594000000E+02  0.51100000000E-03 0.  1.
    9900012    2    1    2    0    0  0.16054036493E+02 -0.14765163506E+01  0.95269383856E+01  0.72461688477E+02  0.70000153955E+02 0.  0.
        -12    1    1    2    0    0 -0.16054036493E+02  0.14765163506E+01 -0.95269383856E+01  0.18726311523E+02  0.00000000000E+00 0.  1.
         11    1    3    3    0    0  0.49565436884E+01  0.13421747566E+02 -0.19051693879E+02  0.23825987345E+02  0.51100000000E-03 0. -1.
        -11    1    3    3    0    0  0.76031875426E+01 -0.42450726108E+01 -0.71008496769E+01  0.11236154532E+02  0.51100000000E-03 0.  1.
         12    1    3    3    0    0  0.34943052622E+01 -0.10653191306E+02  0.35679481941E+02  0.37399546600E+02  0.00000000000E+00 0. -1.
</event>
<event>
 7    1  0.1891413E-013  0.7246148E+02  0.7816164E-02  0.1226708E+00
        -11   -1    0    0    0    0  0.00000000000E+00  0.00000000000E+00  0.45593999997E+02  0.45594000000E+02  0.51100000000E-03 0. -1.
         11   -1    0    0    0    0 -0.00000000000E+00 -0.00000000000E+00 -0.45593999997E+02  0.45594000000E+02  0.51100000000E-03 0.  1.
    9900012    2    1    2    0    0 -0.17986166356E+02 -0.42435102951E+01  0.30286977416E+01  0.72461479506E+02  0.69999881731E+02 0.  0.
        -12    1    1    2    0    0  0.17986166356E+02  0.42435102951E+01 -0.30286977416E+01  0.18726520494E+02  0.00000000000E+00 0.  1.
         11    1    3    3    0    0 -0.31694837658E+01  0.68841338273E+01 -0.82603060723E+01  0.11210244536E+02  0.51100000000E-03 0. -1.
        -11    1    3    3    0    0  0.21125884992E+01  0.20505153867E+02 -0.59376974826E+01  0.21451820830E+02  0.51100000000E-03 0.  1.
         12    1    3    3    0    0 -0.16929271089E+02 -0.31632797990E+02  0.17226701296E+02  0.39799414139E+02  0.00000000000E+00 0. -1.
</event>
<event>
 7    1  0.1891413E-013  0.7246129E+02  0.7816164E-02  0.1226709E+00
        -11   -1    0    0    0    0  0.00000000000E+00  0.00000000000E+00  0.45593999997E+02  0.45594000000E+02  0.51100000000E-03 0. -1.
         11   -1    0    0    0    0 -0.00000000000E+00 -0.00000000000E+00 -0.45593999997E+02  0.45594000000E+02  0.51100000000E-03 0.  1.
    9900012    2    1    2    0    0  0.66813348356E+01 -0.17146799432E+02  0.34693756447E+01  0.72461293581E+02  0.69999639528E+02 0.  0.
        -12    1    1    2    0    0 -0.66813348356E+01  0.17146799432E+02 -0.34693756447E+01  0.18726706419E+02  0.00000000000E+00 0.  1.
         11    1    3    3    0    0 -0.10190868156E+02 -0.97201780592E-01  0.47205092865E+01  0.11231493673E+02  0.51100000000E-03 0. -1.
        -11    1    3    3    0    0 -0.20239760639E+02 -0.26076068086E+01 -0.56230266169E+01  0.21167568415E+02  0.51100000000E-03 0.  1.
         12    1    3    3    0    0  0.37111963630E+02 -0.14441990843E+02  0.43718929751E+01  0.40062231493E+02  0.00000000000E+00 0. -1.
</event>
<event>
 7    1  0.1891413E-013  0.7246159E+02  0.7816164E-02  0.1226708E+00
        -11   -1    0    0    0    0  0.00000000000E+00  0.00000000000E+00  0.45593999997E+02  0.45594000000E+02  0.51100000000E-03 0.  1.
         11   -1    0    0    0    0 -0.00000000000E+00 -0.00000000000E+00 -0.45593999997E+02  0.45594000000E+02  0.51100000000E-03 0. -1.
    9900012    2    1    2    0    0  0.12450550914E+02 -0.61746001983E+00 -0.13974291806E+02  0.72461593340E+02  0.70000030021E+02 0.  0.
        -12    1    1    2    0    0 -0.12450550914E+02  0.61746001983E+00  0.13974291806E+02  0.18726406660E+02  0.00000000000E+00 0.  1.
         11    1    3    3    0    0  0.12364080303E+01  0.27436664298E+02 -0.61079754976E+01  0.28135504573E+02  0.51100000000E-03 0. -1.
        -11    1    3    3    0    0  0.94416830760E+01 -0.13275180134E+02 -0.19518130621E+02  0.25423084197E+02  0.51100000000E-03 0.  1.
         12    1    3    3    0    0  0.17724598078E+01 -0.14778944184E+02  0.11651814313E+02  0.18903004569E+02  0.00000000000E+00 0. -1.
</event>
<event>
 7    1  0.1891413E-013  0.7246160E+02  0.7816164E-02  0.1226708E+00
        -11   -1    0    0    0    0  0.00000000000E+00  0.00000000000E+00  0.45593999997E+02  0.45594000000E+02  0.51100000000E-03 0.  1.
         11   -1    0    0    0    0 -0.00000000000E+00 -0.00000000000E+00 -0.45593999997E+02  0.45594000000E+02  0.51100000000E-03 0. -1.
    9900012    2    1    2    0    0 -0.57951629028E+01  0.10537356927E+02 -0.14354733684E+02  0.72461596629E+02  0.70000034306E+02 0.  0.
        -12    1    1    2    0    0  0.57951629028E+01 -0.10537356927E+02  0.14354733684E+02  0.18726403371E+02  0.00000000000E+00 0.  1.
         11    1    3    3    0    0 -0.80955634555E+01 -0.80908789591E+01  0.19505079041E+01  0.11610553447E+02  0.51100000000E-03 0. -1.
        -11    1    3    3    0    0 -0.13193950194E+02  0.20977640588E+02  0.12727180437E+02  0.27858981469E+02  0.51100000000E-03 0.  1.
         12    1    3    3    0    0  0.15494350747E+02 -0.23494047013E+01 -0.29032422025E+02  0.32992061714E+02  0.00000000000E+00 0. -1.
</event>
<event>
 7    1  0.1891413E-013  0.7246123E+02  0.7816164E-02  0.1226709E+00
        -11   -1    0    0    0    0  0.00000000000E+00  0.00000000000E+00  0.45593999997E+02  0.45594000000E+02  0.51100000000E-03 0.  1.
         11   -1    0    0    0    0 -0.00000000000E+00 -0.00000000000E+00 -0.45593999997E+02  0.45594000000E+02  0.51100000000E-03 0. -1.
    9900012    2    1    2    0    0  0.25731469206E+00  0.17194562217E+02 -0.74143542429E+01  0.72461232273E+02  0.69999559663E+02 0.  0.
        -12    1    1    2    0    0 -0.25731469206E+00 -0.17194562217E+02  0.74143542429E+01  0.18726767727E+02  0.00000000000E+00 0.  1.
         11    1    3    3    0    0  0.13955904306E+02  0.22941521393E+01  0.11090265825E+02  0.17972879440E+02  0.51100000000E-03 0. -1.
        -11    1    3    3    0    0 -0.93721894190E+01 -0.82695320245E+01  0.11051814605E+02  0.16684295032E+02  0.51100000000E-03 0.  1.
         12    1    3    3    0    0 -0.43264001952E+01  0.23169942102E+02 -0.29556434672E+02  0.37804057800E+02  0.00000000000E+00 0. -1.
</event>
<event>
 7    1  0.1891413E-013  0.7246160E+02  0.7816164E-02  0.1226708E+00
        -11   -1    0    0    0    0  0.00000000000E+00  0.00000000000E+00  0.45593999997E+02  0.45594000000E+02  0.51100000000E-03 0.  1.
         11   -1    0    0    0    0 -0.00000000000E+00 -0.00000000000E+00 -0.45593999997E+02  0.45594000000E+02  0.51100000000E-03 0. -1.
    9900012    2    1    2    0    0  0.27248896011E+01  0.56980178604E+01 -0.17629113267E+02  0.72461599773E+02  0.70000038402E+02 0.  0.
        -12    1    1    2    0    0 -0.27248896011E+01 -0.56980178604E+01  0.17629113267E+02  0.18726400227E+02  0.00000000000E+00 0.  1.
         11    1    3    3    0    0  0.11029745206E+02  0.29686677721E+02  0.10127452183E+02  0.33249351894E+02  0.51100000000E-03 0. -1.
        -11    1    3    3    0    0 -0.84705251961E+00 -0.96609296174E+01 -0.17706542797E+02  0.20188430279E+02  0.51100000000E-03 0.  1.
        -12    1    3    3    0    0 -0.74578030851E+01 -0.14327730243E+02 -0.10050022653E+02  0.19023817601E+02  0.00000000000E+00 0.  1.
</event>
<event>
 7    1  0.1891413E-013  0.7246176E+02  0.7816164E-02  0.1226708E+00
        -11   -1    0    0    0    0  0.00000000000E+00  0.00000000000E+00  0.45593999997E+02  0.45594000000E+02  0.51100000000E-03 0. -1.
         11   -1    0    0    0    0 -0.00000000000E+00 -0.00000000000E+00 -0.45593999997E+02  0.45594000000E+02  0.51100000000E-03 0.  1.
    9900012    2    1    2    0    0  0.16329228576E+02  0.21141408058E+01  0.89195705326E+01  0.72461760769E+02  0.70000248128E+02 0.  0.
        -12    1    1    2    0    0 -0.16329228576E+02 -0.21141408058E+01 -0.89195705326E+01  0.18726239231E+02  0.00000000000E+00 0.  1.
         11    1    3    3    0    0  0.55195745961E+01 -0.18680479753E+02 -0.13720791906E+02  0.23826165414E+02  0.51100000000E-03 0. -1.
        -11    1    3    3    0    0  0.30494113034E+01  0.59199990510E+01 -0.99543888818E+01  0.11976441723E+02  0.51100000000E-03 0.  1.
        -12    1    3    3    0    0  0.77602426769E+01  0.14874621508E+02  0.32594751321E+02  0.36659153633E+02  0.00000000000E+00 0.  1.
</event>
<event>
 7    1  0.1891413E-013  0.7246155E+02  0.7816164E-02  0.1226708E+00
        -11   -1    0    0    0    0  0.00000000000E+00  0.00000000000E+00  0.45593999997E+02  0.45594000000E+02  0.51100000000E-03 0.  1.
         11   -1    0    0    0    0 -0.00000000000E+00 -0.00000000000E+00 -0.45593999997E+02  0.45594000000E+02  0.51100000000E-03 0. -1.
    9900012    2    1    2    0    0 -0.12991390863E+02 -0.57357849258E+01 -0.12206733798E+02  0.72461553052E+02  0.69999977539E+02 0.  0.
        -12    1    1    2    0    0  0.12991390863E+02  0.57357849258E+01  0.12206733798E+02  0.18726446948E+02  0.00000000000E+00 0.  1.
         11    1    3    3    0    0 -0.11700143385E+02  0.10621756886E+02 -0.15661276973E+02  0.22248385813E+02  0.51100000000E-03 0. -1.
        -11    1    3    3    0    0  0.18511138351E+02 -0.11048675601E+01  0.13846703676E+02  0.23143339826E+02  0.51100000000E-03 0.  1.
         12    1    3    3    0    0 -0.19802385829E+02 -0.15252674252E+02 -0.10392160500E+02  0.27069827414E+02  0.00000000000E+00 0. -1.
</event>
<event>
 7    1  0.1891413E-013  0.7246167E+02  0.7816164E-02  0.1226708E+00
        -11   -1    0    0    0    0  0.00000000000E+00  0.00000000000E+00  0.45593999997E+02  0.45594000000E+02  0.51100000000E-03 0. -1.
         11   -1    0    0    0    0 -0.00000000000E+00 -0.00000000000E+00 -0.45593999997E+02  0.45594000000E+02  0.51100000000E-03 0.  1.
    9900012    2    1    2    0    0  0.40203574372E+01  0.18179401141E+02  0.20054041325E+01  0.72461667057E+02  0.70000126051E+02 0.  0.
        -12    1    1    2    0    0 -0.40203574372E+01 -0.18179401141E+02 -0.20054041325E+01  0.18726332943E+02  0.00000000000E+00 0.  1.
         11    1    3    3    0    0  0.80647882068E+01  0.95993445075E+01 -0.58444726745E+01  0.13832790207E+02  0.51100000000E-03 0. -1.
        -11    1    3    3    0    0 -0.21687469827E+02  0.14195278748E+02 -0.14425081426E+02  0.29663702747E+02  0.51100000000E-03 0.  1.
        -12    1    3    3    0    0  0.17643039058E+02 -0.56152221142E+01  0.22274958233E+02  0.28965174104E+02  0.00000000000E+00 0.  1.
</event>
<event>
 7    1  0.1891413E-013  0.7246153E+02  0.7816164E-02  0.1226708E+00
        -11   -1    0    0    0    0  0.00000000000E+00  0.00000000000E+00  0.45593999997E+02  0.45594000000E+02  0.51100000000E-03 0.  1.
         11   -1    0    0    0    0 -0.00000000000E+00 -0.00000000000E+00 -0.45593999997E+02  0.45594000000E+02  0.51100000000E-03 0. -1.
    9900012    2    1    2    0    0 -0.19464073782E+01 -0.18624694643E+02  0.11434998279E+00  0.72461526009E+02  0.69999942310E+02 0.  0.
        -12    1    1    2    0    0  0.19464073782E+01  0.18624694643E+02 -0.11434998279E+00  0.18726473991E+02  0.00000000000E+00 0.  1.
         11    1    3    3    0    0  0.19763919827E+02 -0.80228091416E+01 -0.33358512189E+01  0.21589485799E+02  0.51100000000E-03 0. -1.
        -11    1    3    3    0    0 -0.91568612543E+01  0.17484065408E+02  0.38346925272E+01  0.20105857810E+02  0.51100000000E-03 0.  1.
         12    1    3    3    0    0 -0.12553465951E+02 -0.28085950910E+02 -0.38449132553E+00  0.30766182400E+02  0.00000000000E+00 0. -1.
</event>
<event>
 7    1  0.1891413E-013  0.7246146E+02  0.7816164E-02  0.1226708E+00
        -11   -1    0    0    0    0  0.00000000000E+00  0.00000000000E+00  0.45593999997E+02  0.45594000000E+02  0.51100000000E-03 0.  1.
         11   -1    0    0    0    0 -0.00000000000E+00 -0.00000000000E+00 -0.45593999997E+02  0.45594000000E+02  0.51100000000E-03 0. -1.
    9900012    2    1    2    0    0 -0.41467641386E+01 -0.62123294478E+01 -0.17172490773E+02  0.72461464567E+02  0.69999862270E+02 0.  0.
        -12    1    1    2    0    0  0.41467641386E+01  0.62123294478E+01  0.17172490773E+02  0.18726535433E+02  0.00000000000E+00 0.  1.
         11    1    3    3    0    0 -0.97652448034E+01  0.82066701931E+01 -0.97408501058E+01  0.16049722825E+02  0.51100000000E-03 0. -1.
        -11    1    3    3    0    0 -0.94114183844E+01  0.16909949768E+02  0.41352477387E+01  0.19789428271E+02  0.51100000000E-03 0.  1.
         12    1    3    3    0    0  0.15029899049E+02 -0.31328949409E+02 -0.11566888406E+02  0.36622313470E+02  0.00000000000E+00 0. -1.
</event>
<event>
 7    1  0.1891413E-013  0.7246158E+02  0.7816164E-02  0.1226708E+00
        -11   -1    0    0    0    0  0.00000000000E+00  0.00000000000E+00  0.45593999997E+02  0.45594000000E+02  0.51100000000E-03 0.  1.
         11   -1    0    0    0    0 -0.00000000000E+00 -0.00000000000E+00 -0.45593999997E+02  0.45594000000E+02  0.51100000000E-03 0. -1.
    9900012    2    1    2    0    0  0.87329712821E+01  0.73964336869E+01 -0.14822508440E+02  0.72461580824E+02  0.70000013717E+02 0.  0.
        -12    1    1    2    0    0 -0.87329712821E+01 -0.73964336869E+01  0.14822508440E+02  0.18726419176E+02  0.00000000000E+00 0.  1.
         11    1    3    3    0    0 -0.94060035663E+01 -0.47125229231E+01 -0.27295078008E+02  0.29252385528E+02  0.51100000000E-03 0. -1.
        -11    1    3    3    0    0 -0.25490430893E+01 -0.68201764528E+01 -0.61640236939E+01  0.95397911863E+01  0.51100000000E-03 0.  1.
        -12    1    3    3    0    0  0.20688017938E+02  0.18929133063E+02  0.18636593261E+02  0.33669404109E+02  0.00000000000E+00 0.  1.
</event>
<event>
 7    1  0.1891413E-013  0.7246159E+02  0.7816164E-02  0.1226708E+00
        -11   -1    0    0    0    0  0.00000000000E+00  0.00000000000E+00  0.45593999997E+02  0.45594000000E+02  0.51100000000E-03 0.  1.
         11   -1    0    0    0    0 -0.00000000000E+00 -0.00000000000E+00 -0.45593999997E+02  0.45594000000E+02  0.51100000000E-03 0. -1.
    9900012    2    1    2    0    0  0.17515568655E+01 -0.16404085150E+02  0.88609436766E+01  0.72461593941E+02  0.70000030804E+02 0.  0.
        -12    1    1    2    0    0 -0.17515568655E+01  0.16404085150E+02 -0.88609436766E+01  0.18726406059E+02  0.00000000000E+00 0.  1.
         11    1    3    3    0    0  0.17180942344E+02 -0.36459788965E+02 -0.13048803885E+01  0.40326216092E+02  0.51100000000E-03 0. -1.
        -11    1    3    3    0    0  0.36606495738E+01  0.19190037051E+01  0.17828511794E+01  0.45012763869E+01  0.51100000000E-03 0.  1.
        -12    1    3    3    0    0 -0.19090035052E+02  0.18136700110E+02  0.83829728858E+01  0.27634101462E+02  0.00000000000E+00 0.  1.
</event>
<event>
 7    1  0.1891413E-013  0.7246157E+02  0.7816164E-02  0.1226708E+00
        -11   -1    0    0    0    0  0.00000000000E+00  0.00000000000E+00  0.45593999997E+02  0.45594000000E+02  0.51100000000E-03 0.  1.
         11   -1    0    0    0    0 -0.00000000000E+00 -0.00000000000E+00 -0.45593999997E+02  0.45594000000E+02  0.51100000000E-03 0. -1.
    9900012    2    1    2    0    0 -0.18477590259E+02  0.24479518583E+01 -0.18070749694E+01  0.72461566009E+02  0.69999994417E+02 0.  0.
        -12    1    1    2    0    0  0.18477590259E+02 -0.24479518583E+01  0.18070749694E+01  0.18726433991E+02  0.00000000000E+00 0.  1.
         11    1    3    3    0    0 -0.89355621315E+01  0.69447952198E+01  0.27359345310E+01  0.11643014613E+02  0.51100000000E-03 0.  1.
        -11    1    3    3    0    0  0.12387829875E+01 -0.12344995393E+02 -0.29787752275E+02  0.32268307678E+02  0.51100000000E-03 0. -1.
         12    1    3    3    0    0 -0.10780811115E+02  0.78481520317E+01  0.25244742774E+02  0.28550243718E+02  0.00000000000E+00 0. -1.
</event>
<event>
 7    1  0.1891413E-013  0.7246158E+02  0.7816164E-02  0.1226708E+00
        -11   -1    0    0    0    0  0.00000000000E+00  0.00000000000E+00  0.45593999997E+02  0.45594000000E+02  0.51100000000E-03 0.  1.
         11   -1    0    0    0    0 -0.00000000000E+00 -0.00000000000E+00 -0.45593999997E+02  0.45594000000E+02  0.51100000000E-03 0. -1.
    9900012    2    1    2    0    0  0.13829481221E+02  0.67513788947E+01 -0.10669732330E+02  0.72461578670E+02  0.70000010911E+02 0.  0.
        -12    1    1    2    0    0 -0.13829481221E+02 -0.67513788947E+01  0.10669732330E+02  0.18726421330E+02  0.00000000000E+00 0.  1.
         11    1    3    3    0    0 -0.60330709418E+01 -0.70790274687E+01  0.10097232906E+02  0.13728244153E+02  0.51100000000E-03 0. -1.
        -11    1    3    3    0    0  0.23776454280E+01  0.25089249777E+02  0.49260820340E+01  0.25678589070E+02  0.51100000000E-03 0.  1.
        -12    1    3    3    0    0  0.17484906735E+02 -0.11258843414E+02 -0.25693047270E+02  0.33054745447E+02  0.00000000000E+00 0.  1.
</event>
<event>
 7    1  0.1891413E-013  0.7246161E+02  0.7816164E-02  0.1226708E+00
        -11   -1    0    0    0    0  0.00000000000E+00  0.00000000000E+00  0.45593999997E+02  0.45594000000E+02  0.51100000000E-03 0.  1.
         11   -1    0    0    0    0 -0.00000000000E+00 -0.00000000000E+00 -0.45593999997E+02  0.45594000000E+02  0.51100000000E-03 0. -1.
    9900012    2    1    2    0    0 -0.12736868013E+01 -0.16011925283E+02  0.96267111445E+01  0.72461612287E+02  0.70000054703E+02 0.  0.
        -12    1    1    2    0    0  0.12736868013E+01  0.16011925283E+02 -0.96267111445E+01  0.18726387713E+02  0.00000000000E+00 0.  1.
         11    1    3    3    0    0  0.10955053701E+02 -0.14891365918E+01  0.13095557204E+02  0.17138388142E+02  0.51100000000E-03 0. -1.
        -11    1    3    3    0    0 -0.10872131516E+02  0.18497904151E+02  0.29465831230E+01  0.21657748130E+02  0.51100000000E-03 0.  1.
         12    1    3    3    0    0 -0.13566089856E+01 -0.33020692842E+02 -0.64154291821E+01  0.33665476015E+02  0.00000000000E+00 0. -1.
</event>
<event>
 7    1  0.1891413E-013  0.7246126E+02  0.7816164E-02  0.1226709E+00
        -11   -1    0    0    0    0  0.00000000000E+00  0.00000000000E+00  0.45593999997E+02  0.45594000000E+02  0.51100000000E-03 0.  1.
         11   -1    0    0    0    0 -0.00000000000E+00 -0.00000000000E+00 -0.45593999997E+02  0.45594000000E+02  0.51100000000E-03 0. -1.
    9900012    2    1    2    0    0  0.96674097098E+01  0.62669012344E+01 -0.14763400687E+02  0.72461258121E+02  0.69999593334E+02 0.  0.
        -12    1    1    2    0    0 -0.96674097098E+01 -0.62669012344E+01  0.14763400687E+02  0.18726741879E+02  0.00000000000E+00 0.  1.
         11    1    3    3    0    0 -0.15283611338E+02 -0.49844254649E+01 -0.12557371001E+02  0.20399040160E+02  0.51100000000E-03 0. -1.
        -11    1    3    3    0    0  0.23189650382E+02 -0.20698502735E+01 -0.19354656447E+02  0.30276176962E+02  0.51100000000E-03 0.  1.
        -12    1    3    3    0    0  0.17613706653E+01  0.13321176973E+02  0.17148626762E+02  0.21786040998E+02  0.00000000000E+00 0.  1.
</event>
<event>
 7    1  0.1891413E-013  0.7246156E+02  0.7816164E-02  0.1226708E+00
        -11   -1    0    0    0    0  0.00000000000E+00  0.00000000000E+00  0.45593999997E+02  0.45594000000E+02  0.51100000000E-03 0.  1.
         11   -1    0    0    0    0 -0.00000000000E+00 -0.00000000000E+00 -0.45593999997E+02  0.45594000000E+02  0.51100000000E-03 0. -1.
    9900012    2    1    2    0    0 -0.39027253183E+01 -0.18037923121E+02  0.31751753854E+01  0.72461556821E+02  0.69999982448E+02 0.  0.
        -12    1    1    2    0    0  0.39027253183E+01  0.18037923121E+02 -0.31751753854E+01  0.18726443179E+02  0.00000000000E+00 0.  1.
         11    1    3    3    0    0 -0.27599293132E+02 -0.93523953197E+01  0.73840147907E+01  0.30061802246E+02  0.51100000000E-03 0. -1.
        -11    1    3    3    0    0  0.89836702735E+01 -0.19816110873E+02  0.41432996940E+01  0.22148397557E+02  0.51100000000E-03 0.  1.
         12    1    3    3    0    0  0.14712897540E+02  0.11130583072E+02 -0.83521390994E+01  0.20251357018E+02  0.00000000000E+00 0. -1.
</event>
<event>
 7    1  0.1891413E-013  0.7246151E+02  0.7816164E-02  0.1226708E+00
        -11   -1    0    0    0    0  0.00000000000E+00  0.00000000000E+00  0.45593999997E+02  0.45594000000E+02  0.51100000000E-03 0.  1.
         11   -1    0    0    0    0 -0.00000000000E+00 -0.00000000000E+00 -0.45593999997E+02  0.45594000000E+02  0.51100000000E-03 0. -1.
    9900012    2    1    2    0    0 -0.57236180306E+01  0.17562566888E+02 -0.30786426935E+01  0.72461505403E+02  0.69999915466E+02 0.  0.
        -12    1    1    2    0    0  0.57236180306E+01 -0.17562566888E+02  0.30786426935E+01  0.18726494597E+02  0.00000000000E+00 0.  1.
         11    1    3    3    0    0 -0.50846814510E+01  0.16801745658E+02 -0.27684126236E+01  0.17771233816E+02  0.51100000000E-03 0. -1.
        -11    1    3    3    0    0 -0.37871258254E+01  0.19220819941E+02 -0.19665900516E+02  0.27758420066E+02  0.51100000000E-03 0.  1.
        -12    1    3    3    0    0  0.31481892458E+01 -0.18459998710E+02  0.19355670446E+02  0.26931851521E+02  0.00000000000E+00 0.  1.
</event>
<event>
 7    1  0.1891413E-013  0.7246156E+02  0.7816164E-02  0.1226708E+00
        -11   -1    0    0    0    0  0.00000000000E+00  0.00000000000E+00  0.45593999997E+02  0.45594000000E+02  0.51100000000E-03 0.  1.
         11   -1    0    0    0    0 -0.00000000000E+00 -0.00000000000E+00 -0.45593999997E+02  0.45594000000E+02  0.51100000000E-03 0. -1.
    9900012    2    1    2    0    0  0.13788470706E+01 -0.18304319389E+02  0.37054153585E+01  0.72461563326E+02  0.69999990922E+02 0.  0.
        -12    1    1    2    0    0 -0.13788470706E+01  0.18304319389E+02 -0.37054153585E+01  0.18726436674E+02  0.00000000000E+00 0.  1.
         11    1    3    3    0    0 -0.15213542238E+02 -0.11368753143E+02 -0.18911410255E+02  0.26801900186E+02  0.51100000000E-03 0. -1.
        -11    1    3    3    0    0 -0.85864163108E+01 -0.11075289767E+02  0.98338988687E+01  0.17119992865E+02  0.51100000000E-03 0.  1.
         12    1    3    3    0    0  0.25178805620E+02  0.41397235209E+01  0.12782926745E+02  0.28539670275E+02  0.00000000000E+00 0. -1.
</event>
<event>
 7    1  0.1891413E-013  0.7246158E+02  0.7816164E-02  0.1226708E+00
        -11   -1    0    0    0    0  0.00000000000E+00  0.00000000000E+00  0.45593999997E+02  0.45594000000E+02  0.51100000000E-03 0.  1.
         11   -1    0    0    0    0 -0.00000000000E+00 -0.00000000000E+00 -0.45593999997E+02  0.45594000000E+02  0.51100000000E-03 0. -1.
    9900012    2    1    2    0    0  0.10365425998E+02 -0.13604696620E+02 -0.76255408110E+01  0.72461582859E+02  0.70000016368E+02 0.  0.
        -12    1    1    2    0    0 -0.10365425998E+02  0.13604696620E+02  0.76255408110E+01  0.18726417141E+02  0.00000000000E+00 0.  1.
         11    1    3    3    0    0 -0.66820093767E+01 -0.34546580834E+02 -0.14643443886E+02  0.38112280773E+02  0.51100000000E-03 0. -1.
        -11    1    3    3    0    0 -0.37716245027E+01  0.15420420709E+00  0.26366751995E+01  0.46044529203E+01  0.51100000000E-03 0.  1.
        -12    1    3    3    0    0  0.20819059878E+02  0.20787680006E+02  0.43812278760E+01  0.29744849166E+02  0.00000000000E+00 0.  1.
</event>
<event>
 7    1  0.1891413E-013  0.7246158E+02  0.7816164E-02  0.1226708E+00
        -11   -1    0    0    0    0  0.00000000000E+00  0.00000000000E+00  0.45593999997E+02  0.45594000000E+02  0.51100000000E-03 0. -1.
         11   -1    0    0    0    0 -0.00000000000E+00 -0.00000000000E+00 -0.45593999997E+02  0.45594000000E+02  0.51100000000E-03 0.  1.
    9900012    2    1    2    0    0 -0.46691110843E+01  0.95168003044E+01  0.15437252436E+02  0.72461578849E+02  0.70000011144E+02 0.  0.
        -12    1    1    2    0    0  0.46691110843E+01 -0.95168003044E+01 -0.15437252436E+02  0.18726421151E+02  0.00000000000E+00 0.  1.
         11    1    3    3    0    0  0.20324940910E+02  0.16545108228E+02  0.54402530364E+01  0.26766400255E+02  0.51100000000E-03 0. -1.
        -11    1    3    3    0    0  0.58860165515E+01 -0.11929473567E+02  0.35972880076E+01  0.13780348751E+02  0.51100000000E-03 0.  1.
        -12    1    3    3    0    0 -0.30880068545E+02  0.49011656436E+01  0.63997113918E+01  0.31914829843E+02  0.00000000000E+00 0.  1.
</event>
<event>
 7    1  0.1891413E-013  0.7246155E+02  0.7816164E-02  0.1226708E+00
        -11   -1    0    0    0    0  0.00000000000E+00  0.00000000000E+00  0.45593999997E+02  0.45594000000E+02  0.51100000000E-03 0.  1.
         11   -1    0    0    0    0 -0.00000000000E+00 -0.00000000000E+00 -0.45593999997E+02  0.45594000000E+02  0.51100000000E-03 0. -1.
    9900012    2    1    2    0    0  0.71610146731E+01 -0.14991650625E+02 -0.86400375271E+01  0.72461548973E+02  0.69999972225E+02 0.  0.
        -12    1    1    2    0    0 -0.71610146731E+01  0.14991650625E+02  0.86400375271E+01  0.18726451027E+02  0.00000000000E+00 0.  1.
         11    1    3    3    0    0 -0.74882374334E+01 -0.12675752503E+02 -0.60607227600E+01  0.15921079172E+02  0.51100000000E-03 0. -1.
        -11    1    3    3    0    0  0.91025941531E+01 -0.37868014691E+01  0.25782919230E+02  0.27603550676E+02  0.51100000000E-03 0.  1.
        -12    1    3    3    0    0  0.55466579534E+01  0.14709033471E+01 -0.28362233997E+02  0.28936919124E+02  0.00000000000E+00 0.  1.
</event>
<event>
 7    1  0.1891413E-013  0.7246154E+02  0.7816164E-02  0.1226708E+00
        -11   -1    0    0    0    0  0.00000000000E+00  0.00000000000E+00  0.45593999997E+02  0.45594000000E+02  0.51100000000E-03 0. -1.
         11   -1    0    0    0    0 -0.00000000000E+00 -0.00000000000E+00 -0.45593999997E+02  0.45594000000E+02  0.51100000000E-03 0.  1.
    9900012    2    1    2    0    0 -0.83677111159E+01 -0.16067046302E+02 -0.47446642166E+01  0.72461537315E+02  0.69999957038E+02 0.  0.
        -12    1    1    2    0    0  0.83677111159E+01  0.16067046302E+02  0.47446642166E+01  0.18726462685E+02  0.00000000000E+00 0.  1.
         11    1    3    3    0    0 -0.41364433356E+01  0.11982958137E+01  0.18676178345E+02  0.19166265003E+02  0.51100000000E-03 0. -1.
        -11    1    3    3    0    0  0.72589961839E+01  0.10985117795E+02 -0.18028085990E+02  0.22324375093E+02  0.51100000000E-03 0.  1.
         12    1    3    3    0    0 -0.11490263964E+02 -0.28250459910E+02 -0.53927565721E+01  0.30970897219E+02  0.00000000000E+00 0. -1.
</event>
<event>
 7    1  0.1891413E-013  0.7246166E+02  0.7816164E-02  0.1226708E+00
        -11   -1    0    0    0    0  0.00000000000E+00  0.00000000000E+00  0.45593999997E+02  0.45594000000E+02  0.51100000000E-03 0. -1.
         11   -1    0    0    0    0 -0.00000000000E+00 -0.00000000000E+00 -0.45593999997E+02  0.45594000000E+02  0.51100000000E-03 0.  1.
    9900012    2    1    2    0    0  0.10121672165E+02 -0.18668189854E+01  0.15644245810E+02  0.72461663265E+02  0.70000121112E+02 0.  0.
        -12    1    1    2    0    0 -0.10121672165E+02  0.18668189854E+01 -0.15644245810E+02  0.18726336735E+02  0.00000000000E+00 0.  1.
         11    1    3    3    0    0  0.46210083722E+01 -0.16807710601E+02  0.51011944795E+01  0.18162462371E+02  0.51100000000E-03 0.  1.
        -11    1    3    3    0    0  0.10964733616E+02  0.25870513730E+02 -0.10475005453E+02  0.29987240677E+02  0.51100000000E-03 0. -1.
         12    1    3    3    0    0 -0.54640698240E+01 -0.10929622115E+02  0.21018056784E+02  0.24311960217E+02  0.00000000000E+00 0. -1.
</event>
<event>
 7    1  0.1891413E-013  0.7246165E+02  0.7816164E-02  0.1226708E+00
        -11   -1    0    0    0    0  0.00000000000E+00  0.00000000000E+00  0.45593999997E+02  0.45594000000E+02  0.51100000000E-03 0. -1.
         11   -1    0    0    0    0 -0.00000000000E+00 -0.00000000000E+00 -0.45593999997E+02  0.45594000000E+02  0.51100000000E-03 0.  1.
    9900012    2    1    2    0    0  0.59499208268E+01 -0.10662432813E+02  0.14198138142E+02  0.72461650702E+02  0.70000104746E+02 0.  0.
        -12    1    1    2    0    0 -0.59499208268E+01  0.10662432813E+02 -0.14198138142E+02  0.18726349298E+02  0.00000000000E+00 0.  1.
         11    1    3    3    0    0  0.21245176073E+02  0.24324427629E+01  0.23038271254E+02  0.31433043550E+02  0.51100000000E-03 0. -1.
        -11    1    3    3    0    0  0.15297495582E+01 -0.10942439329E+02  0.10542819791E+02  0.15271809375E+02  0.51100000000E-03 0.  1.
        -12    1    3    3    0    0 -0.16825004805E+02 -0.21524362472E+01 -0.19382952903E+02  0.25756797777E+02  0.00000000000E+00 0.  1.
</event>
<event>
 7    1  0.1891413E-013  0.7246168E+02  0.7816164E-02  0.1226708E+00
        -11   -1    0    0    0    0  0.00000000000E+00  0.00000000000E+00  0.45593999997E+02  0.45594000000E+02  0.51100000000E-03 0. -1.
         11   -1    0    0    0    0 -0.00000000000E+00 -0.00000000000E+00 -0.45593999997E+02  0.45594000000E+02  0.51100000000E-03 0.  1.
    9900012    2    1    2    0    0 -0.48588679217E+01  0.80242982457E+01 -0.16207317492E+02  0.72461678949E+02  0.70000141542E+02 0.  0.
        -12    1    1    2    0    0  0.48588679217E+01 -0.80242982457E+01  0.16207317492E+02  0.18726321051E+02  0.00000000000E+00 0.  1.
         11    1    3    3    0    0  0.13887333538E+02  0.20363005256E+02 -0.81027281685E+01  0.25945408455E+02  0.51100000000E-03 0. -1.
        -11    1    3    3    0    0 -0.12531245614E+02  0.95135348560E+01 -0.16023894763E+02  0.22456728740E+02  0.51100000000E-03 0.  1.
         12    1    3    3    0    0 -0.62149558456E+01 -0.21852241866E+02  0.79193054389E+01  0.24059541753E+02  0.00000000000E+00 0. -1.
</event>
<event>
 7    1  0.1891413E-013  0.7246160E+02  0.7816164E-02  0.1226708E+00
        -11   -1    0    0    0    0  0.00000000000E+00  0.00000000000E+00  0.45593999997E+02  0.45594000000E+02  0.51100000000E-03 0. -1.
         11   -1    0    0    0    0 -0.00000000000E+00 -0.00000000000E+00 -0.45593999997E+02  0.45594000000E+02  0.51100000000E-03 0.  1.
    9900012    2    1    2    0    0 -0.14674332679E+02 -0.59831197898E+01 -0.99771870807E+01  0.72461600879E+02  0.70000039842E+02 0.  0.
        -12    1    1    2    0    0  0.14674332679E+02  0.59831197898E+01  0.99771870807E+01  0.18726399121E+02  0.00000000000E+00 0.  1.
         11    1    3    3    0    0 -0.27835313438E+01 -0.84335971602E+01  0.59773281899E+01  0.10705235184E+02  0.51100000000E-03 0. -1.
        -11    1    3    3    0    0 -0.15818314674E+02 -0.26259685551E+02 -0.72846162840E+01  0.31509614390E+02  0.51100000000E-03 0.  1.
        -12    1    3    3    0    0  0.39275133382E+01  0.28710162922E+02 -0.86698989866E+01  0.30246751304E+02  0.00000000000E+00 0.  1.
</event>
<event>
 7    1  0.1891413E-013  0.7246158E+02  0.7816164E-02  0.1226708E+00
        -11   -1    0    0    0    0  0.00000000000E+00  0.00000000000E+00  0.45593999997E+02  0.45594000000E+02  0.51100000000E-03 0.  1.
         11   -1    0    0    0    0 -0.00000000000E+00 -0.00000000000E+00 -0.45593999997E+02  0.45594000000E+02  0.51100000000E-03 0. -1.
    9900012    2    1    2    0    0 -0.18250050338E+02  0.11086316853E+01 -0.40479065986E+01  0.72461576172E+02  0.70000007657E+02 0.  0.
        -12    1    1    2    0    0  0.18250050338E+02 -0.11086316853E+01  0.40479065986E+01  0.18726423828E+02  0.00000000000E+00 0.  1.
         11    1    3    3    0    0 -0.92376524667E+00 -0.27792090623E+01  0.76579382594E+01  0.81988635730E+01  0.51100000000E-03 0. -1.
        -11    1    3    3    0    0 -0.19108241977E+02  0.10562614175E+02  0.21323491700E+02  0.30518601348E+02  0.51100000000E-03 0.  1.
         12    1    3    3    0    0  0.17819568860E+01 -0.66747734273E+01 -0.33029336558E+02  0.33744111251E+02  0.00000000000E+00 0. -1.
</event>
<event>
 7    1  0.1891413E-013  0.7246160E+02  0.7816164E-02  0.1226708E+00
        -11   -1    0    0    0    0  0.00000000000E+00  0.00000000000E+00  0.45593999997E+02  0.45594000000E+02  0.51100000000E-03 0.  1.
         11   -1    0    0    0    0 -0.00000000000E+00 -0.00000000000E+00 -0.45593999997E+02  0.45594000000E+02  0.51100000000E-03 0. -1.
    9900012    2    1    2    0    0 -0.93110943724E+01 -0.13801878443E+02 -0.85726050133E+01  0.72461604627E+02  0.70000044724E+02 0.  0.
        -12    1    1    2    0    0  0.93110943724E+01  0.13801878443E+02  0.85726050133E+01  0.18726395373E+02  0.00000000000E+00 0.  1.
         11    1    3    3    0    0 -0.13155808668E+02  0.35341112596E+01  0.39662725593E+01  0.14187901972E+02  0.51100000000E-03 0. -1.
        -11    1    3    3    0    0 -0.95676735695E-01  0.18017371071E+02 -0.13774827170E+02  0.22679962041E+02  0.51100000000E-03 0.  1.
         12    1    3    3    0    0  0.39403910312E+01 -0.35353360773E+02  0.12359495973E+01  0.35593740614E+02  0.00000000000E+00 0. -1.
</event>
<event>
 7    1  0.1891413E-013  0.7246165E+02  0.7816164E-02  0.1226708E+00
        -11   -1    0    0    0    0  0.00000000000E+00  0.00000000000E+00  0.45593999997E+02  0.45594000000E+02  0.51100000000E-03 0.  1.
         11   -1    0    0    0    0 -0.00000000000E+00 -0.00000000000E+00 -0.45593999997E+02  0.45594000000E+02  0.51100000000E-03 0. -1.
    9900012    2    1    2    0    0  0.15175533946E+01  0.79844016475E+01 -0.16870763152E+02  0.72461647251E+02  0.70000100250E+02 0.  0.
        -12    1    1    2    0    0 -0.15175533946E+01 -0.79844016475E+01  0.16870763152E+02  0.18726352749E+02  0.00000000000E+00 0.  1.
         11    1    3    3    0    0  0.37846466622E+01  0.14705865618E+02 -0.38671660617E+02  0.41546159499E+02  0.51100000000E-03 0. -1.
        -11    1    3    3    0    0 -0.37686089600E+01 -0.11937086702E+02  0.53874305917E+01  0.13627944125E+02  0.51100000000E-03 0.  1.
        -12    1    3    3    0    0  0.15015156923E+01  0.52156227318E+01  0.16413466874E+02  0.17287543628E+02  0.00000000000E+00 0.  1.
</event>
<event>
 7    1  0.1891413E-013  0.7246157E+02  0.7816164E-02  0.1226708E+00
        -11   -1    0    0    0    0  0.00000000000E+00  0.00000000000E+00  0.45593999997E+02  0.45594000000E+02  0.51100000000E-03 0.  1.
         11   -1    0    0    0    0 -0.00000000000E+00 -0.00000000000E+00 -0.45593999997E+02  0.45594000000E+02  0.51100000000E-03 0. -1.
    9900012    2    1    2    0    0 -0.16721417982E+02 -0.48317815962E+01 -0.69084981400E+01  0.72461567364E+02  0.69999996182E+02 0.  0.
        -12    1    1    2    0    0  0.16721417982E+02  0.48317815962E+01  0.69084981400E+01  0.18726432636E+02  0.00000000000E+00 0.  1.
         11    1    3    3    0    0 -0.99469362483E+01  0.82149259039E+01 -0.13886332144E+02  0.18954069985E+02  0.51100000000E-03 0. -1.
        -11    1    3    3    0    0 -0.15552465973E+02  0.15767888073E+02 -0.15502629064E+01  0.22201549664E+02  0.51100000000E-03 0.  1.
         12    1    3    3    0    0  0.87779842392E+01 -0.28814595573E+02  0.85280969104E+01  0.31305947714E+02  0.00000000000E+00 0. -1.
</event>
<event>
 7    1  0.1891413E-013  0.7246166E+02  0.7816164E-02  0.1226708E+00
        -11   -1    0    0    0    0  0.00000000000E+00  0.00000000000E+00  0.45593999997E+02  0.45594000000E+02  0.51100000000E-03 0. -1.
         11   -1    0    0    0    0 -0.00000000000E+00 -0.00000000000E+00 -0.45593999997E+02  0.45594000000E+02  0.51100000000E-03 0.  1.
    9900012    2    1    2    0    0  0.54484135898E+01  0.89093422411E+01  0.15543941952E+02  0.72461662365E+02  0.70000119939E+02 0.  0.
        -12    1    1    2    0    0 -0.54484135898E+01 -0.89093422411E+01 -0.15543941952E+02  0.18726337635E+02  0.00000000000E+00 0.  1.
         11    1    3    3    0    0  0.16124073576E+02 -0.41825601739E+01  0.13701463753E+02  0.21568719654E+02  0.51100000000E-03 0. -1.
        -11    1    3    3    0    0  0.54181859379E+01  0.23873269326E+02  0.13825662724E+02  0.28114741279E+02  0.51100000000E-03 0.  1.
        -12    1    3    3    0    0 -0.16093845924E+02 -0.10781366911E+02 -0.11983184525E+02  0.22778201432E+02  0.00000000000E+00 0.  1.
</event>
<event>
 7    1  0.1891413E-013  0.7246156E+02  0.7816164E-02  0.1226708E+00
        -11   -1    0    0    0    0  0.00000000000E+00  0.00000000000E+00  0.45593999997E+02  0.45594000000E+02  0.51100000000E-03 0. -1.
         11   -1    0    0    0    0 -0.00000000000E+00 -0.00000000000E+00 -0.45593999997E+02  0.45594000000E+02  0.51100000000E-03 0.  1.
    9900012    2    1    2    0    0 -0.51255218136E+01  0.12022832080E+02  0.13411189641E+02  0.72461562200E+02  0.69999989456E+02 0.  0.
        -12    1    1    2    0    0  0.51255218136E+01 -0.12022832080E+02 -0.13411189641E+02  0.18726437800E+02  0.00000000000E+00 0.  1.
         11    1    3    3    0    0 -0.15892999217E+02 -0.28053015396E+01  0.22568885275E+01  0.16295726032E+02  0.51100000000E-03 0. -1.
        -11    1    3    3    0    0 -0.11072702646E+02  0.14659937764E+02 -0.13819340406E+02  0.22988968847E+02  0.51100000000E-03 0.  1.
         12    1    3    3    0    0  0.21840180050E+02  0.16819585564E+00  0.24973641520E+02  0.33176867321E+02  0.00000000000E+00 0. -1.
</event>
<event>
 7    1  0.1891413E-013  0.7246156E+02  0.7816164E-02  0.1226708E+00
        -11   -1    0    0    0    0  0.00000000000E+00  0.00000000000E+00  0.45593999997E+02  0.45594000000E+02  0.51100000000E-03 0. -1.
         11   -1    0    0    0    0 -0.00000000000E+00 -0.00000000000E+00 -0.45593999997E+02  0.45594000000E+02  0.51100000000E-03 0.  1.
    9900012    2    1    2    0    0  0.14360991233E+02 -0.68912345693E+01  0.98464305233E+01  0.72461564751E+02  0.69999992779E+02 0.  0.
        -12    1    1    2    0    0 -0.14360991233E+02  0.68912345693E+01 -0.98464305233E+01  0.18726435249E+02  0.00000000000E+00 0.  1.
         11    1    3    3    0    0  0.16386064267E+02 -0.24217041485E+02  0.10562555051E+02  0.31089158398E+02  0.51100000000E-03 0. -1.
        -11    1    3    3    0    0  0.11588851429E+02 -0.69636834463E+01 -0.40064312055E+00  0.13526081463E+02  0.51100000000E-03 0.  1.
        -12    1    3    3    0    0 -0.13613924463E+02  0.24289490362E+02 -0.31548140666E+00  0.27846324890E+02  0.00000000000E+00 0.  1.
</event>
<event>
 7    1  0.1891413E-013  0.7246158E+02  0.7816164E-02  0.1226708E+00
        -11   -1    0    0    0    0  0.00000000000E+00  0.00000000000E+00  0.45593999997E+02  0.45594000000E+02  0.51100000000E-03 0.  1.
         11   -1    0    0    0    0 -0.00000000000E+00 -0.00000000000E+00 -0.45593999997E+02  0.45594000000E+02  0.51100000000E-03 0. -1.
    9900012    2    1    2    0    0 -0.50205350839E+01 -0.14760945918E+02 -0.10372448757E+02  0.72461575084E+02  0.70000006239E+02 0.  0.
        -12    1    1    2    0    0  0.50205350839E+01  0.14760945918E+02  0.10372448757E+02  0.18726424916E+02  0.00000000000E+00 0.  1.
         11    1    3    3    0    0 -0.21317556658E+02 -0.31504150313E+02  0.33815544561E+01  0.38188802280E+02  0.51100000000E-03 0. -1.
        -11    1    3    3    0    0 -0.14485124715E+01  0.34569175930E+01  0.42846355618E+01  0.56926768557E+01  0.51100000000E-03 0.  1.
        -12    1    3    3    0    0  0.17745534045E+02  0.13286286801E+02 -0.18038638775E+02  0.28580095948E+02  0.00000000000E+00 0.  1.
</event>
<event>
 7    1  0.1891413E-013  0.7246161E+02  0.7816164E-02  0.1226708E+00
        -11   -1    0    0    0    0  0.00000000000E+00  0.00000000000E+00  0.45593999997E+02  0.45594000000E+02  0.51100000000E-03 0.  1.
         11   -1    0    0    0    0 -0.00000000000E+00 -0.00000000000E+00 -0.45593999997E+02  0.45594000000E+02  0.51100000000E-03 0. -1.
    9900012    2    1    2    0    0 -0.39058952437E+00 -0.90042800163E+01 -0.16414870862E+02  0.72461612089E+02  0.70000054445E+02 0.  0.
        -12    1    1    2    0    0  0.39058952437E+00  0.90042800163E+01  0.16414870862E+02  0.18726387911E+02  0.00000000000E+00 0.  1.
         11    1    3    3    0    0 -0.22366661071E+02 -0.15273693101E+02 -0.20009494592E+00  0.27084926927E+02  0.51100000000E-03 0. -1.
        -11    1    3    3    0    0 -0.91897374626E+01 -0.28862713467E+01 -0.58991824012E+01  0.11295228647E+02  0.51100000000E-03 0.  1.
        -12    1    3    3    0    0  0.31165809009E+02  0.91556844313E+01 -0.10315593515E+02  0.34081456515E+02  0.00000000000E+00 0.  1.
</event>
<event>
 7    1  0.1891413E-013  0.7246156E+02  0.7816164E-02  0.1226708E+00
        -11   -1    0    0    0    0  0.00000000000E+00  0.00000000000E+00  0.45593999997E+02  0.45594000000E+02  0.51100000000E-03 0.  1.
         11   -1    0    0    0    0 -0.00000000000E+00 -0.00000000000E+00 -0.45593999997E+02  0.45594000000E+02  0.51100000000E-03 0. -1.
    9900012    2    1    2    0    0  0.17714524711E+02 -0.60720493089E+01 -0.72929794545E-01  0.72461561809E+02  0.69999988947E+02 0.  0.
        -12    1    1    2    0    0 -0.17714524711E+02  0.60720493089E+01  0.72929794545E-01  0.18726438191E+02  0.00000000000E+00 0.  1.
         11    1    3    3    0    0 -0.59816344179E+00 -0.13654386830E+02  0.56433947249E+01  0.14786750268E+02  0.51100000000E-03 0. -1.
        -11    1    3    3    0    0  0.17096308920E+02 -0.20198121750E+02  0.65835789929E+01  0.27268872612E+02  0.51100000000E-03 0.  1.
         12    1    3    3    0    0  0.12163792330E+01  0.27780459271E+02 -0.12299903512E+02  0.30405938929E+02  0.00000000000E+00 0. -1.
</event>
<event>
 7    1  0.1891413E-013  0.7246157E+02  0.7816164E-02  0.1226708E+00
        -11   -1    0    0    0    0  0.00000000000E+00  0.00000000000E+00  0.45593999997E+02  0.45594000000E+02  0.51100000000E-03 0.  1.
         11   -1    0    0    0    0 -0.00000000000E+00 -0.00000000000E+00 -0.45593999997E+02  0.45594000000E+02  0.51100000000E-03 0. -1.
    9900012    2    1    2    0    0  0.36601053814E+01  0.15215188759E+01 -0.18302124766E+02  0.72461570494E+02  0.70000000260E+02 0.  0.
        -12    1    1    2    0    0 -0.36601053814E+01 -0.15215188759E+01  0.18302124766E+02  0.18726429506E+02  0.00000000000E+00 0.  1.
         11    1    3    3    0    0 -0.12763482864E+02 -0.92651803768E+01 -0.43005314247E+01  0.16347618574E+02  0.51100000000E-03 0. -1.
        -11    1    3    3    0    0 -0.26250132294E+01  0.27690531354E+02 -0.12799070466E+02  0.30618171503E+02  0.51100000000E-03 0.  1.
         12    1    3    3    0    0  0.19048601475E+02 -0.16903832101E+02 -0.12025228750E+01  0.25495780418E+02  0.00000000000E+00 0. -1.
</event>
<event>
 7    1  0.1891413E-013  0.7246154E+02  0.7816164E-02  0.1226708E+00
        -11   -1    0    0    0    0  0.00000000000E+00  0.00000000000E+00  0.45593999997E+02  0.45594000000E+02  0.51100000000E-03 0. -1.
         11   -1    0    0    0    0 -0.00000000000E+00 -0.00000000000E+00 -0.45593999997E+02  0.45594000000E+02  0.51100000000E-03 0.  1.
    9900012    2    1    2    0    0  0.15023942720E+02  0.10413423444E+02 -0.40647119403E+01  0.72461544761E+02  0.69999966738E+02 0.  0.
        -12    1    1    2    0    0 -0.15023942720E+02 -0.10413423444E+02  0.40647119403E+01  0.18726455239E+02  0.00000000000E+00 0.  1.
         11    1    3    3    0    0 -0.10414079854E+01  0.12188117664E+02  0.14222783926E+01  0.12314934789E+02  0.51100000000E-03 0. -1.
        -11    1    3    3    0    0  0.24376241468E+02  0.49841319490E+01 -0.26630153370E+02  0.36444585170E+02  0.51100000000E-03 0.  1.
         12    1    3    3    0    0 -0.83108907632E+01 -0.67588261687E+01  0.21143163038E+02  0.23702024801E+02  0.00000000000E+00 0. -1.
</event>
<event>
 7    1  0.2585331E-013  0.7246155E+02  0.7816164E-02  0.1226708E+00
        -11   -1    0    0    0    0  0.00000000000E+00  0.00000000000E+00  0.45593999997E+02  0.45594000000E+02  0.51100000000E-03 0. -1.
         11   -1    0    0    0    0 -0.00000000000E+00 -0.00000000000E+00 -0.45593999997E+02  0.45594000000E+02  0.51100000000E-03 0.  1.
    9900012    2    1    2    0    0  0.11739729773E+02 -0.12693448783E+02  0.71927100171E+01  0.72461548800E+02  0.69999972000E+02 0.  0.
        -12    1    1    2    0    0 -0.11739729773E+02  0.12693448783E+02 -0.71927100171E+01  0.18726451200E+02  0.00000000000E+00 0.  1.
         11    1    3    3    0    0  0.15343411769E+02 -0.16602280919E+02 -0.21278329766E+01  0.22706468018E+02  0.51100000000E-03 0. -1.
        -11    1    3    3    0    0 -0.36346173642E+01  0.85868804664E+01 -0.18939516277E+02  0.21110429569E+02  0.51100000000E-03 0.  1.
         12    1    3    3    0    0  0.30935368555E-01 -0.46780483303E+01  0.28260059270E+02  0.28644651214E+02  0.00000000000E+00 0. -1.
</event>
<event>
 7    1  0.1891413E-013  0.7246148E+02  0.7816164E-02  0.1226708E+00
        -11   -1    0    0    0    0  0.00000000000E+00  0.00000000000E+00  0.45593999997E+02  0.45594000000E+02  0.51100000000E-03 0.  1.
         11   -1    0    0    0    0 -0.00000000000E+00 -0.00000000000E+00 -0.45593999997E+02  0.45594000000E+02  0.51100000000E-03 0. -1.
    9900012    2    1    2    0    0  0.11595637074E+02 -0.13865216594E+02 -0.48968849894E+01  0.72461481024E+02  0.69999883709E+02 0.  0.
        -12    1    1    2    0    0 -0.11595637074E+02  0.13865216594E+02  0.48968849894E+01  0.18726518976E+02  0.00000000000E+00 0.  1.
         11    1    3    3    0    0  0.33261845093E+01  0.59416047809E+01 -0.63794586165E+01  0.93307911381E+01  0.51100000000E-03 0. -1.
        -11    1    3    3    0    0  0.20814233551E+02 -0.96050092163E-01  0.23244397112E+02  0.31201659272E+02  0.51100000000E-03 0.  1.
         12    1    3    3    0    0 -0.12544780987E+02 -0.19710771283E+02 -0.21761823485E+02  0.31929030614E+02  0.00000000000E+00 0. -1.
</event>
<event>
 7    1  0.3010394E-013  0.7246164E+02  0.7816164E-02  0.1226708E+00
        -11   -1    0    0    0    0  0.00000000000E+00  0.00000000000E+00  0.45593999997E+02  0.45594000000E+02  0.51100000000E-03 0. -1.
         11   -1    0    0    0    0 -0.00000000000E+00 -0.00000000000E+00 -0.45593999997E+02  0.45594000000E+02  0.51100000000E-03 0.  1.
    9900012    2    1    2    0    0  0.70942436783E+01  0.21907675831E+01  0.17191531204E+02  0.72461641542E+02  0.70000092813E+02 0.  0.
        -12    1    1    2    0    0 -0.70942436783E+01 -0.21907675831E+01 -0.17191531204E+02  0.18726358458E+02  0.00000000000E+00 0.  1.
         11    1    3    3    0    0 -0.64117754091E+01 -0.12558065465E+01  0.53459280427E+01  0.84419702012E+01  0.51100000000E-03 0. -1.
        -11    1    3    3    0    0 -0.80614489485E+01  0.99723704081E-01 -0.22177704556E+02  0.23597616058E+02  0.51100000000E-03 0.  1.
         12    1    3    3    0    0  0.21567468036E+02  0.33468504255E+01  0.34023307717E+02  0.40422055283E+02  0.00000000000E+00 0. -1.
</event>
<event>
 7    1  0.1891413E-013  0.7246157E+02  0.7816164E-02  0.1226708E+00
        -11   -1    0    0    0    0  0.00000000000E+00  0.00000000000E+00  0.45593999997E+02  0.45594000000E+02  0.51100000000E-03 0. -1.
         11   -1    0    0    0    0 -0.00000000000E+00 -0.00000000000E+00 -0.45593999997E+02  0.45594000000E+02  0.51100000000E-03 0.  1.
    9900012    2    1    2    0    0 -0.91311801557E+01  0.15736942348E+02 -0.44327465069E+01  0.72461573563E+02  0.70000004258E+02 0.  0.
        -12    1    1    2    0    0  0.91311801557E+01 -0.15736942348E+02  0.44327465069E+01  0.18726426437E+02  0.00000000000E+00 0.  1.
         11    1    3    3    0    0 -0.72621937967E+01 -0.12671231119E+02 -0.23135355772E+02  0.27359536615E+02  0.51100000000E-03 0. -1.
        -11    1    3    3    0    0 -0.63740281660E+01 -0.36496344141E+01 -0.67000963685E+00  0.73754308072E+01  0.51100000000E-03 0.  1.
         12    1    3    3    0    0  0.45050418070E+01  0.32057807881E+02  0.19372618902E+02  0.37726606141E+02  0.00000000000E+00 0. -1.
</event>
<event>
 7    1  0.1891413E-013  0.7246159E+02  0.7816164E-02  0.1226708E+00
        -11   -1    0    0    0    0  0.00000000000E+00  0.00000000000E+00  0.45593999997E+02  0.45594000000E+02  0.51100000000E-03 0.  1.
         11   -1    0    0    0    0 -0.00000000000E+00 -0.00000000000E+00 -0.45593999997E+02  0.45594000000E+02  0.51100000000E-03 0. -1.
    9900012    2    1    2    0    0 -0.38956384274E+01  0.28503104043E+01 -0.18093598953E+02  0.72461585735E+02  0.70000020114E+02 0.  0.
        -12    1    1    2    0    0  0.38956384274E+01 -0.28503104043E+01  0.18093598953E+02  0.18726414265E+02  0.00000000000E+00 0.  1.
         11    1    3    3    0    0 -0.51149524557E+01  0.15683117616E+02 -0.34664998244E+02  0.38389907793E+02  0.51100000000E-03 0. -1.
        -11    1    3    3    0    0 -0.83813924518E+01 -0.40092099488E+01 -0.36735558304E+01  0.99908216151E+01  0.51100000000E-03 0.  1.
        -12    1    3    3    0    0  0.96007064801E+01 -0.88235972632E+01  0.20244955122E+02  0.24080856327E+02  0.00000000000E+00 0.  1.
</event>
<event>
 7    1  0.1891413E-013  0.7246156E+02  0.7816164E-02  0.1226708E+00
        -11   -1    0    0    0    0  0.00000000000E+00  0.00000000000E+00  0.45593999997E+02  0.45594000000E+02  0.51100000000E-03 0. -1.
         11   -1    0    0    0    0 -0.00000000000E+00 -0.00000000000E+00 -0.45593999997E+02  0.45594000000E+02  0.51100000000E-03 0.  1.
    9900012    2    1    2    0    0  0.18601457204E+02  0.20061696356E+01 -0.80037249899E+00  0.72461560860E+02  0.69999987711E+02 0.  0.
        -12    1    1    2    0    0 -0.18601457204E+02 -0.20061696356E+01  0.80037249899E+00  0.18726439140E+02  0.00000000000E+00 0.  1.
         11    1    3    3    0    0  0.24581094724E+02  0.23241156543E+02  0.94983291714E+01  0.35136872835E+02  0.51100000000E-03 0. -1.
        -11    1    3    3    0    0 -0.62494067303E+01  0.59853848396E+01 -0.23831834033E+01  0.89754932764E+01  0.51100000000E-03 0.  1.
        -12    1    3    3    0    0  0.26976920973E+00 -0.27220371747E+02 -0.79155182670E+01  0.28349194749E+02  0.00000000000E+00 0.  1.
</event>
<event>
 7    1  0.1891413E-013  0.7246154E+02  0.7816164E-02  0.1226708E+00
        -11   -1    0    0    0    0  0.00000000000E+00  0.00000000000E+00  0.45593999997E+02  0.45594000000E+02  0.51100000000E-03 0.  1.
         11   -1    0    0    0    0 -0.00000000000E+00 -0.00000000000E+00 -0.45593999997E+02  0.45594000000E+02  0.51100000000E-03 0. -1.
    9900012    2    1    2    0    0  0.73649688558E+01  0.15083787829E+02 -0.83016211460E+01  0.72461539171E+02  0.69999959457E+02 0.  0.
        -12    1    1    2    0    0 -0.73649688558E+01 -0.15083787829E+02  0.83016211460E+01  0.18726460829E+02  0.00000000000E+00 0.  1.
         11    1    3    3    0    0  0.74256640428E+01 -0.79491391449E+01 -0.12134878889E+02  0.16296766107E+02  0.51100000000E-03 0. -1.
        -11    1    3    3    0    0  0.24890222981E+02  0.55058300474E+01  0.29287811994E+01  0.25659601013E+02  0.51100000000E-03 0.  1.
        -12    1    3    3    0    0 -0.24950918168E+02  0.17527096926E+02  0.90447654387E+00  0.30505172052E+02  0.00000000000E+00 0.  1.
</event>
<event>
 7    1  0.1891413E-013  0.7246152E+02  0.7816164E-02  0.1226708E+00
        -11   -1    0    0    0    0  0.00000000000E+00  0.00000000000E+00  0.45593999997E+02  0.45594000000E+02  0.51100000000E-03 0.  1.
         11   -1    0    0    0    0 -0.00000000000E+00 -0.00000000000E+00 -0.45593999997E+02  0.45594000000E+02  0.51100000000E-03 0. -1.
    9900012    2    1    2    0    0  0.14083297947E+02  0.11832257343E+02 -0.35127755127E+01  0.72461516435E+02  0.69999929838E+02 0.  0.
        -12    1    1    2    0    0 -0.14083297947E+02 -0.11832257343E+02  0.35127755127E+01  0.18726483565E+02  0.00000000000E+00 0.  1.
         11    1    3    3    0    0  0.31171320806E+02 -0.42114981120E+00 -0.92046409330E+01  0.32504676939E+02  0.51100000000E-03 0. -1.
        -11    1    3    3    0    0  0.34610016495E+01  0.17875524842E+02  0.34918435046E+01  0.18539306678E+02  0.51100000000E-03 0.  1.
        -12    1    3    3    0    0 -0.20549024509E+02 -0.56221176877E+01  0.22000219158E+01  0.21417532817E+02  0.00000000000E+00 0.  1.
</event>
<event>
 7    1  0.1891413E-013  0.7246155E+02  0.7816164E-02  0.1226708E+00
        -11   -1    0    0    0    0  0.00000000000E+00  0.00000000000E+00  0.45593999997E+02  0.45594000000E+02  0.51100000000E-03 0.  1.
         11   -1    0    0    0    0 -0.00000000000E+00 -0.00000000000E+00 -0.45593999997E+02  0.45594000000E+02  0.51100000000E-03 0. -1.
    9900012    2    1    2    0    0 -0.16823124589E+02 -0.80625436170E+01 -0.16303074670E+01  0.72461547241E+02  0.69999969969E+02 0.  0.
        -12    1    1    2    0    0  0.16823124589E+02  0.80625436170E+01  0.16303074670E+01  0.18726452759E+02  0.00000000000E+00 0.  1.
         11    1    3    3    0    0  0.66602306578E+01 -0.15443204713E+02 -0.24562774608E+01  0.16996603880E+02  0.51100000000E-03 0. -1.
        -11    1    3    3    0    0  0.86830270413E+01  0.17840355842E+02 -0.64570949537E+01  0.20865457835E+02  0.51100000000E-03 0.  1.
         12    1    3    3    0    0 -0.32166382288E+02 -0.10459694746E+02  0.72830649475E+01  0.34599485526E+02  0.00000000000E+00 0. -1.
</event>
<event>
 7    1  0.1891413E-013  0.7246159E+02  0.7816164E-02  0.1226708E+00
        -11   -1    0    0    0    0  0.00000000000E+00  0.00000000000E+00  0.45593999997E+02  0.45594000000E+02  0.51100000000E-03 0. -1.
         11   -1    0    0    0    0 -0.00000000000E+00 -0.00000000000E+00 -0.45593999997E+02  0.45594000000E+02  0.51100000000E-03 0.  1.
    9900012    2    1    2    0    0  0.63770655062E+01  0.11773658761E+02 -0.13091697323E+02  0.72461586999E+02  0.70000021761E+02 0.  0.
        -12    1    1    2    0    0 -0.63770655062E+01 -0.11773658761E+02  0.13091697323E+02  0.18726413001E+02  0.00000000000E+00 0.  1.
         11    1    3    3    0    0  0.73642983599E+01 -0.57391355826E+01 -0.27492589832E+01  0.97328820391E+01  0.51100000000E-03 0. -1.
        -11    1    3    3    0    0  0.25567854307E+02  0.14385533244E+02  0.78730981825E+01  0.30375062401E+02  0.51100000000E-03 0.  1.
        -12    1    3    3    0    0 -0.26555087161E+02  0.31272610989E+01 -0.18215536522E+02  0.32353642560E+02  0.00000000000E+00 0.  1.
</event>
<event>
 7    1  0.1891413E-013  0.7246160E+02  0.7816164E-02  0.1226708E+00
        -11   -1    0    0    0    0  0.00000000000E+00  0.00000000000E+00  0.45593999997E+02  0.45594000000E+02  0.51100000000E-03 0. -1.
         11   -1    0    0    0    0 -0.00000000000E+00 -0.00000000000E+00 -0.45593999997E+02  0.45594000000E+02  0.51100000000E-03 0.  1.
    9900012    2    1    2    0    0 -0.13489162657E+02 -0.10995651535E+02 -0.69149301740E+01  0.72461598286E+02  0.70000036464E+02 0.  0.
        -12    1    1    2    0    0  0.13489162657E+02  0.10995651535E+02  0.69149301740E+01  0.18726401714E+02  0.00000000000E+00 0.  1.
         11    1    3    3    0    0 -0.17086132916E+01  0.17954644280E+02  0.28458119533E+01  0.18258895272E+02  0.51100000000E-03 0. -1.
        -11    1    3    3    0    0 -0.53661395173E+01 -0.22188010720E+02 -0.26541064182E+02  0.35007590051E+02  0.51100000000E-03 0.  1.
         12    1    3    3    0    0 -0.64144098478E+01 -0.67622850957E+01  0.16780322054E+02  0.19195112963E+02  0.00000000000E+00 0. -1.
</event>
<event>
 7    1  0.1891413E-013  0.7246156E+02  0.7816164E-02  0.1226708E+00
        -11   -1    0    0    0    0  0.00000000000E+00  0.00000000000E+00  0.45593999997E+02  0.45594000000E+02  0.51100000000E-03 0. -1.
         11   -1    0    0    0    0 -0.00000000000E+00 -0.00000000000E+00 -0.45593999997E+02  0.45594000000E+02  0.51100000000E-03 0.  1.
    9900012    2    1    2    0    0 -0.82341833032E+01 -0.11813413254E+02  0.11971681644E+02  0.72461556965E+02  0.69999982636E+02 0.  0.
        -12    1    1    2    0    0  0.82341833032E+01  0.11813413254E+02 -0.11971681644E+02  0.18726443035E+02  0.00000000000E+00 0.  1.
         11    1    3    3    0    0 -0.76973721476E+01  0.40397836334E+01  0.10957068130E+02  0.13986662649E+02  0.51100000000E-03 0. -1.
        -11    1    3    3    0    0  0.81943122891E+01 -0.27199421995E+02  0.19967377430E+02  0.34722492313E+02  0.51100000000E-03 0.  1.
         12    1    3    3    0    0 -0.87311234448E+01  0.11346225108E+02 -0.18952763916E+02  0.23752402002E+02  0.00000000000E+00 0. -1.
</event>
<event>
 7    1  0.1891413E-013  0.7246149E+02  0.7816164E-02  0.1226708E+00
        -11   -1    0    0    0    0  0.00000000000E+00  0.00000000000E+00  0.45593999997E+02  0.45594000000E+02  0.51100000000E-03 0.  1.
         11   -1    0    0    0    0 -0.00000000000E+00 -0.00000000000E+00 -0.45593999997E+02  0.45594000000E+02  0.51100000000E-03 0. -1.
    9900012    2    1    2    0    0 -0.11896706689E+02 -0.12209939674E+02  0.77503508794E+01  0.72461489497E+02  0.69999894746E+02 0.  0.
        -12    1    1    2    0    0  0.11896706689E+02  0.12209939674E+02 -0.77503508794E+01  0.18726510503E+02  0.00000000000E+00 0.  1.
         11    1    3    3    0    0  0.55343600985E-02 -0.14977086599E+02  0.12091361877E+02  0.19248745048E+02  0.51100000000E-03 0. -1.
        -11    1    3    3    0    0 -0.27890130278E+01 -0.15519798215E+02  0.17328939408E+02  0.23429359179E+02  0.51100000000E-03 0.  1.
         12    1    3    3    0    0 -0.91132280214E+01  0.18286945140E+02 -0.21669950406E+02  0.29783385269E+02  0.00000000000E+00 0. -1.
</event>
<event>
 7    1  0.1891413E-013  0.7246149E+02  0.7816164E-02  0.1226708E+00
        -11   -1    0    0    0    0  0.00000000000E+00  0.00000000000E+00  0.45593999997E+02  0.45594000000E+02  0.51100000000E-03 0. -1.
         11   -1    0    0    0    0 -0.00000000000E+00 -0.00000000000E+00 -0.45593999997E+02  0.45594000000E+02  0.51100000000E-03 0.  1.
    9900012    2    1    2    0    0 -0.15908994319E+02 -0.39914210215E+01  0.90362999350E+01  0.72461487817E+02  0.69999892558E+02 0.  0.
        -12    1    1    2    0    0  0.15908994319E+02  0.39914210215E+01 -0.90362999350E+01  0.18726512183E+02  0.00000000000E+00 0.  1.
         11    1    3    3    0    0  0.40204500447E+01 -0.52640500492E+01 -0.57955414502E+01  0.88012807275E+01  0.51100000000E-03 0. -1.
        -11    1    3    3    0    0 -0.27563578424E+02 -0.12764065197E+02 -0.11812940766E+02  0.32591682769E+02  0.51100000000E-03 0.  1.
         12    1    3    3    0    0  0.76341340603E+01  0.14036694225E+02  0.26644782151E+02  0.31068524321E+02  0.00000000000E+00 0. -1.
</event>
<event>
 7    1  0.3732386E-013  0.7246160E+02  0.7816164E-02  0.1226708E+00
        -11   -1    0    0    0    0  0.00000000000E+00  0.00000000000E+00  0.45593999997E+02  0.45594000000E+02  0.51100000000E-03 0. -1.
         11   -1    0    0    0    0 -0.00000000000E+00 -0.00000000000E+00 -0.45593999997E+02  0.45594000000E+02  0.51100000000E-03 0.  1.
    9900012    2    1    2    0    0  0.52798070216E+01 -0.88708309013E+01  0.15624023239E+02  0.72461598711E+02  0.70000037018E+02 0.  0.
        -12    1    1    2    0    0 -0.52798070216E+01  0.88708309013E+01 -0.15624023239E+02  0.18726401289E+02  0.00000000000E+00 0.  1.
         11    1    3    3    0    0 -0.14593790633E+02 -0.81903267543E+01  0.17818771232E+01  0.16829594877E+02  0.51100000000E-03 0. -1.
        -11    1    3    3    0    0  0.17194555619E+02  0.30526402550E+01 -0.17046187148E+02  0.24403767168E+02  0.51100000000E-03 0.  1.
         12    1    3    3    0    0  0.26790420363E+01 -0.37331444019E+01  0.30888333264E+02  0.31228236665E+02  0.00000000000E+00 0. -1.
</event>
<event>
 7    1  0.1891413E-013  0.7246150E+02  0.7816164E-02  0.1226708E+00
        -11   -1    0    0    0    0  0.00000000000E+00  0.00000000000E+00  0.45593999997E+02  0.45594000000E+02  0.51100000000E-03 0.  1.
         11   -1    0    0    0    0 -0.00000000000E+00 -0.00000000000E+00 -0.45593999997E+02  0.45594000000E+02  0.51100000000E-03 0. -1.
    9900012    2    1    2    0    0  0.18470372725E+02 -0.18253948158E+01  0.24889562652E+01  0.72461504382E+02  0.69999914137E+02 0.  0.
        -12    1    1    2    0    0 -0.18470372725E+02  0.18253948158E+01 -0.24889562652E+01  0.18726495618E+02  0.00000000000E+00 0.  1.
         11    1    3    3    0    0 -0.39322841130E+01  0.41488991385E+01 -0.59259723960E+01  0.82336730264E+01  0.51100000000E-03 0. -1.
        -11    1    3    3    0    0 -0.89961509183E+00 -0.13891017992E+02  0.28984113613E+02  0.32153515055E+02  0.51100000000E-03 0.  1.
         12    1    3    3    0    0  0.23302271930E+02  0.79167240379E+01 -0.20569184952E+02  0.32074316301E+02  0.00000000000E+00 0. -1.
</event>
<event>
 7    1  0.1891413E-013  0.7246156E+02  0.7816164E-02  0.1226708E+00
        -11   -1    0    0    0    0  0.00000000000E+00  0.00000000000E+00  0.45593999997E+02  0.45594000000E+02  0.51100000000E-03 0. -1.
         11   -1    0    0    0    0 -0.00000000000E+00 -0.00000000000E+00 -0.45593999997E+02  0.45594000000E+02  0.51100000000E-03 0.  1.
    9900012    2    1    2    0    0  0.13716367237E+02  0.95815125847E+01  0.84104271335E+01  0.72461564189E+02  0.69999992047E+02 0.  0.
        -12    1    1    2    0    0 -0.13716367237E+02 -0.95815125847E+01 -0.84104271335E+01  0.18726435811E+02  0.00000000000E+00 0.  1.
         11    1    3    3    0    0  0.24218801799E+02  0.20010827878E+02  0.26546566692E+02  0.41130326966E+02  0.51100000000E-03 0. -1.
        -11    1    3    3    0    0  0.27672558067E+01 -0.85293914214E+01 -0.23865742526E+00  0.89702385892E+01  0.51100000000E-03 0.  1.
        -12    1    3    3    0    0 -0.13269690369E+02 -0.18999238717E+01 -0.17897482133E+02  0.22360998634E+02  0.00000000000E+00 0.  1.
</event>
<event>
 7    1  0.1891413E-013  0.7246159E+02  0.7816164E-02  0.1226708E+00
        -11   -1    0    0    0    0  0.00000000000E+00  0.00000000000E+00  0.45593999997E+02  0.45594000000E+02  0.51100000000E-03 0. -1.
         11   -1    0    0    0    0 -0.00000000000E+00 -0.00000000000E+00 -0.45593999997E+02  0.45594000000E+02  0.51100000000E-03 0.  1.
    9900012    2    1    2    0    0  0.97166374053E+01 -0.14909882248E+02 -0.58275959704E+01  0.72461588013E+02  0.70000023081E+02 0.  0.
        -12    1    1    2    0    0 -0.97166374053E+01  0.14909882248E+02  0.58275959704E+01  0.18726411987E+02  0.00000000000E+00 0.  1.
         11    1    3    3    0    0 -0.23567919684E+02 -0.10578659554E+02  0.10195198267E+01  0.25853322748E+02  0.51100000000E-03 0. -1.
        -11    1    3    3    0    0 -0.49748046342E+01  0.13672389216E+01  0.38933111741E+01  0.64634275410E+01  0.51100000000E-03 0.  1.
        -12    1    3    3    0    0  0.38259361724E+02 -0.56984616162E+01 -0.10740426971E+02  0.40144837723E+02  0.00000000000E+00 0.  1.
</event>
<event>
 7    1  0.1891413E-013  0.7246153E+02  0.7816164E-02  0.1226708E+00
        -11   -1    0    0    0    0  0.00000000000E+00  0.00000000000E+00  0.45593999997E+02  0.45594000000E+02  0.51100000000E-03 0. -1.
         11   -1    0    0    0    0 -0.00000000000E+00 -0.00000000000E+00 -0.45593999997E+02  0.45594000000E+02  0.51100000000E-03 0.  1.
    9900012    2    1    2    0    0  0.16229889312E+02 -0.60924294220E+01 -0.70819297543E+01  0.72461528565E+02  0.69999945640E+02 0.  0.
        -12    1    1    2    0    0 -0.16229889312E+02  0.60924294220E+01  0.70819297543E+01  0.18726471435E+02  0.00000000000E+00 0.  1.
         11    1    3    3    0    0  0.13911982835E+02 -0.20787605724E+02 -0.22438540918E+02  0.33602915601E+02  0.51100000000E-03 0.  1.
        -11    1    3    3    0    0 -0.73750935385E+01 -0.80795235951E+01  0.44242212744E+01  0.11800188150E+02  0.51100000000E-03 0. -1.
         12    1    3    3    0    0  0.96930000161E+01  0.22774699898E+02  0.10932389889E+02  0.27058424814E+02  0.00000000000E+00 0. -1.
</event>
<event>
 7    1  0.1891413E-013  0.7246155E+02  0.7816164E-02  0.1226708E+00
        -11   -1    0    0    0    0  0.00000000000E+00  0.00000000000E+00  0.45593999997E+02  0.45594000000E+02  0.51100000000E-03 0.  1.
         11   -1    0    0    0    0 -0.00000000000E+00 -0.00000000000E+00 -0.45593999997E+02  0.45594000000E+02  0.51100000000E-03 0. -1.
    9900012    2    1    2    0    0 -0.11723942047E+02 -0.12304989099E+02 -0.78623351164E+01  0.72461551128E+02  0.69999975033E+02 0.  0.
        -12    1    1    2    0    0  0.11723942047E+02  0.12304989099E+02  0.78623351164E+01  0.18726448872E+02  0.00000000000E+00 0.  1.
         11    1    3    3    0    0 -0.99876386252E+01 -0.40605595699E+01 -0.34826939285E+01  0.11330058543E+02  0.51100000000E-03 0. -1.
        -11    1    3    3    0    0 -0.74282480596E+01 -0.27983895839E+02  0.15244458269E+02  0.32721106395E+02  0.51100000000E-03 0.  1.
         12    1    3    3    0    0  0.56919446373E+01  0.19739466310E+02 -0.19624099457E+02  0.28410386190E+02  0.00000000000E+00 0. -1.
</event>
<event>
 7    1  0.1891413E-013  0.7246165E+02  0.7816164E-02  0.1226708E+00
        -11   -1    0    0    0    0  0.00000000000E+00  0.00000000000E+00  0.45593999997E+02  0.45594000000E+02  0.51100000000E-03 0. -1.
         11   -1    0    0    0    0 -0.00000000000E+00 -0.00000000000E+00 -0.45593999997E+02  0.45594000000E+02  0.51100000000E-03 0.  1.
    9900012    2    1    2    0    0  0.17711504860E+02 -0.39800353919E+00 -0.60679645975E+01  0.72461654773E+02  0.70000110049E+02 0.  0.
        -12    1    1    2    0    0 -0.17711504860E+02  0.39800353919E+00  0.60679645975E+01  0.18726345227E+02  0.00000000000E+00 0.  1.
         11    1    3    3    0    0 -0.80837771860E+01 -0.79372723212E+01 -0.23739147467E+02  0.26303894545E+02  0.51100000000E-03 0. -1.
        -11    1    3    3    0    0  0.12161040317E+02 -0.90674057575E+01 -0.39506483696E+01  0.15675342789E+02  0.51100000000E-03 0.  1.
         12    1    3    3    0    0  0.13634241729E+02  0.16606674540E+02  0.21621831239E+02  0.30482417439E+02  0.00000000000E+00 0. -1.
</event>
<event>
 7    1  0.1891413E-013  0.7246158E+02  0.7816164E-02  0.1226708E+00
        -11   -1    0    0    0    0  0.00000000000E+00  0.00000000000E+00  0.45593999997E+02  0.45594000000E+02  0.51100000000E-03 0. -1.
         11   -1    0    0    0    0 -0.00000000000E+00 -0.00000000000E+00 -0.45593999997E+02  0.45594000000E+02  0.51100000000E-03 0.  1.
    9900012    2    1    2    0    0 -0.13587804765E+02 -0.18171104071E+01  0.12757296320E+02  0.72461576477E+02  0.70000008055E+02 0.  0.
        -12    1    1    2    0    0  0.13587804765E+02  0.18171104071E+01 -0.12757296320E+02  0.18726423523E+02  0.00000000000E+00 0.  1.
         11    1    3    3    0    0  0.12499196973E+02  0.21782207188E+02  0.11693170660E+02  0.27702431577E+02  0.51100000000E-03 0. -1.
        -11    1    3    3    0    0  0.58995790470E+00 -0.16133131310E+02 -0.39182286129E+01  0.16612600396E+02  0.51100000000E-03 0.  1.
        -12    1    3    3    0    0 -0.26676959643E+02 -0.74661862846E+01  0.49823542728E+01  0.28146544504E+02  0.00000000000E+00 0.  1.
</event>
<event>
 7    1  0.1891413E-013  0.7246163E+02  0.7816164E-02  0.1226708E+00
        -11   -1    0    0    0    0  0.00000000000E+00  0.00000000000E+00  0.45593999997E+02  0.45594000000E+02  0.51100000000E-03 0.  1.
         11   -1    0    0    0    0 -0.00000000000E+00 -0.00000000000E+00 -0.45593999997E+02  0.45594000000E+02  0.51100000000E-03 0. -1.
    9900012    2    1    2    0    0  0.71710432541E+01  0.16420695242E+02  0.54418624328E+01  0.72461629281E+02  0.70000076841E+02 0.  0.
        -12    1    1    2    0    0 -0.71710432541E+01 -0.16420695242E+02 -0.54418624328E+01  0.18726370719E+02  0.00000000000E+00 0.  1.
         11    1    3    3    0    0 -0.26576193139E+01  0.10734917261E+02 -0.19707473178E+02  0.22598360302E+02  0.51100000000E-03 0. -1.
        -11    1    3    3    0    0  0.19529996964E+01  0.60617309459E+01 -0.11083261008E+02  0.12782701777E+02  0.51100000000E-03 0.  1.
        -12    1    3    3    0    0  0.78756628716E+01 -0.37595296472E+00  0.36232596619E+02  0.37080567202E+02  0.00000000000E+00 0.  1.
</event>
<event>
 7    1  0.1891413E-013  0.7246157E+02  0.7816164E-02  0.1226708E+00
        -11   -1    0    0    0    0  0.00000000000E+00  0.00000000000E+00  0.45593999997E+02  0.45594000000E+02  0.51100000000E-03 0.  1.
         11   -1    0    0    0    0 -0.00000000000E+00 -0.00000000000E+00 -0.45593999997E+02  0.45594000000E+02  0.51100000000E-03 0. -1.
    9900012    2    1    2    0    0 -0.22936052005E+01  0.14141459280E+02 -0.12059750214E+02  0.72461572935E+02  0.70000003440E+02 0.  0.
        -12    1    1    2    0    0  0.22936052005E+01 -0.14141459280E+02  0.12059750214E+02  0.18726427065E+02  0.00000000000E+00 0.  1.
         11    1    3    3    0    0  0.53277290014E+01  0.43800278573E+01 -0.20349143779E+02  0.21486204717E+02  0.51100000000E-03 0. -1.
        -11    1    3    3    0    0  0.64413705147E+01  0.27103885690E+02  0.62778562616E+01  0.28557369506E+02  0.51100000000E-03 0.  1.
        -12    1    3    3    0    0 -0.14062704717E+02 -0.17342454267E+02  0.20115373030E+01  0.22417998712E+02  0.00000000000E+00 0.  1.
</event>
<event>
 7    1  0.1891413E-013  0.7246160E+02  0.7816164E-02  0.1226708E+00
        -11   -1    0    0    0    0  0.00000000000E+00  0.00000000000E+00  0.45593999997E+02  0.45594000000E+02  0.51100000000E-03 0. -1.
         11   -1    0    0    0    0 -0.00000000000E+00 -0.00000000000E+00 -0.45593999997E+02  0.45594000000E+02  0.51100000000E-03 0.  1.
    9900012    2    1    2    0    0  0.13156757915E+02 -0.91311354460E+01  0.97056758122E+01  0.72461600017E+02  0.70000038719E+02 0.  0.
        -12    1    1    2    0    0 -0.13156757915E+02  0.91311354460E+01 -0.97056758122E+01  0.18726399983E+02  0.00000000000E+00 0.  1.
         11    1    3    3    0    0  0.37896353756E+01  0.89818924335E+01  0.23112842191E+02  0.25084640766E+02  0.51100000000E-03 0. -1.
        -11    1    3    3    0    0  0.50438359285E+01 -0.30138605725E+01  0.14337784280E+02  0.15495021612E+02  0.51100000000E-03 0.  1.
        -12    1    3    3    0    0  0.43232866106E+01 -0.15099167307E+02 -0.27744950659E+02  0.31881937638E+02  0.00000000000E+00 0.  1.
</event>
<event>
 7    1  0.1891413E-013  0.7246155E+02  0.7816164E-02  0.1226708E+00
        -11   -1    0    0    0    0  0.00000000000E+00  0.00000000000E+00  0.45593999997E+02  0.45594000000E+02  0.51100000000E-03 0. -1.
         11   -1    0    0    0    0 -0.00000000000E+00 -0.00000000000E+00 -0.45593999997E+02  0.45594000000E+02  0.51100000000E-03 0.  1.
    9900012    2    1    2    0    0  0.42271583105E+01 -0.82829948581E+01  0.16254319151E+02  0.72461554468E+02  0.69999979383E+02 0.  0.
        -12    1    1    2    0    0 -0.42271583105E+01  0.82829948581E+01 -0.16254319151E+02  0.18726445532E+02  0.00000000000E+00 0.  1.
         11    1    3    3    0    0 -0.58661981773E+01 -0.28694590772E+02  0.20704780163E+02  0.35867530476E+02  0.51100000000E-03 0. -1.
        -11    1    3    3    0    0 -0.89081589454E+01  0.62379715702E+01 -0.67141107602E+01  0.12780722541E+02  0.51100000000E-03 0.  1.
        -12    1    3    3    0    0  0.19001515433E+02  0.14173624343E+02  0.22636497484E+01  0.23813301450E+02  0.00000000000E+00 0.  1.
</event>
<event>
 7    1  0.1891413E-013  0.7246148E+02  0.7816164E-02  0.1226708E+00
        -11   -1    0    0    0    0  0.00000000000E+00  0.00000000000E+00  0.45593999997E+02  0.45594000000E+02  0.51100000000E-03 0.  1.
         11   -1    0    0    0    0 -0.00000000000E+00 -0.00000000000E+00 -0.45593999997E+02  0.45594000000E+02  0.51100000000E-03 0. -1.
    9900012    2    1    2    0    0  0.61503363245E+00 -0.43917776462E+01 -0.18193864194E+02  0.72461476789E+02  0.69999878192E+02 0.  0.
        -12    1    1    2    0    0 -0.61503363245E+00  0.43917776462E+01  0.18193864194E+02  0.18726523211E+02  0.00000000000E+00 0.  1.
         11    1    3    3    0    0  0.58486911138E+01  0.11137136444E+02 -0.15680197357E+01  0.12676816717E+02  0.51100000000E-03 0. -1.
        -11    1    3    3    0    0 -0.14701896836E+02  0.15854328209E+02 -0.16172653166E+02  0.27001114870E+02  0.51100000000E-03 0.  1.
         12    1    3    3    0    0  0.94682393547E+01 -0.31383242299E+02 -0.45319129222E+00  0.32783545203E+02  0.00000000000E+00 0. -1.
</event>
<event>
 7    1  0.1891413E-013  0.7246158E+02  0.7816164E-02  0.1226708E+00
        -11   -1    0    0    0    0  0.00000000000E+00  0.00000000000E+00  0.45593999997E+02  0.45594000000E+02  0.51100000000E-03 0. -1.
         11   -1    0    0    0    0 -0.00000000000E+00 -0.00000000000E+00 -0.45593999997E+02  0.45594000000E+02  0.51100000000E-03 0.  1.
    9900012    2    1    2    0    0  0.15565412835E+02 -0.84971382027E+01  0.60162434774E+01  0.72461584969E+02  0.70000019116E+02 0.  0.
        -12    1    1    2    0    0 -0.15565412835E+02  0.84971382027E+01 -0.60162434774E+01  0.18726415031E+02  0.00000000000E+00 0.  1.
         11    1    3    3    0    0  0.12049485265E+02 -0.13271241979E+02 -0.17643452584E+02  0.25151687382E+02  0.51100000000E-03 0. -1.
        -11    1    3    3    0    0 -0.97755607904E+01 -0.12312451951E+02  0.67461221662E+00  0.15735728891E+02  0.51100000000E-03 0.  1.
        -12    1    3    3    0    0  0.13291488360E+02  0.17086555728E+02  0.22985083845E+02  0.31574168696E+02  0.00000000000E+00 0.  1.
</event>
<event>
 7    1  0.1891413E-013  0.7246148E+02  0.7816164E-02  0.1226708E+00
        -11   -1    0    0    0    0  0.00000000000E+00  0.00000000000E+00  0.45593999997E+02  0.45594000000E+02  0.51100000000E-03 0. -1.
         11   -1    0    0    0    0 -0.00000000000E+00 -0.00000000000E+00 -0.45593999997E+02  0.45594000000E+02  0.51100000000E-03 0.  1.
    9900012    2    1    2    0    0 -0.10660098615E+02 -0.15394433325E+02  0.23734100192E+00  0.72461478416E+02  0.69999880311E+02 0.  0.
        -12    1    1    2    0    0  0.10660098615E+02  0.15394433325E+02 -0.23734100192E+00  0.18726521584E+02  0.00000000000E+00 0.  1.
         11    1    3    3    0    0 -0.94548960778E+01 -0.13456203648E+02  0.28193389247E+02  0.32639419020E+02  0.51100000000E-03 0. -1.
        -11    1    3    3    0    0 -0.12875788327E+02 -0.66891637994E+01 -0.90464872952E+01  0.17098823644E+02  0.51100000000E-03 0.  1.
        -12    1    3    3    0    0  0.11670585789E+02  0.47509341221E+01 -0.18909560950E+02  0.22723235752E+02  0.00000000000E+00 0.  1.
</event>
<event>
 7    1  0.1891413E-013  0.7246156E+02  0.7816164E-02  0.1226708E+00
        -11   -1    0    0    0    0  0.00000000000E+00  0.00000000000E+00  0.45593999997E+02  0.45594000000E+02  0.51100000000E-03 0.  1.
         11   -1    0    0    0    0 -0.00000000000E+00 -0.00000000000E+00 -0.45593999997E+02  0.45594000000E+02  0.51100000000E-03 0. -1.
    9900012    2    1    2    0    0 -0.10555074652E+02  0.10649726738E+02 -0.11218436865E+02  0.72461558635E+02  0.69999984812E+02 0.  0.
        -12    1    1    2    0    0  0.10555074652E+02 -0.10649726738E+02  0.11218436865E+02  0.18726441365E+02  0.00000000000E+00 0.  1.
         11    1    3    3    0    0  0.11205092905E+01 -0.12973467695E+00 -0.15616262818E+01  0.19264083320E+01  0.51100000000E-03 0. -1.
        -11    1    3    3    0    0  0.31940958431E+01 -0.25198987137E+02  0.95351816196E+01  0.27131363581E+02  0.51100000000E-03 0.  1.
         12    1    3    3    0    0 -0.14869679785E+02  0.35978448552E+02 -0.19191992203E+02  0.43403786722E+02  0.00000000000E+00 0. -1.
</event>
<event>
 7    1  0.1891413E-013  0.7246155E+02  0.7816164E-02  0.1226708E+00
        -11   -1    0    0    0    0  0.00000000000E+00  0.00000000000E+00  0.45593999997E+02  0.45594000000E+02  0.51100000000E-03 0.  1.
         11   -1    0    0    0    0 -0.00000000000E+00 -0.00000000000E+00 -0.45593999997E+02  0.45594000000E+02  0.51100000000E-03 0. -1.
    9900012    2    1    2    0    0  0.18002498632E+02  0.66739366098E+00  0.51131888146E+01  0.72461546221E+02  0.69999968640E+02 0.  0.
        -12    1    1    2    0    0 -0.18002498632E+02 -0.66739366098E+00 -0.51131888146E+01  0.18726453779E+02  0.00000000000E+00 0.  1.
         11    1    3    3    0    0 -0.22943578181E+02 -0.71652729538E+01  0.22785536194E+01  0.24144165405E+02  0.51100000000E-03 0. -1.
        -11    1    3    3    0    0  0.12565423102E+02  0.14241738627E+02  0.29597732410E+01  0.19221790623E+02  0.51100000000E-03 0.  1.
        -12    1    3    3    0    0  0.28380653711E+02 -0.64090720125E+01 -0.12513804584E+00  0.29095590193E+02  0.00000000000E+00 0.  1.
</event>
<event>
 7    1  0.1891413E-013  0.7246158E+02  0.7816164E-02  0.1226708E+00
        -11   -1    0    0    0    0  0.00000000000E+00  0.00000000000E+00  0.45593999997E+02  0.45594000000E+02  0.51100000000E-03 0. -1.
         11   -1    0    0    0    0 -0.00000000000E+00 -0.00000000000E+00 -0.45593999997E+02  0.45594000000E+02  0.51100000000E-03 0.  1.
    9900012    2    1    2    0    0  0.11560871111E+02  0.13534680355E+02  0.58170148849E+01  0.72461575479E+02  0.70000006754E+02 0.  0.
        -12    1    1    2    0    0 -0.11560871111E+02 -0.13534680355E+02 -0.58170148849E+01  0.18726424521E+02  0.00000000000E+00 0.  1.
         11    1    3    3    0    0 -0.66709162000E+01  0.18677454400E+02  0.21416007706E+02  0.29188933042E+02  0.51100000000E-03 0. -1.
        -11    1    3    3    0    0 -0.74445764081E+01  0.17465559015E+01  0.54281905624E+01  0.93774958521E+01  0.51100000000E-03 0.  1.
         12    1    3    3    0    0  0.25676363719E+02 -0.68893299467E+01 -0.21027183383E+02  0.33895146585E+02  0.00000000000E+00 0. -1.
</event>
<event>
 7    1  0.1891413E-013  0.7246156E+02  0.7816164E-02  0.1226708E+00
        -11   -1    0    0    0    0  0.00000000000E+00  0.00000000000E+00  0.45593999997E+02  0.45594000000E+02  0.51100000000E-03 0.  1.
         11   -1    0    0    0    0 -0.00000000000E+00 -0.00000000000E+00 -0.45593999997E+02  0.45594000000E+02  0.51100000000E-03 0. -1.
    9900012    2    1    2    0    0  0.18708346912E+02 -0.73482125364E+00  0.37039206244E+00  0.72461564227E+02  0.69999992097E+02 0.  0.
        -12    1    1    2    0    0 -0.18708346912E+02  0.73482125364E+00 -0.37039206244E+00  0.18726435773E+02  0.00000000000E+00 0.  1.
         11    1    3    3    0    0  0.13259784922E+02 -0.29987782585E+02 -0.28654934048E+01  0.32913523866E+02  0.51100000000E-03 0. -1.
        -11    1    3    3    0    0  0.94593992999E-01  0.61278501156E+01 -0.10474864959E+02  0.12135991564E+02  0.51100000000E-03 0.  1.
        -12    1    3    3    0    0  0.53539679977E+01  0.23125111216E+02  0.13710750426E+02  0.27412048798E+02  0.00000000000E+00 0.  1.
</event>
<event>
 7    1  0.1891413E-013  0.7246149E+02  0.7816164E-02  0.1226708E+00
        -11   -1    0    0    0    0  0.00000000000E+00  0.00000000000E+00  0.45593999997E+02  0.45594000000E+02  0.51100000000E-03 0. -1.
         11   -1    0    0    0    0 -0.00000000000E+00 -0.00000000000E+00 -0.45593999997E+02  0.45594000000E+02  0.51100000000E-03 0.  1.
    9900012    2    1    2    0    0  0.15241919852E+02  0.68770729108E+01  0.84304267230E+01  0.72461485447E+02  0.69999889470E+02 0.  0.
        -12    1    1    2    0    0 -0.15241919852E+02 -0.68770729108E+01 -0.84304267230E+01  0.18726514553E+02  0.00000000000E+00 0.  1.
         11    1    3    3    0    0  0.10240690487E+02  0.12141962669E+02 -0.22493336305E+00  0.15885515238E+02  0.51100000000E-03 0. -1.
        -11    1    3    3    0    0  0.63079743580E+01  0.17676042549E+02  0.22848110547E+02  0.29568043164E+02  0.51100000000E-03 0.  1.
        -12    1    3    3    0    0 -0.13067449931E+01 -0.22940932308E+02 -0.14192750461E+02  0.27007927045E+02  0.00000000000E+00 0.  1.
</event>
<event>
 7    1  0.1891413E-013  0.7246159E+02  0.7816164E-02  0.1226708E+00
        -11   -1    0    0    0    0  0.00000000000E+00  0.00000000000E+00  0.45593999997E+02  0.45594000000E+02  0.51100000000E-03 0.  1.
         11   -1    0    0    0    0 -0.00000000000E+00 -0.00000000000E+00 -0.45593999997E+02  0.45594000000E+02  0.51100000000E-03 0. -1.
    9900012    2    1    2    0    0 -0.16156841513E+02  0.30010760748E+01 -0.89793388255E+01  0.72461587876E+02  0.70000022904E+02 0.  0.
        -12    1    1    2    0    0  0.16156841513E+02 -0.30010760748E+01  0.89793388255E+01  0.18726412124E+02  0.00000000000E+00 0.  1.
         11    1    3    3    0    0 -0.20778566449E+02 -0.10587454951E+02 -0.66275945669E+01  0.24243927817E+02  0.51100000000E-03 0. -1.
        -11    1    3    3    0    0 -0.14313253247E+02  0.15607261880E+02 -0.14468268474E+02  0.25647351419E+02  0.51100000000E-03 0.  1.
        -12    1    3    3    0    0  0.18934978182E+02 -0.20187308546E+01  0.12116524216E+02  0.22570308640E+02  0.00000000000E+00 0.  1.
</event>
<event>
 7    1  0.1891413E-013  0.7246161E+02  0.7816164E-02  0.1226708E+00
        -11   -1    0    0    0    0  0.00000000000E+00  0.00000000000E+00  0.45593999997E+02  0.45594000000E+02  0.51100000000E-03 0.  1.
         11   -1    0    0    0    0 -0.00000000000E+00 -0.00000000000E+00 -0.45593999997E+02  0.45594000000E+02  0.51100000000E-03 0. -1.
    9900012    2    1    2    0    0  0.98059341039E+01 -0.13743652999E+02  0.81014503545E+01  0.72461605813E+02  0.70000046270E+02 0.  0.
        -12    1    1    2    0    0 -0.98059341039E+01  0.13743652999E+02 -0.81014503545E+01  0.18726394187E+02  0.00000000000E+00 0.  1.
         11    1    3    3    0    0 -0.64245661455E+01 -0.44044110147E+01  0.11539183932E+02  0.13922164078E+02  0.51100000000E-03 0. -1.
        -11    1    3    3    0    0  0.49605625251E+01  0.19712057342E+02  0.12166968694E+02  0.23689818756E+02  0.51100000000E-03 0.  1.
         12    1    3    3    0    0  0.11269937724E+02 -0.29051299326E+02 -0.15604702271E+02  0.34849622979E+02  0.00000000000E+00 0. -1.
</event>
<event>
 7    1  0.1891413E-013  0.7246156E+02  0.7816164E-02  0.1226708E+00
        -11   -1    0    0    0    0  0.00000000000E+00  0.00000000000E+00  0.45593999997E+02  0.45594000000E+02  0.51100000000E-03 0.  1.
         11   -1    0    0    0    0 -0.00000000000E+00 -0.00000000000E+00 -0.45593999997E+02  0.45594000000E+02  0.51100000000E-03 0. -1.
    9900012    2    1    2    0    0  0.94740049128E+01  0.13659561880E+02 -0.86220161265E+01  0.72461559817E+02  0.69999986351E+02 0.  0.
        -12    1    1    2    0    0 -0.94740049128E+01 -0.13659561880E+02  0.86220161265E+01  0.18726440183E+02  0.00000000000E+00 0.  1.
         11    1    3    3    0    0 -0.36235636732E+01 -0.17172182182E+01  0.11378898379E+02  0.12064757796E+02  0.51100000000E-03 0.  1.
        -11    1    3    3    0    0  0.24998303951E+02  0.78194364093E+01 -0.32371644986E+02  0.41641111724E+02  0.51100000000E-03 0. -1.
         12    1    3    3    0    0 -0.11900735365E+02  0.75573436892E+01  0.12370730481E+02  0.18755690297E+02  0.00000000000E+00 0. -1.
</event>
<event>
 7    1  0.1891413E-013  0.7246152E+02  0.7816164E-02  0.1226708E+00
        -11   -1    0    0    0    0  0.00000000000E+00  0.00000000000E+00  0.45593999997E+02  0.45594000000E+02  0.51100000000E-03 0.  1.
         11   -1    0    0    0    0 -0.00000000000E+00 -0.00000000000E+00 -0.45593999997E+02  0.45594000000E+02  0.51100000000E-03 0. -1.
    9900012    2    1    2    0    0 -0.15009680661E+02 -0.85321149665E+01 -0.72521507181E+01  0.72461516363E+02  0.69999929745E+02 0.  0.
        -12    1    1    2    0    0  0.15009680661E+02  0.85321149665E+01  0.72521507181E+01  0.18726483637E+02  0.00000000000E+00 0.  1.
         11    1    3    3    0    0  0.51087770684E+01  0.48016741619E+01 -0.79956060238E+00  0.70565554848E+01  0.51100000000E-03 0. -1.
        -11    1    3    3    0    0  0.20979033138E+02 -0.10192232552E+02  0.17124539872E+01  0.23386618711E+02  0.51100000000E-03 0.  1.
         12    1    3    3    0    0 -0.41097490868E+02 -0.31415565761E+01 -0.81650441030E+01  0.42018342168E+02  0.00000000000E+00 0. -1.
</event>
<event>
 7    1  0.1891413E-013  0.7246156E+02  0.7816164E-02  0.1226708E+00
        -11   -1    0    0    0    0  0.00000000000E+00  0.00000000000E+00  0.45593999997E+02  0.45594000000E+02  0.51100000000E-03 0.  1.
         11   -1    0    0    0    0 -0.00000000000E+00 -0.00000000000E+00 -0.45593999997E+02  0.45594000000E+02  0.51100000000E-03 0. -1.
    9900012    2    1    2    0    0  0.14317054826E+02  0.15819902513E+01 -0.11966572641E+02  0.72461558459E+02  0.69999984582E+02 0.  0.
        -12    1    1    2    0    0 -0.14317054826E+02 -0.15819902513E+01  0.11966572641E+02  0.18726441541E+02  0.00000000000E+00 0.  1.
         11    1    3    3    0    0  0.25544893455E+02  0.70037440144E+01 -0.49006918358E+00  0.26492153176E+02  0.51100000000E-03 0.  1.
        -11    1    3    3    0    0 -0.11463277691E+01 -0.17893763968E+02 -0.20766189670E+02  0.27436025404E+02  0.51100000000E-03 0. -1.
         12    1    3    3    0    0 -0.10081510860E+02  0.12472010205E+02  0.92896862126E+01  0.18533379878E+02  0.00000000000E+00 0. -1.
</event>
<event>
 7    1  0.2202978E-013  0.7246153E+02  0.7816164E-02  0.1226708E+00
        -11   -1    0    0    0    0  0.00000000000E+00  0.00000000000E+00  0.45593999997E+02  0.45594000000E+02  0.51100000000E-03 0. -1.
         11   -1    0    0    0    0 -0.00000000000E+00 -0.00000000000E+00 -0.45593999997E+02  0.45594000000E+02  0.51100000000E-03 0.  1.
    9900012    2    1    2    0    0  0.54273268351E+01 -0.13277492285E+02  0.12038809480E+02  0.72461531789E+02  0.69999949840E+02 0.  0.
        -12    1    1    2    0    0 -0.54273268351E+01  0.13277492285E+02 -0.12038809480E+02  0.18726468211E+02  0.00000000000E+00 0.  1.
         11    1    3    3    0    0  0.33856140534E+01  0.12503700541E+02 -0.28586475695E+01  0.13265623842E+02  0.51100000000E-03 0. -1.
        -11    1    3    3    0    0 -0.15794148011E+02 -0.21827410720E+01 -0.11412520332E+02  0.19607781378E+02  0.51100000000E-03 0.  1.
         12    1    3    3    0    0  0.17835860793E+02 -0.23598451754E+02  0.26309977381E+02  0.39588126569E+02  0.00000000000E+00 0. -1.
</event>
<event>
 7    1  0.1891413E-013  0.7246155E+02  0.7816164E-02  0.1226708E+00
        -11   -1    0    0    0    0  0.00000000000E+00  0.00000000000E+00  0.45593999997E+02  0.45594000000E+02  0.51100000000E-03 0. -1.
         11   -1    0    0    0    0 -0.00000000000E+00 -0.00000000000E+00 -0.45593999997E+02  0.45594000000E+02  0.51100000000E-03 0.  1.
    9900012    2    1    2    0    0 -0.13575613160E+02  0.12067477461E+02 -0.45561508146E+01  0.72461553589E+02  0.69999978238E+02 0.  0.
        -12    1    1    2    0    0  0.13575613160E+02 -0.12067477461E+02  0.45561508146E+01  0.18726446411E+02  0.00000000000E+00 0.  1.
         11    1    3    3    0    0 -0.17676792836E+02  0.92644715168E+01  0.37121635699E+01  0.20299743745E+02  0.51100000000E-03 0. -1.
        -11    1    3    3    0    0 -0.98650382248E+01 -0.16050772033E+02 -0.18645193395E+02  0.26506404869E+02  0.51100000000E-03 0.  1.
         12    1    3    3    0    0  0.13966217901E+02  0.18853777977E+02  0.10376879011E+02  0.25655404976E+02  0.00000000000E+00 0. -1.
</event>
<event>
 7    1  0.1891413E-013  0.7246161E+02  0.7816164E-02  0.1226708E+00
        -11   -1    0    0    0    0  0.00000000000E+00  0.00000000000E+00  0.45593999997E+02  0.45594000000E+02  0.51100000000E-03 0. -1.
         11   -1    0    0    0    0 -0.00000000000E+00 -0.00000000000E+00 -0.45593999997E+02  0.45594000000E+02  0.51100000000E-03 0.  1.
    9900012    2    1    2    0    0 -0.58022714266E+01  0.16801166013E+02  0.58934104874E+01  0.72461606320E+02  0.70000046930E+02 0.  0.
        -12    1    1    2    0    0  0.58022714266E+01 -0.16801166013E+02 -0.58934104874E+01  0.18726393680E+02  0.00000000000E+00 0.  1.
         11    1    3    3    0    0 -0.20092914798E+02  0.33299562705E+01  0.10198214487E+02  0.22777563803E+02  0.51100000000E-03 0. -1.
        -11    1    3    3    0    0 -0.91099368033E+00  0.26088940897E+02  0.68605159262E+01  0.26991284254E+02  0.51100000000E-03 0.  1.
        -12    1    3    3    0    0  0.15201637051E+02 -0.12617731155E+02 -0.11165319925E+02  0.22692758263E+02  0.00000000000E+00 0.  1.
</event>
<event>
 7    1  0.1891413E-013  0.7246164E+02  0.7816164E-02  0.1226708E+00
        -11   -1    0    0    0    0  0.00000000000E+00  0.00000000000E+00  0.45593999997E+02  0.45594000000E+02  0.51100000000E-03 0. -1.
         11   -1    0    0    0    0 -0.00000000000E+00 -0.00000000000E+00 -0.45593999997E+02  0.45594000000E+02  0.51100000000E-03 0.  1.
    9900012    2    1    2    0    0  0.75277313803E+01  0.13544028047E+01  0.17093138583E+02  0.72461640682E+02  0.70000091693E+02 0.  0.
        -12    1    1    2    0    0 -0.75277313803E+01 -0.13544028047E+01 -0.17093138583E+02  0.18726359318E+02  0.00000000000E+00 0.  1.
         11    1    3    3    0    0  0.10328299580E+02 -0.74762613977E+01  0.42360965278E+01  0.13435504112E+02  0.51100000000E-03 0. -1.
        -11    1    3    3    0    0  0.13361335836E+02 -0.98231377705E+01 -0.14608333045E+02  0.22100287907E+02  0.51100000000E-03 0.  1.
        -12    1    3    3    0    0 -0.16161904035E+02  0.18653801973E+02  0.27465375100E+02  0.36925848663E+02  0.00000000000E+00 0.  1.
</event>
<event>
 7    1  0.1891413E-013  0.7246163E+02  0.7816164E-02  0.1226708E+00
        -11   -1    0    0    0    0  0.00000000000E+00  0.00000000000E+00  0.45593999997E+02  0.45594000000E+02  0.51100000000E-03 0. -1.
         11   -1    0    0    0    0 -0.00000000000E+00 -0.00000000000E+00 -0.45593999997E+02  0.45594000000E+02  0.51100000000E-03 0.  1.
    9900012    2    1    2    0    0  0.11652918153E+01 -0.38404145184E+01  0.18291263407E+02  0.72461628068E+02  0.70000075261E+02 0.  0.
        -12    1    1    2    0    0 -0.11652918153E+01  0.38404145184E+01 -0.18291263407E+02  0.18726371932E+02  0.00000000000E+00 0.  1.
         11    1    3    3    0    0 -0.40060450611E+01 -0.76015206948E+01  0.21374982236E+02  0.23037390906E+02  0.51100000000E-03 0. -1.
        -11    1    3    3    0    0  0.72719929045E+01 -0.21032132604E+02 -0.87379282060E+01  0.23907820316E+02  0.51100000000E-03 0.  1.
         12    1    3    3    0    0 -0.21006560282E+01  0.24793238780E+02  0.56542093775E+01  0.25516416846E+02  0.00000000000E+00 0. -1.
</event>
<event>
 7    1  0.1891413E-013  0.7246159E+02  0.7816164E-02  0.1226708E+00
        -11   -1    0    0    0    0  0.00000000000E+00  0.00000000000E+00  0.45593999997E+02  0.45594000000E+02  0.51100000000E-03 0. -1.
         11   -1    0    0    0    0 -0.00000000000E+00 -0.00000000000E+00 -0.45593999997E+02  0.45594000000E+02  0.51100000000E-03 0.  1.
    9900012    2    1    2    0    0  0.64077520401E+01  0.41017948321E+01  0.17111234769E+02  0.72461591845E+02  0.70000028074E+02 0.  0.
        -12    1    1    2    0    0 -0.64077520401E+01 -0.41017948321E+01 -0.17111234769E+02  0.18726408155E+02  0.00000000000E+00 0.  1.
         11    1    3    3    0    0 -0.98120607043E+00 -0.10579710301E+02  0.12853427978E+02  0.16676439862E+02  0.51100000000E-03 0. -1.
        -11    1    3    3    0    0 -0.33115403854E+01  0.30059523997E+02  0.15452656801E+02  0.33960652013E+02  0.51100000000E-03 0.  1.
         12    1    3    3    0    0  0.10700498496E+02 -0.15378018864E+02 -0.11194850010E+02  0.21824499971E+02  0.00000000000E+00 0. -1.
</event>
<event>
 7    1  0.1891413E-013  0.7246162E+02  0.7816164E-02  0.1226708E+00
        -11   -1    0    0    0    0  0.00000000000E+00  0.00000000000E+00  0.45593999997E+02  0.45594000000E+02  0.51100000000E-03 0.  1.
         11   -1    0    0    0    0 -0.00000000000E+00 -0.00000000000E+00 -0.45593999997E+02  0.45594000000E+02  0.51100000000E-03 0. -1.
    9900012    2    1    2    0    0 -0.12990844182E+02  0.34101318299E+01 -0.13049380612E+02  0.72461618448E+02  0.70000062729E+02 0.  0.
        -12    1    1    2    0    0  0.12990844182E+02 -0.34101318299E+01  0.13049380612E+02  0.18726381552E+02  0.00000000000E+00 0.  1.
         11    1    3    3    0    0 -0.70777180446E+01  0.55593678779E+01 -0.14819503453E+01  0.91212302354E+01  0.51100000000E-03 0. -1.
        -11    1    3    3    0    0 -0.11340174246E+02  0.13953693316E+02  0.20365734858E+02  0.27167411833E+02  0.51100000000E-03 0.  1.
         12    1    3    3    0    0  0.54270481086E+01 -0.16102929364E+02 -0.31933165125E+02  0.36172976380E+02  0.00000000000E+00 0. -1.
</event>
<event>
 7    1  0.1891413E-013  0.7246160E+02  0.7816164E-02  0.1226708E+00
        -11   -1    0    0    0    0  0.00000000000E+00  0.00000000000E+00  0.45593999997E+02  0.45594000000E+02  0.51100000000E-03 0. -1.
         11   -1    0    0    0    0 -0.00000000000E+00 -0.00000000000E+00 -0.45593999997E+02  0.45594000000E+02  0.51100000000E-03 0.  1.
    9900012    2    1    2    0    0 -0.23970123576E+01  0.88337128467E+01  0.16337010551E+02  0.72461599795E+02  0.70000038429E+02 0.  0.
        -12    1    1    2    0    0  0.23970123576E+01 -0.88337128467E+01 -0.16337010551E+02  0.18726400205E+02  0.00000000000E+00 0.  1.
         11    1    3    3    0    0  0.28900122710E+01 -0.36250464486E+01  0.72733162640E+01  0.86252108622E+01  0.51100000000E-03 0. -1.
        -11    1    3    3    0    0  0.24820336665E+02 -0.86145250628E+01  0.14939285569E+01  0.26315223294E+02  0.51100000000E-03 0.  1.
         12    1    3    3    0    0 -0.30107361293E+02  0.21073284358E+02  0.75697657304E+01  0.37521165639E+02  0.00000000000E+00 0. -1.
</event>
<event>
 7    1  0.1891413E-013  0.7246156E+02  0.7816164E-02  0.1226708E+00
        -11   -1    0    0    0    0  0.00000000000E+00  0.00000000000E+00  0.45593999997E+02  0.45594000000E+02  0.51100000000E-03 0. -1.
         11   -1    0    0    0    0 -0.00000000000E+00 -0.00000000000E+00 -0.45593999997E+02  0.45594000000E+02  0.51100000000E-03 0.  1.
    9900012    2    1    2    0    0  0.17765568065E+02  0.57463162361E+01  0.14296496207E+01  0.72461562619E+02  0.69999990001E+02 0.  0.
        -12    1    1    2    0    0 -0.17765568065E+02 -0.57463162361E+01 -0.14296496207E+01  0.18726437381E+02  0.00000000000E+00 0.  1.
         11    1    3    3    0    0  0.32741080407E+02 -0.11055929000E+02 -0.12007012256E+02  0.36583879727E+02  0.51100000000E-03 0. -1.
        -11    1    3    3    0    0  0.24282514777E+00  0.55696149533E+01 -0.63870669870E+01  0.84778652819E+01  0.51100000000E-03 0.  1.
        -12    1    3    3    0    0 -0.15218337490E+02  0.11232630283E+02  0.19823728864E+02  0.27399817611E+02  0.00000000000E+00 0.  1.
</event>
<event>
 7    1  0.1891413E-013  0.7246157E+02  0.7816164E-02  0.1226708E+00
        -11   -1    0    0    0    0  0.00000000000E+00  0.00000000000E+00  0.45593999997E+02  0.45594000000E+02  0.51100000000E-03 0. -1.
         11   -1    0    0    0    0 -0.00000000000E+00 -0.00000000000E+00 -0.45593999997E+02  0.45594000000E+02  0.51100000000E-03 0.  1.
    9900012    2    1    2    0    0 -0.10418977811E+02  0.15523799070E+02 -0.10657978953E+01  0.72461565172E+02  0.69999993328E+02 0.  0.
        -12    1    1    2    0    0  0.10418977811E+02 -0.15523799070E+02  0.10657978953E+01  0.18726434828E+02  0.00000000000E+00 0.  1.
         11    1    3    3    0    0 -0.10198417798E+01  0.34717697962E+02  0.16136530635E+02  0.38298123325E+02  0.51100000000E-03 0. -1.
        -11    1    3    3    0    0 -0.98733560794E+01 -0.18994813352E+01 -0.12863628827E+02  0.16326791983E+02  0.51100000000E-03 0.  1.
        -12    1    3    3    0    0  0.47422004824E+00 -0.17294417556E+02 -0.43386997036E+01  0.17836649864E+02  0.00000000000E+00 0.  1.
</event>
<event>
 7    1  0.1891413E-013  0.7246162E+02  0.7816164E-02  0.1226708E+00
        -11   -1    0    0    0    0  0.00000000000E+00  0.00000000000E+00  0.45593999997E+02  0.45594000000E+02  0.51100000000E-03 0.  1.
         11   -1    0    0    0    0 -0.00000000000E+00 -0.00000000000E+00 -0.45593999997E+02  0.45594000000E+02  0.51100000000E-03 0. -1.
    9900012    2    1    2    0    0 -0.31783600567E+01 -0.13160726571E+02 -0.12937183567E+02  0.72461617135E+02  0.70000061019E+02 0.  0.
        -12    1    1    2    0    0  0.31783600567E+01  0.13160726571E+02  0.12937183567E+02  0.18726382865E+02  0.00000000000E+00 0.  1.
         11    1    3    3    0    0 -0.60174405817E+01 -0.13242005338E+02  0.13087582964E+02  0.19566428509E+02  0.51100000000E-03 0. -1.
        -11    1    3    3    0    0 -0.43582658149E+01 -0.11917458609E+02  0.87482562116E+01  0.15412731348E+02  0.51100000000E-03 0.  1.
         12    1    3    3    0    0  0.71973463399E+01  0.11998737375E+02 -0.34773022743E+02  0.37482457278E+02  0.00000000000E+00 0. -1.
</event>
<event>
 7    1  0.1891413E-013  0.7246154E+02  0.7816164E-02  0.1226708E+00
        -11   -1    0    0    0    0  0.00000000000E+00  0.00000000000E+00  0.45593999997E+02  0.45594000000E+02  0.51100000000E-03 0. -1.
         11   -1    0    0    0    0 -0.00000000000E+00 -0.00000000000E+00 -0.45593999997E+02  0.45594000000E+02  0.51100000000E-03 0.  1.
    9900012    2    1    2    0    0  0.99533607950E+01  0.95784585254E+01  0.12643740338E+02  0.72461536677E+02  0.69999956208E+02 0.  0.
        -12    1    1    2    0    0 -0.99533607950E+01 -0.95784585254E+01 -0.12643740338E+02  0.18726463323E+02  0.00000000000E+00 0.  1.
         11    1    3    3    0    0  0.19958984810E+02  0.66110097553E+01  0.17853232758E+02  0.27582683786E+02  0.51100000000E-03 0. -1.
        -11    1    3    3    0    0  0.25631414979E+01  0.15793826252E+02  0.12004397275E+02  0.20003004680E+02  0.51100000000E-03 0.  1.
         12    1    3    3    0    0 -0.12568765513E+02 -0.12826377482E+02 -0.17213889695E+02  0.24875848212E+02  0.00000000000E+00 0. -1.
</event>
<event>
 7    1  0.1891413E-013  0.7246133E+02  0.7816164E-02  0.1226709E+00
        -11   -1    0    0    0    0  0.00000000000E+00  0.00000000000E+00  0.45593999997E+02  0.45594000000E+02  0.51100000000E-03 0. -1.
         11   -1    0    0    0    0 -0.00000000000E+00 -0.00000000000E+00 -0.45593999997E+02  0.45594000000E+02  0.51100000000E-03 0.  1.
    9900012    2    1    2    0    0 -0.18717410584E+02 -0.66558847112E-02  0.58890135529E+00  0.72461326294E+02  0.69999682144E+02 0.  0.
        -12    1    1    2    0    0  0.18717410584E+02  0.66558847112E-02 -0.58890135529E+00  0.18726673706E+02  0.00000000000E+00 0.  1.
         11    1    3    3    0    0  0.25816400596E+01  0.82713183516E+01 -0.29428153633E+01  0.91509417655E+01  0.51100000000E-03 0. -1.
        -11    1    3    3    0    0 -0.15350054975E+02  0.12856032639E+02 -0.21926223311E+02  0.29692777436E+02  0.51100000000E-03 0.  1.
         12    1    3    3    0    0 -0.59489956689E+01 -0.21134006876E+02  0.25457940029E+02  0.33617607092E+02  0.00000000000E+00 0. -1.
</event>
<event>
 7    1  0.1891413E-013  0.7246158E+02  0.7816164E-02  0.1226708E+00
        -11   -1    0    0    0    0  0.00000000000E+00  0.00000000000E+00  0.45593999997E+02  0.45594000000E+02  0.51100000000E-03 0.  1.
         11   -1    0    0    0    0 -0.00000000000E+00 -0.00000000000E+00 -0.45593999997E+02  0.45594000000E+02  0.51100000000E-03 0. -1.
    9900012    2    1    2    0    0 -0.18608939769E+02  0.15681239019E+01 -0.13881569662E+01  0.72461584655E+02  0.70000018708E+02 0.  0.
        -12    1    1    2    0    0  0.18608939769E+02 -0.15681239019E+01  0.13881569662E+01  0.18726415345E+02  0.00000000000E+00 0.  1.
         11    1    3    3    0    0 -0.50976633481E+01 -0.27909973687E+00  0.43576412168E+01  0.67121610163E+01  0.51100000000E-03 0. -1.
        -11    1    3    3    0    0  0.43534445515E+01 -0.14921032766E+01  0.27488158739E+02  0.27870732368E+02  0.51100000000E-03 0.  1.
         12    1    3    3    0    0 -0.17864720973E+02  0.33393269154E+01 -0.33233956922E+02  0.37878691270E+02  0.00000000000E+00 0. -1.
</event>
<event>
 7    1  0.1891413E-013  0.7246181E+02  0.7816164E-02  0.1226707E+00
        -11   -1    0    0    0    0  0.00000000000E+00  0.00000000000E+00  0.45593999997E+02  0.45594000000E+02  0.51100000000E-03 0. -1.
         11   -1    0    0    0    0 -0.00000000000E+00 -0.00000000000E+00 -0.45593999997E+02  0.45594000000E+02  0.51100000000E-03 0.  1.
    9900012    2    1    2    0    0  0.14026932897E+02 -0.11197495422E+02  0.53414828459E+01  0.72461810072E+02  0.70000312355E+02 0.  0.
        -12    1    1    2    0    0 -0.14026932897E+02  0.11197495422E+02 -0.53414828459E+01  0.18726189928E+02  0.00000000000E+00 0.  1.
         11    1    3    3    0    0  0.61481868662E+01 -0.23757499657E+02  0.42070812553E+01  0.24898163078E+02  0.51100000000E-03 0. -1.
        -11    1    3    3    0    0 -0.68772124825E+01  0.10736630144E+02  0.19892313409E+02  0.23627852450E+02  0.51100000000E-03 0.  1.
        -12    1    3    3    0    0  0.14755958513E+02  0.18233740911E+01 -0.18757911818E+02  0.23935794545E+02  0.00000000000E+00 0.  1.
</event>
<event>
 7    1  0.1891413E-013  0.7246159E+02  0.7816164E-02  0.1226708E+00
        -11   -1    0    0    0    0  0.00000000000E+00  0.00000000000E+00  0.45593999997E+02  0.45594000000E+02  0.51100000000E-03 0.  1.
         11   -1    0    0    0    0 -0.00000000000E+00 -0.00000000000E+00 -0.45593999997E+02  0.45594000000E+02  0.51100000000E-03 0. -1.
    9900012    2    1    2    0    0  0.15319521071E+02  0.92389703124E+01  0.55346182151E+01  0.72461593589E+02  0.70000030346E+02 0.  0.
        -12    1    1    2    0    0 -0.15319521071E+02 -0.92389703124E+01 -0.55346182151E+01  0.18726406411E+02  0.00000000000E+00 0.  1.
         11    1    3    3    0    0 -0.52096449188E+00 -0.16142592032E+01  0.21790253757E+01  0.27614106225E+01  0.51100000000E-03 0. -1.
        -11    1    3    3    0    0  0.36370085925E+02  0.40568687718E+01  0.20641128944E+02  0.42015444051E+02  0.51100000000E-03 0.  1.
         12    1    3    3    0    0 -0.20529600363E+02  0.67963607438E+01 -0.17285536105E+02  0.27684738916E+02  0.00000000000E+00 0. -1.
</event>
<event>
 7    1  0.1891413E-013  0.7246154E+02  0.7816164E-02  0.1226708E+00
        -11   -1    0    0    0    0  0.00000000000E+00  0.00000000000E+00  0.45593999997E+02  0.45594000000E+02  0.51100000000E-03 0.  1.
         11   -1    0    0    0    0 -0.00000000000E+00 -0.00000000000E+00 -0.45593999997E+02  0.45594000000E+02  0.51100000000E-03 0. -1.
    9900012    2    1    2    0    0 -0.13980208956E+02  0.97045724821E+01 -0.78138022921E+01  0.72461535417E+02  0.69999954565E+02 0.  0.
        -12    1    1    2    0    0  0.13980208956E+02 -0.97045724821E+01  0.78138022921E+01  0.18726464583E+02  0.00000000000E+00 0.  1.
         11    1    3    3    0    0 -0.26299928604E+02  0.16594393331E+02  0.11801657304E+02  0.33261678400E+02  0.51100000000E-03 0. -1.
        -11    1    3    3    0    0  0.66836711566E+01  0.37968336317E+01  0.67296960073E+01  0.10216467803E+02  0.51100000000E-03 0.  1.
        -12    1    3    3    0    0  0.56360484906E+01 -0.10686654480E+02 -0.26345155603E+02  0.28983389214E+02  0.00000000000E+00 0.  1.
</event>
<event>
 7    1  0.1891413E-013  0.7246148E+02  0.7816164E-02  0.1226708E+00
        -11   -1    0    0    0    0  0.00000000000E+00  0.00000000000E+00  0.45593999997E+02  0.45594000000E+02  0.51100000000E-03 0.  1.
         11   -1    0    0    0    0 -0.00000000000E+00 -0.00000000000E+00 -0.45593999997E+02  0.45594000000E+02  0.51100000000E-03 0. -1.
    9900012    2    1    2    0    0 -0.17815204846E+02 -0.18275551026E+01 -0.54736838791E+01  0.72461476122E+02  0.69999877322E+02 0.  0.
        -12    1    1    2    0    0  0.17815204846E+02  0.18275551026E+01  0.54736838791E+01  0.18726523878E+02  0.00000000000E+00 0.  1.
         11    1    3    3    0    0  0.86678132507E+01 -0.68790858979E+01 -0.25479946248E+02  0.27779137322E+02  0.51100000000E-03 0. -1.
        -11    1    3    3    0    0  0.48298178785E+00 -0.90944443485E+01  0.20635831603E+01  0.93381242836E+01  0.51100000000E-03 0.  1.
         12    1    3    3    0    0 -0.26965999885E+02  0.14145975144E+02  0.17942679208E+02  0.35344214516E+02  0.00000000000E+00 0. -1.
</event>
<event>
 7    1  0.1891413E-013  0.7246157E+02  0.7816164E-02  0.1226708E+00
        -11   -1    0    0    0    0  0.00000000000E+00  0.00000000000E+00  0.45593999997E+02  0.45594000000E+02  0.51100000000E-03 0.  1.
         11   -1    0    0    0    0 -0.00000000000E+00 -0.00000000000E+00 -0.45593999997E+02  0.45594000000E+02  0.51100000000E-03 0. -1.
    9900012    2    1    2    0    0  0.10147990793E+02 -0.15719610950E+02 -0.76896580506E+00  0.72461569641E+02  0.69999999149E+02 0.  0.
        -12    1    1    2    0    0 -0.10147990793E+02  0.15719610950E+02  0.76896580506E+00  0.18726430359E+02  0.00000000000E+00 0.  1.
         11    1    3    3    0    0  0.16380857863E+02 -0.11097933990E+01 -0.17365473276E+02  0.23898196754E+02  0.51100000000E-03 0. -1.
        -11    1    3    3    0    0 -0.16511274065E+02 -0.12984674325E+02 -0.75094085149E+01  0.22307289281E+02  0.51100000000E-03 0.  1.
        -12    1    3    3    0    0  0.10278406994E+02 -0.16251432262E+01  0.24105915986E+02  0.26256083606E+02  0.00000000000E+00 0.  1.
</event>
<event>
 7    1  0.1891413E-013  0.7246176E+02  0.7816164E-02  0.1226708E+00
        -11   -1    0    0    0    0  0.00000000000E+00  0.00000000000E+00  0.45593999997E+02  0.45594000000E+02  0.51100000000E-03 0. -1.
         11   -1    0    0    0    0 -0.00000000000E+00 -0.00000000000E+00 -0.45593999997E+02  0.45594000000E+02  0.51100000000E-03 0.  1.
    9900012    2    1    2    0    0 -0.11853199182E+02 -0.12429641272E+02  0.74617473562E+01  0.72461762080E+02  0.70000249836E+02 0.  0.
        -12    1    1    2    0    0  0.11853199182E+02  0.12429641272E+02 -0.74617473562E+01  0.18726237920E+02  0.00000000000E+00 0.  1.
         11    1    3    3    0    0 -0.84878316643E+01  0.15603489192E+02  0.12395594225E+02  0.21660168923E+02  0.51100000000E-03 0. -1.
        -11    1    3    3    0    0 -0.19256316355E+02 -0.12832384838E+02  0.89322006743E+01  0.24804435679E+02  0.51100000000E-03 0.  1.
        -12    1    3    3    0    0  0.15890948837E+02 -0.15200745626E+02 -0.13866047543E+02  0.25997157479E+02  0.00000000000E+00 0.  1.
</event>
<event>
 7    1  0.1891413E-013  0.7246174E+02  0.7816164E-02  0.1226708E+00
        -11   -1    0    0    0    0  0.00000000000E+00  0.00000000000E+00  0.45593999997E+02  0.45594000000E+02  0.51100000000E-03 0.  1.
         11   -1    0    0    0    0 -0.00000000000E+00 -0.00000000000E+00 -0.45593999997E+02  0.45594000000E+02  0.51100000000E-03 0. -1.
    9900012    2    1    2    0    0 -0.11120323449E+02 -0.77471107353E+01 -0.12922598917E+02  0.72461738197E+02  0.70000218724E+02 0.  0.
        -12    1    1    2    0    0  0.11120323449E+02  0.77471107353E+01  0.12922598917E+02  0.18726261803E+02  0.00000000000E+00 0.  1.
         11    1    3    3    0    0  0.14930381242E+02  0.42961768849E+01 -0.19498928233E+02  0.24931538709E+02  0.51100000000E-03 0. -1.
        -11    1    3    3    0    0  0.88802657197E+01 -0.59338152916E+01 -0.24083106937E+01  0.10948481348E+02  0.51100000000E-03 0.  1.
         12    1    3    3    0    0 -0.34930970411E+02 -0.61094723286E+01  0.89846400105E+01  0.36581718140E+02  0.00000000000E+00 0. -1.
</event>
<event>
 7    1  0.1891413E-013  0.7246171E+02  0.7816164E-02  0.1226708E+00
        -11   -1    0    0    0    0  0.00000000000E+00  0.00000000000E+00  0.45593999997E+02  0.45594000000E+02  0.51100000000E-03 0.  1.
         11   -1    0    0    0    0 -0.00000000000E+00 -0.00000000000E+00 -0.45593999997E+02  0.45594000000E+02  0.51100000000E-03 0. -1.
    9900012    2    1    2    0    0 -0.16867358260E+02  0.77892288029E+01 -0.23439621943E+01  0.72461707821E+02  0.70000179154E+02 0.  0.
        -12    1    1    2    0    0  0.16867358260E+02 -0.77892288029E+01  0.23439621943E+01  0.18726292179E+02  0.00000000000E+00 0.  1.
         11    1    3    3    0    0  0.20195012759E+01 -0.11806992221E+02 -0.21121745537E+02  0.24281918901E+02  0.51100000000E-03 0. -1.
        -11    1    3    3    0    0  0.32249219913E+01 -0.43456699013E+01 -0.53655433837E+01  0.76206315227E+01  0.51100000000E-03 0.  1.
         12    1    3    3    0    0 -0.22111781527E+02  0.23941890925E+02  0.24143326727E+02  0.40559157397E+02  0.00000000000E+00 0. -1.
</event>
<event>
 7    1  0.1891413E-013  0.7246155E+02  0.7816164E-02  0.1226708E+00
        -11   -1    0    0    0    0  0.00000000000E+00  0.00000000000E+00  0.45593999997E+02  0.45594000000E+02  0.51100000000E-03 0.  1.
         11   -1    0    0    0    0 -0.00000000000E+00 -0.00000000000E+00 -0.45593999997E+02  0.45594000000E+02  0.51100000000E-03 0. -1.
    9900012    2    1    2    0    0  0.17976434484E+01  0.18119075368E+02 -0.43757698306E+01  0.72461554108E+02  0.69999978914E+02 0.  0.
        -12    1    1    2    0    0 -0.17976434484E+01 -0.18119075368E+02  0.43757698306E+01  0.18726445892E+02  0.00000000000E+00 0.  1.
         11    1    3    3    0    0  0.24320913526E+02  0.25243618134E+02 -0.93248818879E+01  0.36272586256E+02  0.51100000000E-03 0. -1.
        -11    1    3    3    0    0  0.66497501811E+00  0.23630301370E+01  0.10284195565E+02  0.10573115997E+02  0.51100000000E-03 0.  1.
        -12    1    3    3    0    0 -0.23188245096E+02 -0.94875729029E+01 -0.53350835075E+01  0.25615851855E+02  0.00000000000E+00 0.  1.
</event>
<event>
 7    1  0.1891413E-013  0.7246155E+02  0.7816164E-02  0.1226708E+00
        -11   -1    0    0    0    0  0.00000000000E+00  0.00000000000E+00  0.45593999997E+02  0.45594000000E+02  0.51100000000E-03 0. -1.
         11   -1    0    0    0    0 -0.00000000000E+00 -0.00000000000E+00 -0.45593999997E+02  0.45594000000E+02  0.51100000000E-03 0.  1.
    9900012    2    1    2    0    0  0.17843254490E+02  0.56824582679E+01 -0.88669446195E-01  0.72461550122E+02  0.69999973722E+02 0.  0.
        -12    1    1    2    0    0 -0.17843254490E+02 -0.56824582679E+01  0.88669446195E-01  0.18726449878E+02  0.00000000000E+00 0.  1.
         11    1    3    3    0    0 -0.19219286809E+01  0.69873335989E+01 -0.84576134754E+01  0.11137677794E+02  0.51100000000E-03 0. -1.
        -11    1    3    3    0    0 -0.11521377443E+02 -0.13917465257E+02 -0.12212411156E+02  0.21807818870E+02  0.51100000000E-03 0.  1.
         12    1    3    3    0    0  0.31286560614E+02  0.12612589926E+02  0.20581355185E+02  0.39516053458E+02  0.00000000000E+00 0. -1.
</event>
<event>
 7    1  0.1891413E-013  0.7246154E+02  0.7816164E-02  0.1226708E+00
        -11   -1    0    0    0    0  0.00000000000E+00  0.00000000000E+00  0.45593999997E+02  0.45594000000E+02  0.51100000000E-03 0. -1.
         11   -1    0    0    0    0 -0.00000000000E+00 -0.00000000000E+00 -0.45593999997E+02  0.45594000000E+02  0.51100000000E-03 0.  1.
    9900012    2    1    2    0    0  0.44039286286E+01  0.18196486278E+02 -0.41654874952E+00  0.72461542431E+02  0.69999963702E+02 0.  0.
        -12    1    1    2    0    0 -0.44039286286E+01 -0.18196486278E+02  0.41654874952E+00  0.18726457569E+02  0.00000000000E+00 0.  1.
         11    1    3    3    0    0 -0.72676428172E+01 -0.45679008626E+01  0.15943458808E+02  0.18107408137E+02  0.51100000000E-03 0. -1.
        -11    1    3    3    0    0 -0.15464879657E+02  0.14489117149E+02 -0.14977317711E+02  0.25950280627E+02  0.51100000000E-03 0.  1.
         12    1    3    3    0    0  0.27136451103E+02  0.82752699919E+01 -0.13826898467E+01  0.28403853667E+02  0.00000000000E+00 0. -1.
</event>
<event>
 7    1  0.1891413E-013  0.7246147E+02  0.7816164E-02  0.1226708E+00
        -11   -1    0    0    0    0  0.00000000000E+00  0.00000000000E+00  0.45593999997E+02  0.45594000000E+02  0.51100000000E-03 0.  1.
         11   -1    0    0    0    0 -0.00000000000E+00 -0.00000000000E+00 -0.45593999997E+02  0.45594000000E+02  0.51100000000E-03 0. -1.
    9900012    2    1    2    0    0  0.13262452479E+02 -0.11548898096E+02 -0.64353112883E+01  0.72461470039E+02  0.69999869399E+02 0.  0.
        -12    1    1    2    0    0 -0.13262452479E+02  0.11548898096E+02  0.64353112883E+01  0.18726529961E+02  0.00000000000E+00 0.  1.
         11    1    3    3    0    0  0.27472840287E+02  0.24533622416E+01  0.26496500455E+01  0.27709142631E+02  0.51100000000E-03 0. -1.
        -11    1    3    3    0    0  0.46161777772E+01  0.10522522783E+02  0.24573446694E+01  0.11750367061E+02  0.51100000000E-03 0.  1.
        -12    1    3    3    0    0 -0.18826565585E+02 -0.24524783120E+02 -0.11542306003E+02  0.33001960347E+02  0.00000000000E+00 0.  1.
</event>
<event>
 7    1  0.1891413E-013  0.7246160E+02  0.7816164E-02  0.1226708E+00
        -11   -1    0    0    0    0  0.00000000000E+00  0.00000000000E+00  0.45593999997E+02  0.45594000000E+02  0.51100000000E-03 0. -1.
         11   -1    0    0    0    0 -0.00000000000E+00 -0.00000000000E+00 -0.45593999997E+02  0.45594000000E+02  0.51100000000E-03 0.  1.
    9900012    2    1    2    0    0 -0.17120850506E+02 -0.61176752762E+01  0.44864995849E+01  0.72461597479E+02  0.70000035413E+02 0.  0.
        -12    1    1    2    0    0  0.17120850506E+02  0.61176752762E+01 -0.44864995849E+01  0.18726402521E+02  0.00000000000E+00 0.  1.
         11    1    3    3    0    0 -0.31360447379E-01  0.11830475278E+02 -0.13339389505E+02  0.17829762798E+02  0.51100000000E-03 0. -1.
        -11    1    3    3    0    0  0.13665663809E+02  0.22631008256E+01  0.26361167509E+00  0.13854294788E+02  0.51100000000E-03 0.  1.
         12    1    3    3    0    0 -0.30755153868E+02 -0.20211251380E+02  0.17562277415E+02  0.40777539894E+02  0.00000000000E+00 0. -1.
</event>
<event>
 7    1  0.1891413E-013  0.7246158E+02  0.7816164E-02  0.1226708E+00
        -11   -1    0    0    0    0  0.00000000000E+00  0.00000000000E+00  0.45593999997E+02  0.45594000000E+02  0.51100000000E-03 0.  1.
         11   -1    0    0    0    0 -0.00000000000E+00 -0.00000000000E+00 -0.45593999997E+02  0.45594000000E+02  0.51100000000E-03 0. -1.
    9900012    2    1    2    0    0  0.11052092564E+02  0.13942483878E+02 -0.58427149993E+01  0.72461576815E+02  0.70000008495E+02 0.  0.
        -12    1    1    2    0    0 -0.11052092564E+02 -0.13942483878E+02  0.58427149993E+01  0.18726423185E+02  0.00000000000E+00 0.  1.
         11    1    3    3    0    0 -0.77685544968E+01  0.36558540923E+01 -0.61688474270E+01  0.10572151482E+02  0.51100000000E-03 0. -1.
        -11    1    3    3    0    0  0.16526244633E+02 -0.12956375157E+02 -0.21405974422E+02  0.29986666372E+02  0.51100000000E-03 0.  1.
         12    1    3    3    0    0  0.22944024278E+01  0.23243004942E+02  0.21732106850E+02  0.31902758962E+02  0.00000000000E+00 0. -1.
</event>
<event>
 7    1  0.1891413E-013  0.7246147E+02  0.7816164E-02  0.1226708E+00
        -11   -1    0    0    0    0  0.00000000000E+00  0.00000000000E+00  0.45593999997E+02  0.45594000000E+02  0.51100000000E-03 0.  1.
         11   -1    0    0    0    0 -0.00000000000E+00 -0.00000000000E+00 -0.45593999997E+02  0.45594000000E+02  0.51100000000E-03 0. -1.
    9900012    2    1    2    0    0 -0.13832281162E+02 -0.19946487202E+01 -0.12464848125E+02  0.72461466299E+02  0.69999864527E+02 0.  0.
        -12    1    1    2    0    0  0.13832281162E+02  0.19946487202E+01  0.12464848125E+02  0.18726533701E+02  0.00000000000E+00 0.  1.
         11    1    3    3    0    0 -0.90953593995E+01 -0.30147830115E+01 -0.87897143036E+01  0.13002828808E+02  0.51100000000E-03 0. -1.
        -11    1    3    3    0    0 -0.24544362729E+02 -0.18487093085E+02 -0.68360430218E+01  0.31479038056E+02  0.51100000000E-03 0.  1.
         12    1    3    3    0    0  0.19807440966E+02  0.19507227377E+02  0.31609092002E+01  0.27979599435E+02  0.00000000000E+00 0. -1.
</event>
<event>
 7    1  0.1891413E-013  0.7246168E+02  0.7816164E-02  0.1226708E+00
        -11   -1    0    0    0    0  0.00000000000E+00  0.00000000000E+00  0.45593999997E+02  0.45594000000E+02  0.51100000000E-03 0. -1.
         11   -1    0    0    0    0 -0.00000000000E+00 -0.00000000000E+00 -0.45593999997E+02  0.45594000000E+02  0.51100000000E-03 0.  1.
    9900012    2    1    2    0    0  0.13558145162E+02 -0.67435966056E+01  0.11017057947E+02  0.72461682658E+02  0.70000146374E+02 0.  0.
        -12    1    1    2    0    0 -0.13558145162E+02  0.67435966056E+01 -0.11017057947E+02  0.18726317342E+02  0.00000000000E+00 0.  1.
         11    1    3    3    0    0  0.97902271282E+01  0.95464087229E+01  0.10129862532E+02  0.17017537480E+02  0.51100000000E-03 0. -1.
        -11    1    3    3    0    0  0.19775797633E+02 -0.13782562925E+02  0.19327540935E+02  0.30896521676E+02  0.51100000000E-03 0.  1.
        -12    1    3    3    0    0 -0.16007879600E+02 -0.25074424038E+01 -0.18440345520E+02  0.24547623502E+02  0.00000000000E+00 0.  1.
</event>
<event>
 7    1  0.1891413E-013  0.7246156E+02  0.7816164E-02  0.1226708E+00
        -11   -1    0    0    0    0  0.00000000000E+00  0.00000000000E+00  0.45593999997E+02  0.45594000000E+02  0.51100000000E-03 0. -1.
         11   -1    0    0    0    0 -0.00000000000E+00 -0.00000000000E+00 -0.45593999997E+02  0.45594000000E+02  0.51100000000E-03 0.  1.
    9900012    2    1    2    0    0 -0.61450255090E+01  0.10040389646E+02  0.14563952335E+02  0.72461562262E+02  0.69999989536E+02 0.  0.
        -12    1    1    2    0    0  0.61450255090E+01 -0.10040389646E+02 -0.14563952335E+02  0.18726437738E+02  0.00000000000E+00 0.  1.
         11    1    3    3    0    0  0.10883786309E+02  0.20452694511E+02  0.27684067318E+02  0.36099544329E+02  0.51100000000E-03 0. -1.
        -11    1    3    3    0    0  0.65183282465E+01 -0.16588366820E+00  0.16654512662E+01  0.67297733024E+01  0.51100000000E-03 0.  1.
        -12    1    3    3    0    0 -0.23547140064E+02 -0.10246421197E+02 -0.14785566249E+02  0.29632244631E+02  0.00000000000E+00 0.  1.
</event>
<event>
 7    1  0.1891413E-013  0.7246157E+02  0.7816164E-02  0.1226708E+00
        -11   -1    0    0    0    0  0.00000000000E+00  0.00000000000E+00  0.45593999997E+02  0.45594000000E+02  0.51100000000E-03 0. -1.
         11   -1    0    0    0    0 -0.00000000000E+00 -0.00000000000E+00 -0.45593999997E+02  0.45594000000E+02  0.51100000000E-03 0.  1.
    9900012    2    1    2    0    0  0.12647317758E+02 -0.13545853438E+02  0.26896795589E+01  0.72461570335E+02  0.70000000053E+02 0.  0.
        -12    1    1    2    0    0 -0.12647317758E+02  0.13545853438E+02 -0.26896795589E+01  0.18726429665E+02  0.00000000000E+00 0.  1.
         11    1    3    3    0    0  0.55869485274E+01  0.23036774566E+01  0.31631928414E+02  0.32204034206E+02  0.51100000000E-03 0. -1.
        -11    1    3    3    0    0 -0.19898912156E+01 -0.79952865064E+01  0.71567291663E+00  0.82702153149E+01  0.51100000000E-03 0.  1.
        -12    1    3    3    0    0  0.90502604467E+01 -0.78542443885E+01 -0.29657921772E+02  0.31987320815E+02  0.00000000000E+00 0.  1.
</event>
<event>
 7    1  0.1891413E-013  0.7246152E+02  0.7816164E-02  0.1226708E+00
        -11   -1    0    0    0    0  0.00000000000E+00  0.00000000000E+00  0.45593999997E+02  0.45594000000E+02  0.51100000000E-03 0. -1.
         11   -1    0    0    0    0 -0.00000000000E+00 -0.00000000000E+00 -0.45593999997E+02  0.45594000000E+02  0.51100000000E-03 0.  1.
    9900012    2    1    2    0    0 -0.70382177506E+01  0.13162393293E+02  0.11309113896E+02  0.72461517058E+02  0.69999930649E+02 0.  0.
        -12    1    1    2    0    0  0.70382177506E+01 -0.13162393293E+02 -0.11309113896E+02  0.18726482942E+02  0.00000000000E+00 0.  1.
         11    1    3    3    0    0  0.59254163494E+01 -0.22570685626E+02 -0.23194611184E+01  0.23450507642E+02  0.51100000000E-03 0. -1.
        -11    1    3    3    0    0 -0.10629232396E+02  0.11358250691E+02 -0.69383184792E+01  0.17033223526E+02  0.51100000000E-03 0.  1.
        -12    1    3    3    0    0 -0.23344017038E+01  0.24374828227E+02  0.20566893493E+02  0.31977785889E+02  0.00000000000E+00 0.  1.
</event>
<event>
 7    1  0.1891413E-013  0.7246160E+02  0.7816164E-02  0.1226708E+00
        -11   -1    0    0    0    0  0.00000000000E+00  0.00000000000E+00  0.45593999997E+02  0.45594000000E+02  0.51100000000E-03 0. -1.
         11   -1    0    0    0    0 -0.00000000000E+00 -0.00000000000E+00 -0.45593999997E+02  0.45594000000E+02  0.51100000000E-03 0.  1.
    9900012    2    1    2    0    0 -0.15047394134E+02 -0.10973650108E+02  0.19577587697E+01  0.72461604556E+02  0.70000044633E+02 0.  0.
        -12    1    1    2    0    0  0.15047394134E+02  0.10973650108E+02 -0.19577587697E+01  0.18726395444E+02  0.00000000000E+00 0.  1.
         11    1    3    3    0    0 -0.47315342954E+00 -0.22973920272E+02  0.20712780069E+02  0.30936130096E+02  0.51100000000E-03 0. -1.
        -11    1    3    3    0    0 -0.12663862598E+02 -0.48626374431E+01 -0.20374811835E+02  0.24477573744E+02  0.51100000000E-03 0.  1.
        -12    1    3    3    0    0 -0.19103781058E+01  0.16862907607E+02  0.16197905357E+01  0.17047900717E+02  0.00000000000E+00 0.  1.
</event>
<event>
 7    1  0.1891413E-013  0.7246158E+02  0.7816164E-02  0.1226708E+00
        -11   -1    0    0    0    0  0.00000000000E+00  0.00000000000E+00  0.45593999997E+02  0.45594000000E+02  0.51100000000E-03 0. -1.
         11   -1    0    0    0    0 -0.00000000000E+00 -0.00000000000E+00 -0.45593999997E+02  0.45594000000E+02  0.51100000000E-03 0.  1.
    9900012    2    1    2    0    0 -0.18005990184E+02 -0.36263342733E+01  0.36486873581E+01  0.72461577432E+02  0.70000009298E+02 0.  0.
        -12    1    1    2    0    0  0.18005990184E+02  0.36263342733E+01 -0.36486873581E+01  0.18726422568E+02  0.00000000000E+00 0.  1.
         11    1    3    3    0    0  0.31187262748E+01 -0.40495712370E+01  0.40705675550E+01  0.65341412030E+01  0.51100000000E-03 0. -1.
        -11    1    3    3    0    0  0.45576864233E+01 -0.16837258345E+02 -0.22093603988E+02  0.28149477997E+02  0.51100000000E-03 0.  1.
         12    1    3    3    0    0 -0.25682402882E+02  0.17260495308E+02  0.21671723791E+02  0.37777958232E+02  0.00000000000E+00 0. -1.
</event>
<event>
 7    1  0.1891413E-013  0.7246156E+02  0.7816164E-02  0.1226708E+00
        -11   -1    0    0    0    0  0.00000000000E+00  0.00000000000E+00  0.45593999997E+02  0.45594000000E+02  0.51100000000E-03 0.  1.
         11   -1    0    0    0    0 -0.00000000000E+00 -0.00000000000E+00 -0.45593999997E+02  0.45594000000E+02  0.51100000000E-03 0. -1.
    9900012    2    1    2    0    0  0.17972072367E+02  0.86149392144E+00  0.51905632234E+01  0.72461561377E+02  0.69999988383E+02 0.  0.
        -12    1    1    2    0    0 -0.17972072367E+02 -0.86149392144E+00 -0.51905632234E+01  0.18726438623E+02  0.00000000000E+00 0.  1.
         11    1    3    3    0    0 -0.10874262786E+02 -0.17523701804E+01 -0.69466738218E+01  0.13022160721E+02  0.51100000000E-03 0. -1.
        -11    1    3    3    0    0 -0.19753399156E+01 -0.94030199960E+01 -0.14206241298E+02  0.17150394890E+02  0.51100000000E-03 0.  1.
        -12    1    3    3    0    0  0.30821675068E+02  0.12016884098E+02  0.26343478343E+02  0.42289005766E+02  0.00000000000E+00 0.  1.
</event>
<event>
 7    1  0.1891413E-013  0.7246150E+02  0.7816164E-02  0.1226708E+00
        -11   -1    0    0    0    0  0.00000000000E+00  0.00000000000E+00  0.45593999997E+02  0.45594000000E+02  0.51100000000E-03 0. -1.
         11   -1    0    0    0    0 -0.00000000000E+00 -0.00000000000E+00 -0.45593999997E+02  0.45594000000E+02  0.51100000000E-03 0.  1.
    9900012    2    1    2    0    0 -0.11679213513E+02  0.12922556091E+02  0.68764191966E+01  0.72461504728E+02  0.69999914587E+02 0.  0.
        -12    1    1    2    0    0  0.11679213513E+02 -0.12922556091E+02 -0.68764191966E+01  0.18726495272E+02  0.00000000000E+00 0.  1.
         11    1    3    3    0    0 -0.90891641310E+01  0.25792659005E+02 -0.27824180073E+01  0.27488470554E+02  0.51100000000E-03 0. -1.
        -11    1    3    3    0    0 -0.14132776219E+02  0.10170937082E+01 -0.10702991826E+02  0.17757361221E+02  0.51100000000E-03 0.  1.
        -12    1    3    3    0    0  0.11542726837E+02 -0.13887196622E+02  0.20361829030E+02  0.27215672953E+02  0.00000000000E+00 0.  1.
</event>
<event>
 7    1  0.1891413E-013  0.7246163E+02  0.7816164E-02  0.1226708E+00
        -11   -1    0    0    0    0  0.00000000000E+00  0.00000000000E+00  0.45593999997E+02  0.45594000000E+02  0.51100000000E-03 0.  1.
         11   -1    0    0    0    0 -0.00000000000E+00 -0.00000000000E+00 -0.45593999997E+02  0.45594000000E+02  0.51100000000E-03 0. -1.
    9900012    2    1    2    0    0  0.66510656073E+01  0.43887738148E+01  0.16946358016E+02  0.72461626638E+02  0.70000073398E+02 0.  0.
        -12    1    1    2    0    0 -0.66510656073E+01 -0.43887738148E+01 -0.16946358016E+02  0.18726373362E+02  0.00000000000E+00 0.  1.
         11    1    3    3    0    0  0.34506551769E+01  0.54977602066E+00  0.66256350415E+01  0.74905483636E+01  0.51100000000E-03 0. -1.
        -11    1    3    3    0    0  0.19314980480E+02 -0.22710423831E+02  0.15311715998E+02  0.33515376599E+02  0.51100000000E-03 0.  1.
         12    1    3    3    0    0 -0.16114570050E+02  0.26549421625E+02 -0.49909930245E+01  0.31455701675E+02  0.00000000000E+00 0. -1.
</event>
<event>
 7    1  0.1891413E-013  0.7246159E+02  0.7816164E-02  0.1226708E+00
        -11   -1    0    0    0    0  0.00000000000E+00  0.00000000000E+00  0.45593999997E+02  0.45594000000E+02  0.51100000000E-03 0. -1.
         11   -1    0    0    0    0 -0.00000000000E+00 -0.00000000000E+00 -0.45593999997E+02  0.45594000000E+02  0.51100000000E-03 0.  1.
    9900012    2    1    2    0    0  0.81942744111E+00 -0.18890224159E+00  0.18707518635E+02  0.72461590871E+02  0.70000026805E+02 0.  0.
        -12    1    1    2    0    0 -0.81942744111E+00  0.18890224159E+00 -0.18707518635E+02  0.18726409129E+02  0.00000000000E+00 0.  1.
         11    1    3    3    0    0 -0.10162563467E+02 -0.74606878176E+01 -0.16764949923E+01  0.12718104995E+02  0.51100000000E-03 0. -1.
        -11    1    3    3    0    0 -0.11328048732E+01  0.22084425386E+02 -0.96532370670E+01  0.24128615328E+02  0.51100000000E-03 0.  1.
         12    1    3    3    0    0  0.12114795781E+02 -0.14812639810E+02  0.30037250694E+02  0.35614870549E+02  0.00000000000E+00 0. -1.
</event>
<event>
 7    1  0.1891413E-013  0.7246151E+02  0.7816164E-02  0.1226708E+00
        -11   -1    0    0    0    0  0.00000000000E+00  0.00000000000E+00  0.45593999997E+02  0.45594000000E+02  0.51100000000E-03 0. -1.
         11   -1    0    0    0    0 -0.00000000000E+00 -0.00000000000E+00 -0.45593999997E+02  0.45594000000E+02  0.51100000000E-03 0.  1.
    9900012    2    1    2    0    0 -0.50081243900E+01 -0.29744774953E+01  0.17797542077E+02  0.72461512602E+02  0.69999924845E+02 0.  0.
        -12    1    1    2    0    0  0.50081243900E+01  0.29744774953E+01 -0.17797542077E+02  0.18726487398E+02  0.00000000000E+00 0.  1.
         11    1    3    3    0    0 -0.19147390423E+00  0.14482023737E+02  0.56328564878E+01  0.15540101230E+02  0.51100000000E-03 0. -1.
        -11    1    3    3    0    0  0.17110721684E+02  0.77229226407E+01 -0.49320444324E+01  0.19409930273E+02  0.51100000000E-03 0.  1.
         12    1    3    3    0    0 -0.21927372170E+02 -0.25179423873E+02  0.17096730021E+02  0.37511481099E+02  0.00000000000E+00 0. -1.
</event>
<event>
 7    1  0.1891413E-013  0.7246156E+02  0.7816164E-02  0.1226708E+00
        -11   -1    0    0    0    0  0.00000000000E+00  0.00000000000E+00  0.45593999997E+02  0.45594000000E+02  0.51100000000E-03 0.  1.
         11   -1    0    0    0    0 -0.00000000000E+00 -0.00000000000E+00 -0.45593999997E+02  0.45594000000E+02  0.51100000000E-03 0. -1.
    9900012    2    1    2    0    0  0.38350690702E+01  0.21634318752E+01 -0.18201408462E+02  0.72461562478E+02  0.69999989818E+02 0.  0.
        -12    1    1    2    0    0 -0.38350690702E+01 -0.21634318752E+01  0.18201408462E+02  0.18726437522E+02  0.00000000000E+00 0.  1.
         11    1    3    3    0    0 -0.94095124945E+01 -0.25193530380E+01 -0.12316825484E+01  0.98185084038E+01  0.51100000000E-03 0. -1.
        -11    1    3    3    0    0  0.52706473725E+01  0.10014669390E+02  0.20797240116E+02  0.23676961871E+02  0.51100000000E-03 0.  1.
         12    1    3    3    0    0  0.79739341923E+01 -0.53318844768E+01 -0.37766966030E+02  0.38966092204E+02  0.00000000000E+00 0. -1.
</event>
<event>
 7    1  0.1891413E-013  0.7246157E+02  0.7816164E-02  0.1226708E+00
        -11   -1    0    0    0    0  0.00000000000E+00  0.00000000000E+00  0.45593999997E+02  0.45594000000E+02  0.51100000000E-03 0.  1.
         11   -1    0    0    0    0 -0.00000000000E+00 -0.00000000000E+00 -0.45593999997E+02  0.45594000000E+02  0.51100000000E-03 0. -1.
    9900012    2    1    2    0    0 -0.72358791534E+01 -0.47775810979E+01 -0.16598075121E+02  0.72461566117E+02  0.69999994558E+02 0.  0.
        -12    1    1    2    0    0  0.72358791534E+01  0.47775810979E+01  0.16598075121E+02  0.18726433883E+02  0.00000000000E+00 0.  1.
         11    1    3    3    0    0 -0.12002976816E+02  0.16330804866E+02 -0.43414353589E+01  0.20727148894E+02  0.51100000000E-03 0. -1.
        -11    1    3    3    0    0 -0.19407168345E+02 -0.96231782246E+01  0.13621552621E+01  0.21704819961E+02  0.51100000000E-03 0.  1.
        -12    1    3    3    0    0  0.24174266008E+02 -0.11485207739E+02 -0.13618795024E+02  0.30029597262E+02  0.00000000000E+00 0.  1.
</event>
<event>
 7    1  0.1891413E-013  0.7246152E+02  0.7816164E-02  0.1226708E+00
        -11   -1    0    0    0    0  0.00000000000E+00  0.00000000000E+00  0.45593999997E+02  0.45594000000E+02  0.51100000000E-03 0. -1.
         11   -1    0    0    0    0 -0.00000000000E+00 -0.00000000000E+00 -0.45593999997E+02  0.45594000000E+02  0.51100000000E-03 0.  1.
    9900012    2    1    2    0    0  0.10882370475E+02 -0.63030235480E+01  0.13875402556E+02  0.72461524381E+02  0.69999940190E+02 0.  0.
        -12    1    1    2    0    0 -0.10882370475E+02  0.63030235480E+01 -0.13875402556E+02  0.18726475619E+02  0.00000000000E+00 0.  1.
         11    1    3    3    0    0  0.33857947314E+01 -0.10936480191E+02  0.70696424602E+01  0.13455484002E+02  0.51100000000E-03 0. -1.
        -11    1    3    3    0    0  0.19716044926E+02 -0.15324728886E+02  0.20131933811E+02  0.32075917792E+02  0.51100000000E-03 0.  1.
        -12    1    3    3    0    0 -0.12219469183E+02  0.19958185529E+02 -0.13326173715E+02  0.26930122588E+02  0.00000000000E+00 0.  1.
</event>
<event>
 7    1  0.1891413E-013  0.7246190E+02  0.7816164E-02  0.1226707E+00
        -11   -1    0    0    0    0  0.00000000000E+00  0.00000000000E+00  0.45593999997E+02  0.45594000000E+02  0.51100000000E-03 0.  1.
         11   -1    0    0    0    0 -0.00000000000E+00 -0.00000000000E+00 -0.45593999997E+02  0.45594000000E+02  0.51100000000E-03 0. -1.
    9900012    2    1    2    0    0 -0.11507067226E+02  0.94250161952E+01 -0.11376442782E+02  0.72461895846E+02  0.70000424090E+02 0.  0.
        -12    1    1    2    0    0  0.11507067226E+02 -0.94250161952E+01  0.11376442782E+02  0.18726104154E+02  0.00000000000E+00 0.  1.
         11    1    3    3    0    0 -0.21391976497E+02 -0.17482658200E+02  0.82297732816E+01  0.28826882674E+02  0.51100000000E-03 0. -1.
        -11    1    3    3    0    0 -0.50679077430E+01  0.15923062487E+02 -0.18672312755E+02  0.25057591100E+02  0.51100000000E-03 0.  1.
        -12    1    3    3    0    0  0.14952817015E+02  0.10984611908E+02 -0.93390330940E+00  0.18577422072E+02  0.00000000000E+00 0.  1.
</event>
<event>
 7    1  0.1891413E-013  0.7246146E+02  0.7816164E-02  0.1226708E+00
        -11   -1    0    0    0    0  0.00000000000E+00  0.00000000000E+00  0.45593999997E+02  0.45594000000E+02  0.51100000000E-03 0.  1.
         11   -1    0    0    0    0 -0.00000000000E+00 -0.00000000000E+00 -0.45593999997E+02  0.45594000000E+02  0.51100000000E-03 0. -1.
    9900012    2    1    2    0    0 -0.17995850891E+02 -0.46786558871E+01 -0.22232729000E+01  0.72461457004E+02  0.69999852418E+02 0.  0.
        -12    1    1    2    0    0  0.17995850891E+02  0.46786558871E+01  0.22232729000E+01  0.18726542996E+02  0.00000000000E+00 0.  1.
         11    1    3    3    0    0  0.53263275515E+01  0.50519714995E+00  0.60748452482E+01  0.80949820504E+01  0.51100000000E-03 0. -1.
        -11    1    3    3    0    0 -0.17595846477E+01 -0.18226399323E+02  0.19565431460E+02  0.26797460307E+02  0.51100000000E-03 0.  1.
         12    1    3    3    0    0 -0.21562593794E+02  0.13042546286E+02 -0.27863549608E+02  0.37569014647E+02  0.00000000000E+00 0. -1.
</event>
<event>
 7    1  0.1891413E-013  0.7246157E+02  0.7816164E-02  0.1226708E+00
        -11   -1    0    0    0    0  0.00000000000E+00  0.00000000000E+00  0.45593999997E+02  0.45594000000E+02  0.51100000000E-03 0.  1.
         11   -1    0    0    0    0 -0.00000000000E+00 -0.00000000000E+00 -0.45593999997E+02  0.45594000000E+02  0.51100000000E-03 0. -1.
    9900012    2    1    2    0    0  0.14006984580E+02 -0.12022313676E+02  0.31539447020E+01  0.72461574545E+02  0.70000005537E+02 0.  0.
        -12    1    1    2    0    0 -0.14006984580E+02  0.12022313676E+02 -0.31539447020E+01  0.18726425455E+02  0.00000000000E+00 0.  1.
         11    1    3    3    0    0  0.39669316521E+01 -0.60528811130E+01 -0.21671772729E+02  0.22848187017E+02  0.51100000000E-03 0. -1.
        -11    1    3    3    0    0  0.19648625808E+02  0.13863083946E+01 -0.23772087612E+01  0.19840399917E+02  0.51100000000E-03 0.  1.
        -12    1    3    3    0    0 -0.96085728806E+01 -0.73557409577E+01  0.27202926192E+02  0.29772987610E+02  0.00000000000E+00 0.  1.
</event>
<event>
 7    1  0.1891413E-013  0.7246154E+02  0.7816164E-02  0.1226708E+00
        -11   -1    0    0    0    0  0.00000000000E+00  0.00000000000E+00  0.45593999997E+02  0.45594000000E+02  0.51100000000E-03 0.  1.
         11   -1    0    0    0    0 -0.00000000000E+00 -0.00000000000E+00 -0.45593999997E+02  0.45594000000E+02  0.51100000000E-03 0. -1.
    9900012    2    1    2    0    0  0.15938795376E+02  0.56060680006E+01 -0.80750814312E+01  0.72461544473E+02  0.69999966363E+02 0.  0.
        -12    1    1    2    0    0 -0.15938795376E+02 -0.56060680006E+01  0.80750814312E+01  0.18726455527E+02  0.00000000000E+00 0.  1.
         11    1    3    3    0    0 -0.13837596528E+01 -0.15344707032E+01  0.40644125756E+01  0.45594781457E+01  0.51100000000E-03 0. -1.
        -11    1    3    3    0    0 -0.17612359298E+02 -0.16810444013E+02 -0.26115073191E+01  0.24486857673E+02  0.51100000000E-03 0.  1.
         12    1    3    3    0    0  0.34934914328E+02  0.23950982717E+02 -0.95279866877E+01  0.43415208654E+02  0.00000000000E+00 0. -1.
</event>
<event>
 7    1  0.1891413E-013  0.7246148E+02  0.7816164E-02  0.1226708E+00
        -11   -1    0    0    0    0  0.00000000000E+00  0.00000000000E+00  0.45593999997E+02  0.45594000000E+02  0.51100000000E-03 0. -1.
         11   -1    0    0    0    0 -0.00000000000E+00 -0.00000000000E+00 -0.45593999997E+02  0.45594000000E+02  0.51100000000E-03 0.  1.
    9900012    2    1    2    0    0 -0.12731666561E+02  0.95400613702E+01  0.98779692713E+01  0.72461484540E+02  0.69999888288E+02 0.  0.
        -12    1    1    2    0    0  0.12731666561E+02 -0.95400613702E+01 -0.98779692713E+01  0.18726515460E+02  0.00000000000E+00 0.  1.
         11    1    3    3    0    0 -0.97853006314E+01 -0.16317614295E+02  0.22362801927E+02  0.29361736240E+02  0.51100000000E-03 0. -1.
        -11    1    3    3    0    0  0.13143239735E+01  0.19559649283E+02  0.80576603041E+01  0.21195122492E+02  0.51100000000E-03 0.  1.
         12    1    3    3    0    0 -0.42606899030E+01  0.62980263821E+01 -0.20542492960E+02  0.21904625808E+02  0.00000000000E+00 0. -1.
</event>
<event>
 7    1  0.1891413E-013  0.7246157E+02  0.7816164E-02  0.1226708E+00
        -11   -1    0    0    0    0  0.00000000000E+00  0.00000000000E+00  0.45593999997E+02  0.45594000000E+02  0.51100000000E-03 0.  1.
         11   -1    0    0    0    0 -0.00000000000E+00 -0.00000000000E+00 -0.45593999997E+02  0.45594000000E+02  0.51100000000E-03 0. -1.
    9900012    2    1    2    0    0 -0.16592448372E+01  0.34936383816E+01 -0.18322675492E+02  0.72461573759E+02  0.70000004514E+02 0.  0.
        -12    1    1    2    0    0  0.16592448372E+01 -0.34936383816E+01  0.18322675492E+02  0.18726426241E+02  0.00000000000E+00 0.  1.
         11    1    3    3    0    0  0.26483600607E+02 -0.12179791994E+02 -0.10453669430E+02  0.30967848471E+02  0.51100000000E-03 0. -1.
        -11    1    3    3    0    0 -0.13817623279E+02 -0.45791251975E+01 -0.81549330922E+01  0.16685263997E+02  0.51100000000E-03 0.  1.
        -12    1    3    3    0    0 -0.14325222165E+02  0.20252555573E+02  0.28592703059E+00  0.24808461291E+02  0.00000000000E+00 0.  1.
</event>
<event>
 7    1  0.1891413E-013  0.7246149E+02  0.7816164E-02  0.1226708E+00
        -11   -1    0    0    0    0  0.00000000000E+00  0.00000000000E+00  0.45593999997E+02  0.45594000000E+02  0.51100000000E-03 0. -1.
         11   -1    0    0    0    0 -0.00000000000E+00 -0.00000000000E+00 -0.45593999997E+02  0.45594000000E+02  0.51100000000E-03 0.  1.
    9900012    2    1    2    0    0 -0.16606021760E+02 -0.14646555267E+01  0.85309400905E+01  0.72461491694E+02  0.69999897608E+02 0.  0.
        -12    1    1    2    0    0  0.16606021760E+02  0.14646555267E+01 -0.85309400905E+01  0.18726508306E+02  0.00000000000E+00 0.  1.
         11    1    3    3    0    0 -0.16715285520E+02  0.29284165467E+01  0.57326224013E+01  0.17911989095E+02  0.51100000000E-03 0. -1.
        -11    1    3    3    0    0 -0.14407813600E+02  0.14703904237E+01 -0.21332740756E+02  0.25784355124E+02  0.51100000000E-03 0.  1.
         12    1    3    3    0    0  0.14517077360E+02 -0.58634624971E+01  0.24131058445E+02  0.28765147474E+02  0.00000000000E+00 0. -1.
</event>
<event>
 7    1  0.1891413E-013  0.7246211E+02  0.7816164E-02  0.1226707E+00
        -11   -1    0    0    0    0  0.00000000000E+00  0.00000000000E+00  0.45593999997E+02  0.45594000000E+02  0.51100000000E-03 0.  1.
         11   -1    0    0    0    0 -0.00000000000E+00 -0.00000000000E+00 -0.45593999997E+02  0.45594000000E+02  0.51100000000E-03 0. -1.
    9900012    2    1    2    0    0  0.17729122522E+02  0.45729294326E+01 -0.39275185809E+01  0.72462112272E+02  0.70000706023E+02 0.  0.
        -12    1    1    2    0    0 -0.17729122522E+02 -0.45729294326E+01  0.39275185809E+01  0.18725887728E+02  0.00000000000E+00 0.  1.
         11    1    3    3    0    0 -0.12114985478E+01 -0.39781731463E+01  0.68568993786E-01  0.41591215757E+01  0.51100000000E-03 0. -1.
        -11    1    3    3    0    0 -0.48235490848E+01  0.18815932696E+02  0.23533440038E+02  0.30514402326E+02  0.51100000000E-03 0.  1.
         12    1    3    3    0    0  0.23764170154E+02 -0.10264830117E+02 -0.27529527613E+02  0.37788588371E+02  0.00000000000E+00 0. -1.
</event>
<event>
 7    1  0.1891413E-013  0.7246158E+02  0.7816164E-02  0.1226708E+00
        -11   -1    0    0    0    0  0.00000000000E+00  0.00000000000E+00  0.45593999997E+02  0.45594000000E+02  0.51100000000E-03 0.  1.
         11   -1    0    0    0    0 -0.00000000000E+00 -0.00000000000E+00 -0.45593999997E+02  0.45594000000E+02  0.51100000000E-03 0. -1.
    9900012    2    1    2    0    0  0.47832026208E+01 -0.41292109324E+00 -0.18100530918E+02  0.72461581478E+02  0.70000014569E+02 0.  0.
        -12    1    1    2    0    0 -0.47832026208E+01  0.41292109324E+00  0.18100530918E+02  0.18726418522E+02  0.00000000000E+00 0.  1.
         11    1    3    3    0    0  0.16598093566E+02  0.86988342808E+00  0.22280860875E+01  0.16769549043E+02  0.51100000000E-03 0. -1.
        -11    1    3    3    0    0  0.84696454668E+01  0.19982376184E+02 -0.39887657106E+01  0.22066728449E+02  0.51100000000E-03 0.  1.
        -12    1    3    3    0    0 -0.20284536412E+02 -0.21265180705E+02 -0.16339851295E+02  0.33625303987E+02  0.00000000000E+00 0.  1.
</event>
<event>
 7    1  0.1891413E-013  0.7246155E+02  0.7816164E-02  0.1226708E+00
        -11   -1    0    0    0    0  0.00000000000E+00  0.00000000000E+00  0.45593999997E+02  0.45594000000E+02  0.51100000000E-03 0. -1.
         11   -1    0    0    0    0 -0.00000000000E+00 -0.00000000000E+00 -0.45593999997E+02  0.45594000000E+02  0.51100000000E-03 0.  1.
    9900012    2    1    2    0    0  0.18245190506E+02  0.43088441936E+00 -0.41960945986E+01  0.72461552183E+02  0.69999976406E+02 0.  0.
        -12    1    1    2    0    0 -0.18245190506E+02 -0.43088441936E+00  0.41960945986E+01  0.18726447817E+02  0.00000000000E+00 0.  1.
         11    1    3    3    0    0 -0.74102867020E+01 -0.65386233583E+01 -0.54098890972E+01  0.11266447742E+02  0.51100000000E-03 0. -1.
        -11    1    3    3    0    0  0.11334342064E+02 -0.24071877653E+02  0.39572671422E+01  0.26899490093E+02  0.51100000000E-03 0.  1.
         12    1    3    3    0    0  0.14321135144E+02  0.31041385431E+02 -0.27434726436E+01  0.34295614347E+02  0.00000000000E+00 0. -1.
</event>
<event>
 7    1  0.1891413E-013  0.7246168E+02  0.7816164E-02  0.1226708E+00
        -11   -1    0    0    0    0  0.00000000000E+00  0.00000000000E+00  0.45593999997E+02  0.45594000000E+02  0.51100000000E-03 0.  1.
         11   -1    0    0    0    0 -0.00000000000E+00 -0.00000000000E+00 -0.45593999997E+02  0.45594000000E+02  0.51100000000E-03 0. -1.
    9900012    2    1    2    0    0 -0.40138419174E+01  0.15035874383E+02 -0.10415687441E+02  0.72461681882E+02  0.70000145363E+02 0.  0.
        -12    1    1    2    0    0  0.40138419174E+01 -0.15035874383E+02  0.10415687441E+02  0.18726318118E+02  0.00000000000E+00 0.  1.
         11    1    3    3    0    0  0.55747721858E+01 -0.10262138445E+02 -0.17117927735E+01  0.11803381090E+02  0.51100000000E-03 0.  1.
        -11    1    3    3    0    0 -0.16269080214E+02  0.37451655889E+02  0.50285101752E+01  0.41141164479E+02  0.51100000000E-03 0. -1.
         12    1    3    3    0    0  0.66804661105E+01 -0.12153643061E+02 -0.13732404843E+02  0.19517136313E+02  0.00000000000E+00 0. -1.
</event>
<event>
 7    1  0.1891413E-013  0.7246165E+02  0.7816164E-02  0.1226708E+00
        -11   -1    0    0    0    0  0.00000000000E+00  0.00000000000E+00  0.45593999997E+02  0.45594000000E+02  0.51100000000E-03 0.  1.
         11   -1    0    0    0    0 -0.00000000000E+00 -0.00000000000E+00 -0.45593999997E+02  0.45594000000E+02  0.51100000000E-03 0. -1.
    9900012    2    1    2    0    0  0.16834500540E+02  0.21846965900E+00 -0.81992721498E+01  0.72461649549E+02  0.70000103243E+02 0.  0.
        -12    1    1    2    0    0 -0.16834500540E+02 -0.21846965900E+00  0.81992721498E+01  0.18726350451E+02  0.00000000000E+00 0.  1.
         11    1    3    3    0    0  0.24301224092E+02 -0.22306783378E+02 -0.10442243962E+02  0.34600325667E+02  0.51100000000E-03 0. -1.
        -11    1    3    3    0    0  0.65293831371E+01  0.18035805846E+02 -0.70904322571E+01  0.20449874487E+02  0.51100000000E-03 0.  1.
        -12    1    3    3    0    0 -0.13996106689E+02  0.44894471907E+01  0.93334040692E+01  0.17411449395E+02  0.00000000000E+00 0.  1.
</event>
<event>
 7    1  0.1891413E-013  0.7246159E+02  0.7816164E-02  0.1226708E+00
        -11   -1    0    0    0    0  0.00000000000E+00  0.00000000000E+00  0.45593999997E+02  0.45594000000E+02  0.51100000000E-03 0. -1.
         11   -1    0    0    0    0 -0.00000000000E+00 -0.00000000000E+00 -0.45593999997E+02  0.45594000000E+02  0.51100000000E-03 0.  1.
    9900012    2    1    2    0    0 -0.60886540821E+01  0.14934828426E+02  0.95161848504E+01  0.72461585961E+02  0.70000020409E+02 0.  0.
        -12    1    1    2    0    0  0.60886540821E+01 -0.14934828426E+02 -0.95161848504E+01  0.18726414039E+02  0.00000000000E+00 0.  1.
         11    1    3    3    0    0  0.99620017839E+01 -0.84214665815E+01  0.11913158916E+02  0.17665954108E+02  0.51100000000E-03 0. -1.
        -11    1    3    3    0    0 -0.76044276898E+01 -0.90927468971E+01  0.13263598627E+02  0.17788434878E+02  0.51100000000E-03 0.  1.
        -12    1    3    3    0    0 -0.84462281762E+01  0.32449041904E+02 -0.15660572692E+02  0.37007196975E+02  0.00000000000E+00 0.  1.
</event>
<event>
 7    1  0.1891413E-013  0.7246156E+02  0.7816164E-02  0.1226708E+00
        -11   -1    0    0    0    0  0.00000000000E+00  0.00000000000E+00  0.45593999997E+02  0.45594000000E+02  0.51100000000E-03 0.  1.
         11   -1    0    0    0    0 -0.00000000000E+00 -0.00000000000E+00 -0.45593999997E+02  0.45594000000E+02  0.51100000000E-03 0. -1.
    9900012    2    1    2    0    0  0.12780413718E+02 -0.13280145940E+02  0.33133433257E+01  0.72461561605E+02  0.69999988680E+02 0.  0.
        -12    1    1    2    0    0 -0.12780413718E+02  0.13280145940E+02 -0.33133433257E+01  0.18726438395E+02  0.00000000000E+00 0.  1.
         11    1    3    3    0    0 -0.48873615914E+01  0.27498530735E+01 -0.90664483623E+01  0.10660604177E+02  0.51100000000E-03 0. -1.
        -11    1    3    3    0    0  0.77342099438E+01  0.52827892096E+01 -0.19824561979E+02  0.21925763914E+02  0.51100000000E-03 0.  1.
        -12    1    3    3    0    0  0.99335653655E+01 -0.21312788223E+02  0.32204353667E+02  0.39875193514E+02  0.00000000000E+00 0.  1.
</event>
<event>
 7    1  0.1891413E-013  0.7246154E+02  0.7816164E-02  0.1226708E+00
        -11   -1    0    0    0    0  0.00000000000E+00  0.00000000000E+00  0.45593999997E+02  0.45594000000E+02  0.51100000000E-03 0. -1.
         11   -1    0    0    0    0 -0.00000000000E+00 -0.00000000000E+00 -0.45593999997E+02  0.45594000000E+02  0.51100000000E-03 0.  1.
    9900012    2    1    2    0    0 -0.74125445131E+01  0.11828490587E+02  0.12482842750E+02  0.72461538273E+02  0.69999958286E+02 0.  0.
        -12    1    1    2    0    0  0.74125445131E+01 -0.11828490587E+02 -0.12482842750E+02  0.18726461727E+02  0.00000000000E+00 0.  1.
         11    1    3    3    0    0  0.12145503990E+02  0.42653138812E+01 -0.12390318265E+02  0.17866901149E+02  0.51100000000E-03 0. -1.
        -11    1    3    3    0    0 -0.20568456418E+02  0.23111628805E+02  0.87039257869E+01  0.32139805691E+02  0.51100000000E-03 0.  1.
         12    1    3    3    0    0  0.10104079145E+01 -0.15548452100E+02  0.16169235228E+02  0.22454831434E+02  0.00000000000E+00 0. -1.
</event>
<event>
 7    1  0.1891413E-013  0.7246159E+02  0.7816164E-02  0.1226708E+00
        -11   -1    0    0    0    0  0.00000000000E+00  0.00000000000E+00  0.45593999997E+02  0.45594000000E+02  0.51100000000E-03 0. -1.
         11   -1    0    0    0    0 -0.00000000000E+00 -0.00000000000E+00 -0.45593999997E+02  0.45594000000E+02  0.51100000000E-03 0.  1.
    9900012    2    1    2    0    0 -0.93550189442E+01 -0.83224048226E+01  0.13924783355E+02  0.72461591028E+02  0.70000027010E+02 0.  0.
        -12    1    1    2    0    0  0.93550189442E+01  0.83224048226E+01 -0.13924783355E+02  0.18726408972E+02  0.00000000000E+00 0.  1.
         11    1    3    3    0    0  0.58280644109E+01 -0.84950308317E+01  0.69134590200E+01  0.12406764264E+02  0.51100000000E-03 0. -1.
        -11    1    3    3    0    0 -0.14886002241E+02  0.14994694554E+02 -0.20095226303E+02  0.29159081740E+02  0.51100000000E-03 0.  1.
         12    1    3    3    0    0 -0.29708111387E+00 -0.14822068545E+02  0.27106550638E+02  0.30895745025E+02  0.00000000000E+00 0. -1.
</event>
<event>
 7    1  0.1891413E-013  0.7246157E+02  0.7816164E-02  0.1226708E+00
        -11   -1    0    0    0    0  0.00000000000E+00  0.00000000000E+00  0.45593999997E+02  0.45594000000E+02  0.51100000000E-03 0.  1.
         11   -1    0    0    0    0 -0.00000000000E+00 -0.00000000000E+00 -0.45593999997E+02  0.45594000000E+02  0.51100000000E-03 0. -1.
    9900012    2    1    2    0    0 -0.13373146528E+02 -0.10505653134E+02 -0.78402317180E+01  0.72461574040E+02  0.70000004880E+02 0.  0.
        -12    1    1    2    0    0  0.13373146528E+02  0.10505653134E+02  0.78402317180E+01  0.18726425960E+02  0.00000000000E+00 0.  1.
         11    1    3    3    0    0 -0.52726798671E+01 -0.15602228845E+02 -0.25883117858E+02  0.30678436861E+02  0.51100000000E-03 0. -1.
        -11    1    3    3    0    0 -0.53279257948E+01 -0.89162094081E+01 -0.72974318939E+01  0.12694018118E+02  0.51100000000E-03 0.  1.
        -12    1    3    3    0    0 -0.27725408665E+01  0.14012785119E+02  0.25340318034E+02  0.29089119061E+02  0.00000000000E+00 0.  1.
</event>
<event>
 7    1  0.1891413E-013  0.7246140E+02  0.7816164E-02  0.1226708E+00
        -11   -1    0    0    0    0  0.00000000000E+00  0.00000000000E+00  0.45593999997E+02  0.45594000000E+02  0.51100000000E-03 0.  1.
         11   -1    0    0    0    0 -0.00000000000E+00 -0.00000000000E+00 -0.45593999997E+02  0.45594000000E+02  0.51100000000E-03 0. -1.
    9900012    2    1    2    0    0  0.11053456093E+02 -0.13397121043E+02 -0.70016914283E+01  0.72461403227E+02  0.69999782364E+02 0.  0.
        -12    1    1    2    0    0 -0.11053456093E+02  0.13397121043E+02  0.70016914283E+01  0.18726596773E+02  0.00000000000E+00 0.  1.
         11    1    3    3    0    0 -0.29526657357E+00  0.20156981404E+01  0.76455357825E+00  0.21759512352E+01  0.51100000000E-03 0. -1.
        -11    1    3    3    0    0  0.25725095554E+02 -0.12921674800E+01  0.22314254408E+02  0.34078969880E+02  0.51100000000E-03 0.  1.
         12    1    3    3    0    0 -0.14376372888E+02 -0.14120651703E+02 -0.30080499414E+02  0.36206482112E+02  0.00000000000E+00 0. -1.
</event>
<event>
 7    1  0.1891413E-013  0.7246098E+02  0.7816164E-02  0.1226710E+00
        -11   -1    0    0    0    0  0.00000000000E+00  0.00000000000E+00  0.45593999997E+02  0.45594000000E+02  0.51100000000E-03 0. -1.
         11   -1    0    0    0    0 -0.00000000000E+00 -0.00000000000E+00 -0.45593999997E+02  0.45594000000E+02  0.51100000000E-03 0.  1.
    9900012    2    1    2    0    0  0.10117877957E+02  0.12586976336E+02  0.94814387531E+01  0.72460984529E+02  0.69999236927E+02 0.  0.
        -12    1    1    2    0    0 -0.10117877957E+02 -0.12586976336E+02 -0.94814387531E+01  0.18727015471E+02  0.00000000000E+00 0.  1.
         11    1    3    3    0    0  0.13436806818E+02 -0.10337364757E+01 -0.11192126600E+02  0.17517993226E+02  0.51100000000E-03 0. -1.
        -11    1    3    3    0    0  0.11923098501E+01  0.29342660881E+02  0.10349674193E+01  0.29385106911E+02  0.51100000000E-03 0.  1.
         12    1    3    3    0    0 -0.45112387118E+01 -0.15721948069E+02  0.19638597933E+02  0.25557884392E+02  0.00000000000E+00 0. -1.
</event>
<event>
 7    1  0.1891413E-013  0.7246170E+02  0.7816164E-02  0.1226708E+00
        -11   -1    0    0    0    0  0.00000000000E+00  0.00000000000E+00  0.45593999997E+02  0.45594000000E+02  0.51100000000E-03 0. -1.
         11   -1    0    0    0    0 -0.00000000000E+00 -0.00000000000E+00 -0.45593999997E+02  0.45594000000E+02  0.51100000000E-03 0.  1.
    9900012    2    1    2    0    0 -0.11049571568E+02  0.23102636951E+01  0.14941353133E+02  0.72461698079E+02  0.70000166463E+02 0.  0.
        -12    1    1    2    0    0  0.11049571568E+02 -0.23102636951E+01 -0.14941353133E+02  0.18726301921E+02  0.00000000000E+00 0.  1.
         11    1    3    3    0    0 -0.16537054932E+02 -0.16780103972E+02  0.18676525211E+02  0.30064242372E+02  0.51100000000E-03 0. -1.
        -11    1    3    3    0    0  0.12045781298E+02 -0.78778637450E+01 -0.25552138773E+01  0.14618163444E+02  0.51100000000E-03 0.  1.
        -12    1    3    3    0    0 -0.65582979339E+01  0.26968231413E+02 -0.11799582008E+01  0.27779292264E+02  0.00000000000E+00 0.  1.
</event>
<event>
 7    1  0.1891413E-013  0.7246155E+02  0.7816164E-02  0.1226708E+00
        -11   -1    0    0    0    0  0.00000000000E+00  0.00000000000E+00  0.45593999997E+02  0.45594000000E+02  0.51100000000E-03 0.  1.
         11   -1    0    0    0    0 -0.00000000000E+00 -0.00000000000E+00 -0.45593999997E+02  0.45594000000E+02  0.51100000000E-03 0. -1.
    9900012    2    1    2    0    0  0.72721189733E+01 -0.48354504152E+00 -0.17249991744E+02  0.72461554920E+02  0.69999979972E+02 0.  0.
        -12    1    1    2    0    0 -0.72721189733E+01  0.48354504152E+00  0.17249991744E+02  0.18726445080E+02  0.00000000000E+00 0.  1.
         11    1    3    3    0    0  0.26738536077E+01 -0.11289403501E+01  0.19873945015E+01  0.35176322427E+01  0.51100000000E-03 0. -1.
        -11    1    3    3    0    0  0.21555607011E+02 -0.26131917688E+02 -0.14694673882E+02  0.36924988238E+02  0.51100000000E-03 0.  1.
         12    1    3    3    0    0 -0.16957341645E+02  0.26777312997E+02 -0.45427123637E+01  0.32018934439E+02  0.00000000000E+00 0. -1.
</event>
<event>
 7    1  0.1891413E-013  0.7246159E+02  0.7816164E-02  0.1226708E+00
        -11   -1    0    0    0    0  0.00000000000E+00  0.00000000000E+00  0.45593999997E+02  0.45594000000E+02  0.51100000000E-03 0.  1.
         11   -1    0    0    0    0 -0.00000000000E+00 -0.00000000000E+00 -0.45593999997E+02  0.45594000000E+02  0.51100000000E-03 0. -1.
    9900012    2    1    2    0    0 -0.51940822763E+01 -0.45025329925E+01 -0.17419163516E+02  0.72461586792E+02  0.70000021492E+02 0.  0.
        -12    1    1    2    0    0  0.51940822763E+01  0.45025329925E+01  0.17419163516E+02  0.18726413208E+02  0.00000000000E+00 0.  1.
         11    1    3    3    0    0  0.86094316201E+01  0.76169083714E+01 -0.19557323415E+01  0.11660381435E+02  0.51100000000E-03 0. -1.
        -11    1    3    3    0    0  0.19533776375E+02 -0.10607126188E+02  0.33701619359E+01  0.22481938020E+02  0.51100000000E-03 0.  1.
         12    1    3    3    0    0 -0.33337290271E+02 -0.15123151761E+01 -0.18833593110E+02  0.38319267337E+02  0.00000000000E+00 0. -1.
</event>
<event>
 7    1  0.1891413E-013  0.7246144E+02  0.7816164E-02  0.1226708E+00
        -11   -1    0    0    0    0  0.00000000000E+00  0.00000000000E+00  0.45593999997E+02  0.45594000000E+02  0.51100000000E-03 0.  1.
         11   -1    0    0    0    0 -0.00000000000E+00 -0.00000000000E+00 -0.45593999997E+02  0.45594000000E+02  0.51100000000E-03 0. -1.
    9900012    2    1    2    0    0 -0.12003427602E+02  0.14324465981E+02  0.11879818890E+01  0.72461443968E+02  0.69999835437E+02 0.  0.
        -12    1    1    2    0    0  0.12003427602E+02 -0.14324465981E+02 -0.11879818890E+01  0.18726556032E+02  0.00000000000E+00 0.  1.
         11    1    3    3    0    0  0.13022461941E+02 -0.13928249262E+02 -0.37791641621E+01  0.19438691431E+02  0.51100000000E-03 0. -1.
        -11    1    3    3    0    0  0.50396775052E+01 -0.44329561118E+01  0.53931863265E+01  0.86102211504E+01  0.51100000000E-03 0.  1.
        -12    1    3    3    0    0 -0.30065567048E+02  0.32685671355E+02 -0.42604027542E+00  0.44412531387E+02  0.00000000000E+00 0.  1.
</event>
<event>
 7    1  0.1891413E-013  0.7246157E+02  0.7816164E-02  0.1226708E+00
        -11   -1    0    0    0    0  0.00000000000E+00  0.00000000000E+00  0.45593999997E+02  0.45594000000E+02  0.51100000000E-03 0. -1.
         11   -1    0    0    0    0 -0.00000000000E+00 -0.00000000000E+00 -0.45593999997E+02  0.45594000000E+02  0.51100000000E-03 0.  1.
    9900012    2    1    2    0    0 -0.13233217785E+02 -0.59429653061E+01  0.11842393703E+02  0.72461570063E+02  0.69999999699E+02 0.  0.
        -12    1    1    2    0    0  0.13233217785E+02  0.59429653061E+01 -0.11842393703E+02  0.18726429937E+02  0.00000000000E+00 0.  1.
         11    1    3    3    0    0 -0.25225691959E+00 -0.11969476631E+02  0.14557415353E+02  0.18848086014E+02  0.51100000000E-03 0. -1.
        -11    1    3    3    0    0 -0.55910126533E+00  0.10078731235E+02 -0.25456992206E+02  0.27385249131E+02  0.51100000000E-03 0.  1.
         12    1    3    3    0    0 -0.12421859600E+02 -0.40522199093E+01  0.22741970557E+02  0.26228234918E+02  0.00000000000E+00 0. -1.
</event>
<event>
 7    1  0.1891413E-013  0.7246161E+02  0.7816164E-02  0.1226708E+00
        -11   -1    0    0    0    0  0.00000000000E+00  0.00000000000E+00  0.45593999997E+02  0.45594000000E+02  0.51100000000E-03 0. -1.
         11   -1    0    0    0    0 -0.00000000000E+00 -0.00000000000E+00 -0.45593999997E+02  0.45594000000E+02  0.51100000000E-03 0.  1.
    9900012    2    1    2    0    0 -0.10014216204E+02 -0.64936722149E+01  0.14430011863E+02  0.72461613606E+02  0.70000056421E+02 0.  0.
        -12    1    1    2    0    0  0.10014216204E+02  0.64936722149E+01 -0.14430011863E+02  0.18726386394E+02  0.00000000000E+00 0.  1.
         11    1    3    3    0    0 -0.13761103188E+02 -0.44747861379E+01  0.26868311315E+02  0.30517172626E+02  0.51100000000E-03 0. -1.
        -11    1    3    3    0    0 -0.38493671233E+01 -0.15760749747E+02  0.63821785809E+01  0.17434192369E+02  0.51100000000E-03 0.  1.
        -12    1    3    3    0    0  0.75962541080E+01  0.13741863670E+02 -0.18820478032E+02  0.24510248611E+02  0.00000000000E+00 0.  1.
</event>
<event>
 7    1  0.1891413E-013  0.7246158E+02  0.7816164E-02  0.1226708E+00
        -11   -1    0    0    0    0  0.00000000000E+00  0.00000000000E+00  0.45593999997E+02  0.45594000000E+02  0.51100000000E-03 0.  1.
         11   -1    0    0    0    0 -0.00000000000E+00 -0.00000000000E+00 -0.45593999997E+02  0.45594000000E+02  0.51100000000E-03 0. -1.
    9900012    2    1    2    0    0 -0.11437031974E+02 -0.10937391773E+02 -0.10012325040E+02  0.72461577708E+02  0.70000009657E+02 0.  0.
        -12    1    1    2    0    0  0.11437031974E+02  0.10937391773E+02  0.10012325040E+02  0.18726422292E+02  0.00000000000E+00 0.  1.
         11    1    3    3    0    0 -0.29649654198E+01 -0.92885116379E+01  0.14730718952E+02  0.17665263924E+02  0.51100000000E-03 0. -1.
        -11    1    3    3    0    0 -0.18629350003E+02 -0.16564244692E+02 -0.96629721257E+00  0.24947156437E+02  0.51100000000E-03 0.  1.
         12    1    3    3    0    0  0.10157283449E+02  0.14915364557E+02 -0.23776746779E+02  0.29849157347E+02  0.00000000000E+00 0. -1.
</event>
<event>
 7    1  0.1891413E-013  0.7246164E+02  0.7816164E-02  0.1226708E+00
        -11   -1    0    0    0    0  0.00000000000E+00  0.00000000000E+00  0.45593999997E+02  0.45594000000E+02  0.51100000000E-03 0.  1.
         11   -1    0    0    0    0 -0.00000000000E+00 -0.00000000000E+00 -0.45593999997E+02  0.45594000000E+02  0.51100000000E-03 0. -1.
    9900012    2    1    2    0    0 -0.14917362926E+02 -0.10483306012E+02 -0.42719012447E+01  0.72461639919E+02  0.70000090699E+02 0.  0.
        -12    1    1    2    0    0  0.14917362926E+02  0.10483306012E+02  0.42719012447E+01  0.18726360081E+02  0.00000000000E+00 0.  1.
         11    1    3    3    0    0 -0.11751127192E+02 -0.10393806498E+02 -0.14346399188E+02  0.21258865768E+02  0.51100000000E-03 0. -1.
        -11    1    3    3    0    0 -0.17166852790E+02 -0.12225060034E+02  0.20952019843E+02  0.29717672575E+02  0.51100000000E-03 0.  1.
         12    1    3    3    0    0  0.14000617056E+02  0.12135560519E+02 -0.10877521900E+02  0.21485101576E+02  0.00000000000E+00 0. -1.
</event>
<event>
 7    1  0.1891413E-013  0.7246157E+02  0.7816164E-02  0.1226708E+00
        -11   -1    0    0    0    0  0.00000000000E+00  0.00000000000E+00  0.45593999997E+02  0.45594000000E+02  0.51100000000E-03 0.  1.
         11   -1    0    0    0    0 -0.00000000000E+00 -0.00000000000E+00 -0.45593999997E+02  0.45594000000E+02  0.51100000000E-03 0. -1.
    9900012    2    1    2    0    0 -0.27547238395E+01 -0.25592521578E+01 -0.18345055211E+02  0.72461566123E+02  0.69999994567E+02 0.  0.
        -12    1    1    2    0    0  0.27547238395E+01  0.25592521578E+01  0.18345055211E+02  0.18726433877E+02  0.00000000000E+00 0.  1.
         11    1    3    3    0    0  0.98045556578E+01  0.33031913706E+01  0.92576382876E+01  0.13883236359E+02  0.51100000000E-03 0.  1.
        -11    1    3    3    0    0  0.13193228934E+02 -0.15750359459E+02 -0.15001273863E+01  0.20600618807E+02  0.51100000000E-03 0. -1.
         12    1    3    3    0    0 -0.25752508431E+02  0.98879159303E+01 -0.26102566112E+02  0.37977710958E+02  0.00000000000E+00 0. -1.
</event>
<event>
 7    1  0.1891413E-013  0.7246149E+02  0.7816164E-02  0.1226708E+00
        -11   -1    0    0    0    0  0.00000000000E+00  0.00000000000E+00  0.45593999997E+02  0.45594000000E+02  0.51100000000E-03 0.  1.
         11   -1    0    0    0    0 -0.00000000000E+00 -0.00000000000E+00 -0.45593999997E+02  0.45594000000E+02  0.51100000000E-03 0. -1.
    9900012    2    1    2    0    0 -0.16876161740E+01  0.78417128755E+01 -0.16921634491E+02  0.72461488765E+02  0.69999893793E+02 0.  0.
        -12    1    1    2    0    0  0.16876161740E+01 -0.78417128755E+01  0.16921634491E+02  0.18726511235E+02  0.00000000000E+00 0.  1.
         11    1    3    3    0    0 -0.39163084735E+01  0.90661178376E+00 -0.22035227113E+02  0.22398898437E+02  0.51100000000E-03 0. -1.
        -11    1    3    3    0    0 -0.11389415152E+02  0.21309918233E+02 -0.89590402825E+01  0.25770056182E+02  0.51100000000E-03 0.  1.
        -12    1    3    3    0    0  0.13618107451E+02 -0.14374817141E+02  0.14072632905E+02  0.24292534147E+02  0.00000000000E+00 0.  1.
</event>
<event>
 7    1  0.2046717E-013  0.7246147E+02  0.7816164E-02  0.1226708E+00
        -11   -1    0    0    0    0  0.00000000000E+00  0.00000000000E+00  0.45593999997E+02  0.45594000000E+02  0.51100000000E-03 0. -1.
         11   -1    0    0    0    0 -0.00000000000E+00 -0.00000000000E+00 -0.45593999997E+02  0.45594000000E+02  0.51100000000E-03 0.  1.
    9900012    2    1    2    0    0 -0.10996551540E+02  0.10820334760E+02  0.10615037511E+02  0.72461473055E+02  0.69999873327E+02 0.  0.
        -12    1    1    2    0    0  0.10996551540E+02 -0.10820334760E+02 -0.10615037511E+02  0.18726526945E+02  0.00000000000E+00 0.  1.
         11    1    3    3    0    0 -0.87445094512E+01  0.91152942283E+01 -0.36762605634E+01  0.13155604372E+02  0.51100000000E-03 0. -1.
        -11    1    3    3    0    0 -0.12489038476E+02 -0.17552887248E+02 -0.12384925669E+02  0.24848869530E+02  0.51100000000E-03 0.  1.
         12    1    3    3    0    0  0.10236996388E+02  0.19257927779E+02  0.26676223743E+02  0.34456999153E+02  0.00000000000E+00 0. -1.
</event>
<event>
 7    1  0.1891413E-013  0.7246166E+02  0.7816164E-02  0.1226708E+00
        -11   -1    0    0    0    0  0.00000000000E+00  0.00000000000E+00  0.45593999997E+02  0.45594000000E+02  0.51100000000E-03 0. -1.
         11   -1    0    0    0    0 -0.00000000000E+00 -0.00000000000E+00 -0.45593999997E+02  0.45594000000E+02  0.51100000000E-03 0.  1.
    9900012    2    1    2    0    0 -0.20451502366E+01  0.12017247258E+02  0.14215448555E+02  0.72461658959E+02  0.70000115502E+02 0.  0.
        -12    1    1    2    0    0  0.20451502366E+01 -0.12017247258E+02 -0.14215448555E+02  0.18726341041E+02  0.00000000000E+00 0.  1.
         11    1    3    3    0    0  0.55031886310E+01 -0.50808419485E+01 -0.49997393272E+01  0.90054113518E+01  0.51100000000E-03 0. -1.
        -11    1    3    3    0    0 -0.11218637723E+01 -0.21131875430E+02  0.10917143533E+02  0.23811735777E+02  0.51100000000E-03 0.  1.
         12    1    3    3    0    0 -0.64264750953E+01  0.38229964637E+02  0.82980443496E+01  0.39644511831E+02  0.00000000000E+00 0. -1.
</event>
<event>
 7    1  0.1891413E-013  0.7246159E+02  0.7816164E-02  0.1226708E+00
        -11   -1    0    0    0    0  0.00000000000E+00  0.00000000000E+00  0.45593999997E+02  0.45594000000E+02  0.51100000000E-03 0.  1.
         11   -1    0    0    0    0 -0.00000000000E+00 -0.00000000000E+00 -0.45593999997E+02  0.45594000000E+02  0.51100000000E-03 0. -1.
    9900012    2    1    2    0    0 -0.75943798897E+01  0.10755856114E+02 -0.13315987148E+02  0.72461586559E+02  0.70000021187E+02 0.  0.
        -12    1    1    2    0    0  0.75943798897E+01 -0.10755856114E+02  0.13315987148E+02  0.18726413441E+02  0.00000000000E+00 0.  1.
         11    1    3    3    0    0  0.66639545874E+01 -0.46011330763E+01  0.96895973145E+01  0.12628024893E+02  0.51100000000E-03 0. -1.
        -11    1    3    3    0    0  0.82732439486E+01  0.72030293536E+01  0.12732413601E+02  0.16806086804E+02  0.51100000000E-03 0.  1.
         12    1    3    3    0    0 -0.22531578426E+02  0.81539598368E+01 -0.35737998063E+02  0.43027474861E+02  0.00000000000E+00 0. -1.
</event>
<event>
 7    1  0.1891413E-013  0.7246154E+02  0.7816164E-02  0.1226708E+00
        -11   -1    0    0    0    0  0.00000000000E+00  0.00000000000E+00  0.45593999997E+02  0.45594000000E+02  0.51100000000E-03 0.  1.
         11   -1    0    0    0    0 -0.00000000000E+00 -0.00000000000E+00 -0.45593999997E+02  0.45594000000E+02  0.51100000000E-03 0. -1.
    9900012    2    1    2    0    0  0.17037382347E+02  0.34908391189E+01 -0.69442071714E+01  0.72461538288E+02  0.69999958306E+02 0.  0.
        -12    1    1    2    0    0 -0.17037382347E+02 -0.34908391189E+01  0.69442071714E+01  0.18726461712E+02  0.00000000000E+00 0.  1.
         11    1    3    3    0    0 -0.11948345478E+02 -0.43163973267E+01 -0.14475640158E+02  0.19259761260E+02  0.51100000000E-03 0. -1.
        -11    1    3    3    0    0 -0.10798681076E+02  0.23596139303E+00  0.66689139492E+01  0.12694156305E+02  0.51100000000E-03 0.  1.
        -12    1    3    3    0    0  0.39784408902E+02  0.75712750525E+01  0.86251903771E+00  0.40507620723E+02  0.00000000000E+00 0.  1.
</event>
<event>
 7    1  0.1891413E-013  0.7246151E+02  0.7816164E-02  0.1226708E+00
        -11   -1    0    0    0    0  0.00000000000E+00  0.00000000000E+00  0.45593999997E+02  0.45594000000E+02  0.51100000000E-03 0. -1.
         11   -1    0    0    0    0 -0.00000000000E+00 -0.00000000000E+00 -0.45593999997E+02  0.45594000000E+02  0.51100000000E-03 0.  1.
    9900012    2    1    2    0    0 -0.10105626020E+02 -0.15765644277E+02 -0.46595308155E-01  0.72461511065E+02  0.69999922842E+02 0.  0.
        -12    1    1    2    0    0  0.10105626020E+02  0.15765644277E+02  0.46595308155E-01  0.18726488935E+02  0.00000000000E+00 0.  1.
         11    1    3    3    0    0 -0.10888002774E+01 -0.29473229496E+01 -0.41237626150E+01  0.51843627361E+01  0.51100000000E-03 0. -1.
        -11    1    3    3    0    0  0.12483039800E+02 -0.33781706927E+02 -0.38513137007E+01  0.36219644159E+02  0.51100000000E-03 0.  1.
         12    1    3    3    0    0 -0.21499865542E+02  0.20963385600E+02  0.79284810076E+01  0.31057504169E+02  0.00000000000E+00 0. -1.
</event>
<event>
 7    1  0.1891413E-013  0.7246152E+02  0.7816164E-02  0.1226708E+00
        -11   -1    0    0    0    0  0.00000000000E+00  0.00000000000E+00  0.45593999997E+02  0.45594000000E+02  0.51100000000E-03 0. -1.
         11   -1    0    0    0    0 -0.00000000000E+00 -0.00000000000E+00 -0.45593999997E+02  0.45594000000E+02  0.51100000000E-03 0.  1.
    9900012    2    1    2    0    0  0.17309373249E+02 -0.64774690977E+01  0.30181050281E+01  0.72461522324E+02  0.69999937509E+02 0.  0.
        -12    1    1    2    0    0 -0.17309373249E+02  0.64774690977E+01 -0.30181050281E+01  0.18726477676E+02  0.00000000000E+00 0.  1.
         11    1    3    3    0    0  0.20837395194E+01 -0.34338863693E+01  0.79729563907E+01  0.89275741302E+01  0.51100000000E-03 0. -1.
        -11    1    3    3    0    0 -0.22218741314E+02  0.70516463324E+01  0.42010266500E+01  0.23686426635E+02  0.51100000000E-03 0.  1.
        -12    1    3    3    0    0  0.37444375044E+02 -0.10095229061E+02 -0.91558780126E+01  0.39847521559E+02  0.00000000000E+00 0.  1.
</event>
<event>
 7    1  0.1891413E-013  0.7246154E+02  0.7816164E-02  0.1226708E+00
        -11   -1    0    0    0    0  0.00000000000E+00  0.00000000000E+00  0.45593999997E+02  0.45594000000E+02  0.51100000000E-03 0.  1.
         11   -1    0    0    0    0 -0.00000000000E+00 -0.00000000000E+00 -0.45593999997E+02  0.45594000000E+02  0.51100000000E-03 0. -1.
    9900012    2    1    2    0    0  0.12705247386E+02  0.85756808312E+01 -0.10757076069E+02  0.72461540153E+02  0.69999960735E+02 0.  0.
        -12    1    1    2    0    0 -0.12705247386E+02 -0.85756808312E+01  0.10757076069E+02  0.18726459847E+02  0.00000000000E+00 0.  1.
         11    1    3    3    0    0  0.22557798450E+01 -0.10830076363E+02 -0.92298274606E+01  0.14407248590E+02  0.51100000000E-03 0. -1.
        -11    1    3    3    0    0 -0.11389407437E+02  0.46270380513E+00 -0.20513233621E+02  0.23467540358E+02  0.51100000000E-03 0.  1.
         12    1    3    3    0    0  0.21838874978E+02  0.18943053389E+02  0.18985985013E+02  0.34586751205E+02  0.00000000000E+00 0. -1.
</event>
<event>
 7    1  0.1891413E-013  0.7246164E+02  0.7816164E-02  0.1226708E+00
        -11   -1    0    0    0    0  0.00000000000E+00  0.00000000000E+00  0.45593999997E+02  0.45594000000E+02  0.51100000000E-03 0. -1.
         11   -1    0    0    0    0 -0.00000000000E+00 -0.00000000000E+00 -0.45593999997E+02  0.45594000000E+02  0.51100000000E-03 0.  1.
    9900012    2    1    2    0    0 -0.12794573091E+02  0.62431173726E+01  0.12165483678E+02  0.72461638681E+02  0.70000089087E+02 0.  0.
        -12    1    1    2    0    0  0.12794573091E+02 -0.62431173726E+01 -0.12165483678E+02  0.18726361319E+02  0.00000000000E+00 0.  1.
         11    1    3    3    0    0 -0.15068869686E+02 -0.15492249909E+02  0.26050889635E+02  0.33848626144E+02  0.51100000000E-03 0. -1.
        -11    1    3    3    0    0  0.74685856141E+00 -0.52963256662E+01 -0.98917452285E+01  0.11245242870E+02  0.51100000000E-03 0.  1.
        -12    1    3    3    0    0  0.15274380328E+01  0.27031692947E+02 -0.39936607286E+01  0.27367769667E+02  0.00000000000E+00 0.  1.
</event>
<event>
 7    1  0.1891413E-013  0.7246160E+02  0.7816164E-02  0.1226708E+00
        -11   -1    0    0    0    0  0.00000000000E+00  0.00000000000E+00  0.45593999997E+02  0.45594000000E+02  0.51100000000E-03 0. -1.
         11   -1    0    0    0    0 -0.00000000000E+00 -0.00000000000E+00 -0.45593999997E+02  0.45594000000E+02  0.51100000000E-03 0.  1.
    9900012    2    1    2    0    0 -0.37003580464E+01  0.14735009941E+02  0.10948283926E+02  0.72461599156E+02  0.70000037598E+02 0.  0.
        -12    1    1    2    0    0  0.37003580464E+01 -0.14735009941E+02 -0.10948283926E+02  0.18726400844E+02  0.00000000000E+00 0.  1.
         11    1    3    3    0    0  0.33683706911E+01  0.53319265939E+01  0.33373974966E+02  0.33964651737E+02  0.51100000000E-03 0. -1.
        -11    1    3    3    0    0  0.32308965315E+01 -0.48061969014E+01  0.38104676676E+01  0.69323794731E+01  0.51100000000E-03 0.  1.
        -12    1    3    3    0    0 -0.10299625269E+02  0.14209280249E+02 -0.26236158708E+02  0.31564567946E+02  0.00000000000E+00 0.  1.
</event>
<event>
 7    1  0.1891413E-013  0.7246146E+02  0.7816164E-02  0.1226708E+00
        -11   -1    0    0    0    0  0.00000000000E+00  0.00000000000E+00  0.45593999997E+02  0.45594000000E+02  0.51100000000E-03 0. -1.
         11   -1    0    0    0    0 -0.00000000000E+00 -0.00000000000E+00 -0.45593999997E+02  0.45594000000E+02  0.51100000000E-03 0.  1.
    9900012    2    1    2    0    0 -0.16944204087E+02  0.16227119519E+00  0.79718716178E+01  0.72461464785E+02  0.69999862554E+02 0.  0.
        -12    1    1    2    0    0  0.16944204087E+02 -0.16227119519E+00 -0.79718716178E+01  0.18726535215E+02  0.00000000000E+00 0.  1.
         11    1    3    3    0    0 -0.60133396493E+01 -0.11086485321E+02 -0.88865912597E+01  0.15428607033E+02  0.51100000000E-03 0. -1.
        -11    1    3    3    0    0  0.14485511226E+02 -0.12695500674E+02  0.31389676813E+01  0.19515606350E+02  0.51100000000E-03 0.  1.
         12    1    3    3    0    0 -0.25416375664E+02  0.23944257190E+02  0.13719495196E+02  0.37517251401E+02  0.00000000000E+00 0. -1.
</event>
<event>
 7    1  0.1891413E-013  0.7246170E+02  0.7816164E-02  0.1226708E+00
        -11   -1    0    0    0    0  0.00000000000E+00  0.00000000000E+00  0.45593999997E+02  0.45594000000E+02  0.51100000000E-03 0.  1.
         11   -1    0    0    0    0 -0.00000000000E+00 -0.00000000000E+00 -0.45593999997E+02  0.45594000000E+02  0.51100000000E-03 0. -1.
    9900012    2    1    2    0    0 -0.64757498640E+00  0.18678817766E+02  0.11647985935E+01  0.72461699184E+02  0.70000167902E+02 0.  0.
        -12    1    1    2    0    0  0.64757498640E+00 -0.18678817766E+02 -0.11647985935E+01  0.18726300816E+02  0.00000000000E+00 0.  1.
         11    1    3    3    0    0 -0.68773039550E+01  0.62652369311E+01  0.69815058890E+01  0.11631505845E+02  0.51100000000E-03 0.  1.
        -11    1    3    3    0    0 -0.15772585855E+02  0.27444074215E+02  0.50490468343E+01  0.32053775881E+02  0.51100000000E-03 0. -1.
         12    1    3    3    0    0  0.22002314824E+02 -0.15030493380E+02 -0.10865754130E+02  0.28776417457E+02  0.00000000000E+00 0. -1.
</event>
<event>
 7    1  0.1891413E-013  0.7246099E+02  0.7816164E-02  0.1226710E+00
        -11   -1    0    0    0    0  0.00000000000E+00  0.00000000000E+00  0.45593999997E+02  0.45594000000E+02  0.51100000000E-03 0.  1.
         11   -1    0    0    0    0 -0.00000000000E+00 -0.00000000000E+00 -0.45593999997E+02  0.45594000000E+02  0.51100000000E-03 0. -1.
    9900012    2    1    2    0    0  0.11295072771E+02 -0.54639860120E+01 -0.13902059760E+02  0.72460985353E+02  0.69999238001E+02 0.  0.
        -12    1    1    2    0    0 -0.11295072771E+02  0.54639860120E+01  0.13902059760E+02  0.18727014647E+02  0.00000000000E+00 0.  1.
         11    1    3    3    0    0  0.33253580497E+02  0.57780967500E+01 -0.15426372784E+02  0.37110106379E+02  0.51100000000E-03 0. -1.
        -11    1    3    3    0    0 -0.17986213089E+02  0.47228922313E+01  0.29867060651E+01  0.18834276882E+02  0.51100000000E-03 0.  1.
         12    1    3    3    0    0 -0.39722946375E+01 -0.15964974993E+02 -0.14623930404E+01  0.16516602091E+02  0.00000000000E+00 0. -1.
</event>
<event>
 7    1  0.1891413E-013  0.7246158E+02  0.7816164E-02  0.1226708E+00
        -11   -1    0    0    0    0  0.00000000000E+00  0.00000000000E+00  0.45593999997E+02  0.45594000000E+02  0.51100000000E-03 0.  1.
         11   -1    0    0    0    0 -0.00000000000E+00 -0.00000000000E+00 -0.45593999997E+02  0.45594000000E+02  0.51100000000E-03 0. -1.
    9900012    2    1    2    0    0  0.17124358117E+01  0.14495885249E+02 -0.11730965106E+02  0.72461583688E+02  0.70000017448E+02 0.  0.
        -12    1    1    2    0    0 -0.17124358117E+01 -0.14495885249E+02  0.11730965106E+02  0.18726416312E+02  0.00000000000E+00 0.  1.
         11    1    3    3    0    0 -0.63331494234E+00  0.42506682026E+01  0.11563349234E+02  0.12336138527E+02  0.51100000000E-03 0. -1.
        -11    1    3    3    0    0  0.13778578161E+02 -0.22721312213E+01  0.13618561462E+02  0.19505819977E+02  0.51100000000E-03 0.  1.
         12    1    3    3    0    0 -0.11432827406E+02  0.12517348268E+02 -0.36912875802E+02  0.40619625185E+02  0.00000000000E+00 0. -1.
</event>
<event>
 7    1  0.1891413E-013  0.7246161E+02  0.7816164E-02  0.1226708E+00
        -11   -1    0    0    0    0  0.00000000000E+00  0.00000000000E+00  0.45593999997E+02  0.45594000000E+02  0.51100000000E-03 0.  1.
         11   -1    0    0    0    0 -0.00000000000E+00 -0.00000000000E+00 -0.45593999997E+02  0.45594000000E+02  0.51100000000E-03 0. -1.
    9900012    2    1    2    0    0  0.16732649735E+02 -0.81423764542E+01 -0.20971164261E+01  0.72461607961E+02  0.70000049068E+02 0.  0.
        -12    1    1    2    0    0 -0.16732649735E+02  0.81423764542E+01  0.20971164261E+01  0.18726392039E+02  0.00000000000E+00 0.  1.
         11    1    3    3    0    0  0.17460805948E+02 -0.92067354417E+01 -0.52913370440E+01  0.20436290511E+02  0.51100000000E-03 0. -1.
        -11    1    3    3    0    0  0.21635102684E+02  0.11797223107E+02  0.95340311798E+01  0.26422526223E+02  0.51100000000E-03 0.  1.
        -12    1    3    3    0    0 -0.22363258897E+02 -0.10732864119E+02 -0.63398105619E+01  0.25602791228E+02  0.00000000000E+00 0.  1.
</event>
<event>
 7    1  0.1891413E-013  0.7246162E+02  0.7816164E-02  0.1226708E+00
        -11   -1    0    0    0    0  0.00000000000E+00  0.00000000000E+00  0.45593999997E+02  0.45594000000E+02  0.51100000000E-03 0.  1.
         11   -1    0    0    0    0 -0.00000000000E+00 -0.00000000000E+00 -0.45593999997E+02  0.45594000000E+02  0.51100000000E-03 0. -1.
    9900012    2    1    2    0    0  0.72622922468E+01  0.91915759772E+01 -0.14609969031E+02  0.72461624143E+02  0.70000070148E+02 0.  0.
        -12    1    1    2    0    0 -0.72622922468E+01 -0.91915759772E+01  0.14609969031E+02  0.18726375857E+02  0.00000000000E+00 0.  1.
         11    1    3    3    0    0 -0.25432515842E+01  0.17645763068E+02  0.64172914260E+01  0.18947894669E+02  0.51100000000E-03 0. -1.
        -11    1    3    3    0    0 -0.25322003872E+01  0.68590363218E+01  0.12594684254E+02  0.14563120880E+02  0.51100000000E-03 0.  1.
         12    1    3    3    0    0  0.12337744218E+02 -0.15313223413E+02 -0.33621944711E+02  0.38950608594E+02  0.00000000000E+00 0. -1.
</event>
<event>
 7    1  0.1891413E-013  0.7246155E+02  0.7816164E-02  0.1226708E+00
        -11   -1    0    0    0    0  0.00000000000E+00  0.00000000000E+00  0.45593999997E+02  0.45594000000E+02  0.51100000000E-03 0.  1.
         11   -1    0    0    0    0 -0.00000000000E+00 -0.00000000000E+00 -0.45593999997E+02  0.45594000000E+02  0.51100000000E-03 0. -1.
    9900012    2    1    2    0    0 -0.16208731367E+02 -0.74043340512E+01  0.57560932733E+01  0.72461554928E+02  0.69999979982E+02 0.  0.
        -12    1    1    2    0    0  0.16208731367E+02  0.74043340512E+01 -0.57560932733E+01  0.18726445072E+02  0.00000000000E+00 0.  1.
         11    1    3    3    0    0 -0.12941793186E+02  0.21634892971E+02  0.16257145428E+02  0.29997556275E+02  0.51100000000E-03 0. -1.
        -11    1    3    3    0    0 -0.11312001000E+02 -0.19293366524E+02  0.45374042006E+01  0.22820679122E+02  0.51100000000E-03 0.  1.
        -12    1    3    3    0    0  0.80450628191E+01 -0.97458604983E+01 -0.15038456356E+02  0.19643319531E+02  0.00000000000E+00 0.  1.
</event>
<event>
 7    1  0.1891413E-013  0.7246162E+02  0.7816164E-02  0.1226708E+00
        -11   -1    0    0    0    0  0.00000000000E+00  0.00000000000E+00  0.45593999997E+02  0.45594000000E+02  0.51100000000E-03 0.  1.
         11   -1    0    0    0    0 -0.00000000000E+00 -0.00000000000E+00 -0.45593999997E+02  0.45594000000E+02  0.51100000000E-03 0. -1.
    9900012    2    1    2    0    0  0.18385271971E+00  0.16462094332E+02 -0.89242990774E+01  0.72461615788E+02  0.70000059264E+02 0.  0.
        -12    1    1    2    0    0 -0.18385271971E+00 -0.16462094332E+02  0.89242990774E+01  0.18726384212E+02  0.00000000000E+00 0.  1.
         11    1    3    3    0    0  0.12052432674E+02 -0.24438501791E+01 -0.55571371369E+01  0.13495010578E+02  0.51100000000E-03 0. -1.
        -11    1    3    3    0    0 -0.25627219985E+02  0.30274683651E+02 -0.81398269300E+01  0.40491575137E+02  0.51100000000E-03 0.  1.
         12    1    3    3    0    0  0.13758640031E+02 -0.11368739140E+02  0.47726649894E+01  0.18475030074E+02  0.00000000000E+00 0. -1.
</event>
<event>
 7    1  0.1891413E-013  0.7246160E+02  0.7816164E-02  0.1226708E+00
        -11   -1    0    0    0    0  0.00000000000E+00  0.00000000000E+00  0.45593999997E+02  0.45594000000E+02  0.51100000000E-03 0.  1.
         11   -1    0    0    0    0 -0.00000000000E+00 -0.00000000000E+00 -0.45593999997E+02  0.45594000000E+02  0.51100000000E-03 0. -1.
    9900012    2    1    2    0    0  0.82703496999E+01  0.12986889339E+00 -0.16800674793E+02  0.72461595551E+02  0.70000032901E+02 0.  0.
        -12    1    1    2    0    0 -0.82703496999E+01 -0.12986889339E+00  0.16800674793E+02  0.18726404449E+02  0.00000000000E+00 0.  1.
         11    1    3    3    0    0  0.79742988038E+01  0.34166752176E+01 -0.12662398262E+01  0.87673527654E+01  0.51100000000E-03 0. -1.
        -11    1    3    3    0    0  0.24836180587E+02 -0.45159256573E+01  0.10995314204E+02  0.27534094962E+02  0.51100000000E-03 0.  1.
         12    1    3    3    0    0 -0.24540129691E+02  0.12291193331E+01 -0.26529749171E+02  0.36160147824E+02  0.00000000000E+00 0. -1.
</event>
<event>
 7    1  0.1891413E-013  0.7246152E+02  0.7816164E-02  0.1226708E+00
        -11   -1    0    0    0    0  0.00000000000E+00  0.00000000000E+00  0.45593999997E+02  0.45594000000E+02  0.51100000000E-03 0.  1.
         11   -1    0    0    0    0 -0.00000000000E+00 -0.00000000000E+00 -0.45593999997E+02  0.45594000000E+02  0.51100000000E-03 0. -1.
    9900012    2    1    2    0    0  0.63726004652E+01 -0.14933217116E+01 -0.17545402940E+02  0.72461515793E+02  0.69999929001E+02 0.  0.
        -12    1    1    2    0    0 -0.63726004652E+01  0.14933217116E+01  0.17545402940E+02  0.18726484207E+02  0.00000000000E+00 0.  1.
         11    1    3    3    0    0 -0.19063999606E+02 -0.16111072175E+01 -0.28281029478E+02  0.34144521904E+02  0.51100000000E-03 0. -1.
        -11    1    3    3    0    0 -0.19547439658E+00 -0.52670581523E+01 -0.54066031533E+01  0.75505939990E+01  0.51100000000E-03 0.  1.
        -12    1    3    3    0    0  0.25632074468E+02  0.53848436583E+01  0.16142229691E+02  0.30766399890E+02  0.00000000000E+00 0.  1.
</event>
<event>
 7    1  0.1891413E-013  0.7246154E+02  0.7816164E-02  0.1226708E+00
        -11   -1    0    0    0    0  0.00000000000E+00  0.00000000000E+00  0.45593999997E+02  0.45594000000E+02  0.51100000000E-03 0. -1.
         11   -1    0    0    0    0 -0.00000000000E+00 -0.00000000000E+00 -0.45593999997E+02  0.45594000000E+02  0.51100000000E-03 0.  1.
    9900012    2    1    2    0    0 -0.11767429109E+02 -0.14435613934E+02 -0.19546986114E+01  0.72461543204E+02  0.69999964709E+02 0.  0.
        -12    1    1    2    0    0  0.11767429109E+02  0.14435613934E+02  0.19546986114E+01  0.18726456796E+02  0.00000000000E+00 0.  1.
         11    1    3    3    0    0 -0.18706743719E+02 -0.68509721523E+01  0.20247975658E+02  0.28405256529E+02  0.51100000000E-03 0. -1.
        -11    1    3    3    0    0 -0.13575566695E+02 -0.73597815824E+00 -0.78502316972E+00  0.13618147325E+02  0.51100000000E-03 0.  1.
        -12    1    3    3    0    0  0.20514881306E+02 -0.68486636239E+01 -0.21417651099E+02  0.30438139349E+02  0.00000000000E+00 0.  1.
</event>
<event>
 7    1  0.1891413E-013  0.7246157E+02  0.7816164E-02  0.1226708E+00
        -11   -1    0    0    0    0  0.00000000000E+00  0.00000000000E+00  0.45593999997E+02  0.45594000000E+02  0.51100000000E-03 0.  1.
         11   -1    0    0    0    0 -0.00000000000E+00 -0.00000000000E+00 -0.45593999997E+02  0.45594000000E+02  0.51100000000E-03 0. -1.
    9900012    2    1    2    0    0 -0.68892920903E+01 -0.14175784991E+02  0.10112571362E+02  0.72461566138E+02  0.69999994586E+02 0.  0.
        -12    1    1    2    0    0  0.68892920903E+01  0.14175784991E+02 -0.10112571362E+02  0.18726433862E+02  0.00000000000E+00 0.  1.
         11    1    3    3    0    0  0.13050666377E+02 -0.11296590173E+02  0.18720858046E-01  0.17260741384E+02  0.51100000000E-03 0. -1.
        -11    1    3    3    0    0  0.92464527512E+01  0.15633136220E+02  0.97981844534E+01  0.20637254066E+02  0.51100000000E-03 0.  1.
         12    1    3    3    0    0 -0.29186411218E+02 -0.18512331038E+02  0.29566605081E+00  0.34563570688E+02  0.00000000000E+00 0. -1.
</event>
<event>
 7    1  0.1891413E-013  0.7246158E+02  0.7816164E-02  0.1226708E+00
        -11   -1    0    0    0    0  0.00000000000E+00  0.00000000000E+00  0.45593999997E+02  0.45594000000E+02  0.51100000000E-03 0. -1.
         11   -1    0    0    0    0 -0.00000000000E+00 -0.00000000000E+00 -0.45593999997E+02  0.45594000000E+02  0.51100000000E-03 0.  1.
    9900012    2    1    2    0    0  0.17262331330E+02  0.70388915221E+01  0.17733403934E+01  0.72461579814E+02  0.70000012402E+02 0.  0.
        -12    1    1    2    0    0 -0.17262331330E+02 -0.70388915221E+01 -0.17733403934E+01  0.18726420186E+02  0.00000000000E+00 0.  1.
         11    1    3    3    0    0 -0.20590607914E+01 -0.22892685828E+02  0.92072017706E+01  0.24760600971E+02  0.51100000000E-03 0. -1.
        -11    1    3    3    0    0  0.16209768034E+01 -0.12308510909E+01  0.83108200063E+01  0.85564180382E+01  0.51100000000E-03 0.  1.
        -12    1    3    3    0    0  0.17700415318E+02  0.31162428441E+02 -0.15744681383E+02  0.39144560805E+02  0.00000000000E+00 0.  1.
</event>
<event>
 7    1  0.1891413E-013  0.7246158E+02  0.7816164E-02  0.1226708E+00
        -11   -1    0    0    0    0  0.00000000000E+00  0.00000000000E+00  0.45593999997E+02  0.45594000000E+02  0.51100000000E-03 0. -1.
         11   -1    0    0    0    0 -0.00000000000E+00 -0.00000000000E+00 -0.45593999997E+02  0.45594000000E+02  0.51100000000E-03 0.  1.
    9900012    2    1    2    0    0 -0.16088980759E+02 -0.87673441757E+01 -0.38674590477E+01  0.72461578418E+02  0.70000010583E+02 0.  0.
        -12    1    1    2    0    0  0.16088980759E+02  0.87673441757E+01  0.38674590477E+01  0.18726421582E+02  0.00000000000E+00 0.  1.
         11    1    3    3    0    0  0.23206110606E+01  0.59645558901E+01  0.24459822669E+02  0.25283276843E+02  0.51100000000E-03 0. -1.
        -11    1    3    3    0    0  0.76274795120E+01 -0.75025775749E+01 -0.84285987219E+01  0.13620146499E+02  0.51100000000E-03 0.  1.
        -12    1    3    3    0    0 -0.26037071332E+02 -0.72293224908E+01 -0.19898682995E+02  0.33558155077E+02  0.00000000000E+00 0.  1.
</event>
<event>
 7    1  0.1891413E-013  0.7246161E+02  0.7816164E-02  0.1226708E+00
        -11   -1    0    0    0    0  0.00000000000E+00  0.00000000000E+00  0.45593999997E+02  0.45594000000E+02  0.51100000000E-03 0.  1.
         11   -1    0    0    0    0 -0.00000000000E+00 -0.00000000000E+00 -0.45593999997E+02  0.45594000000E+02  0.51100000000E-03 0. -1.
    9900012    2    1    2    0    0 -0.15177592593E+02 -0.83382930023E+01 -0.71267847905E+01  0.72461614642E+02  0.70000057771E+02 0.  0.
        -12    1    1    2    0    0  0.15177592593E+02  0.83382930023E+01  0.71267847905E+01  0.18726385358E+02  0.00000000000E+00 0.  1.
         11    1    3    3    0    0  0.13348012853E+02 -0.88372171122E-01  0.49034599260E+01  0.14220449229E+02  0.51100000000E-03 0. -1.
        -11    1    3    3    0    0 -0.25025794957E+01  0.67317008393E+01  0.15765065980E+02  0.17323856555E+02  0.51100000000E-03 0.  1.
         12    1    3    3    0    0 -0.26023025950E+02 -0.14981621670E+02 -0.27795310697E+02  0.40917308858E+02  0.00000000000E+00 0. -1.
</event>
<event>
 7    1  0.1891413E-013  0.7246158E+02  0.7816164E-02  0.1226708E+00
        -11   -1    0    0    0    0  0.00000000000E+00  0.00000000000E+00  0.45593999997E+02  0.45594000000E+02  0.51100000000E-03 0. -1.
         11   -1    0    0    0    0 -0.00000000000E+00 -0.00000000000E+00 -0.45593999997E+02  0.45594000000E+02  0.51100000000E-03 0.  1.
    9900012    2    1    2    0    0  0.35646838440E+01  0.15180638705E+02 -0.10369186314E+02  0.72461580502E+02  0.70000013298E+02 0.  0.
        -12    1    1    2    0    0 -0.35646838440E+01 -0.15180638705E+02  0.10369186314E+02  0.18726419498E+02  0.00000000000E+00 0.  1.
         11    1    3    3    0    0  0.11261645921E+02 -0.69167078681E+01  0.10750845649E+02  0.17036613484E+02  0.51100000000E-03 0. -1.
        -11    1    3    3    0    0 -0.22483374984E+02 -0.13498217200E+01 -0.14927982963E+02  0.27021636607E+02  0.51100000000E-03 0.  1.
         12    1    3    3    0    0  0.14786412907E+02  0.23447168293E+02 -0.61920490010E+01  0.28403330411E+02  0.00000000000E+00 0. -1.
</event>
<event>
 7    1  0.1891413E-013  0.7246157E+02  0.7816164E-02  0.1226708E+00
        -11   -1    0    0    0    0  0.00000000000E+00  0.00000000000E+00  0.45593999997E+02  0.45594000000E+02  0.51100000000E-03 0.  1.
         11   -1    0    0    0    0 -0.00000000000E+00 -0.00000000000E+00 -0.45593999997E+02  0.45594000000E+02  0.51100000000E-03 0. -1.
    9900012    2    1    2    0    0 -0.17697616971E+02 -0.18497736333E+01 -0.58353985040E+01  0.72461569890E+02  0.69999999473E+02 0.  0.
        -12    1    1    2    0    0  0.17697616971E+02  0.18497736333E+01  0.58353985040E+01  0.18726430110E+02  0.00000000000E+00 0.  1.
         11    1    3    3    0    0  0.16782817276E+02 -0.64534581093E+01  0.22325129362E+01  0.18118890461E+02  0.51100000000E-03 0. -1.
        -11    1    3    3    0    0  0.66106639604E+01 -0.11499239493E+01 -0.10850408677E+02  0.12757530004E+02  0.51100000000E-03 0.  1.
        -12    1    3    3    0    0 -0.41091098207E+02  0.57536084254E+01  0.27824972369E+01  0.41585149425E+02  0.00000000000E+00 0.  1.
</event>
<event>
 7    1  0.1891413E-013  0.7246154E+02  0.7816164E-02  0.1226708E+00
        -11   -1    0    0    0    0  0.00000000000E+00  0.00000000000E+00  0.45593999997E+02  0.45594000000E+02  0.51100000000E-03 0. -1.
         11   -1    0    0    0    0 -0.00000000000E+00 -0.00000000000E+00 -0.45593999997E+02  0.45594000000E+02  0.51100000000E-03 0.  1.
    9900012    2    1    2    0    0 -0.14628229788E+02  0.56376657641E+01  0.10242653306E+02  0.72461539342E+02  0.69999959679E+02 0.  0.
        -12    1    1    2    0    0  0.14628229788E+02 -0.56376657641E+01 -0.10242653306E+02  0.18726460658E+02  0.00000000000E+00 0.  1.
         11    1    3    3    0    0 -0.27447123529E+02 -0.87013020922E+01  0.10455614410E+02  0.30632941764E+02  0.51100000000E-03 0. -1.
        -11    1    3    3    0    0  0.32113115440E+01  0.19492649556E+02  0.13782266354E+02  0.24087896850E+02  0.51100000000E-03 0.  1.
        -12    1    3    3    0    0  0.96075821969E+01 -0.51536816995E+01 -0.13995227459E+02  0.17740700729E+02  0.00000000000E+00 0.  1.
</event>
<event>
 7    1  0.1891413E-013  0.7246155E+02  0.7816164E-02  0.1226708E+00
        -11   -1    0    0    0    0  0.00000000000E+00  0.00000000000E+00  0.45593999997E+02  0.45594000000E+02  0.51100000000E-03 0.  1.
         11   -1    0    0    0    0 -0.00000000000E+00 -0.00000000000E+00 -0.45593999997E+02  0.45594000000E+02  0.51100000000E-03 0. -1.
    9900012    2    1    2    0    0  0.18771633516E+01  0.28473129791E+01 -0.18413286253E+02  0.72461546943E+02  0.69999969580E+02 0.  0.
        -12    1    1    2    0    0 -0.18771633516E+01 -0.28473129791E+01  0.18413286253E+02  0.18726453057E+02  0.00000000000E+00 0.  1.
         11    1    3    3    0    0 -0.15255970428E+02 -0.21273349363E+02 -0.68153386350E+01  0.27050857062E+02  0.51100000000E-03 0. -1.
        -11    1    3    3    0    0 -0.68592411606E+01  0.10375836731E+02 -0.12649315333E+02  0.17740134042E+02  0.51100000000E-03 0.  1.
        -12    1    3    3    0    0  0.23992374940E+02  0.13744825612E+02  0.10513677147E+01  0.27670555839E+02  0.00000000000E+00 0.  1.
</event>
<event>
 7    1  0.1891413E-013  0.7246154E+02  0.7816164E-02  0.1226708E+00
        -11   -1    0    0    0    0  0.00000000000E+00  0.00000000000E+00  0.45593999997E+02  0.45594000000E+02  0.51100000000E-03 0.  1.
         11   -1    0    0    0    0 -0.00000000000E+00 -0.00000000000E+00 -0.45593999997E+02  0.45594000000E+02  0.51100000000E-03 0. -1.
    9900012    2    1    2    0    0  0.51542116846E+01  0.10733451264E+02 -0.14453624907E+02  0.72461544193E+02  0.69999965999E+02 0.  0.
        -12    1    1    2    0    0 -0.51542116846E+01 -0.10733451264E+02  0.14453624907E+02  0.18726455807E+02  0.00000000000E+00 0.  1.
         11    1    3    3    0    0  0.72291291306E+01  0.23229044536E+01 -0.15140784430E+01  0.77426498617E+01  0.51100000000E-03 0. -1.
        -11    1    3    3    0    0  0.14640256552E+02  0.26153685171E+02  0.96470870635E+01  0.31486801187E+02  0.51100000000E-03 0.  1.
        -12    1    3    3    0    0 -0.16715173998E+02 -0.17743138361E+02 -0.22586633528E+02  0.33232093145E+02  0.00000000000E+00 0.  1.
</event>
<event>
 7    1  0.1891413E-013  0.7246152E+02  0.7816164E-02  0.1226708E+00
        -11   -1    0    0    0    0  0.00000000000E+00  0.00000000000E+00  0.45593999997E+02  0.45594000000E+02  0.51100000000E-03 0. -1.
         11   -1    0    0    0    0 -0.00000000000E+00 -0.00000000000E+00 -0.45593999997E+02  0.45594000000E+02  0.51100000000E-03 0.  1.
    9900012    2    1    2    0    0 -0.11389567001E+00  0.90588563343E+01  0.16389179529E+02  0.72461519926E+02  0.69999934386E+02 0.  0.
        -12    1    1    2    0    0  0.11389567001E+00 -0.90588563343E+01 -0.16389179529E+02  0.18726480074E+02  0.00000000000E+00 0.  1.
         11    1    3    3    0    0 -0.49844182651E+01 -0.21881669999E+02  0.29236905292E+01  0.22631833199E+02  0.51100000000E-03 0. -1.
        -11    1    3    3    0    0  0.17592626091E+02  0.45018998525E+01  0.85838272969E+01  0.20086057014E+02  0.51100000000E-03 0.  1.
         12    1    3    3    0    0 -0.12722103496E+02  0.26438626481E+02  0.48816617031E+01  0.29743629713E+02  0.00000000000E+00 0. -1.
</event>
<event>
 7    1  0.1891413E-013  0.7246159E+02  0.7816164E-02  0.1226708E+00
        -11   -1    0    0    0    0  0.00000000000E+00  0.00000000000E+00  0.45593999997E+02  0.45594000000E+02  0.51100000000E-03 0.  1.
         11   -1    0    0    0    0 -0.00000000000E+00 -0.00000000000E+00 -0.45593999997E+02  0.45594000000E+02  0.51100000000E-03 0. -1.
    9900012    2    1    2    0    0  0.15101840842E+02  0.38568957060E+01 -0.10379660549E+02  0.72461585650E+02  0.70000020004E+02 0.  0.
        -12    1    1    2    0    0 -0.15101840842E+02 -0.38568957060E+01  0.10379660549E+02  0.18726414350E+02  0.00000000000E+00 0.  1.
         11    1    3    3    0    0  0.38314909906E+01 -0.46543617756E+01 -0.12943327579E+02  0.14278415032E+02  0.51100000000E-03 0. -1.
        -11    1    3    3    0    0  0.17725592832E+02 -0.11310655055E+02  0.21461884972E+02  0.30045633058E+02  0.51100000000E-03 0.  1.
         12    1    3    3    0    0 -0.64552429813E+01  0.19821912537E+02 -0.18898217942E+02  0.28137537560E+02  0.00000000000E+00 0. -1.
</event>
<event>
 7    1  0.1891413E-013  0.7246155E+02  0.7816164E-02  0.1226708E+00
        -11   -1    0    0    0    0  0.00000000000E+00  0.00000000000E+00  0.45593999997E+02  0.45594000000E+02  0.51100000000E-03 0. -1.
         11   -1    0    0    0    0 -0.00000000000E+00 -0.00000000000E+00 -0.45593999997E+02  0.45594000000E+02  0.51100000000E-03 0.  1.
    9900012    2    1    2    0    0 -0.44699928442E+01 -0.13136013798E+02  0.12575540592E+02  0.72461550372E+02  0.69999974047E+02 0.  0.
        -12    1    1    2    0    0  0.44699928442E+01  0.13136013798E+02 -0.12575540592E+02  0.18726449628E+02  0.00000000000E+00 0.  1.
         11    1    3    3    0    0  0.11124408927E+02  0.18929672491E+02 -0.12994284362E+02  0.25513455292E+02  0.51100000000E-03 0. -1.
        -11    1    3    3    0    0 -0.31664485618E+00 -0.18743479916E+02  0.15447495769E+02  0.24290809561E+02  0.51100000000E-03 0.  1.
        -12    1    3    3    0    0 -0.15277756915E+02 -0.13322206372E+02  0.10122329184E+02  0.22657285519E+02  0.00000000000E+00 0.  1.
</event>
<event>
 7    1  0.1891413E-013  0.7246155E+02  0.7816164E-02  0.1226708E+00
        -11   -1    0    0    0    0  0.00000000000E+00  0.00000000000E+00  0.45593999997E+02  0.45594000000E+02  0.51100000000E-03 0. -1.
         11   -1    0    0    0    0 -0.00000000000E+00 -0.00000000000E+00 -0.45593999997E+02  0.45594000000E+02  0.51100000000E-03 0.  1.
    9900012    2    1    2    0    0 -0.70169778602E+01  0.16026721163E+02  0.66773006691E+01  0.72461545083E+02  0.69999967158E+02 0.  0.
        -12    1    1    2    0    0  0.70169778602E+01 -0.16026721163E+02 -0.66773006691E+01  0.18726454917E+02  0.00000000000E+00 0.  1.
         11    1    3    3    0    0  0.97384946896E+01 -0.18418703642E+02  0.17706158532E+02  0.27342183031E+02  0.51100000000E-03 0. -1.
        -11    1    3    3    0    0  0.20712096697E+01  0.60147287725E+01 -0.89188651187E+01  0.10955045731E+02  0.51100000000E-03 0.  1.
        -12    1    3    3    0    0 -0.18826682219E+02  0.28430696033E+02 -0.21099927442E+01  0.34164316321E+02  0.00000000000E+00 0.  1.
</event>
<event>
 7    1  0.1891413E-013  0.7246156E+02  0.7816164E-02  0.1226708E+00
        -11   -1    0    0    0    0  0.00000000000E+00  0.00000000000E+00  0.45593999997E+02  0.45594000000E+02  0.51100000000E-03 0. -1.
         11   -1    0    0    0    0 -0.00000000000E+00 -0.00000000000E+00 -0.45593999997E+02  0.45594000000E+02  0.51100000000E-03 0.  1.
    9900012    2    1    2    0    0 -0.14952528295E+02  0.88387153543E+01  0.69984761520E+01  0.72461557199E+02  0.69999982941E+02 0.  0.
        -12    1    1    2    0    0  0.14952528295E+02 -0.88387153543E+01 -0.69984761520E+01  0.18726442801E+02  0.00000000000E+00 0.  1.
         11    1    3    3    0    0  0.14833794151E+02  0.11961609650E+02  0.79269005501E+01  0.20638733172E+02  0.51100000000E-03 0. -1.
        -11    1    3    3    0    0  0.61884328052E+01 -0.81367555363E+01  0.95808444844E+01  0.14010570029E+02  0.51100000000E-03 0.  1.
        -12    1    3    3    0    0 -0.35974755252E+02  0.50138612401E+01 -0.10509268882E+02  0.37812253998E+02  0.00000000000E+00 0.  1.
</event>
<event>
 7    1  0.1891413E-013  0.7246160E+02  0.7816164E-02  0.1226708E+00
        -11   -1    0    0    0    0  0.00000000000E+00  0.00000000000E+00  0.45593999997E+02  0.45594000000E+02  0.51100000000E-03 0.  1.
         11   -1    0    0    0    0 -0.00000000000E+00 -0.00000000000E+00 -0.45593999997E+02  0.45594000000E+02  0.51100000000E-03 0. -1.
    9900012    2    1    2    0    0  0.71549782969E+01  0.15391531283E+02 -0.79110776172E+01  0.72461598885E+02  0.70000037244E+02 0.  0.
        -12    1    1    2    0    0 -0.71549782969E+01 -0.15391531283E+02  0.79110776172E+01  0.18726401115E+02  0.00000000000E+00 0.  1.
         11    1    3    3    0    0  0.10861139822E+02 -0.25258421355E+01 -0.11328456337E+01  0.11208370811E+02  0.51100000000E-03 0. -1.
        -11    1    3    3    0    0  0.17809528100E+02  0.10337651758E+02  0.18159578486E+02  0.27455721190E+02  0.51100000000E-03 0.  1.
         12    1    3    3    0    0 -0.21515689626E+02  0.75797216602E+01 -0.24937810470E+02  0.33797506884E+02  0.00000000000E+00 0. -1.
</event>
<event>
 7    1  0.1891413E-013  0.7246163E+02  0.7816164E-02  0.1226708E+00
        -11   -1    0    0    0    0  0.00000000000E+00  0.00000000000E+00  0.45593999997E+02  0.45594000000E+02  0.51100000000E-03 0. -1.
         11   -1    0    0    0    0 -0.00000000000E+00 -0.00000000000E+00 -0.45593999997E+02  0.45594000000E+02  0.51100000000E-03 0.  1.
    9900012    2    1    2    0    0  0.18913111509E+01 -0.55803016682E+01  0.17775265952E+02  0.72461630778E+02  0.70000078791E+02 0.  0.
        -12    1    1    2    0    0 -0.18913111509E+01  0.55803016682E+01 -0.17775265952E+02  0.18726369222E+02  0.00000000000E+00 0.  1.
         11    1    3    3    0    0 -0.10768476590E+02 -0.47244524389E+01 -0.36031907117E+01  0.12298923631E+02  0.51100000000E-03 0. -1.
        -11    1    3    3    0    0 -0.15106296005E+02 -0.76129106311E+01 -0.84033132546E+01  0.18888416058E+02  0.51100000000E-03 0.  1.
         12    1    3    3    0    0  0.27766083746E+02  0.67570614019E+01  0.29781769918E+02  0.41274291088E+02  0.00000000000E+00 0. -1.
</event>
<event>
 7    1  0.1891413E-013  0.7246156E+02  0.7816164E-02  0.1226708E+00
        -11   -1    0    0    0    0  0.00000000000E+00  0.00000000000E+00  0.45593999997E+02  0.45594000000E+02  0.51100000000E-03 0.  1.
         11   -1    0    0    0    0 -0.00000000000E+00 -0.00000000000E+00 -0.45593999997E+02  0.45594000000E+02  0.51100000000E-03 0. -1.
    9900012    2    1    2    0    0  0.10807683250E+02 -0.11885359425E+02 -0.96234983383E+01  0.72461561306E+02  0.69999988291E+02 0.  0.
        -12    1    1    2    0    0 -0.10807683250E+02  0.11885359425E+02  0.96234983383E+01  0.18726438694E+02  0.00000000000E+00 0.  1.
         11    1    3    3    0    0 -0.36642622404E+01  0.44007991716E+01 -0.84149832779E+01  0.10178693184E+02  0.51100000000E-03 0. -1.
        -11    1    3    3    0    0  0.36989389255E+02 -0.11349585789E+02  0.31603511418E+01  0.38820301836E+02  0.51100000000E-03 0.  1.
         12    1    3    3    0    0 -0.22517443765E+02 -0.49365728080E+01 -0.43688662022E+01  0.23462566285E+02  0.00000000000E+00 0. -1.
</event>
<event>
 7    1  0.1891413E-013  0.7246157E+02  0.7816164E-02  0.1226708E+00
        -11   -1    0    0    0    0  0.00000000000E+00  0.00000000000E+00  0.45593999997E+02  0.45594000000E+02  0.51100000000E-03 0.  1.
         11   -1    0    0    0    0 -0.00000000000E+00 -0.00000000000E+00 -0.45593999997E+02  0.45594000000E+02  0.51100000000E-03 0. -1.
    9900012    2    1    2    0    0 -0.14291118837E+02 -0.11957525740E+02 -0.18603184499E+01  0.72461567233E+02  0.69999996012E+02 0.  0.
        -12    1    1    2    0    0  0.14291118837E+02  0.11957525740E+02  0.18603184499E+01  0.18726432767E+02  0.00000000000E+00 0.  1.
         11    1    3    3    0    0 -0.88055237497E+01 -0.24434898722E+02 -0.68773879819E+01  0.26868196623E+02  0.51100000000E-03 0. -1.
        -11    1    3    3    0    0 -0.17255163519E+02  0.10490890380E+01 -0.12697610233E+02  0.21449255506E+02  0.51100000000E-03 0.  1.
        -12    1    3    3    0    0  0.11769568432E+02  0.11428283944E+02  0.17714679765E+02  0.24144115104E+02  0.00000000000E+00 0.  1.
</event>
<event>
 7    1  0.1891413E-013  0.7246154E+02  0.7816164E-02  0.1226708E+00
        -11   -1    0    0    0    0  0.00000000000E+00  0.00000000000E+00  0.45593999997E+02  0.45594000000E+02  0.51100000000E-03 0.  1.
         11   -1    0    0    0    0 -0.00000000000E+00 -0.00000000000E+00 -0.45593999997E+02  0.45594000000E+02  0.51100000000E-03 0. -1.
    9900012    2    1    2    0    0  0.74858739045E+01 -0.12569794774E+02  0.11689408206E+02  0.72461539763E+02  0.69999960228E+02 0.  0.
        -12    1    1    2    0    0 -0.74858739045E+01  0.12569794774E+02 -0.11689408206E+02  0.18726460237E+02  0.00000000000E+00 0.  1.
         11    1    3    3    0    0 -0.18682681052E+01  0.49611311852E+00  0.10587406474E+02  0.10762422127E+02  0.51100000000E-03 0. -1.
        -11    1    3    3    0    0 -0.22991711466E+02  0.31571456883E+01  0.85901531662E+01  0.24746254195E+02  0.51100000000E-03 0.  1.
         12    1    3    3    0    0  0.32345853476E+02 -0.16223053581E+02 -0.74881514338E+01  0.36952863441E+02  0.00000000000E+00 0. -1.
</event>
<event>
 7    1  0.1891413E-013  0.7246158E+02  0.7816164E-02  0.1226708E+00
        -11   -1    0    0    0    0  0.00000000000E+00  0.00000000000E+00  0.45593999997E+02  0.45594000000E+02  0.51100000000E-03 0.  1.
         11   -1    0    0    0    0 -0.00000000000E+00 -0.00000000000E+00 -0.45593999997E+02  0.45594000000E+02  0.51100000000E-03 0. -1.
    9900012    2    1    2    0    0  0.86027409869E+01 -0.37959913932E+01 -0.16194514051E+02  0.72461575128E+02  0.70000006296E+02 0.  0.
        -12    1    1    2    0    0 -0.86027409869E+01  0.37959913932E+01  0.16194514051E+02  0.18726424872E+02  0.00000000000E+00 0.  1.
         11    1    3    3    0    0 -0.88450488652E+00 -0.31067514649E+02 -0.21656629417E+02  0.37881161721E+02  0.51100000000E-03 0. -1.
        -11    1    3    3    0    0  0.94748409860E+01  0.32035427165E+01  0.55412389892E+00  0.10017102935E+02  0.51100000000E-03 0.  1.
        -12    1    3    3    0    0  0.12404887467E-01  0.24067980539E+02  0.49079914671E+01  0.24563310472E+02  0.00000000000E+00 0.  1.
</event>
<event>
 7    1  0.1891413E-013  0.7246158E+02  0.7816164E-02  0.1226708E+00
        -11   -1    0    0    0    0  0.00000000000E+00  0.00000000000E+00  0.45593999997E+02  0.45594000000E+02  0.51100000000E-03 0. -1.
         11   -1    0    0    0    0 -0.00000000000E+00 -0.00000000000E+00 -0.45593999997E+02  0.45594000000E+02  0.51100000000E-03 0.  1.
    9900012    2    1    2    0    0 -0.14286478984E+02  0.98233270454E+01  0.70765455112E+01  0.72461581966E+02  0.70000015205E+02 0.  0.
        -12    1    1    2    0    0  0.14286478984E+02 -0.98233270454E+01 -0.70765455112E+01  0.18726418034E+02  0.00000000000E+00 0.  1.
         11    1    3    3    0    0 -0.77498074120E+01  0.13947824045E+02  0.78370896435E+01  0.17776987508E+02  0.51100000000E-03 0. -1.
        -11    1    3    3    0    0 -0.10627056273E+02 -0.66279565698E+01  0.25276641414E+02  0.28209444071E+02  0.51100000000E-03 0.  1.
        -12    1    3    3    0    0  0.40903847012E+01  0.25034595698E+01 -0.26037185547E+02  0.26475150387E+02  0.00000000000E+00 0.  1.
</event>
<event>
 7    1  0.1891413E-013  0.7246159E+02  0.7816164E-02  0.1226708E+00
        -11   -1    0    0    0    0  0.00000000000E+00  0.00000000000E+00  0.45593999997E+02  0.45594000000E+02  0.51100000000E-03 0. -1.
         11   -1    0    0    0    0 -0.00000000000E+00 -0.00000000000E+00 -0.45593999997E+02  0.45594000000E+02  0.51100000000E-03 0.  1.
    9900012    2    1    2    0    0  0.17758751066E+02 -0.28366869112E+00 -0.59350388792E+01  0.72461591005E+02  0.70000026980E+02 0.  0.
        -12    1    1    2    0    0 -0.17758751066E+02  0.28366869112E+00  0.59350388792E+01  0.18726408995E+02  0.00000000000E+00 0.  1.
         11    1    3    3    0    0 -0.69675429021E+01 -0.42723854032E+01 -0.14552230677E+01  0.83016628192E+01  0.51100000000E-03 0. -1.
        -11    1    3    3    0    0  0.72850965585E+01  0.16592467487E+02 -0.27317443187E+02  0.32781478180E+02  0.51100000000E-03 0.  1.
         12    1    3    3    0    0  0.17441197409E+02 -0.12603750775E+02  0.22837627375E+02  0.31378450006E+02  0.00000000000E+00 0. -1.
</event>
<event>
 7    1  0.1891413E-013  0.7246154E+02  0.7816164E-02  0.1226708E+00
        -11   -1    0    0    0    0  0.00000000000E+00  0.00000000000E+00  0.45593999997E+02  0.45594000000E+02  0.51100000000E-03 0.  1.
         11   -1    0    0    0    0 -0.00000000000E+00 -0.00000000000E+00 -0.45593999997E+02  0.45594000000E+02  0.51100000000E-03 0. -1.
    9900012    2    1    2    0    0 -0.68579153968E+01 -0.43009462204E+01 -0.16886418949E+02  0.72461540460E+02  0.69999961135E+02 0.  0.
        -12    1    1    2    0    0  0.68579153968E+01  0.43009462204E+01  0.16886418949E+02  0.18726459540E+02  0.00000000000E+00 0.  1.
         11    1    3    3    0    0 -0.27693912149E+00 -0.12707696815E+02 -0.23107098512E+02  0.26372338833E+02  0.51100000000E-03 0. -1.
        -11    1    3    3    0    0 -0.17790841710E+02 -0.18305361734E+01 -0.12623267733E+02  0.21890906787E+02  0.51100000000E-03 0.  1.
        -12    1    3    3    0    0  0.11209865435E+02  0.10237286768E+02  0.18843947297E+02  0.24198294840E+02  0.00000000000E+00 0.  1.
</event>
<event>
 7    1  0.1891413E-013  0.7246158E+02  0.7816164E-02  0.1226708E+00
        -11   -1    0    0    0    0  0.00000000000E+00  0.00000000000E+00  0.45593999997E+02  0.45594000000E+02  0.51100000000E-03 0.  1.
         11   -1    0    0    0    0 -0.00000000000E+00 -0.00000000000E+00 -0.45593999997E+02  0.45594000000E+02  0.51100000000E-03 0. -1.
    9900012    2    1    2    0    0  0.84338503408E-01  0.14529936078E+02 -0.11813248113E+02  0.72461575183E+02  0.70000006369E+02 0.  0.
        -12    1    1    2    0    0 -0.84338503408E-01 -0.14529936078E+02  0.11813248113E+02  0.18726424817E+02  0.00000000000E+00 0.  1.
         11    1    3    3    0    0 -0.18598958810E+01  0.19503502526E+02 -0.15116883160E+02  0.24746029585E+02  0.51100000000E-03 0. -1.
        -11    1    3    3    0    0  0.12493675814E+01 -0.22241933950E+02 -0.11400165073E+02  0.25024554125E+02  0.51100000000E-03 0.  1.
         12    1    3    3    0    0  0.69486680302E+00  0.17268367502E+02  0.14703800120E+02  0.22690991473E+02  0.00000000000E+00 0. -1.
</event>
<event>
 7    1  0.1891413E-013  0.7246155E+02  0.7816164E-02  0.1226708E+00
        -11   -1    0    0    0    0  0.00000000000E+00  0.00000000000E+00  0.45593999997E+02  0.45594000000E+02  0.51100000000E-03 0.  1.
         11   -1    0    0    0    0 -0.00000000000E+00 -0.00000000000E+00 -0.45593999997E+02  0.45594000000E+02  0.51100000000E-03 0. -1.
    9900012    2    1    2    0    0  0.59219088409E+01 -0.17319102924E+02 -0.39572287401E+01  0.72461548395E+02  0.69999971472E+02 0.  0.
        -12    1    1    2    0    0 -0.59219088409E+01  0.17319102924E+02  0.39572287401E+01  0.18726451605E+02  0.00000000000E+00 0.  1.
         11    1    3    3    0    0  0.16090014398E+02 -0.12987444494E+02  0.24163050361E+01  0.20818280623E+02  0.51100000000E-03 0. -1.
        -11    1    3    3    0    0  0.97227691159E+01 -0.66759637908E+01 -0.22846163331E+02  0.25710852009E+02  0.51100000000E-03 0.  1.
        -12    1    3    3    0    0 -0.19890874673E+02  0.23443053607E+01  0.16472629555E+02  0.25932415763E+02  0.00000000000E+00 0.  1.
</event>
<event>
 7    1  0.1891413E-013  0.7246154E+02  0.7816164E-02  0.1226708E+00
        -11   -1    0    0    0    0  0.00000000000E+00  0.00000000000E+00  0.45593999997E+02  0.45594000000E+02  0.51100000000E-03 0. -1.
         11   -1    0    0    0    0 -0.00000000000E+00 -0.00000000000E+00 -0.45593999997E+02  0.45594000000E+02  0.51100000000E-03 0.  1.
    9900012    2    1    2    0    0 -0.74747907650E+01  0.15776515584E+02  0.67756545345E+01  0.72461536497E+02  0.69999955973E+02 0.  0.
        -12    1    1    2    0    0  0.74747907650E+01 -0.15776515584E+02 -0.67756545345E+01  0.18726463503E+02  0.00000000000E+00 0.  1.
         11    1    3    3    0    0  0.13098675488E+01  0.36510586793E+01  0.14016326761E+02  0.14543156419E+02  0.51100000000E-03 0.  1.
        -11    1    3    3    0    0  0.31023471769E+01  0.24901967028E+02  0.15316008378E+02  0.29399194424E+02  0.51100000000E-03 0. -1.
        -12    1    3    3    0    0 -0.11887005491E+02 -0.12776510124E+02 -0.22556680605E+02  0.28519185655E+02  0.00000000000E+00 0.  1.
</event>
<event>
 7    1  0.1891413E-013  0.7246135E+02  0.7816164E-02  0.1226709E+00
        -11   -1    0    0    0    0  0.00000000000E+00  0.00000000000E+00  0.45593999997E+02  0.45594000000E+02  0.51100000000E-03 0.  1.
         11   -1    0    0    0    0 -0.00000000000E+00 -0.00000000000E+00 -0.45593999997E+02  0.45594000000E+02  0.51100000000E-03 0. -1.
    9900012    2    1    2    0    0 -0.16460514227E+02 -0.88990501888E+01  0.73886571938E+00  0.72461346657E+02  0.69999708670E+02 0.  0.
        -12    1    1    2    0    0  0.16460514227E+02  0.88990501888E+01 -0.73886571938E+00  0.18726653343E+02  0.00000000000E+00 0.  1.
         11    1    3    3    0    0 -0.85004484753E+01  0.24948479368E+01 -0.11180470975E+01  0.89292732113E+01  0.51100000000E-03 0. -1.
        -11    1    3    3    0    0  0.86193292458E-01  0.25380368015E+02 -0.30750764334E+01  0.25566122216E+02  0.51100000000E-03 0.  1.
         12    1    3    3    0    0 -0.80462590440E+01 -0.36774266141E+02  0.49319892503E+01  0.37965951229E+02  0.00000000000E+00 0. -1.
</event>
<event>
 7    1  0.1891413E-013  0.7246157E+02  0.7816164E-02  0.1226708E+00
        -11   -1    0    0    0    0  0.00000000000E+00  0.00000000000E+00  0.45593999997E+02  0.45594000000E+02  0.51100000000E-03 0. -1.
         11   -1    0    0    0    0 -0.00000000000E+00 -0.00000000000E+00 -0.45593999997E+02  0.45594000000E+02  0.51100000000E-03 0.  1.
    9900012    2    1    2    0    0  0.10182991629E+02 -0.77894729898E+01  0.13649540972E+02  0.72461570102E+02  0.69999999750E+02 0.  0.
        -12    1    1    2    0    0 -0.10182991629E+02  0.77894729898E+01 -0.13649540972E+02  0.18726429898E+02  0.00000000000E+00 0.  1.
         11    1    3    3    0    0 -0.15344424496E+01 -0.13217422597E+02  0.62021478534E+01  0.14680647533E+02  0.51100000000E-03 0. -1.
        -11    1    3    3    0    0 -0.11996978774E+02 -0.28833285156E+01  0.24486876268E+02  0.27419850339E+02  0.51100000000E-03 0.  1.
        -12    1    3    3    0    0  0.23714412852E+02  0.83112781226E+01 -0.17039483149E+02  0.30361072230E+02  0.00000000000E+00 0.  1.
</event>
<event>
 7    1  0.1891413E-013  0.7246167E+02  0.7816164E-02  0.1226708E+00
        -11   -1    0    0    0    0  0.00000000000E+00  0.00000000000E+00  0.45593999997E+02  0.45594000000E+02  0.51100000000E-03 0.  1.
         11   -1    0    0    0    0 -0.00000000000E+00 -0.00000000000E+00 -0.45593999997E+02  0.45594000000E+02  0.51100000000E-03 0. -1.
    9900012    2    1    2    0    0  0.14188382657E+02 -0.57000371914E+01 -0.10810871499E+02  0.72461666430E+02  0.70000125235E+02 0.  0.
        -12    1    1    2    0    0 -0.14188382657E+02  0.57000371914E+01  0.10810871499E+02  0.18726333570E+02  0.00000000000E+00 0.  1.
         11    1    3    3    0    0 -0.71970136756E+00  0.51619866029E+01  0.11317678006E+01  0.53333830130E+01  0.51100000000E-03 0. -1.
        -11    1    3    3    0    0 -0.55774204573E+00  0.47719363862E+01  0.24281035757E+02  0.24751790859E+02  0.51100000000E-03 0.  1.
         12    1    3    3    0    0  0.15465826070E+02 -0.15633960181E+02 -0.36223675056E+02  0.42376492558E+02  0.00000000000E+00 0. -1.
</event>
<event>
 7    1  0.1891413E-013  0.7246161E+02  0.7816164E-02  0.1226708E+00
        -11   -1    0    0    0    0  0.00000000000E+00  0.00000000000E+00  0.45593999997E+02  0.45594000000E+02  0.51100000000E-03 0.  1.
         11   -1    0    0    0    0 -0.00000000000E+00 -0.00000000000E+00 -0.45593999997E+02  0.45594000000E+02  0.51100000000E-03 0. -1.
    9900012    2    1    2    0    0  0.51363496563E+01 -0.96280970811E+01  0.15218261001E+02  0.72461606618E+02  0.70000047319E+02 0.  0.
        -12    1    1    2    0    0 -0.51363496563E+01  0.96280970811E+01 -0.15218261001E+02  0.18726393382E+02  0.00000000000E+00 0.  1.
         11    1    3    3    0    0  0.11742407232E+02 -0.18072777301E+02 -0.12666792800E+02  0.24999140927E+02  0.51100000000E-03 0. -1.
        -11    1    3    3    0    0 -0.91320604764E+00 -0.10617780441E+02 -0.26840564213E+01  0.10989784616E+02  0.51100000000E-03 0.  1.
        -12    1    3    3    0    0 -0.56928515282E+01  0.19062460661E+02  0.30569110223E+02  0.36472681075E+02  0.00000000000E+00 0.  1.
</event>
<event>
 7    1  0.1891413E-013  0.7246159E+02  0.7816164E-02  0.1226708E+00
        -11   -1    0    0    0    0  0.00000000000E+00  0.00000000000E+00  0.45593999997E+02  0.45594000000E+02  0.51100000000E-03 0. -1.
         11   -1    0    0    0    0 -0.00000000000E+00 -0.00000000000E+00 -0.45593999997E+02  0.45594000000E+02  0.51100000000E-03 0.  1.
    9900012    2    1    2    0    0  0.13310576213E+01 -0.18676116921E+02  0.33057298032E+00  0.72461592546E+02  0.70000028987E+02 0.  0.
        -12    1    1    2    0    0 -0.13310576213E+01  0.18676116921E+02 -0.33057298032E+00  0.18726407454E+02  0.00000000000E+00 0.  1.
         11    1    3    3    0    0  0.10362191341E+02 -0.70430278995E+01 -0.17844954241E+01  0.12655578831E+02  0.51100000000E-03 0. -1.
        -11    1    3    3    0    0  0.12526225029E+02 -0.28431418647E+02 -0.52324093294E+01  0.31506030968E+02  0.51100000000E-03 0.  1.
         12    1    3    3    0    0 -0.21557358748E+02  0.16798329625E+02  0.73474777338E+01  0.28299982746E+02  0.00000000000E+00 0. -1.
</event>
<event>
 7    1  0.1891413E-013  0.7246154E+02  0.7816164E-02  0.1226708E+00
        -11   -1    0    0    0    0  0.00000000000E+00  0.00000000000E+00  0.45593999997E+02  0.45594000000E+02  0.51100000000E-03 0. -1.
         11   -1    0    0    0    0 -0.00000000000E+00 -0.00000000000E+00 -0.45593999997E+02  0.45594000000E+02  0.51100000000E-03 0.  1.
    9900012    2    1    2    0    0 -0.59634628508E+01  0.41022346369E+01  0.17271051752E+02  0.72461536190E+02  0.69999955573E+02 0.  0.
        -12    1    1    2    0    0  0.59634628508E+01 -0.41022346369E+01 -0.17271051752E+02  0.18726463810E+02  0.00000000000E+00 0.  1.
         11    1    3    3    0    0  0.25295496142E+02  0.55386656732E+01  0.11299340309E+02  0.28252681894E+02  0.51100000000E-03 0. -1.
        -11    1    3    3    0    0  0.16686704374E+01  0.87523606412E+01 -0.12360367481E+01  0.89953357317E+01  0.51100000000E-03 0.  1.
         12    1    3    3    0    0 -0.32927629430E+02 -0.10188791678E+02  0.72077481910E+01  0.35213518565E+02  0.00000000000E+00 0. -1.
</event>
<event>
 7    1  0.1891413E-013  0.7246156E+02  0.7816164E-02  0.1226708E+00
        -11   -1    0    0    0    0  0.00000000000E+00  0.00000000000E+00  0.45593999997E+02  0.45594000000E+02  0.51100000000E-03 0.  1.
         11   -1    0    0    0    0 -0.00000000000E+00 -0.00000000000E+00 -0.45593999997E+02  0.45594000000E+02  0.51100000000E-03 0. -1.
    9900012    2    1    2    0    0 -0.10738309971E+01 -0.18679924266E+02 -0.76617563716E+00  0.72461555898E+02  0.69999981247E+02 0.  0.
        -12    1    1    2    0    0  0.10738309971E+01  0.18679924266E+02  0.76617563716E+00  0.18726444102E+02  0.00000000000E+00 0.  1.
         11    1    3    3    0    0 -0.10685785882E+01 -0.10446126530E+01  0.28226525442E+01  0.31938133071E+01  0.51100000000E-03 0. -1.
        -11    1    3    3    0    0 -0.29645559517E+02  0.66352723432E+01 -0.56625412766E+01  0.30902271957E+02  0.51100000000E-03 0.  1.
         12    1    3    3    0    0  0.29640307108E+02 -0.24270583956E+02  0.20737130952E+01  0.38365470634E+02  0.00000000000E+00 0. -1.
</event>
<event>
 7    1  0.1891413E-013  0.7246156E+02  0.7816164E-02  0.1226708E+00
        -11   -1    0    0    0    0  0.00000000000E+00  0.00000000000E+00  0.45593999997E+02  0.45594000000E+02  0.51100000000E-03 0.  1.
         11   -1    0    0    0    0 -0.00000000000E+00 -0.00000000000E+00 -0.45593999997E+02  0.45594000000E+02  0.51100000000E-03 0. -1.
    9900012    2    1    2    0    0  0.94997167267E+01  0.15250785936E+02  0.52771505812E+01  0.72461563932E+02  0.69999991712E+02 0.  0.
        -12    1    1    2    0    0 -0.94997167267E+01 -0.15250785936E+02 -0.52771505812E+01  0.18726436068E+02  0.00000000000E+00 0.  1.
         11    1    3    3    0    0 -0.80574831603E+01  0.11146919623E+02 -0.66382642172E+01  0.15272308406E+02  0.51100000000E-03 0. -1.
        -11    1    3    3    0    0 -0.18096343169E+02  0.56490144184E+00 -0.30506450927E+01  0.18360369971E+02  0.51100000000E-03 0.  1.
        -12    1    3    3    0    0  0.35653543056E+02  0.35389648710E+01  0.14966059891E+02  0.38828885555E+02  0.00000000000E+00 0.  1.
</event>
<event>
 7    1  0.1891413E-013  0.7246156E+02  0.7816164E-02  0.1226708E+00
        -11   -1    0    0    0    0  0.00000000000E+00  0.00000000000E+00  0.45593999997E+02  0.45594000000E+02  0.51100000000E-03 0. -1.
         11   -1    0    0    0    0 -0.00000000000E+00 -0.00000000000E+00 -0.45593999997E+02  0.45594000000E+02  0.51100000000E-03 0.  1.
    9900012    2    1    2    0    0  0.16922667119E+02  0.65501015937E+01  0.46259004986E+01  0.72461562840E+02  0.69999990289E+02 0.  0.
        -12    1    1    2    0    0 -0.16922667119E+02 -0.65501015937E+01 -0.46259004986E+01  0.18726437160E+02  0.00000000000E+00 0.  1.
         11    1    3    3    0    0  0.15664094688E+02  0.16544200129E+02  0.30225727226E+02  0.37850614354E+02  0.51100000000E-03 0. -1.
        -11    1    3    3    0    0 -0.66905866637E+01  0.74754098250E+00 -0.12672777480E+01  0.68504569612E+01  0.51100000000E-03 0.  1.
        -12    1    3    3    0    0  0.79491590944E+01 -0.10741639518E+02 -0.24332548980E+02  0.27760491525E+02  0.00000000000E+00 0.  1.
</event>
<event>
 7    1  0.1891413E-013  0.7246155E+02  0.7816164E-02  0.1226708E+00
        -11   -1    0    0    0    0  0.00000000000E+00  0.00000000000E+00  0.45593999997E+02  0.45594000000E+02  0.51100000000E-03 0.  1.
         11   -1    0    0    0    0 -0.00000000000E+00 -0.00000000000E+00 -0.45593999997E+02  0.45594000000E+02  0.51100000000E-03 0. -1.
    9900012    2    1    2    0    0 -0.11144674176E+02 -0.13752411027E+02 -0.61112502157E+01  0.72461549436E+02  0.69999972828E+02 0.  0.
        -12    1    1    2    0    0  0.11144674176E+02  0.13752411027E+02  0.61112502157E+01  0.18726450564E+02  0.00000000000E+00 0.  1.
         11    1    3    3    0    0  0.20391933853E+01  0.11624906145E+01 -0.20126296019E+02  0.20262711709E+02  0.51100000000E-03 0. -1.
        -11    1    3    3    0    0  0.89445539841E+01 -0.15520729224E+02 -0.91858171233E+01  0.20131500642E+02  0.51100000000E-03 0.  1.
        -12    1    3    3    0    0 -0.22128421546E+02  0.60582758257E+00  0.23200862927E+02  0.32067337085E+02  0.00000000000E+00 0.  1.
</event>
<event>
 7    1  0.1891413E-013  0.7246154E+02  0.7816164E-02  0.1226708E+00
        -11   -1    0    0    0    0  0.00000000000E+00  0.00000000000E+00  0.45593999997E+02  0.45594000000E+02  0.51100000000E-03 0. -1.
         11   -1    0    0    0    0 -0.00000000000E+00 -0.00000000000E+00 -0.45593999997E+02  0.45594000000E+02  0.51100000000E-03 0.  1.
    9900012    2    1    2    0    0 -0.10204190863E+02 -0.15608701063E+02  0.17097457026E+01  0.72461540367E+02  0.69999961013E+02 0.  0.
        -12    1    1    2    0    0  0.10204190863E+02  0.15608701063E+02 -0.17097457026E+01  0.18726459633E+02  0.00000000000E+00 0.  1.
         11    1    3    3    0    0 -0.11085262043E+01  0.10161574450E+01 -0.13401590424E+02  0.13485697329E+02  0.51100000000E-03 0. -1.
        -11    1    3    3    0    0  0.24486381886E+01  0.15770764422E+02 -0.76868602069E+01  0.17714419537E+02  0.51100000000E-03 0.  1.
         12    1    3    3    0    0 -0.11544302847E+02 -0.32395622929E+02  0.22798196334E+02  0.41261423500E+02  0.00000000000E+00 0. -1.
</event>
<event>
 7    1  0.1891413E-013  0.7246156E+02  0.7816164E-02  0.1226708E+00
        -11   -1    0    0    0    0  0.00000000000E+00  0.00000000000E+00  0.45593999997E+02  0.45594000000E+02  0.51100000000E-03 0. -1.
         11   -1    0    0    0    0 -0.00000000000E+00 -0.00000000000E+00 -0.45593999997E+02  0.45594000000E+02  0.51100000000E-03 0.  1.
    9900012    2    1    2    0    0 -0.23080784099E+01 -0.18214583778E+02 -0.36852883052E+01  0.72461557785E+02  0.69999983704E+02 0.  0.
        -12    1    1    2    0    0  0.23080784099E+01  0.18214583778E+02  0.36852883052E+01  0.18726442215E+02  0.00000000000E+00 0.  1.
         11    1    3    3    0    0 -0.19479789541E+02 -0.17229058584E+02 -0.49136286524E+01  0.26465948066E+02  0.51100000000E-03 0. -1.
        -11    1    3    3    0    0 -0.11276395320E+02  0.13342671190E+01 -0.10187067707E+02  0.15254956862E+02  0.51100000000E-03 0.  1.
         12    1    3    3    0    0  0.28448106451E+02 -0.23197923132E+01  0.11415408054E+02  0.30740652856E+02  0.00000000000E+00 0. -1.
</event>
<event>
 7    1  0.1891413E-013  0.7246159E+02  0.7816164E-02  0.1226708E+00
        -11   -1    0    0    0    0  0.00000000000E+00  0.00000000000E+00  0.45593999997E+02  0.45594000000E+02  0.51100000000E-03 0. -1.
         11   -1    0    0    0    0 -0.00000000000E+00 -0.00000000000E+00 -0.45593999997E+02  0.45594000000E+02  0.51100000000E-03 0.  1.
    9900012    2    1    2    0    0 -0.39048183377E+01  0.11845905300E+02 -0.13968017327E+02  0.72461585857E+02  0.70000020273E+02 0.  0.
        -12    1    1    2    0    0  0.39048183377E+01 -0.11845905300E+02  0.13968017327E+02  0.18726414143E+02  0.00000000000E+00 0.  1.
         11    1    3    3    0    0  0.69190446864E+01  0.37187792448E+01  0.12283671124E+02  0.14580503249E+02  0.51100000000E-03 0. -1.
        -11    1    3    3    0    0  0.18134204245E+02  0.13332358542E+01 -0.20824362993E+02  0.27645632128E+02  0.51100000000E-03 0.  1.
        -12    1    3    3    0    0 -0.28958067269E+02  0.67938902006E+01 -0.54273254585E+01  0.30235450479E+02  0.00000000000E+00 0.  1.
</event>
<event>
 7    1  0.1891413E-013  0.7246157E+02  0.7816164E-02  0.1226708E+00
        -11   -1    0    0    0    0  0.00000000000E+00  0.00000000000E+00  0.45593999997E+02  0.45594000000E+02  0.51100000000E-03 0.  1.
         11   -1    0    0    0    0 -0.00000000000E+00 -0.00000000000E+00 -0.45593999997E+02  0.45594000000E+02  0.51100000000E-03 0. -1.
    9900012    2    1    2    0    0 -0.12289295795E+01  0.96248290041E+01 -0.16016600478E+02  0.72461572360E+02  0.70000002691E+02 0.  0.
        -12    1    1    2    0    0  0.12289295795E+01 -0.96248290041E+01  0.16016600478E+02  0.18726427640E+02  0.00000000000E+00 0.  1.
         11    1    3    3    0    0 -0.18328024311E+01 -0.16363079925E+02 -0.15490254388E+02  0.22606581578E+02  0.51100000000E-03 0. -1.
        -11    1    3    3    0    0 -0.17067969646E+02  0.44043027568E+01 -0.10157068196E+02  0.20344028736E+02  0.51100000000E-03 0.  1.
        -12    1    3    3    0    0  0.17671842497E+02  0.21583606172E+02  0.96307221055E+01  0.29510962047E+02  0.00000000000E+00 0.  1.
</event>
<event>
 7    1  0.1891413E-013  0.7246077E+02  0.7816164E-02  0.1226710E+00
        -11   -1    0    0    0    0  0.00000000000E+00  0.00000000000E+00  0.45593999997E+02  0.45594000000E+02  0.51100000000E-03 0.  1.
         11   -1    0    0    0    0 -0.00000000000E+00 -0.00000000000E+00 -0.45593999997E+02  0.45594000000E+02  0.51100000000E-03 0. -1.
    9900012    2    1    2    0    0 -0.48240168980E+01  0.73358416635E+01 -0.16541570377E+02  0.72460766822E+02  0.69998953321E+02 0.  0.
        -12    1    1    2    0    0  0.48240168980E+01 -0.73358416635E+01  0.16541570377E+02  0.18727233178E+02  0.00000000000E+00 0.  1.
         11    1    3    3    0    0 -0.79017507111E+01 -0.36724312879E+01 -0.35121042541E+01  0.93946416865E+01  0.51100000000E-03 0. -1.
        -11    1    3    3    0    0 -0.38130121382E+01 -0.21595489291E+02  0.83590928555E+01  0.23468673863E+02  0.51100000000E-03 0.  1.
         12    1    3    3    0    0  0.68907459513E+01  0.32603762242E+02 -0.21388558979E+02  0.39597451273E+02  0.00000000000E+00 0. -1.
</event>
<event>
 7    1  0.1891413E-013  0.7246206E+02  0.7816164E-02  0.1226707E+00
        -11   -1    0    0    0    0  0.00000000000E+00  0.00000000000E+00  0.45593999997E+02  0.45594000000E+02  0.51100000000E-03 0. -1.
         11   -1    0    0    0    0 -0.00000000000E+00 -0.00000000000E+00 -0.45593999997E+02  0.45594000000E+02  0.51100000000E-03 0.  1.
    9900012    2    1    2    0    0  0.89437322860E+00 -0.27154350101E+01  0.18506416446E+02  0.72462057021E+02  0.70000634049E+02 0.  0.
        -12    1    1    2    0    0 -0.89437322860E+00  0.27154350101E+01 -0.18506416446E+02  0.18725942979E+02  0.00000000000E+00 0.  1.
         11    1    3    3    0    0  0.58322334924E+00  0.67616600096E+01  0.41696142031E+01  0.79652921117E+01  0.51100000000E-03 0. -1.
        -11    1    3    3    0    0  0.70482934648E+01  0.24174897524E+02 -0.41398193191E+01  0.25519447786E+02  0.51100000000E-03 0.  1.
         12    1    3    3    0    0 -0.67371435854E+01 -0.33651992543E+02  0.18476621562E+02  0.38977317124E+02  0.00000000000E+00 0. -1.
</event>
<event>
 7    1  0.1891413E-013  0.7246158E+02  0.7816164E-02  0.1226708E+00
        -11   -1    0    0    0    0  0.00000000000E+00  0.00000000000E+00  0.45593999997E+02  0.45594000000E+02  0.51100000000E-03 0.  1.
         11   -1    0    0    0    0 -0.00000000000E+00 -0.00000000000E+00 -0.45593999997E+02  0.45594000000E+02  0.51100000000E-03 0. -1.
    9900012    2    1    2    0    0 -0.88159551120E+01  0.77870139433E+00 -0.16503066619E+02  0.72461584213E+02  0.70000018131E+02 0.  0.
        -12    1    1    2    0    0  0.88159551120E+01 -0.77870139433E+00  0.16503066619E+02  0.18726415787E+02  0.00000000000E+00 0.  1.
         11    1    3    3    0    0  0.15866024963E+02  0.86825387943E+01 -0.12058943949E+02  0.21737878403E+02  0.51100000000E-03 0. -1.
        -11    1    3    3    0    0  0.55409101504E+01 -0.70699863220E+01  0.13012417062E+02  0.15811685235E+02  0.51100000000E-03 0.  1.
        -12    1    3    3    0    0 -0.30222890226E+02 -0.83385107793E+00 -0.17456539733E+02  0.34912020575E+02  0.00000000000E+00 0.  1.
</event>
<event>
 7    1  0.1891413E-013  0.7246150E+02  0.7816164E-02  0.1226708E+00
        -11   -1    0    0    0    0  0.00000000000E+00  0.00000000000E+00  0.45593999997E+02  0.45594000000E+02  0.51100000000E-03 0.  1.
         11   -1    0    0    0    0 -0.00000000000E+00 -0.00000000000E+00 -0.45593999997E+02  0.45594000000E+02  0.51100000000E-03 0. -1.
    9900012    2    1    2    0    0  0.76693971858E+01  0.10432255923E+01 -0.17052095119E+02  0.72461496836E+02  0.69999904306E+02 0.  0.
        -12    1    1    2    0    0 -0.76693971858E+01 -0.10432255923E+01  0.17052095119E+02  0.18726503164E+02  0.00000000000E+00 0.  1.
         11    1    3    3    0    0  0.15639590908E+02  0.22762999977E+02 -0.75289488952E+01  0.28625793324E+02  0.51100000000E-03 0. -1.
        -11    1    3    3    0    0  0.78095157167E+01 -0.67333824742E+01  0.10172144663E+02  0.14484457276E+02  0.51100000000E-03 0.  1.
        -12    1    3    3    0    0 -0.15779709439E+02 -0.14986391910E+02 -0.19695290887E+02  0.29351246235E+02  0.00000000000E+00 0.  1.
</event>
<event>
 7    1  0.1891413E-013  0.7246157E+02  0.7816164E-02  0.1226708E+00
        -11   -1    0    0    0    0  0.00000000000E+00  0.00000000000E+00  0.45593999997E+02  0.45594000000E+02  0.51100000000E-03 0.  1.
         11   -1    0    0    0    0 -0.00000000000E+00 -0.00000000000E+00 -0.45593999997E+02  0.45594000000E+02  0.51100000000E-03 0. -1.
    9900012    2    1    2    0    0  0.15270333663E+02  0.70748106143E+01 -0.82123757075E+01  0.72461570811E+02  0.70000000673E+02 0.  0.
        -12    1    1    2    0    0 -0.15270333663E+02 -0.70748106143E+01  0.82123757075E+01  0.18726429189E+02  0.00000000000E+00 0.  1.
         11    1    3    3    0    0 -0.40138440935E+01  0.29500301516E+01  0.20319023662E+01  0.53798001626E+01  0.51100000000E-03 0. -1.
        -11    1    3    3    0    0  0.35040353572E+01  0.81967615414E+01  0.25922683510E+02  0.27412600828E+02  0.51100000000E-03 0.  1.
         12    1    3    3    0    0  0.15780142400E+02 -0.40719810788E+01 -0.36166961583E+02  0.39669169820E+02  0.00000000000E+00 0. -1.
</event>
<event>
 7    1  0.1891413E-013  0.7246175E+02  0.7816164E-02  0.1226708E+00
        -11   -1    0    0    0    0  0.00000000000E+00  0.00000000000E+00  0.45593999997E+02  0.45594000000E+02  0.51100000000E-03 0. -1.
         11   -1    0    0    0    0 -0.00000000000E+00 -0.00000000000E+00 -0.45593999997E+02  0.45594000000E+02  0.51100000000E-03 0.  1.
    9900012    2    1    2    0    0 -0.60578529665E+00 -0.15324472796E+02  0.10745512807E+02  0.72461748699E+02  0.70000232405E+02 0.  0.
        -12    1    1    2    0    0  0.60578529665E+00  0.15324472796E+02 -0.10745512807E+02  0.18726251301E+02  0.00000000000E+00 0.  1.
         11    1    3    3    0    0  0.38329564006E+01  0.82749166301E+01 -0.25147848518E+00  0.91229952150E+01  0.51100000000E-03 0. -1.
        -11    1    3    3    0    0 -0.81209891398E+00 -0.37171041868E+01 -0.23257439364E+02  0.23566604639E+02  0.51100000000E-03 0.  1.
         12    1    3    3    0    0 -0.36266427833E+01 -0.19882285239E+02  0.34254430656E+02  0.39772148845E+02  0.00000000000E+00 0. -1.
</event>
<event>
 7    1  0.1891413E-013  0.7246158E+02  0.7816164E-02  0.1226708E+00
        -11   -1    0    0    0    0  0.00000000000E+00  0.00000000000E+00  0.45593999997E+02  0.45594000000E+02  0.51100000000E-03 0. -1.
         11   -1    0    0    0    0 -0.00000000000E+00 -0.00000000000E+00 -0.45593999997E+02  0.45594000000E+02  0.51100000000E-03 0.  1.
    9900012    2    1    2    0    0  0.56171015434E+00  0.14430245069E+02  0.11921880706E+02  0.72461582013E+02  0.70000015266E+02 0.  0.
        -12    1    1    2    0    0 -0.56171015434E+00 -0.14430245069E+02 -0.11921880706E+02  0.18726417987E+02  0.00000000000E+00 0.  1.
         11    1    3    3    0    0  0.27626173919E+02  0.96407145726E+01  0.10767897821E+02  0.31178461903E+02  0.51100000000E-03 0. -1.
        -11    1    3    3    0    0 -0.13559059690E+02 -0.86033360790E+01  0.11386260409E+02  0.19685335093E+02  0.51100000000E-03 0.  1.
        -12    1    3    3    0    0 -0.13505404074E+02  0.13392866576E+02 -0.10232277524E+02  0.21597785017E+02  0.00000000000E+00 0.  1.
</event>
<event>
 7    1  0.1891413E-013  0.7246154E+02  0.7816164E-02  0.1226708E+00
        -11   -1    0    0    0    0  0.00000000000E+00  0.00000000000E+00  0.45593999997E+02  0.45594000000E+02  0.51100000000E-03 0.  1.
         11   -1    0    0    0    0 -0.00000000000E+00 -0.00000000000E+00 -0.45593999997E+02  0.45594000000E+02  0.51100000000E-03 0. -1.
    9900012    2    1    2    0    0  0.53417998141E+01 -0.25537935838E+01 -0.17765798032E+02  0.72461541001E+02  0.69999961840E+02 0.  0.
        -12    1    1    2    0    0 -0.53417998141E+01  0.25537935838E+01  0.17765798032E+02  0.18726458999E+02  0.00000000000E+00 0.  1.
         11    1    3    3    0    0 -0.23844733991E+02 -0.22716596289E+02 -0.53351710833E+00  0.32937816061E+02  0.51100000000E-03 0.  1.
        -11    1    3    3    0    0  0.61312368027E+01  0.52647607530E+01 -0.46944074355E+01  0.93459741038E+01  0.51100000000E-03 0. -1.
        -12    1    3    3    0    0  0.23055297003E+02  0.14898041953E+02 -0.12537873489E+02  0.30177750836E+02  0.00000000000E+00 0.  1.
</event>
<event>
 7    1  0.1891413E-013  0.7246157E+02  0.7816164E-02  0.1226708E+00
        -11   -1    0    0    0    0  0.00000000000E+00  0.00000000000E+00  0.45593999997E+02  0.45594000000E+02  0.51100000000E-03 0.  1.
         11   -1    0    0    0    0 -0.00000000000E+00 -0.00000000000E+00 -0.45593999997E+02  0.45594000000E+02  0.51100000000E-03 0. -1.
    9900012    2    1    2    0    0 -0.96106107249E+01 -0.15289720096E+02  0.49537751723E+01  0.72461567677E+02  0.69999996590E+02 0.  0.
        -12    1    1    2    0    0  0.96106107249E+01  0.15289720096E+02 -0.49537751723E+01  0.18726432323E+02  0.00000000000E+00 0.  1.
         11    1    3    3    0    0  0.80161298198E+01  0.35844454635E+00 -0.19631110437E+01  0.82607884013E+01  0.51100000000E-03 0. -1.
        -11    1    3    3    0    0  0.10429533527E+02 -0.28142240771E+02  0.13307230457E+02  0.32830523417E+02  0.51100000000E-03 0.  1.
         12    1    3    3    0    0 -0.28056274071E+02  0.12494076129E+02 -0.63903442405E+01  0.31370255858E+02  0.00000000000E+00 0. -1.
</event>
<event>
 7    1  0.1891413E-013  0.7246137E+02  0.7816164E-02  0.1226709E+00
        -11   -1    0    0    0    0  0.00000000000E+00  0.00000000000E+00  0.45593999997E+02  0.45594000000E+02  0.51100000000E-03 0. -1.
         11   -1    0    0    0    0 -0.00000000000E+00 -0.00000000000E+00 -0.45593999997E+02  0.45594000000E+02  0.51100000000E-03 0.  1.
    9900012    2    1    2    0    0  0.15071124993E+01  0.51135685680E+01  0.17951783283E+02  0.72461374713E+02  0.69999745219E+02 0.  0.
        -12    1    1    2    0    0 -0.15071124993E+01 -0.51135685680E+01 -0.17951783283E+02  0.18726625287E+02  0.00000000000E+00 0.  1.
         11    1    3    3    0    0 -0.71504802518E+01 -0.26366140503E+02  0.19281010150E+02  0.33437405484E+02  0.51100000000E-03 0. -1.
        -11    1    3    3    0    0 -0.60614345747E+01  0.82877454692E+01  0.40429585653E+01  0.11035090769E+02  0.51100000000E-03 0.  1.
        -12    1    3    3    0    0  0.14719027326E+02  0.23191963602E+02 -0.53721854319E+01  0.27988878460E+02  0.00000000000E+00 0.  1.
</event>
<event>
 7    1  0.1891413E-013  0.7246156E+02  0.7816164E-02  0.1226708E+00
        -11   -1    0    0    0    0  0.00000000000E+00  0.00000000000E+00  0.45593999997E+02  0.45594000000E+02  0.51100000000E-03 0.  1.
         11   -1    0    0    0    0 -0.00000000000E+00 -0.00000000000E+00 -0.45593999997E+02  0.45594000000E+02  0.51100000000E-03 0. -1.
    9900012    2    1    2    0    0  0.92095018655E+01  0.52973187507E+01 -0.15420861827E+02  0.72461561737E+02  0.69999988852E+02 0.  0.
        -12    1    1    2    0    0 -0.92095018655E+01 -0.52973187507E+01  0.15420861827E+02  0.18726438263E+02  0.00000000000E+00 0.  1.
         11    1    3    3    0    0 -0.78212184593E+00 -0.10402437560E+02  0.10956329504E+01  0.10489176975E+02  0.51100000000E-03 0. -1.
        -11    1    3    3    0    0 -0.67613796453E+01  0.42220125324E+01  0.19254248670E+02  0.20839091550E+02  0.51100000000E-03 0.  1.
         12    1    3    3    0    0  0.16753003357E+02  0.11477743779E+02 -0.35770743447E+02  0.41133293212E+02  0.00000000000E+00 0. -1.
</event>
<event>
 7    1  0.1891413E-013  0.7246147E+02  0.7816164E-02  0.1226708E+00
        -11   -1    0    0    0    0  0.00000000000E+00  0.00000000000E+00  0.45593999997E+02  0.45594000000E+02  0.51100000000E-03 0. -1.
         11   -1    0    0    0    0 -0.00000000000E+00 -0.00000000000E+00 -0.45593999997E+02  0.45594000000E+02  0.51100000000E-03 0.  1.
    9900012    2    1    2    0    0 -0.14366425047E+02  0.96894936039E+01  0.70994651597E+01  0.72461471745E+02  0.69999871621E+02 0.  0.
        -12    1    1    2    0    0  0.14366425047E+02 -0.96894936039E+01 -0.70994651597E+01  0.18726528255E+02  0.00000000000E+00 0.  1.
         11    1    3    3    0    0 -0.26224307060E+02  0.91208421007E+01  0.13388448555E+02  0.30824577797E+02  0.51100000000E-03 0. -1.
        -11    1    3    3    0    0 -0.14129963169E+02  0.25280740543E+01 -0.60420240253E+01  0.15574115454E+02  0.51100000000E-03 0.  1.
        -12    1    3    3    0    0  0.25987845181E+02 -0.19594225511E+01 -0.24695936959E+00  0.26062778494E+02  0.00000000000E+00 0.  1.
</event>
<event>
 7    1  0.1891413E-013  0.7246156E+02  0.7816164E-02  0.1226708E+00
        -11   -1    0    0    0    0  0.00000000000E+00  0.00000000000E+00  0.45593999997E+02  0.45594000000E+02  0.51100000000E-03 0.  1.
         11   -1    0    0    0    0 -0.00000000000E+00 -0.00000000000E+00 -0.45593999997E+02  0.45594000000E+02  0.51100000000E-03 0. -1.
    9900012    2    1    2    0    0 -0.15345204489E+02 -0.31382045553E+01 -0.10264297239E+02  0.72461563435E+02  0.69999991064E+02 0.  0.
        -12    1    1    2    0    0  0.15345204489E+02  0.31382045553E+01  0.10264297239E+02  0.18726436565E+02  0.00000000000E+00 0.  1.
         11    1    3    3    0    0 -0.30852585030E+01 -0.67403063882E+01 -0.74049082732E+00  0.74497568527E+01  0.51100000000E-03 0. -1.
        -11    1    3    3    0    0  0.23965070561E+01  0.87781190961E+00  0.26188693473E+02  0.26312762415E+02  0.51100000000E-03 0.  1.
         12    1    3    3    0    0 -0.14656453042E+02  0.27242899233E+01 -0.35712499885E+02  0.38699044167E+02  0.00000000000E+00 0. -1.
</event>
<event>
 7    1  0.1891413E-013  0.7246151E+02  0.7816164E-02  0.1226708E+00
        -11   -1    0    0    0    0  0.00000000000E+00  0.00000000000E+00  0.45593999997E+02  0.45594000000E+02  0.51100000000E-03 0. -1.
         11   -1    0    0    0    0 -0.00000000000E+00 -0.00000000000E+00 -0.45593999997E+02  0.45594000000E+02  0.51100000000E-03 0.  1.
    9900012    2    1    2    0    0  0.13972572854E+02  0.87027679548E+01 -0.89280636407E+01  0.72461513874E+02  0.69999926502E+02 0.  0.
        -12    1    1    2    0    0 -0.13972572854E+02 -0.87027679548E+01  0.89280636407E+01  0.18726486126E+02  0.00000000000E+00 0.  1.
         11    1    3    3    0    0 -0.59349466593E+01  0.14470004950E+02  0.23061099141E+02  0.27864294876E+02  0.51100000000E-03 0. -1.
        -11    1    3    3    0    0  0.54859447590E+01  0.43310344114E+01  0.11387513879E+01  0.70816808708E+01  0.51100000000E-03 0.  1.
        -12    1    3    3    0    0  0.14421574755E+02 -0.10098271406E+02 -0.33127914169E+02  0.37515538128E+02  0.00000000000E+00 0.  1.
</event>
<event>
 7    1  0.1891413E-013  0.7246160E+02  0.7816164E-02  0.1226708E+00
        -11   -1    0    0    0    0  0.00000000000E+00  0.00000000000E+00  0.45593999997E+02  0.45594000000E+02  0.51100000000E-03 0.  1.
         11   -1    0    0    0    0 -0.00000000000E+00 -0.00000000000E+00 -0.45593999997E+02  0.45594000000E+02  0.51100000000E-03 0. -1.
    9900012    2    1    2    0    0 -0.15647536836E+01 -0.18624649058E+02 -0.11627722495E+01  0.72461600294E+02  0.70000039080E+02 0.  0.
        -12    1    1    2    0    0  0.15647536836E+01  0.18624649058E+02  0.11627722495E+01  0.18726399706E+02  0.00000000000E+00 0.  1.
         11    1    3    3    0    0 -0.11519281629E+02 -0.14822357640E+02 -0.65710591038E+01  0.19889066174E+02  0.51100000000E-03 0. -1.
        -11    1    3    3    0    0  0.27106090925E+02 -0.13210074198E+02 -0.47572295518E+01  0.30526667994E+02  0.51100000000E-03 0.  1.
         12    1    3    3    0    0 -0.17151562979E+02  0.94077827796E+01  0.10165516406E+02  0.22045866127E+02  0.00000000000E+00 0. -1.
</event>
<event>
 7    1  0.1891413E-013  0.7246155E+02  0.7816164E-02  0.1226708E+00
        -11   -1    0    0    0    0  0.00000000000E+00  0.00000000000E+00  0.45593999997E+02  0.45594000000E+02  0.51100000000E-03 0. -1.
         11   -1    0    0    0    0 -0.00000000000E+00 -0.00000000000E+00 -0.45593999997E+02  0.45594000000E+02  0.51100000000E-03 0.  1.
    9900012    2    1    2    0    0 -0.32189957957E+01  0.63166914672E+01  0.17332549459E+02  0.72461553574E+02  0.69999978218E+02 0.  0.
        -12    1    1    2    0    0  0.32189957957E+01 -0.63166914672E+01 -0.17332549459E+02  0.18726446426E+02  0.00000000000E+00 0.  1.
         11    1    3    3    0    0 -0.22479315594E+02  0.62741478477E+01  0.15520042679E+02  0.28027777040E+02  0.51100000000E-03 0. -1.
        -11    1    3    3    0    0  0.14221168445E+02 -0.74937191778E+01  0.19069254111E+02  0.24940607685E+02  0.51100000000E-03 0.  1.
         12    1    3    3    0    0  0.50391513529E+01  0.75362627973E+01 -0.17256747332E+02  0.19493168849E+02  0.00000000000E+00 0. -1.
</event>
<event>
 7    1  0.1891413E-013  0.7246156E+02  0.7816164E-02  0.1226708E+00
        -11   -1    0    0    0    0  0.00000000000E+00  0.00000000000E+00  0.45593999997E+02  0.45594000000E+02  0.51100000000E-03 0.  1.
         11   -1    0    0    0    0 -0.00000000000E+00 -0.00000000000E+00 -0.45593999997E+02  0.45594000000E+02  0.51100000000E-03 0. -1.
    9900012    2    1    2    0    0 -0.10257573950E+02 -0.15473406182E+02 -0.24566908261E+01  0.72461562751E+02  0.69999990174E+02 0.  0.
        -12    1    1    2    0    0  0.10257573950E+02  0.15473406182E+02  0.24566908261E+01  0.18726437249E+02  0.00000000000E+00 0.  1.
         11    1    3    3    0    0 -0.59448068798E+01 -0.16307547611E+02 -0.64212703905E+00  0.17369201631E+02  0.51100000000E-03 0. -1.
        -11    1    3    3    0    0 -0.44985292865E+01 -0.28806768085E+01 -0.28070513348E+02  0.28574267873E+02  0.51100000000E-03 0.  1.
         12    1    3    3    0    0  0.18576221594E+00  0.37148182373E+01  0.26255949561E+02  0.26518093247E+02  0.00000000000E+00 0. -1.
</event>
<event>
 7    1  0.1891413E-013  0.7246159E+02  0.7816164E-02  0.1226708E+00
        -11   -1    0    0    0    0  0.00000000000E+00  0.00000000000E+00  0.45593999997E+02  0.45594000000E+02  0.51100000000E-03 0.  1.
         11   -1    0    0    0    0 -0.00000000000E+00 -0.00000000000E+00 -0.45593999997E+02  0.45594000000E+02  0.51100000000E-03 0. -1.
    9900012    2    1    2    0    0 -0.13793609219E+02 -0.10255489366E+02 -0.74323515614E+01  0.72461586378E+02  0.70000020951E+02 0.  0.
        -12    1    1    2    0    0  0.13793609219E+02  0.10255489366E+02  0.74323515614E+01  0.18726413622E+02  0.00000000000E+00 0.  1.
         11    1    3    3    0    0 -0.92429061540E+01 -0.24098503904E+02 -0.13535991720E+02  0.29144335242E+02  0.51100000000E-03 0. -1.
        -11    1    3    3    0    0 -0.59078061260E+01 -0.82267983881E+01  0.16124043081E+02  0.19041196141E+02  0.51100000000E-03 0.  1.
         12    1    3    3    0    0  0.13571030606E+01  0.22069812927E+02 -0.10020402922E+02  0.24276054994E+02  0.00000000000E+00 0. -1.
</event>
<event>
 7    1  0.1891413E-013  0.7246157E+02  0.7816164E-02  0.1226708E+00
        -11   -1    0    0    0    0  0.00000000000E+00  0.00000000000E+00  0.45593999997E+02  0.45594000000E+02  0.51100000000E-03 0.  1.
         11   -1    0    0    0    0 -0.00000000000E+00 -0.00000000000E+00 -0.45593999997E+02  0.45594000000E+02  0.51100000000E-03 0. -1.
    9900012    2    1    2    0    0 -0.13345874358E+02  0.56366396814E+00 -0.13124366426E+02  0.72461572857E+02  0.70000003338E+02 0.  0.
        -12    1    1    2    0    0  0.13345874358E+02 -0.56366396814E+00  0.13124366426E+02  0.18726427143E+02  0.00000000000E+00 0.  1.
         11    1    3    3    0    0 -0.28279182332E+02  0.18456261256E+01 -0.57231525410E+01  0.28911467698E+02  0.51100000000E-03 0. -1.
        -11    1    3    3    0    0 -0.86126828056E+01  0.11618169749E+02 -0.83225608501E+01  0.16686077813E+02  0.51100000000E-03 0.  1.
        -12    1    3    3    0    0  0.23545990780E+02 -0.12900131906E+02  0.92134696482E+00  0.26864027346E+02  0.00000000000E+00 0.  1.
</event>
<event>
 7    1  0.1891413E-013  0.7246157E+02  0.7816164E-02  0.1226708E+00
        -11   -1    0    0    0    0  0.00000000000E+00  0.00000000000E+00  0.45593999997E+02  0.45594000000E+02  0.51100000000E-03 0. -1.
         11   -1    0    0    0    0 -0.00000000000E+00 -0.00000000000E+00 -0.45593999997E+02  0.45594000000E+02  0.51100000000E-03 0.  1.
    9900012    2    1    2    0    0  0.87286024383E+01  0.97700051164E+01  0.13380492710E+02  0.72461572534E+02  0.70000002917E+02 0.  0.
        -12    1    1    2    0    0 -0.87286024383E+01 -0.97700051164E+01 -0.13380492710E+02  0.18726427466E+02  0.00000000000E+00 0.  1.
         11    1    3    3    0    0  0.55284107324E+01  0.76920556896E+01  0.18274006175E+02  0.20583254065E+02  0.51100000000E-03 0. -1.
        -11    1    3    3    0    0 -0.23727593658E+02 -0.13886195263E+01 -0.66217727124E+01  0.24673362947E+02  0.51100000000E-03 0.  1.
        -12    1    3    3    0    0  0.26927785364E+02  0.34665689530E+01  0.17282592477E+01  0.27204955522E+02  0.00000000000E+00 0.  1.
</event>
<event>
 7    1  0.1891413E-013  0.7246127E+02  0.7816164E-02  0.1226709E+00
        -11   -1    0    0    0    0  0.00000000000E+00  0.00000000000E+00  0.45593999997E+02  0.45594000000E+02  0.51100000000E-03 0.  1.
         11   -1    0    0    0    0 -0.00000000000E+00 -0.00000000000E+00 -0.45593999997E+02  0.45594000000E+02  0.51100000000E-03 0. -1.
    9900012    2    1    2    0    0 -0.10922006153E+02 -0.61219925889E+01 -0.13925561742E+02  0.72461273604E+02  0.69999613505E+02 0.  0.
        -12    1    1    2    0    0  0.10922006153E+02  0.61219925889E+01  0.13925561742E+02  0.18726726396E+02  0.00000000000E+00 0.  1.
         11    1    3    3    0    0  0.48079822193E+00 -0.35674805688E+01  0.10655123388E+02  0.11246765722E+02  0.51100000000E-03 0. -1.
        -11    1    3    3    0    0 -0.21146628359E+02 -0.37283258412E+01  0.11125693288E+02  0.24183906962E+02  0.51100000000E-03 0.  1.
         12    1    3    3    0    0  0.97438239839E+01  0.11738138210E+01 -0.35706378419E+02  0.37030600920E+02  0.00000000000E+00 0. -1.
</event>
<event>
 7    1  0.1891413E-013  0.7246156E+02  0.7816164E-02  0.1226708E+00
        -11   -1    0    0    0    0  0.00000000000E+00  0.00000000000E+00  0.45593999997E+02  0.45594000000E+02  0.51100000000E-03 0.  1.
         11   -1    0    0    0    0 -0.00000000000E+00 -0.00000000000E+00 -0.45593999997E+02  0.45594000000E+02  0.51100000000E-03 0. -1.
    9900012    2    1    2    0    0  0.15612189149E+01 -0.16312262088E+01 -0.18589818983E+02  0.72461556844E+02  0.69999982479E+02 0.  0.
        -12    1    1    2    0    0 -0.15612189149E+01  0.16312262088E+01  0.18589818983E+02  0.18726443156E+02  0.00000000000E+00 0.  1.
         11    1    3    3    0    0  0.20319134874E+02  0.65873088248E+01 -0.20320345022E+02  0.29481796106E+02  0.51100000000E-03 0. -1.
        -11    1    3    3    0    0  0.12516843391E+01  0.11786575446E+02  0.76034778338E+01  0.14082008019E+02  0.51100000000E-03 0.  1.
        -12    1    3    3    0    0 -0.20009600298E+02 -0.20005110479E+02 -0.58729517947E+01  0.28897752718E+02  0.00000000000E+00 0.  1.
</event>
<event>
 7    1  0.1891413E-013  0.7246145E+02  0.7816164E-02  0.1226708E+00
        -11   -1    0    0    0    0  0.00000000000E+00  0.00000000000E+00  0.45593999997E+02  0.45594000000E+02  0.51100000000E-03 0.  1.
         11   -1    0    0    0    0 -0.00000000000E+00 -0.00000000000E+00 -0.45593999997E+02  0.45594000000E+02  0.51100000000E-03 0. -1.
    9900012    2    1    2    0    0 -0.12007442407E+02 -0.87452206325E+01 -0.11402898991E+02  0.72461450332E+02  0.69999843726E+02 0.  0.
        -12    1    1    2    0    0  0.12007442407E+02  0.87452206325E+01  0.11402898991E+02  0.18726549668E+02  0.00000000000E+00 0.  1.
         11    1    3    3    0    0 -0.12478551119E-01  0.59412925998E+01 -0.81847220395E+01  0.10113791999E+02  0.51100000000E-03 0. -1.
        -11    1    3    3    0    0 -0.26514915647E+02 -0.30091899710E+02 -0.73600026171E+01  0.40776620982E+02  0.51100000000E-03 0.  1.
         12    1    3    3    0    0  0.14519951791E+02  0.15405386478E+02  0.41418256652E+01  0.21571037351E+02  0.00000000000E+00 0. -1.
</event>
<event>
 7    1  0.1891413E-013  0.7246154E+02  0.7816164E-02  0.1226708E+00
        -11   -1    0    0    0    0  0.00000000000E+00  0.00000000000E+00  0.45593999997E+02  0.45594000000E+02  0.51100000000E-03 0. -1.
         11   -1    0    0    0    0 -0.00000000000E+00 -0.00000000000E+00 -0.45593999997E+02  0.45594000000E+02  0.51100000000E-03 0.  1.
    9900012    2    1    2    0    0 -0.80388089685E+01 -0.62504228127E+01  0.15715920757E+02  0.72461537435E+02  0.69999957195E+02 0.  0.
        -12    1    1    2    0    0  0.80388089685E+01  0.62504228127E+01 -0.15715920757E+02  0.18726462565E+02  0.00000000000E+00 0.  1.
         11    1    3    3    0    0 -0.10546959653E+02  0.19913104530E+02  0.14224691095E+02  0.26647925379E+02  0.51100000000E-03 0. -1.
        -11    1    3    3    0    0  0.13235073138E+01  0.55026993909E+01 -0.10503346665E+02  0.11931121641E+02  0.51100000000E-03 0.  1.
         12    1    3    3    0    0  0.11846433709E+01 -0.31666226734E+02  0.11994576326E+02  0.33882490415E+02  0.00000000000E+00 0. -1.
</event>
<event>
 7    1  0.1891413E-013  0.7246168E+02  0.7816164E-02  0.1226708E+00
        -11   -1    0    0    0    0  0.00000000000E+00  0.00000000000E+00  0.45593999997E+02  0.45594000000E+02  0.51100000000E-03 0. -1.
         11   -1    0    0    0    0 -0.00000000000E+00 -0.00000000000E+00 -0.45593999997E+02  0.45594000000E+02  0.51100000000E-03 0.  1.
    9900012    2    1    2    0    0  0.33713354640E+01 -0.15753602147E+02  0.95463703271E+01  0.72461679757E+02  0.70000142596E+02 0.  0.
        -12    1    1    2    0    0 -0.33713354640E+01  0.15753602147E+02 -0.95463703271E+01  0.18726320243E+02  0.00000000000E+00 0.  1.
         11    1    3    3    0    0 -0.66758481334E+01 -0.24745157533E+02 -0.86253795515E+01  0.27042317621E+02  0.51100000000E-03 0. -1.
        -11    1    3    3    0    0  0.20256666446E+02  0.55599139088E+01 -0.34274261289E+01  0.21283618778E+02  0.51100000000E-03 0.  1.
        -12    1    3    3    0    0 -0.10209482848E+02  0.34316414771E+01  0.21599176007E+02  0.24135743358E+02  0.00000000000E+00 0.  1.
</event>
<event>
 7    1  0.1891413E-013  0.7246157E+02  0.7816164E-02  0.1226708E+00
        -11   -1    0    0    0    0  0.00000000000E+00  0.00000000000E+00  0.45593999997E+02  0.45594000000E+02  0.51100000000E-03 0.  1.
         11   -1    0    0    0    0 -0.00000000000E+00 -0.00000000000E+00 -0.45593999997E+02  0.45594000000E+02  0.51100000000E-03 0. -1.
    9900012    2    1    2    0    0 -0.18635920448E+02 -0.32883970093E-01  0.18386015212E+01  0.72461573009E+02  0.70000003536E+02 0.  0.
        -12    1    1    2    0    0  0.18635920448E+02  0.32883970093E-01 -0.18386015212E+01  0.18726426991E+02  0.00000000000E+00 0.  1.
         11    1    3    3    0    0  0.23359922800E+02  0.11234969513E+02 -0.13575905008E+01  0.25956763770E+02  0.51100000000E-03 0. -1.
        -11    1    3    3    0    0 -0.17146095348E+01  0.25916666398E+01  0.23525568705E+01  0.38975820605E+01  0.51100000000E-03 0.  1.
        -12    1    3    3    0    0 -0.40281233713E+02 -0.13859520123E+02  0.84363515153E+00  0.42607227178E+02  0.00000000000E+00 0.  1.
</event>
<event>
 7    1  0.1891413E-013  0.7246153E+02  0.7816164E-02  0.1226708E+00
        -11   -1    0    0    0    0  0.00000000000E+00  0.00000000000E+00  0.45593999997E+02  0.45594000000E+02  0.51100000000E-03 0.  1.
         11   -1    0    0    0    0 -0.00000000000E+00 -0.00000000000E+00 -0.45593999997E+02  0.45594000000E+02  0.51100000000E-03 0. -1.
    9900012    2    1    2    0    0 -0.15095309720E+01 -0.17706821141E+02 -0.59051341236E+01  0.72461526555E+02  0.69999943021E+02 0.  0.
        -12    1    1    2    0    0  0.15095309720E+01  0.17706821141E+02  0.59051341236E+01  0.18726473445E+02  0.00000000000E+00 0.  1.
         11    1    3    3    0    0  0.86815942795E+01  0.84109651062E+01 -0.45538767445E+01  0.12917128432E+02  0.51100000000E-03 0. -1.
        -11    1    3    3    0    0 -0.25402794440E+02 -0.72034211802E+01 -0.16307336881E+02  0.31034182420E+02  0.51100000000E-03 0.  1.
        -12    1    3    3    0    0  0.15211669188E+02 -0.18914365067E+02  0.14956079502E+02  0.28510215703E+02  0.00000000000E+00 0.  1.
</event>
<event>
 7    1  0.1891413E-013  0.7246159E+02  0.7816164E-02  0.1226708E+00
        -11   -1    0    0    0    0  0.00000000000E+00  0.00000000000E+00  0.45593999997E+02  0.45594000000E+02  0.51100000000E-03 0.  1.
         11   -1    0    0    0    0 -0.00000000000E+00 -0.00000000000E+00 -0.45593999997E+02  0.45594000000E+02  0.51100000000E-03 0. -1.
    9900012    2    1    2    0    0  0.12226224600E+02 -0.70395261118E+01  0.12314332782E+02  0.72461593839E+02  0.70000030671E+02 0.  0.
        -12    1    1    2    0    0 -0.12226224600E+02  0.70395261118E+01 -0.12314332782E+02  0.18726406161E+02  0.00000000000E+00 0.  1.
         11    1    3    3    0    0 -0.21680286517E+01  0.77963453396E+01  0.39070147256E+01  0.89859953937E+01  0.51100000000E-03 0. -1.
        -11    1    3    3    0    0  0.35004238360E+02  0.34567949068E+01  0.71237511912E+01  0.35888632817E+02  0.51100000000E-03 0.  1.
         12    1    3    3    0    0 -0.20609985108E+02 -0.18292666358E+02  0.12835668650E+01  0.27586965628E+02  0.00000000000E+00 0. -1.
</event>
<event>
 7    1  0.1891413E-013  0.7246145E+02  0.7816164E-02  0.1226708E+00
        -11   -1    0    0    0    0  0.00000000000E+00  0.00000000000E+00  0.45593999997E+02  0.45594000000E+02  0.51100000000E-03 0.  1.
         11   -1    0    0    0    0 -0.00000000000E+00 -0.00000000000E+00 -0.45593999997E+02  0.45594000000E+02  0.51100000000E-03 0. -1.
    9900012    2    1    2    0    0  0.58558872799E+01  0.93127844752E+01 -0.15154674370E+02  0.72461453982E+02  0.69999848481E+02 0.  0.
        -12    1    1    2    0    0 -0.58558872799E+01 -0.93127844752E+01  0.15154674370E+02  0.18726546018E+02  0.00000000000E+00 0.  1.
         11    1    3    3    0    0  0.49953301350E+01 -0.89386568854E+01 -0.23151060587E+02  0.25314511977E+02  0.51100000000E-03 0. -1.
        -11    1    3    3    0    0 -0.70393220957E+01 -0.22559048532E+01 -0.14139213309E+02  0.15954890019E+02  0.51100000000E-03 0.  1.
         12    1    3    3    0    0  0.78998792407E+01  0.20507346214E+02  0.22135599525E+02  0.31192051986E+02  0.00000000000E+00 0. -1.
</event>
<event>
 7    1  0.1891413E-013  0.7246156E+02  0.7816164E-02  0.1226708E+00
        -11   -1    0    0    0    0  0.00000000000E+00  0.00000000000E+00  0.45593999997E+02  0.45594000000E+02  0.51100000000E-03 0.  1.
         11   -1    0    0    0    0 -0.00000000000E+00 -0.00000000000E+00 -0.45593999997E+02  0.45594000000E+02  0.51100000000E-03 0. -1.
    9900012    2    1    2    0    0 -0.17467849536E+02 -0.59820205751E+01 -0.31255657767E+01  0.72461561497E+02  0.69999988540E+02 0.  0.
        -12    1    1    2    0    0  0.17467849536E+02  0.59820205751E+01  0.31255657767E+01  0.18726438503E+02  0.00000000000E+00 0.  1.
         11    1    3    3    0    0 -0.11963989595E+02  0.56534238148E+01 -0.26612875708E+02  0.29721093546E+02  0.51100000000E-03 0. -1.
        -11    1    3    3    0    0 -0.18238679159E+00 -0.43806292961E+01 -0.84717609751E+01  0.95390729241E+01  0.51100000000E-03 0.  1.
         12    1    3    3    0    0 -0.53214731493E+01 -0.72548150937E+01  0.31959070907E+02  0.33201395027E+02  0.00000000000E+00 0. -1.
</event>
<event>
 7    1  0.1891413E-013  0.7246152E+02  0.7816164E-02  0.1226708E+00
        -11   -1    0    0    0    0  0.00000000000E+00  0.00000000000E+00  0.45593999997E+02  0.45594000000E+02  0.51100000000E-03 0.  1.
         11   -1    0    0    0    0 -0.00000000000E+00 -0.00000000000E+00 -0.45593999997E+02  0.45594000000E+02  0.51100000000E-03 0. -1.
    9900012    2    1    2    0    0 -0.35011136652E+01  0.17190442554E+01 -0.18315791051E+02  0.72461518433E+02  0.69999932441E+02 0.  0.
        -12    1    1    2    0    0  0.35011136652E+01 -0.17190442554E+01  0.18315791051E+02  0.18726481567E+02  0.00000000000E+00 0.  1.
         11    1    3    3    0    0 -0.23267715980E+02 -0.17764904511E+02 -0.16390918090E+02  0.33550568331E+02  0.51100000000E-03 0. -1.
        -11    1    3    3    0    0  0.11505267058E+02 -0.30258677005E+01 -0.77976561755E+01  0.14224292162E+02  0.51100000000E-03 0.  1.
        -12    1    3    3    0    0  0.82613352570E+01  0.22509816467E+02  0.58727832146E+01  0.24686657941E+02  0.00000000000E+00 0.  1.
</event>
<event>
 7    1  0.1891413E-013  0.7246160E+02  0.7816164E-02  0.1226708E+00
        -11   -1    0    0    0    0  0.00000000000E+00  0.00000000000E+00  0.45593999997E+02  0.45594000000E+02  0.51100000000E-03 0.  1.
         11   -1    0    0    0    0 -0.00000000000E+00 -0.00000000000E+00 -0.45593999997E+02  0.45594000000E+02  0.51100000000E-03 0. -1.
    9900012    2    1    2    0    0  0.43420375249E+01 -0.91132054511E+01 -0.15772577776E+02  0.72461601169E+02  0.70000040220E+02 0.  0.
        -12    1    1    2    0    0 -0.43420375249E+01  0.91132054511E+01  0.15772577776E+02  0.18726398831E+02  0.00000000000E+00 0.  1.
         11    1    3    3    0    0  0.19392562416E+02  0.16063267075E+02 -0.21427369632E+02  0.33064061997E+02  0.51100000000E-03 0.  1.
        -11    1    3    3    0    0 -0.89120145665E+01  0.18314669512E+01 -0.41719818709E+01  0.10009181176E+02  0.51100000000E-03 0. -1.
        -12    1    3    3    0    0 -0.61385103250E+01 -0.27007939477E+02  0.98267737261E+01  0.29388357995E+02  0.00000000000E+00 0.  1.
</event>
<event>
 7    1  0.1891413E-013  0.7246157E+02  0.7816164E-02  0.1226708E+00
        -11   -1    0    0    0    0  0.00000000000E+00  0.00000000000E+00  0.45593999997E+02  0.45594000000E+02  0.51100000000E-03 0. -1.
         11   -1    0    0    0    0 -0.00000000000E+00 -0.00000000000E+00 -0.45593999997E+02  0.45594000000E+02  0.51100000000E-03 0.  1.
    9900012    2    1    2    0    0  0.10954367155E+02 -0.12495240999E+02 -0.86342256072E+01  0.72461573240E+02  0.70000003837E+02 0.  0.
        -12    1    1    2    0    0 -0.10954367155E+02  0.12495240999E+02  0.86342256072E+01  0.18726426760E+02  0.00000000000E+00 0.  1.
         11    1    3    3    0    0  0.27433871151E+02  0.93895670904E+01 -0.48447792191E+01  0.29398182638E+02  0.51100000000E-03 0. -1.
        -11    1    3    3    0    0 -0.16117291227E+01  0.86245056874E+01  0.82247332817E+00  0.88122773307E+01  0.51100000000E-03 0.  1.
        -12    1    3    3    0    0 -0.14867774874E+02 -0.30509313777E+02 -0.46119197162E+01  0.34251113271E+02  0.00000000000E+00 0.  1.
</event>
<event>
 7    1  0.1903770E-013  0.7246160E+02  0.7816164E-02  0.1226708E+00
        -11   -1    0    0    0    0  0.00000000000E+00  0.00000000000E+00  0.45593999997E+02  0.45594000000E+02  0.51100000000E-03 0. -1.
         11   -1    0    0    0    0 -0.00000000000E+00 -0.00000000000E+00 -0.45593999997E+02  0.45594000000E+02  0.51100000000E-03 0.  1.
    9900012    2    1    2    0    0  0.14922333472E+02 -0.40193588738E+01  0.10575771149E+02  0.72461595716E+02  0.70000033117E+02 0.  0.
        -12    1    1    2    0    0 -0.14922333472E+02  0.40193588738E+01 -0.10575771149E+02  0.18726404284E+02  0.00000000000E+00 0.  1.
         11    1    3    3    0    0 -0.36061377430E+00 -0.14510720551E+02 -0.29518648368E+01  0.14812311078E+02  0.51100000000E-03 0. -1.
        -11    1    3    3    0    0  0.11723627966E+02  0.13686826672E+02 -0.18170787800E+02  0.25591994971E+02  0.51100000000E-03 0.  1.
         12    1    3    3    0    0  0.35593192804E+01 -0.31954649951E+01  0.31698423786E+02  0.32057289667E+02  0.00000000000E+00 0. -1.
</event>
<event>
 7    1  0.1891413E-013  0.7246164E+02  0.7816164E-02  0.1226708E+00
        -11   -1    0    0    0    0  0.00000000000E+00  0.00000000000E+00  0.45593999997E+02  0.45594000000E+02  0.51100000000E-03 0. -1.
         11   -1    0    0    0    0 -0.00000000000E+00 -0.00000000000E+00 -0.45593999997E+02  0.45594000000E+02  0.51100000000E-03 0.  1.
    9900012    2    1    2    0    0 -0.74075215688E+01 -0.15585353930E+02 -0.72733793319E+01  0.72461636770E+02  0.70000086597E+02 0.  0.
        -12    1    1    2    0    0  0.74075215688E+01  0.15585353930E+02  0.72733793319E+01  0.18726363230E+02  0.00000000000E+00 0.  1.
         11    1    3    3    0    0 -0.20623922325E+02 -0.11161528307E+02 -0.80027619258E+01  0.24778419743E+02  0.51100000000E-03 0. -1.
        -11    1    3    3    0    0  0.23762010882E+02 -0.39020294016E+01 -0.15270141495E+02  0.28513789929E+02  0.51100000000E-03 0.  1.
         12    1    3    3    0    0 -0.10545610125E+02 -0.52179622145E+00  0.15999524088E+02  0.19169427098E+02  0.00000000000E+00 0. -1.
</event>
<event>
 7    1  0.1891413E-013  0.7246157E+02  0.7816164E-02  0.1226708E+00
        -11   -1    0    0    0    0  0.00000000000E+00  0.00000000000E+00  0.45593999997E+02  0.45594000000E+02  0.51100000000E-03 0.  1.
         11   -1    0    0    0    0 -0.00000000000E+00 -0.00000000000E+00 -0.45593999997E+02  0.45594000000E+02  0.51100000000E-03 0. -1.
    9900012    2    1    2    0    0  0.77743587475E+01  0.13575545914E+02 -0.10292858607E+02  0.72461573777E+02  0.70000004536E+02 0.  0.
        -12    1    1    2    0    0 -0.77743587475E+01 -0.13575545914E+02  0.10292858607E+02  0.18726426223E+02  0.00000000000E+00 0.  1.
         11    1    3    3    0    0  0.11787097674E+02 -0.68523350038E+01 -0.14494514721E+02  0.19899274455E+02  0.51100000000E-03 0. -1.
        -11    1    3    3    0    0  0.19795098067E+02 -0.30939988719E+00  0.66753880749E+01  0.20892640857E+02  0.51100000000E-03 0.  1.
         12    1    3    3    0    0 -0.23807836993E+02  0.20737280805E+02 -0.24737319608E+01  0.31669658465E+02  0.00000000000E+00 0. -1.
</event>
<event>
 7    1  0.1891413E-013  0.7246163E+02  0.7816164E-02  0.1226708E+00
        -11   -1    0    0    0    0  0.00000000000E+00  0.00000000000E+00  0.45593999997E+02  0.45594000000E+02  0.51100000000E-03 0.  1.
         11   -1    0    0    0    0 -0.00000000000E+00 -0.00000000000E+00 -0.45593999997E+02  0.45594000000E+02  0.51100000000E-03 0. -1.
    9900012    2    1    2    0    0  0.14228520883E+02 -0.87214168184E+01 -0.84948782855E+01  0.72461631561E+02  0.70000079811E+02 0.  0.
        -12    1    1    2    0    0 -0.14228520883E+02  0.87214168184E+01  0.84948782855E+01  0.18726368439E+02  0.00000000000E+00 0.  1.
         11    1    3    3    0    0 -0.90329090551E+01  0.98712654860E+01 -0.19112764545E+02  0.23330947197E+02  0.51100000000E-03 0. -1.
        -11    1    3    3    0    0  0.22865431387E+01 -0.94594683889E+01 -0.13006880089E+02  0.16244653017E+02  0.51100000000E-03 0.  1.
        -12    1    3    3    0    0  0.20974886799E+02 -0.91332139155E+01  0.23624766349E+02  0.32886031346E+02  0.00000000000E+00 0.  1.
</event>
<event>
 7    1  0.1891413E-013  0.7246155E+02  0.7816164E-02  0.1226708E+00
        -11   -1    0    0    0    0  0.00000000000E+00  0.00000000000E+00  0.45593999997E+02  0.45594000000E+02  0.51100000000E-03 0.  1.
         11   -1    0    0    0    0 -0.00000000000E+00 -0.00000000000E+00 -0.45593999997E+02  0.45594000000E+02  0.51100000000E-03 0. -1.
    9900012    2    1    2    0    0  0.10137037418E+02 -0.19007432483E+01 -0.15630344073E+02  0.72461547897E+02  0.69999970824E+02 0.  0.
        -12    1    1    2    0    0 -0.10137037418E+02  0.19007432483E+01  0.15630344073E+02  0.18726452103E+02  0.00000000000E+00 0.  1.
         11    1    3    3    0    0  0.65609333532E+01 -0.15676737697E+02 -0.27861577615E+01  0.17221167980E+02  0.51100000000E-03 0. -1.
        -11    1    3    3    0    0  0.18035621734E+02 -0.10040771008E+02  0.61271983991E+01  0.21532377813E+02  0.51100000000E-03 0.  1.
         12    1    3    3    0    0 -0.14459517669E+02  0.23816765457E+02 -0.18971384710E+02  0.33708002104E+02  0.00000000000E+00 0. -1.
</event>
<event>
 7    1  0.1891413E-013  0.7246158E+02  0.7816164E-02  0.1226708E+00
        -11   -1    0    0    0    0  0.00000000000E+00  0.00000000000E+00  0.45593999997E+02  0.45594000000E+02  0.51100000000E-03 0. -1.
         11   -1    0    0    0    0 -0.00000000000E+00 -0.00000000000E+00 -0.45593999997E+02  0.45594000000E+02  0.51100000000E-03 0.  1.
    9900012    2    1    2    0    0 -0.10874095685E+02  0.17904261738E+01  0.15140253242E+02  0.72461578796E+02  0.70000011076E+02 0.  0.
        -12    1    1    2    0    0  0.10874095685E+02 -0.17904261738E+01 -0.15140253242E+02  0.18726421204E+02  0.00000000000E+00 0.  1.
         11    1    3    3    0    0 -0.26830587807E+02  0.95149662199E+01  0.79012121031E+01  0.29543936387E+02  0.51100000000E-03 0. -1.
        -11    1    3    3    0    0 -0.50986929847E+01 -0.68346380840E+01 -0.11771971675E+02  0.14535758159E+02  0.51100000000E-03 0.  1.
         12    1    3    3    0    0  0.21055185107E+02 -0.88990196213E+00  0.19011012814E+02  0.28381884251E+02  0.00000000000E+00 0. -1.
</event>
<event>
 7    1  0.1891413E-013  0.7246160E+02  0.7816164E-02  0.1226708E+00
        -11   -1    0    0    0    0  0.00000000000E+00  0.00000000000E+00  0.45593999997E+02  0.45594000000E+02  0.51100000000E-03 0.  1.
         11   -1    0    0    0    0 -0.00000000000E+00 -0.00000000000E+00 -0.45593999997E+02  0.45594000000E+02  0.51100000000E-03 0. -1.
    9900012    2    1    2    0    0  0.36122356290E+01  0.11075859923E+02 -0.14661342878E+02  0.72461604344E+02  0.70000044356E+02 0.  0.
        -12    1    1    2    0    0 -0.36122356290E+01 -0.11075859923E+02  0.14661342878E+02  0.18726395656E+02  0.00000000000E+00 0.  1.
         11    1    3    3    0    0  0.32681588210E+00 -0.56247794987E+01 -0.77353576589E+01  0.95697811575E+01  0.51100000000E-03 0. -1.
        -11    1    3    3    0    0  0.80797396287E+00 -0.10137091617E+02 -0.27282587549E+02  0.29116198791E+02  0.51100000000E-03 0.  1.
        -12    1    3    3    0    0  0.24774457840E+01  0.26837731039E+02  0.20356602330E+02  0.33775624396E+02  0.00000000000E+00 0.  1.
</event>
<event>
 7    1  0.1891413E-013  0.7246151E+02  0.7816164E-02  0.1226708E+00
        -11   -1    0    0    0    0  0.00000000000E+00  0.00000000000E+00  0.45593999997E+02  0.45594000000E+02  0.51100000000E-03 0. -1.
         11   -1    0    0    0    0 -0.00000000000E+00 -0.00000000000E+00 -0.45593999997E+02  0.45594000000E+02  0.51100000000E-03 0.  1.
    9900012    2    1    2    0    0  0.59801303478E+01  0.14303077547E+02  0.10504360633E+02  0.72461505971E+02  0.69999916207E+02 0.  0.
        -12    1    1    2    0    0 -0.59801303478E+01 -0.14303077547E+02 -0.10504360633E+02  0.18726494029E+02  0.00000000000E+00 0.  1.
         11    1    3    3    0    0  0.24022701870E+02  0.25124882660E+01 -0.74446447604E+01  0.25274998285E+02  0.51100000000E-03 0. -1.
        -11    1    3    3    0    0 -0.14710096126E+02  0.59320944320E+00 -0.93860334253E+01  0.17459566123E+02  0.51100000000E-03 0.  1.
         12    1    3    3    0    0 -0.33324753958E+01  0.11197379838E+02  0.27335038819E+02  0.29726941563E+02  0.00000000000E+00 0. -1.
</event>
<event>
 7    1  0.1891413E-013  0.7246158E+02  0.7816164E-02  0.1226708E+00
        -11   -1    0    0    0    0  0.00000000000E+00  0.00000000000E+00  0.45593999997E+02  0.45594000000E+02  0.51100000000E-03 0.  1.
         11   -1    0    0    0    0 -0.00000000000E+00 -0.00000000000E+00 -0.45593999997E+02  0.45594000000E+02  0.51100000000E-03 0. -1.
    9900012    2    1    2    0    0  0.17942069722E+01  0.12359386681E+02 -0.13953682774E+02  0.72461578005E+02  0.70000010044E+02 0.  0.
        -12    1    1    2    0    0 -0.17942069722E+01 -0.12359386681E+02  0.13953682774E+02  0.18726421995E+02  0.00000000000E+00 0.  1.
         11    1    3    3    0    0 -0.15952145616E+01 -0.33887149462E+01 -0.10928080282E+01  0.39015802095E+01  0.51100000000E-03 0. -1.
        -11    1    3    3    0    0 -0.58756123202E+01  0.31134012374E+01  0.25906513769E+02  0.26746280925E+02  0.51100000000E-03 0.  1.
         12    1    3    3    0    0  0.92650338539E+01  0.12634700390E+02 -0.38767388514E+02  0.41813716870E+02  0.00000000000E+00 0. -1.
</event>
<event>
 7    1  0.1891413E-013  0.7246168E+02  0.7816164E-02  0.1226708E+00
        -11   -1    0    0    0    0  0.00000000000E+00  0.00000000000E+00  0.45593999997E+02  0.45594000000E+02  0.51100000000E-03 0.  1.
         11   -1    0    0    0    0 -0.00000000000E+00 -0.00000000000E+00 -0.45593999997E+02  0.45594000000E+02  0.51100000000E-03 0. -1.
    9900012    2    1    2    0    0  0.24107677877E+01  0.18192137453E+02 -0.37295316619E+01  0.72461679677E+02  0.70000142491E+02 0.  0.
        -12    1    1    2    0    0 -0.24107677877E+01 -0.18192137453E+02  0.37295316619E+01  0.18726320323E+02  0.00000000000E+00 0.  1.
         11    1    3    3    0    0 -0.11662216726E+02  0.19360399382E+02 -0.19484623517E+02  0.29840960391E+02  0.51100000000E-03 0. -1.
        -11    1    3    3    0    0 -0.35337333228E+01  0.13034304365E+02 -0.22727523855E+01  0.13694734942E+02  0.51100000000E-03 0.  1.
        -12    1    3    3    0    0  0.17606717836E+02 -0.14202566294E+02  0.18027844241E+02  0.28925984344E+02  0.00000000000E+00 0.  1.
</event>
<event>
 7    1  0.1891413E-013  0.7246170E+02  0.7816164E-02  0.1226708E+00
        -11   -1    0    0    0    0  0.00000000000E+00  0.00000000000E+00  0.45593999997E+02  0.45594000000E+02  0.51100000000E-03 0.  1.
         11   -1    0    0    0    0 -0.00000000000E+00 -0.00000000000E+00 -0.45593999997E+02  0.45594000000E+02  0.51100000000E-03 0. -1.
    9900012    2    1    2    0    0 -0.10091630010E+02 -0.80204976061E+01 -0.13583266199E+02  0.72461695006E+02  0.70000162460E+02 0.  0.
        -12    1    1    2    0    0  0.10091630010E+02  0.80204976061E+01  0.13583266199E+02  0.18726304994E+02  0.00000000000E+00 0.  1.
         11    1    3    3    0    0 -0.18143859084E+02 -0.23650906800E+01 -0.33735618294E+02  0.38378186752E+02  0.51100000000E-03 0. -1.
        -11    1    3    3    0    0 -0.65031472061E+01  0.26862829074E+01 -0.97743288225E+00  0.71036902201E+01  0.51100000000E-03 0.  1.
        -12    1    3    3    0    0  0.14555376281E+02 -0.83416898334E+01  0.21129784978E+02  0.26979818034E+02  0.00000000000E+00 0.  1.
</event>
<event>
 7    1  0.1891413E-013  0.7246157E+02  0.7816164E-02  0.1226708E+00
        -11   -1    0    0    0    0  0.00000000000E+00  0.00000000000E+00  0.45593999997E+02  0.45594000000E+02  0.51100000000E-03 0. -1.
         11   -1    0    0    0    0 -0.00000000000E+00 -0.00000000000E+00 -0.45593999997E+02  0.45594000000E+02  0.51100000000E-03 0.  1.
    9900012    2    1    2    0    0 -0.97639334605E+01 -0.14888501392E+02  0.58032208192E+01  0.72461568354E+02  0.69999997472E+02 0.  0.
        -12    1    1    2    0    0  0.97639334605E+01  0.14888501392E+02 -0.58032208192E+01  0.18726431646E+02  0.00000000000E+00 0.  1.
         11    1    3    3    0    0 -0.38237285966E+01 -0.14532894727E+02  0.89694714613E+01  0.17500781356E+02  0.51100000000E-03 0. -1.
        -11    1    3    3    0    0  0.17070520438E+02 -0.18617105731E+02  0.10654647973E+01  0.25281109732E+02  0.51100000000E-03 0.  1.
         12    1    3    3    0    0 -0.23010725302E+02  0.18261499065E+02 -0.42317154394E+01  0.29679677265E+02  0.00000000000E+00 0. -1.
</event>
<event>
 7    1  0.1891413E-013  0.7246160E+02  0.7816164E-02  0.1226708E+00
        -11   -1    0    0    0    0  0.00000000000E+00  0.00000000000E+00  0.45593999997E+02  0.45594000000E+02  0.51100000000E-03 0. -1.
         11   -1    0    0    0    0 -0.00000000000E+00 -0.00000000000E+00 -0.45593999997E+02  0.45594000000E+02  0.51100000000E-03 0.  1.
    9900012    2    1    2    0    0 -0.18649662086E+02  0.30431778942E+00 -0.16660123429E+01  0.72461598787E+02  0.70000037117E+02 0.  0.
        -12    1    1    2    0    0  0.18649662086E+02 -0.30431778942E+00  0.16660123429E+01  0.18726401213E+02  0.00000000000E+00 0.  1.
         11    1    3    3    0    0 -0.39763370431E+02 -0.16671563409E+01  0.54125580612E-01  0.39798341274E+02  0.51100000000E-03 0. -1.
        -11    1    3    3    0    0  0.15735696663E+02  0.98945274995E+01  0.68523445560E+01  0.19810816492E+02  0.51100000000E-03 0.  1.
        -12    1    3    3    0    0  0.53780116822E+01 -0.79230533692E+01 -0.85724824795E+01  0.12852441021E+02  0.00000000000E+00 0.  1.
</event>
<event>
 7    1  0.1891413E-013  0.7246158E+02  0.7816164E-02  0.1226708E+00
        -11   -1    0    0    0    0  0.00000000000E+00  0.00000000000E+00  0.45593999997E+02  0.45594000000E+02  0.51100000000E-03 0.  1.
         11   -1    0    0    0    0 -0.00000000000E+00 -0.00000000000E+00 -0.45593999997E+02  0.45594000000E+02  0.51100000000E-03 0. -1.
    9900012    2    1    2    0    0  0.10131699581E+02  0.15681727531E+02 -0.14529314162E+01  0.72461576838E+02  0.70000008524E+02 0.  0.
        -12    1    1    2    0    0 -0.10131699581E+02 -0.15681727531E+02  0.14529314162E+01  0.18726423162E+02  0.00000000000E+00 0.  1.
         11    1    3    3    0    0  0.44890752641E+01 -0.20081877508E+02 -0.18375347789E+02  0.27587805415E+02  0.51100000000E-03 0. -1.
        -11    1    3    3    0    0 -0.31577194392E+01  0.96666506919E+01 -0.33161274583E+01  0.10696355886E+02  0.51100000000E-03 0.  1.
        -12    1    3    3    0    0  0.88003437565E+01  0.26096954346E+02  0.20238543831E+02  0.34177415537E+02  0.00000000000E+00 0.  1.
</event>
<event>
 7    1  0.1891413E-013  0.7246188E+02  0.7816164E-02  0.1226707E+00
        -11   -1    0    0    0    0  0.00000000000E+00  0.00000000000E+00  0.45593999997E+02  0.45594000000E+02  0.51100000000E-03 0. -1.
         11   -1    0    0    0    0 -0.00000000000E+00 -0.00000000000E+00 -0.45593999997E+02  0.45594000000E+02  0.51100000000E-03 0.  1.
    9900012    2    1    2    0    0 -0.21806803967E+01  0.16309861295E+02 -0.89387124136E+01  0.72461881286E+02  0.70000405124E+02 0.  0.
        -12    1    1    2    0    0  0.21806803967E+01 -0.16309861295E+02  0.89387124136E+01  0.18726118714E+02  0.00000000000E+00 0.  1.
         11    1    3    3    0    0 -0.97889098633E+01  0.36256234735E+02 -0.10921166885E+02  0.39110218612E+02  0.51100000000E-03 0. -1.
        -11    1    3    3    0    0  0.12066895163E+02 -0.53703278993E+00  0.52500936238E+01  0.13170491502E+02  0.51100000000E-03 0.  1.
        -12    1    3    3    0    0 -0.44586656961E+01 -0.19409340650E+02 -0.32676391525E+01  0.20181171172E+02  0.00000000000E+00 0.  1.
</event>
<event>
 7    1  0.1891413E-013  0.7246154E+02  0.7816164E-02  0.1226708E+00
        -11   -1    0    0    0    0  0.00000000000E+00  0.00000000000E+00  0.45593999997E+02  0.45594000000E+02  0.51100000000E-03 0.  1.
         11   -1    0    0    0    0 -0.00000000000E+00 -0.00000000000E+00 -0.45593999997E+02  0.45594000000E+02  0.51100000000E-03 0. -1.
    9900012    2    1    2    0    0 -0.14363681200E+02 -0.11710596500E+02 -0.26882875097E+01  0.72461540170E+02  0.69999960758E+02 0.  0.
        -12    1    1    2    0    0  0.14363681200E+02  0.11710596500E+02  0.26882875097E+01  0.18726459830E+02  0.00000000000E+00 0.  1.
         11    1    3    3    0    0  0.74914405257E+01 -0.14765747968E+02 -0.46374260663E+01  0.17194612964E+02  0.51100000000E-03 0. -1.
        -11    1    3    3    0    0  0.11823031887E+02  0.14944022781E+02  0.40840971662E+01  0.19488143826E+02  0.51100000000E-03 0.  1.
        -12    1    3    3    0    0 -0.33678153613E+02 -0.11888871313E+02 -0.21349586097E+01  0.35778783380E+02  0.00000000000E+00 0.  1.
</event>
<event>
 7    1  0.1891413E-013  0.7246150E+02  0.7816164E-02  0.1226708E+00
        -11   -1    0    0    0    0  0.00000000000E+00  0.00000000000E+00  0.45593999997E+02  0.45594000000E+02  0.51100000000E-03 0. -1.
         11   -1    0    0    0    0 -0.00000000000E+00 -0.00000000000E+00 -0.45593999997E+02  0.45594000000E+02  0.51100000000E-03 0.  1.
    9900012    2    1    2    0    0  0.81467534880E+01  0.16823571051E+02  0.11311868076E+01  0.72461502226E+02  0.69999911328E+02 0.  0.
        -12    1    1    2    0    0 -0.81467534880E+01 -0.16823571051E+02 -0.11311868076E+01  0.18726497774E+02  0.00000000000E+00 0.  1.
         11    1    3    3    0    0  0.33395310381E+02  0.22910334859E+02  0.74875786933E+00  0.40505442072E+02  0.51100000000E-03 0. -1.
        -11    1    3    3    0    0 -0.45677083075E+01 -0.17316568380E+01  0.80980090538E+01  0.94572905995E+01  0.51100000000E-03 0.  1.
        -12    1    3    3    0    0 -0.20680848586E+02 -0.43551069697E+01 -0.77155801156E+01  0.22498769555E+02  0.00000000000E+00 0.  1.
</event>
<event>
 7    1  0.1891413E-013  0.7246144E+02  0.7816164E-02  0.1226708E+00
        -11   -1    0    0    0    0  0.00000000000E+00  0.00000000000E+00  0.45593999997E+02  0.45594000000E+02  0.51100000000E-03 0.  1.
         11   -1    0    0    0    0 -0.00000000000E+00 -0.00000000000E+00 -0.45593999997E+02  0.45594000000E+02  0.51100000000E-03 0. -1.
    9900012    2    1    2    0    0  0.71701623735E+01 -0.36672145615E+00 -0.17295611574E+02  0.72461444182E+02  0.69999835715E+02 0.  0.
        -12    1    1    2    0    0 -0.71701623735E+01  0.36672145615E+00  0.17295611574E+02  0.18726555818E+02  0.00000000000E+00 0.  1.
         11    1    3    3    0    0  0.63557453860E+00 -0.12335168239E+02 -0.16145523621E+02  0.20328262684E+02  0.51100000000E-03 0. -1.
        -11    1    3    3    0    0  0.14987674175E+02  0.27249335970E+02 -0.98516062579E+01  0.32622244467E+02  0.51100000000E-03 0.  1.
         12    1    3    3    0    0 -0.84530863397E+01 -0.15280889187E+02  0.87015183051E+01  0.19510937031E+02  0.00000000000E+00 0. -1.
</event>
<event>
 7    1  0.1891413E-013  0.7246156E+02  0.7816164E-02  0.1226708E+00
        -11   -1    0    0    0    0  0.00000000000E+00  0.00000000000E+00  0.45593999997E+02  0.45594000000E+02  0.51100000000E-03 0. -1.
         11   -1    0    0    0    0 -0.00000000000E+00 -0.00000000000E+00 -0.45593999997E+02  0.45594000000E+02  0.51100000000E-03 0.  1.
    9900012    2    1    2    0    0 -0.10427478736E+02 -0.12894076418E+02  0.87000055351E+01  0.72461558380E+02  0.69999984479E+02 0.  0.
        -12    1    1    2    0    0  0.10427478736E+02  0.12894076418E+02 -0.87000055351E+01  0.18726441620E+02  0.00000000000E+00 0.  1.
         11    1    3    3    0    0  0.65667967492E+00 -0.12117291454E+02  0.36326925737E+01  0.12667140008E+02  0.51100000000E-03 0. -1.
        -11    1    3    3    0    0 -0.10609610105E+01 -0.15044586042E+02 -0.22552710661E+02  0.27130977974E+02  0.51100000000E-03 0.  1.
        -12    1    3    3    0    0 -0.10023197400E+02  0.14267801079E+02  0.27620023622E+02  0.32663440398E+02  0.00000000000E+00 0.  1.
</event>
<event>
 7    1  0.1891413E-013  0.7246155E+02  0.7816164E-02  0.1226708E+00
        -11   -1    0    0    0    0  0.00000000000E+00  0.00000000000E+00  0.45593999997E+02  0.45594000000E+02  0.51100000000E-03 0.  1.
         11   -1    0    0    0    0 -0.00000000000E+00 -0.00000000000E+00 -0.45593999997E+02  0.45594000000E+02  0.51100000000E-03 0. -1.
    9900012    2    1    2    0    0  0.52930700308E+01  0.13697303955E+00 -0.17962305434E+02  0.72461554302E+02  0.69999979167E+02 0.  0.
        -12    1    1    2    0    0 -0.52930700308E+01 -0.13697303955E+00  0.17962305434E+02  0.18726445698E+02  0.00000000000E+00 0.  1.
         11    1    3    3    0    0  0.80902442198E+01 -0.23168274179E+02  0.96132842903E+00  0.24559013266E+02  0.51100000000E-03 0. -1.
        -11    1    3    3    0    0 -0.95416162222E+01 -0.49577194622E+01  0.33815197855E+01  0.11271916373E+02  0.51100000000E-03 0.  1.
        -12    1    3    3    0    0  0.67444420332E+01  0.28262966681E+02 -0.22305153649E+02  0.36630624664E+02  0.00000000000E+00 0.  1.
</event>
<event>
 7    1  0.1891413E-013  0.7246153E+02  0.7816164E-02  0.1226708E+00
        -11   -1    0    0    0    0  0.00000000000E+00  0.00000000000E+00  0.45593999997E+02  0.45594000000E+02  0.51100000000E-03 0.  1.
         11   -1    0    0    0    0 -0.00000000000E+00 -0.00000000000E+00 -0.45593999997E+02  0.45594000000E+02  0.51100000000E-03 0. -1.
    9900012    2    1    2    0    0  0.13645129068E+02  0.88055709061E+01  0.93248661585E+01  0.72461527958E+02  0.69999944849E+02 0.  0.
        -12    1    1    2    0    0 -0.13645129068E+02 -0.88055709061E+01 -0.93248661585E+01  0.18726472042E+02  0.00000000000E+00 0.  1.
         11    1    3    3    0    0 -0.42451797672E+00 -0.46149843086E+01  0.66881337941E+00  0.46824787537E+01  0.51100000000E-03 0. -1.
        -11    1    3    3    0    0 -0.23470522090E+02 -0.69961068695E+01  0.31989591480E+01  0.24699074040E+02  0.51100000000E-03 0.  1.
         12    1    3    3    0    0  0.37540169135E+02  0.20416662084E+02  0.54570936311E+01  0.43079975165E+02  0.00000000000E+00 0. -1.
</event>
<event>
 7    1  0.1891413E-013  0.7246156E+02  0.7816164E-02  0.1226708E+00
        -11   -1    0    0    0    0  0.00000000000E+00  0.00000000000E+00  0.45593999997E+02  0.45594000000E+02  0.51100000000E-03 0.  1.
         11   -1    0    0    0    0 -0.00000000000E+00 -0.00000000000E+00 -0.45593999997E+02  0.45594000000E+02  0.51100000000E-03 0. -1.
    9900012    2    1    2    0    0  0.10128825133E+01 -0.18159146698E+02 -0.44608164497E+01  0.72461563522E+02  0.69999991177E+02 0.  0.
        -12    1    1    2    0    0 -0.10128825133E+01  0.18159146698E+02  0.44608164497E+01  0.18726436478E+02  0.00000000000E+00 0.  1.
         11    1    3    3    0    0  0.59764384623E+01 -0.87979143765E+01  0.94660972203E+01  0.14238262215E+02  0.51100000000E-03 0. -1.
        -11    1    3    3    0    0  0.16931149124E+02  0.60293098518E+00  0.13557416348E+02  0.21698637623E+02  0.51100000000E-03 0.  1.
         12    1    3    3    0    0 -0.21894705073E+02 -0.99641633066E+01 -0.27484330018E+02  0.36524663683E+02  0.00000000000E+00 0. -1.
</event>
<event>
 7    1  0.1891413E-013  0.7246152E+02  0.7816164E-02  0.1226708E+00
        -11   -1    0    0    0    0  0.00000000000E+00  0.00000000000E+00  0.45593999997E+02  0.45594000000E+02  0.51100000000E-03 0.  1.
         11   -1    0    0    0    0 -0.00000000000E+00 -0.00000000000E+00 -0.45593999997E+02  0.45594000000E+02  0.51100000000E-03 0. -1.
    9900012    2    1    2    0    0  0.11354187929E+01 -0.18690190590E+02  0.26231340291E+00  0.72461515855E+02  0.69999929082E+02 0.  0.
        -12    1    1    2    0    0 -0.11354187929E+01  0.18690190590E+02 -0.26231340291E+00  0.18726484145E+02  0.00000000000E+00 0.  1.
         11    1    3    3    0    0 -0.12127179569E+02 -0.92227532250E+01 -0.48552626888E+01  0.15990660943E+02  0.51100000000E-03 0. -1.
        -11    1    3    3    0    0 -0.19614339149E+02 -0.11852778371E+02 -0.10235780441E+01  0.22940321873E+02  0.51100000000E-03 0.  1.
         12    1    3    3    0    0  0.32876937510E+02  0.23853410062E+01  0.61411541359E+01  0.33530533039E+02  0.00000000000E+00 0. -1.
</event>
<event>
 7    1  0.1891413E-013  0.7246160E+02  0.7816164E-02  0.1226708E+00
        -11   -1    0    0    0    0  0.00000000000E+00  0.00000000000E+00  0.45593999997E+02  0.45594000000E+02  0.51100000000E-03 0.  1.
         11   -1    0    0    0    0 -0.00000000000E+00 -0.00000000000E+00 -0.45593999997E+02  0.45594000000E+02  0.51100000000E-03 0. -1.
    9900012    2    1    2    0    0 -0.16850907957E+02  0.54573182709E+01 -0.60780328823E+01  0.72461604047E+02  0.70000043969E+02 0.  0.
        -12    1    1    2    0    0  0.16850907957E+02 -0.54573182709E+01  0.60780328823E+01  0.18726395953E+02  0.00000000000E+00 0.  1.
         11    1    3    3    0    0  0.11967308376E+01  0.23191023386E+02 -0.91425192750E+01  0.24956790446E+02  0.51100000000E-03 0. -1.
        -11    1    3    3    0    0  0.57949533733E+01  0.66170609633E+01 -0.77783139737E+01  0.11741769412E+02  0.51100000000E-03 0.  1.
        -12    1    3    3    0    0 -0.23842592167E+02 -0.24350766079E+02  0.10842800366E+02  0.35763044189E+02  0.00000000000E+00 0.  1.
</event>
<event>
 7    1  0.1891413E-013  0.7246161E+02  0.7816164E-02  0.1226708E+00
        -11   -1    0    0    0    0  0.00000000000E+00  0.00000000000E+00  0.45593999997E+02  0.45594000000E+02  0.51100000000E-03 0.  1.
         11   -1    0    0    0    0 -0.00000000000E+00 -0.00000000000E+00 -0.45593999997E+02  0.45594000000E+02  0.51100000000E-03 0. -1.
    9900012    2    1    2    0    0 -0.10456400395E+02  0.98385177980E+01 -0.12022685045E+02  0.72461609601E+02  0.70000051204E+02 0.  0.
        -12    1    1    2    0    0  0.10456400395E+02 -0.98385177980E+01  0.12022685045E+02  0.18726390399E+02  0.00000000000E+00 0.  1.
         11    1    3    3    0    0  0.34533988861E+00  0.31823003745E+01  0.61731985092E+01  0.69537526133E+01  0.51100000000E-03 0. -1.
        -11    1    3    3    0    0 -0.19217416027E+02  0.21353133539E+02  0.11803723855E+02  0.31057902180E+02  0.51100000000E-03 0.  1.
         12    1    3    3    0    0  0.84156757435E+01 -0.14696916116E+02 -0.29999607410E+02  0.34449954808E+02  0.00000000000E+00 0. -1.
</event>
<event>
 7    1  0.1891413E-013  0.7246162E+02  0.7816164E-02  0.1226708E+00
        -11   -1    0    0    0    0  0.00000000000E+00  0.00000000000E+00  0.45593999997E+02  0.45594000000E+02  0.51100000000E-03 0. -1.
         11   -1    0    0    0    0 -0.00000000000E+00 -0.00000000000E+00 -0.45593999997E+02  0.45594000000E+02  0.51100000000E-03 0.  1.
    9900012    2    1    2    0    0  0.34253506575E+01 -0.16700277103E+02  0.77488697910E+01  0.72461621132E+02  0.70000066226E+02 0.  0.
        -12    1    1    2    0    0 -0.34253506575E+01  0.16700277103E+02 -0.77488697910E+01  0.18726378868E+02  0.00000000000E+00 0.  1.
         11    1    3    3    0    0  0.10456347622E+02  0.76029666260E+01 -0.13936121162E+02  0.19009360337E+02  0.51100000000E-03 0. -1.
        -11    1    3    3    0    0  0.11599779856E+02  0.57429095378E+01  0.95075701378E+01  0.16060192803E+02  0.51100000000E-03 0.  1.
        -12    1    3    3    0    0 -0.18630776820E+02 -0.30046153267E+02  0.12177420815E+02  0.37392067993E+02  0.00000000000E+00 0.  1.
</event>
<event>
 7    1  0.1891413E-013  0.7246125E+02  0.7816164E-02  0.1226709E+00
        -11   -1    0    0    0    0  0.00000000000E+00  0.00000000000E+00  0.45593999997E+02  0.45594000000E+02  0.51100000000E-03 0.  1.
         11   -1    0    0    0    0 -0.00000000000E+00 -0.00000000000E+00 -0.45593999997E+02  0.45594000000E+02  0.51100000000E-03 0. -1.
    9900012    2    1    2    0    0 -0.41927208152E+01  0.17899621419E+02 -0.35659048867E+01  0.72461253554E+02  0.69999587386E+02 0.  0.
        -12    1    1    2    0    0  0.41927208152E+01 -0.17899621419E+02  0.35659048867E+01  0.18726746446E+02  0.00000000000E+00 0.  1.
         11    1    3    3    0    0 -0.93285831066E+01 -0.51725492770E+01 -0.20921664528E+02  0.23483904609E+02  0.51100000000E-03 0. -1.
        -11    1    3    3    0    0  0.79661349539E+01 -0.79629959929E+01  0.13490702346E+02  0.17574631186E+02  0.51100000000E-03 0.  1.
        -12    1    3    3    0    0 -0.28302726625E+01  0.31035166689E+02  0.38650572952E+01  0.31402717759E+02  0.00000000000E+00 0.  1.
</event>
<event>
 7    1  0.1891413E-013  0.7246173E+02  0.7816164E-02  0.1226708E+00
        -11   -1    0    0    0    0  0.00000000000E+00  0.00000000000E+00  0.45593999997E+02  0.45594000000E+02  0.51100000000E-03 0.  1.
         11   -1    0    0    0    0 -0.00000000000E+00 -0.00000000000E+00 -0.45593999997E+02  0.45594000000E+02  0.51100000000E-03 0. -1.
    9900012    2    1    2    0    0  0.16864532586E+02  0.74725073884E+00 -0.81056899636E+01  0.72461733613E+02  0.70000212752E+02 0.  0.
        -12    1    1    2    0    0 -0.16864532586E+02 -0.74725073884E+00  0.81056899636E+01  0.18726266387E+02  0.00000000000E+00 0.  1.
         11    1    3    3    0    0 -0.44447361961E+01  0.59829629427E+01  0.27903573433E+01  0.79584935629E+01  0.51100000000E-03 0. -1.
        -11    1    3    3    0    0 -0.32252382198E+01 -0.15856002878E+02 -0.28302664952E+02  0.32601469790E+02  0.51100000000E-03 0.  1.
         12    1    3    3    0    0  0.24534507002E+02  0.10620290674E+02  0.17406617645E+02  0.31901770259E+02  0.00000000000E+00 0. -1.
</event>
<event>
 7    1  0.1891413E-013  0.7246159E+02  0.7816164E-02  0.1226708E+00
        -11   -1    0    0    0    0  0.00000000000E+00  0.00000000000E+00  0.45593999997E+02  0.45594000000E+02  0.51100000000E-03 0. -1.
         11   -1    0    0    0    0 -0.00000000000E+00 -0.00000000000E+00 -0.45593999997E+02  0.45594000000E+02  0.51100000000E-03 0.  1.
    9900012    2    1    2    0    0  0.11177315156E+02  0.80449919961E+01 -0.12689533367E+02  0.72461587440E+02  0.70000022335E+02 0.  0.
        -12    1    1    2    0    0 -0.11177315156E+02 -0.80449919961E+01  0.12689533367E+02  0.18726412560E+02  0.00000000000E+00 0.  1.
         11    1    3    3    0    0 -0.37858545239E+01  0.15787686173E+02 -0.10144770026E+02  0.19144192026E+02  0.51100000000E-03 0. -1.
        -11    1    3    3    0    0 -0.49168724152E+01  0.95655715614E+01 -0.19292512682E+02  0.22087934251E+02  0.51100000000E-03 0.  1.
         12    1    3    3    0    0  0.19880042095E+02 -0.17308265738E+02  0.16747749341E+02  0.31229461163E+02  0.00000000000E+00 0. -1.
</event>
<event>
 7    1  0.1891413E-013  0.7246158E+02  0.7816164E-02  0.1226708E+00
        -11   -1    0    0    0    0  0.00000000000E+00  0.00000000000E+00  0.45593999997E+02  0.45594000000E+02  0.51100000000E-03 0.  1.
         11   -1    0    0    0    0 -0.00000000000E+00 -0.00000000000E+00 -0.45593999997E+02  0.45594000000E+02  0.51100000000E-03 0. -1.
    9900012    2    1    2    0    0  0.36198269018E+01 -0.18332712627E+02 -0.12195412230E+01  0.72461580698E+02  0.70000013553E+02 0.  0.
        -12    1    1    2    0    0 -0.36198269018E+01  0.18332712627E+02  0.12195412230E+01  0.18726419302E+02  0.00000000000E+00 0.  1.
         11    1    3    3    0    0 -0.28562317807E+02  0.75848065119E+00 -0.41205845237E+01  0.28867984143E+02  0.51100000000E-03 0. -1.
        -11    1    3    3    0    0  0.22928941427E+01  0.47421555921E+01  0.46399406721E+00  0.52877872466E+01  0.51100000000E-03 0.  1.
        -12    1    3    3    0    0  0.29889250566E+02 -0.23833348871E+02  0.24370492335E+01  0.38305809308E+02  0.00000000000E+00 0.  1.
</event>
<event>
 7    1  0.1891413E-013  0.7246157E+02  0.7816164E-02  0.1226708E+00
        -11   -1    0    0    0    0  0.00000000000E+00  0.00000000000E+00  0.45593999997E+02  0.45594000000E+02  0.51100000000E-03 0. -1.
         11   -1    0    0    0    0 -0.00000000000E+00 -0.00000000000E+00 -0.45593999997E+02  0.45594000000E+02  0.51100000000E-03 0.  1.
    9900012    2    1    2    0    0  0.45656137878E+01  0.16487562661E+02  0.76154175539E+01  0.72461571182E+02  0.70000001157E+02 0.  0.
        -12    1    1    2    0    0 -0.45656137878E+01 -0.16487562661E+02 -0.76154175539E+01  0.18726428818E+02  0.00000000000E+00 0.  1.
         11    1    3    3    0    0 -0.46250312251E+01  0.44934900286E+00 -0.54182842335E+01  0.71379711863E+01  0.51100000000E-03 0. -1.
        -11    1    3    3    0    0 -0.12614512569E+02  0.21578156548E+02 -0.15175883758E+02  0.29241241688E+02  0.51100000000E-03 0.  1.
         12    1    3    3    0    0  0.21805157582E+02 -0.55399428906E+01  0.28209585545E+02  0.36082358308E+02  0.00000000000E+00 0. -1.
</event>
<event>
 7    1  0.1891413E-013  0.7246157E+02  0.7816164E-02  0.1226708E+00
        -11   -1    0    0    0    0  0.00000000000E+00  0.00000000000E+00  0.45593999997E+02  0.45594000000E+02  0.51100000000E-03 0.  1.
         11   -1    0    0    0    0 -0.00000000000E+00 -0.00000000000E+00 -0.45593999997E+02  0.45594000000E+02  0.51100000000E-03 0. -1.
    9900012    2    1    2    0    0  0.48441615932E+01  0.90189717540E+01 -0.15680284406E+02  0.72461572896E+02  0.70000003389E+02 0.  0.
        -12    1    1    2    0    0 -0.48441615932E+01 -0.90189717540E+01  0.15680284406E+02  0.18726427104E+02  0.00000000000E+00 0.  1.
         11    1    3    3    0    0  0.17212590013E+02 -0.23427983606E+01 -0.38981531256E+02  0.42676946217E+02  0.51100000000E-03 0. -1.
        -11    1    3    3    0    0 -0.47011283626E+01  0.72318073852E+01  0.62955079248E+01  0.10678626608E+02  0.51100000000E-03 0.  1.
        -12    1    3    3    0    0 -0.76673000576E+01  0.41299627293E+01  0.17005738925E+02  0.19106000070E+02  0.00000000000E+00 0.  1.
</event>
<event>
 7    1  0.1891413E-013  0.7246162E+02  0.7816164E-02  0.1226708E+00
        -11   -1    0    0    0    0  0.00000000000E+00  0.00000000000E+00  0.45593999997E+02  0.45594000000E+02  0.51100000000E-03 0.  1.
         11   -1    0    0    0    0 -0.00000000000E+00 -0.00000000000E+00 -0.45593999997E+02  0.45594000000E+02  0.51100000000E-03 0. -1.
    9900012    2    1    2    0    0  0.10073022259E+02  0.11820996829E+02 -0.10463063121E+02  0.72461616652E+02  0.70000060389E+02 0.  0.
        -12    1    1    2    0    0 -0.10073022259E+02 -0.11820996829E+02  0.10463063121E+02  0.18726383348E+02  0.00000000000E+00 0.  1.
         11    1    3    3    0    0 -0.60811352301E+01  0.19482009024E+02  0.71604519759E+00  0.20421596468E+02  0.51100000000E-03 0. -1.
        -11    1    3    3    0    0 -0.62765914078E+01  0.48646043950E+01  0.13982307460E+02  0.16079953290E+02  0.51100000000E-03 0.  1.
        -12    1    3    3    0    0  0.22430748896E+02 -0.12525616591E+02 -0.25161415779E+02  0.35960066894E+02  0.00000000000E+00 0.  1.
</event>
<event>
 7    1  0.1891413E-013  0.7246162E+02  0.7816164E-02  0.1226708E+00
        -11   -1    0    0    0    0  0.00000000000E+00  0.00000000000E+00  0.45593999997E+02  0.45594000000E+02  0.51100000000E-03 0. -1.
         11   -1    0    0    0    0 -0.00000000000E+00 -0.00000000000E+00 -0.45593999997E+02  0.45594000000E+02  0.51100000000E-03 0.  1.
    9900012    2    1    2    0    0  0.74714830776E+01 -0.62078188759E+01  0.16009911570E+02  0.72461619062E+02  0.70000063529E+02 0.  0.
        -12    1    1    2    0    0 -0.74714830776E+01  0.62078188759E+01 -0.16009911570E+02  0.18726380938E+02  0.00000000000E+00 0.  1.
         11    1    3    3    0    0 -0.13041649329E+02 -0.14455271337E+02  0.47578070048E+01  0.20041861550E+02  0.51100000000E-03 0. -1.
        -11    1    3    3    0    0 -0.95305218409E+01  0.27831525606E+01  0.18535034625E+02  0.21026751855E+02  0.51100000000E-03 0.  1.
        -12    1    3    3    0    0  0.30043654247E+02  0.54642999002E+01 -0.72829300605E+01  0.31393005657E+02  0.00000000000E+00 0.  1.
</event>
<event>
 7    1  0.1891413E-013  0.7246183E+02  0.7816164E-02  0.1226707E+00
        -11   -1    0    0    0    0  0.00000000000E+00  0.00000000000E+00  0.45593999997E+02  0.45594000000E+02  0.51100000000E-03 0.  1.
         11   -1    0    0    0    0 -0.00000000000E+00 -0.00000000000E+00 -0.45593999997E+02  0.45594000000E+02  0.51100000000E-03 0. -1.
    9900012    2    1    2    0    0 -0.15368968353E+02 -0.62135556636E+01  0.87095412470E+01  0.72461826580E+02  0.70000333858E+02 0.  0.
        -12    1    1    2    0    0  0.15368968353E+02  0.62135556636E+01 -0.87095412470E+01  0.18726173420E+02  0.00000000000E+00 0.  1.
         11    1    3    3    0    0 -0.26718068679E+02 -0.99627996066E+01  0.94839956066E+01  0.30050935806E+02  0.51100000000E-03 0. -1.
        -11    1    3    3    0    0  0.79501876259E+01 -0.17273963527E+02  0.62013502844E+01  0.20001301078E+02  0.51100000000E-03 0.  1.
        -12    1    3    3    0    0  0.33989126992E+01  0.21023207470E+02 -0.69758046439E+01  0.22409589695E+02  0.00000000000E+00 0.  1.
</event>
<event>
 7    1  0.1891413E-013  0.7246161E+02  0.7816164E-02  0.1226708E+00
        -11   -1    0    0    0    0  0.00000000000E+00  0.00000000000E+00  0.45593999997E+02  0.45594000000E+02  0.51100000000E-03 0. -1.
         11   -1    0    0    0    0 -0.00000000000E+00 -0.00000000000E+00 -0.45593999997E+02  0.45594000000E+02  0.51100000000E-03 0.  1.
    9900012    2    1    2    0    0  0.12802323830E+02 -0.13442186735E+02  0.24669121063E+01  0.72461613937E+02  0.70000056852E+02 0.  0.
        -12    1    1    2    0    0 -0.12802323830E+02  0.13442186735E+02 -0.24669121063E+01  0.18726386063E+02  0.00000000000E+00 0.  1.
         11    1    3    3    0    0 -0.13642541195E+02 -0.20433808957E+01  0.15269789358E+02  0.20578163257E+02  0.51100000000E-03 0. -1.
        -11    1    3    3    0    0 -0.63530511045E+01 -0.12187033639E+02 -0.13225258245E+02  0.19073345359E+02  0.51100000000E-03 0.  1.
         12    1    3    3    0    0  0.32797916129E+02  0.78822779986E+00  0.42238099387E+00  0.32810105321E+02  0.00000000000E+00 0. -1.
</event>
<event>
 7    1  0.1891413E-013  0.7246156E+02  0.7816164E-02  0.1226708E+00
        -11   -1    0    0    0    0  0.00000000000E+00  0.00000000000E+00  0.45593999997E+02  0.45594000000E+02  0.51100000000E-03 0.  1.
         11   -1    0    0    0    0 -0.00000000000E+00 -0.00000000000E+00 -0.45593999997E+02  0.45594000000E+02  0.51100000000E-03 0. -1.
    9900012    2    1    2    0    0  0.22019545777E+01  0.15788649523E+02 -0.98259551037E+01  0.72461562767E+02  0.69999990195E+02 0.  0.
        -12    1    1    2    0    0 -0.22019545777E+01 -0.15788649523E+02  0.98259551037E+01  0.18726437233E+02  0.00000000000E+00 0.  1.
         11    1    3    3    0    0  0.11926942326E+02  0.19372584064E+02 -0.15418532708E+02  0.27482360118E+02  0.51100000000E-03 0. -1.
        -11    1    3    3    0    0  0.70680336376E+01  0.87342314764E+00 -0.15852701639E+02  0.17378956154E+02  0.51100000000E-03 0.  1.
        -12    1    3    3    0    0 -0.16793021386E+02 -0.44573576881E+01  0.21445279242E+02  0.27600246495E+02  0.00000000000E+00 0.  1.
</event>
<event>
 7    1  0.1891413E-013  0.7246158E+02  0.7816164E-02  0.1226708E+00
        -11   -1    0    0    0    0  0.00000000000E+00  0.00000000000E+00  0.45593999997E+02  0.45594000000E+02  0.51100000000E-03 0. -1.
         11   -1    0    0    0    0 -0.00000000000E+00 -0.00000000000E+00 -0.45593999997E+02  0.45594000000E+02  0.51100000000E-03 0.  1.
    9900012    2    1    2    0    0 -0.85102138014E+01  0.16666635843E+02 -0.69172016872E+00  0.72461575727E+02  0.70000007077E+02 0.  0.
        -12    1    1    2    0    0  0.85102138014E+01 -0.16666635843E+02  0.69172016872E+00  0.18726424273E+02  0.00000000000E+00 0.  1.
         11    1    3    3    0    0  0.13846499254E+02  0.25875235895E+01  0.10862573486E+02  0.17788094977E+02  0.51100000000E-03 0. -1.
        -11    1    3    3    0    0  0.39324505865E+01 -0.10381817558E+02  0.80953935815E+01  0.13739785330E+02  0.51100000000E-03 0.  1.
        -12    1    3    3    0    0 -0.26289163642E+02  0.24460929811E+02 -0.19649687236E+02  0.40933695420E+02  0.00000000000E+00 0.  1.
</event>
<event>
 7    1  0.1891413E-013  0.7246158E+02  0.7816164E-02  0.1226708E+00
        -11   -1    0    0    0    0  0.00000000000E+00  0.00000000000E+00  0.45593999997E+02  0.45594000000E+02  0.51100000000E-03 0. -1.
         11   -1    0    0    0    0 -0.00000000000E+00 -0.00000000000E+00 -0.45593999997E+02  0.45594000000E+02  0.51100000000E-03 0.  1.
    9900012    2    1    2    0    0  0.16793408385E+02 -0.80305686727E+01 -0.20421320362E+01  0.72461577447E+02  0.70000009317E+02 0.  0.
        -12    1    1    2    0    0 -0.16793408385E+02  0.80305686727E+01  0.20421320362E+01  0.18726422553E+02  0.00000000000E+00 0.  1.
         11    1    3    3    0    0  0.15498153456E+02 -0.19481580359E+02  0.25601590779E+02  0.35709469115E+02  0.51100000000E-03 0. -1.
        -11    1    3    3    0    0  0.33486412298E+01  0.11417887259E+01  0.28209435528E+01  0.45249091007E+01  0.51100000000E-03 0.  1.
        -12    1    3    3    0    0 -0.20533863009E+01  0.10309222960E+02 -0.30464666368E+02  0.32227199231E+02  0.00000000000E+00 0.  1.
</event>
<event>
 7    1  0.1920208E-013  0.7246160E+02  0.7816164E-02  0.1226708E+00
        -11   -1    0    0    0    0  0.00000000000E+00  0.00000000000E+00  0.45593999997E+02  0.45594000000E+02  0.51100000000E-03 0.  1.
         11   -1    0    0    0    0 -0.00000000000E+00 -0.00000000000E+00 -0.45593999997E+02  0.45594000000E+02  0.51100000000E-03 0. -1.
    9900012    2    1    2    0    0 -0.18195751282E+02 -0.59834536122E+00  0.43857447920E+01  0.72461597802E+02  0.70000035834E+02 0.  0.
        -12    1    1    2    0    0  0.18195751282E+02  0.59834536122E+00 -0.43857447920E+01  0.18726402198E+02  0.00000000000E+00 0.  1.
         11    1    3    3    0    0  0.78975179826E+01  0.16442105730E+01  0.17761734844E+01  0.82600854234E+01  0.51100000000E-03 0. -1.
        -11    1    3    3    0    0  0.10650718253E+02  0.17993079298E+02 -0.51696755766E+01  0.21538668662E+02  0.51100000000E-03 0.  1.
         12    1    3    3    0    0 -0.36743987517E+02 -0.20235635232E+02  0.77792468843E+01  0.42662843717E+02  0.00000000000E+00 0. -1.
</event>
<event>
 7    1  0.1891413E-013  0.7246160E+02  0.7816164E-02  0.1226708E+00
        -11   -1    0    0    0    0  0.00000000000E+00  0.00000000000E+00  0.45593999997E+02  0.45594000000E+02  0.51100000000E-03 0. -1.
         11   -1    0    0    0    0 -0.00000000000E+00 -0.00000000000E+00 -0.45593999997E+02  0.45594000000E+02  0.51100000000E-03 0.  1.
    9900012    2    1    2    0    0 -0.29777538295E+00  0.98540536098E+01 -0.15921275948E+02  0.72461599638E+02  0.70000038225E+02 0.  0.
        -12    1    1    2    0    0  0.29777538295E+00 -0.98540536098E+01  0.15921275948E+02  0.18726400362E+02  0.00000000000E+00 0.  1.
         11    1    3    3    0    0  0.76770827566E+01 -0.82656509233E+01  0.15307366929E+02  0.19015101036E+02  0.51100000000E-03 0. -1.
        -11    1    3    3    0    0  0.64167997508E+00  0.57364439138E+01  0.88818795002E+01  0.10592748731E+02  0.51100000000E-03 0.  1.
        -12    1    3    3    0    0 -0.86165381146E+01  0.12383260619E+02 -0.40110522377E+02  0.42853749871E+02  0.00000000000E+00 0.  1.
</event>
<event>
 7    1  0.1891413E-013  0.7246156E+02  0.7816164E-02  0.1226708E+00
        -11   -1    0    0    0    0  0.00000000000E+00  0.00000000000E+00  0.45593999997E+02  0.45594000000E+02  0.51100000000E-03 0.  1.
         11   -1    0    0    0    0 -0.00000000000E+00 -0.00000000000E+00 -0.45593999997E+02  0.45594000000E+02  0.51100000000E-03 0. -1.
    9900012    2    1    2    0    0  0.17167507144E+02  0.62343563935E+01 -0.41338883242E+01  0.72461560567E+02  0.69999987328E+02 0.  0.
        -12    1    1    2    0    0 -0.17167507144E+02 -0.62343563935E+01  0.41338883242E+01  0.18726439433E+02  0.00000000000E+00 0.  1.
         11    1    3    3    0    0 -0.45577676007E+01  0.51299505382E+01 -0.21661280044E+02  0.22722251020E+02  0.51100000000E-03 0. -1.
        -11    1    3    3    0    0  0.76338705575E+01 -0.19078463271E+02  0.20238222040E+01  0.20648476870E+02  0.51100000000E-03 0.  1.
        -12    1    3    3    0    0  0.14091404187E+02  0.20182869126E+02  0.15503569516E+02  0.29090832677E+02  0.00000000000E+00 0.  1.
</event>
<event>
 7    1  0.1891413E-013  0.7246165E+02  0.7816164E-02  0.1226708E+00
        -11   -1    0    0    0    0  0.00000000000E+00  0.00000000000E+00  0.45593999997E+02  0.45594000000E+02  0.51100000000E-03 0. -1.
         11   -1    0    0    0    0 -0.00000000000E+00 -0.00000000000E+00 -0.45593999997E+02  0.45594000000E+02  0.51100000000E-03 0.  1.
    9900012    2    1    2    0    0  0.53737838565E+01 -0.64429962011E+01  0.16741756904E+02  0.72461650190E+02  0.70000104078E+02 0.  0.
        -12    1    1    2    0    0 -0.53737838565E+01  0.64429962011E+01 -0.16741756904E+02  0.18726349810E+02  0.00000000000E+00 0.  1.
         11    1    3    3    0    0 -0.69434667810E+00 -0.88992286073E+01  0.34763844604E+01  0.95793338125E+01  0.51100000000E-03 0. -1.
        -11    1    3    3    0    0 -0.39088542030E+00  0.68302995086E+01 -0.23924321948E+02  0.24883306929E+02  0.51100000000E-03 0.  1.
         12    1    3    3    0    0  0.64590159549E+01 -0.43740671024E+01  0.37189694392E+02  0.37999009448E+02  0.00000000000E+00 0. -1.
</event>
<event>
 7    1  0.1891413E-013  0.7246157E+02  0.7816164E-02  0.1226708E+00
        -11   -1    0    0    0    0  0.00000000000E+00  0.00000000000E+00  0.45593999997E+02  0.45594000000E+02  0.51100000000E-03 0. -1.
         11   -1    0    0    0    0 -0.00000000000E+00 -0.00000000000E+00 -0.45593999997E+02  0.45594000000E+02  0.51100000000E-03 0.  1.
    9900012    2    1    2    0    0 -0.17349010588E+02  0.67414612134E+01  0.20600384490E+01  0.72461568784E+02  0.69999998032E+02 0.  0.
        -12    1    1    2    0    0  0.17349010588E+02 -0.67414612134E+01 -0.20600384490E+01  0.18726431216E+02  0.00000000000E+00 0.  1.
         11    1    3    3    0    0 -0.18071716803E+02  0.39118874553E+01  0.22261890572E+02  0.28939274071E+02  0.51100000000E-03 0. -1.
        -11    1    3    3    0    0 -0.78927402893E+01  0.17967350123E+02 -0.46406535273E+01  0.20165730464E+02  0.51100000000E-03 0.  1.
        -12    1    3    3    0    0  0.86154465047E+01 -0.15137776365E+02 -0.15561198595E+02  0.23356564248E+02  0.00000000000E+00 0.  1.
</event>
<event>
 7    1  0.1891413E-013  0.7246158E+02  0.7816164E-02  0.1226708E+00
        -11   -1    0    0    0    0  0.00000000000E+00  0.00000000000E+00  0.45593999997E+02  0.45594000000E+02  0.51100000000E-03 0.  1.
         11   -1    0    0    0    0 -0.00000000000E+00 -0.00000000000E+00 -0.45593999997E+02  0.45594000000E+02  0.51100000000E-03 0. -1.
    9900012    2    1    2    0    0  0.10464097739E+02 -0.83149388199E+01 -0.13116524073E+02  0.72461581420E+02  0.70000014494E+02 0.  0.
        -12    1    1    2    0    0 -0.10464097739E+02  0.83149388199E+01  0.13116524073E+02  0.18726418580E+02  0.00000000000E+00 0.  1.
         11    1    3    3    0    0 -0.45554614535E+01 -0.14702352754E+02 -0.20572464110E+01  0.15528801261E+02  0.51100000000E-03 0. -1.
        -11    1    3    3    0    0 -0.88303750885E+01 -0.16068055558E+02 -0.15328383345E+02  0.23898059960E+02  0.51100000000E-03 0.  1.
         12    1    3    3    0    0  0.23849934281E+02  0.22455469492E+02  0.42691056838E+01  0.33034720199E+02  0.00000000000E+00 0. -1.
</event>
<event>
 7    1  0.1891413E-013  0.7246155E+02  0.7816164E-02  0.1226708E+00
        -11   -1    0    0    0    0  0.00000000000E+00  0.00000000000E+00  0.45593999997E+02  0.45594000000E+02  0.51100000000E-03 0. -1.
         11   -1    0    0    0    0 -0.00000000000E+00 -0.00000000000E+00 -0.45593999997E+02  0.45594000000E+02  0.51100000000E-03 0.  1.
    9900012    2    1    2    0    0 -0.18606708728E+02 -0.22551943161E+00 -0.21022784176E+01  0.72461546966E+02  0.69999969611E+02 0.  0.
        -12    1    1    2    0    0  0.18606708728E+02  0.22551943161E+00  0.21022784176E+01  0.18726453034E+02  0.00000000000E+00 0.  1.
         11    1    3    3    0    0 -0.31762606815E+01 -0.45126871013E+01  0.24757570077E+02  0.25365138540E+02  0.51100000000E-03 0. -1.
        -11    1    3    3    0    0 -0.62252466744E+01 -0.84272168676E+01  0.49777778367E+01  0.11599566920E+02  0.51100000000E-03 0.  1.
        -12    1    3    3    0    0 -0.92052013716E+01  0.12714384537E+02 -0.31837626331E+02  0.35496841505E+02  0.00000000000E+00 0.  1.
</event>
<event>
 7    1  0.1891413E-013  0.7246161E+02  0.7816164E-02  0.1226708E+00
        -11   -1    0    0    0    0  0.00000000000E+00  0.00000000000E+00  0.45593999997E+02  0.45594000000E+02  0.51100000000E-03 0.  1.
         11   -1    0    0    0    0 -0.00000000000E+00 -0.00000000000E+00 -0.45593999997E+02  0.45594000000E+02  0.51100000000E-03 0. -1.
    9900012    2    1    2    0    0  0.41651976642E+01  0.15712420041E+02 -0.92977780166E+01  0.72461609767E+02  0.70000051420E+02 0.  0.
        -12    1    1    2    0    0 -0.41651976642E+01 -0.15712420041E+02  0.92977780166E+01  0.18726390233E+02  0.00000000000E+00 0.  1.
         11    1    3    3    0    0 -0.41435226262E+01  0.18142753175E+02 -0.22617416219E+02  0.29289516712E+02  0.51100000000E-03 0. -1.
        -11    1    3    3    0    0  0.20652943064E+02  0.29867485246E+01 -0.39763012616E+01  0.21243250597E+02  0.51100000000E-03 0.  1.
         12    1    3    3    0    0 -0.12344222774E+02 -0.54170816595E+01  0.17295939464E+02  0.21928842458E+02  0.00000000000E+00 0. -1.
</event>
<event>
 7    1  0.1891413E-013  0.7246154E+02  0.7816164E-02  0.1226708E+00
        -11   -1    0    0    0    0  0.00000000000E+00  0.00000000000E+00  0.45593999997E+02  0.45594000000E+02  0.51100000000E-03 0. -1.
         11   -1    0    0    0    0 -0.00000000000E+00 -0.00000000000E+00 -0.45593999997E+02  0.45594000000E+02  0.51100000000E-03 0.  1.
    9900012    2    1    2    0    0 -0.11735564499E+02 -0.30684996026E-01  0.14593006238E+02  0.72461541533E+02  0.69999962533E+02 0.  0.
        -12    1    1    2    0    0  0.11735564499E+02  0.30684996026E-01 -0.14593006238E+02  0.18726458467E+02  0.00000000000E+00 0.  1.
         11    1    3    3    0    0 -0.11980133348E+02  0.98802803523E+01 -0.52912766233E+01  0.16405521736E+02  0.51100000000E-03 0. -1.
        -11    1    3    3    0    0 -0.74369626502E+00  0.20728566696E+02  0.27118416481E+01  0.20918428401E+02  0.51100000000E-03 0.  1.
         12    1    3    3    0    0  0.98826511440E+00 -0.30639532044E+02  0.17172441213E+02  0.35137591395E+02  0.00000000000E+00 0. -1.
</event>
<event>
 7    1  0.1891413E-013  0.7246162E+02  0.7816164E-02  0.1226708E+00
        -11   -1    0    0    0    0  0.00000000000E+00  0.00000000000E+00  0.45593999997E+02  0.45594000000E+02  0.51100000000E-03 0. -1.
         11   -1    0    0    0    0 -0.00000000000E+00 -0.00000000000E+00 -0.45593999997E+02  0.45594000000E+02  0.51100000000E-03 0.  1.
    9900012    2    1    2    0    0 -0.16126397961E+02  0.17355179311E+01  0.93597367786E+01  0.72461617375E+02  0.70000061331E+02 0.  0.
        -12    1    1    2    0    0  0.16126397961E+02 -0.17355179311E+01 -0.93597367786E+01  0.18726382625E+02  0.00000000000E+00 0.  1.
         11    1    3    3    0    0  0.46672938881E+01 -0.20414546679E+01 -0.94406363489E+01  0.10727384785E+02  0.51100000000E-03 0.  1.
        -11    1    3    3    0    0 -0.90610159506E+01  0.14341169670E+02 -0.16125833963E+02  0.23405419860E+02  0.51100000000E-03 0. -1.
         12    1    3    3    0    0 -0.11732675898E+02 -0.10564197071E+02  0.34926207091E+02  0.38328812729E+02  0.00000000000E+00 0. -1.
</event>
<event>
 7    1  0.1891413E-013  0.7246158E+02  0.7816164E-02  0.1226708E+00
        -11   -1    0    0    0    0  0.00000000000E+00  0.00000000000E+00  0.45593999997E+02  0.45594000000E+02  0.51100000000E-03 0. -1.
         11   -1    0    0    0    0 -0.00000000000E+00 -0.00000000000E+00 -0.45593999997E+02  0.45594000000E+02  0.51100000000E-03 0.  1.
    9900012    2    1    2    0    0  0.14582715570E+02 -0.31770012807E+01  0.11310616874E+02  0.72461575232E+02  0.70000006432E+02 0.  0.
        -12    1    1    2    0    0 -0.14582715570E+02  0.31770012807E+01 -0.11310616874E+02  0.18726424768E+02  0.00000000000E+00 0.  1.
         11    1    3    3    0    0  0.23091102779E+02  0.22669270740E+02 -0.97846026726E+01  0.33805817741E+02  0.51100000000E-03 0. -1.
        -11    1    3    3    0    0  0.37385825908E+00 -0.11525489252E+01 -0.28710470349E+01  0.31162558240E+01  0.51100000000E-03 0.  1.
         12    1    3    3    0    0 -0.88822454680E+01 -0.24693723095E+02  0.23966266581E+02  0.35539501666E+02  0.00000000000E+00 0. -1.
</event>
<event>
 7    1  0.1891413E-013  0.7246149E+02  0.7816164E-02  0.1226708E+00
        -11   -1    0    0    0    0  0.00000000000E+00  0.00000000000E+00  0.45593999997E+02  0.45594000000E+02  0.51100000000E-03 0.  1.
         11   -1    0    0    0    0 -0.00000000000E+00 -0.00000000000E+00 -0.45593999997E+02  0.45594000000E+02  0.51100000000E-03 0. -1.
    9900012    2    1    2    0    0 -0.11095738821E+02  0.89499378521E+01  0.12143531949E+02  0.72461490028E+02  0.69999895438E+02 0.  0.
        -12    1    1    2    0    0  0.11095738821E+02 -0.89499378521E+01 -0.12143531949E+02  0.18726509972E+02  0.00000000000E+00 0.  1.
         11    1    3    3    0    0 -0.27485456878E+02  0.44698434896E+01 -0.14735765051E+02  0.31505120417E+02  0.51100000000E-03 0. -1.
        -11    1    3    3    0    0  0.14225939126E+02  0.36994419908E+01  0.74174552722E+00  0.14717792013E+02  0.51100000000E-03 0.  1.
        -12    1    3    3    0    0  0.21637789308E+01  0.78065237178E+00  0.26137551472E+02  0.26238577598E+02  0.00000000000E+00 0.  1.
</event>
<event>
 7    1  0.1891413E-013  0.7246162E+02  0.7816164E-02  0.1226708E+00
        -11   -1    0    0    0    0  0.00000000000E+00  0.00000000000E+00  0.45593999997E+02  0.45594000000E+02  0.51100000000E-03 0. -1.
         11   -1    0    0    0    0 -0.00000000000E+00 -0.00000000000E+00 -0.45593999997E+02  0.45594000000E+02  0.51100000000E-03 0.  1.
    9900012    2    1    2    0    0 -0.18366544238E+02 -0.36533151317E+01 -0.25434540263E-01  0.72461620061E+02  0.70000064831E+02 0.  0.
        -12    1    1    2    0    0  0.18366544238E+02  0.36533151317E+01  0.25434540263E-01  0.18726379939E+02  0.00000000000E+00 0.  1.
         11    1    3    3    0    0  0.14481198051E+02 -0.22965895430E+01 -0.10846029449E+02  0.18237756868E+02  0.51100000000E-03 0. -1.
        -11    1    3    3    0    0 -0.29330218684E+02 -0.15002315731E+02 -0.46801707486E+01  0.33275143934E+02  0.51100000000E-03 0.  1.
        -12    1    3    3    0    0 -0.35175236041E+01  0.13645590142E+02  0.15500765657E+02  0.20948719259E+02  0.00000000000E+00 0.  1.
</event>
<event>
 7    1  0.1891413E-013  0.7246187E+02  0.7816164E-02  0.1226707E+00
        -11   -1    0    0    0    0  0.00000000000E+00  0.00000000000E+00  0.45593999997E+02  0.45594000000E+02  0.51100000000E-03 0.  1.
         11   -1    0    0    0    0 -0.00000000000E+00 -0.00000000000E+00 -0.45593999997E+02  0.45594000000E+02  0.51100000000E-03 0. -1.
    9900012    2    1    2    0    0 -0.22234684053E+01 -0.44804702237E+01 -0.18045765525E+02  0.72461866428E+02  0.70000385767E+02 0.  0.
        -12    1    1    2    0    0  0.22234684053E+01  0.44804702237E+01  0.18045765525E+02  0.18726133572E+02  0.00000000000E+00 0.  1.
         11    1    3    3    0    0 -0.98851876290E+01 -0.15121415625E+02 -0.53826534432E+00  0.18073845047E+02  0.51100000000E-03 0. -1.
        -11    1    3    3    0    0 -0.36745289091E+01 -0.16829323160E+02 -0.17660406227E+02  0.24670189077E+02  0.51100000000E-03 0.  1.
        -12    1    3    3    0    0  0.11336248133E+02  0.27470268561E+02  0.15290604605E+00  0.29717832303E+02  0.00000000000E+00 0.  1.
</event>
<event>
 7    1  0.1891413E-013  0.7246155E+02  0.7816164E-02  0.1226708E+00
        -11   -1    0    0    0    0  0.00000000000E+00  0.00000000000E+00  0.45593999997E+02  0.45594000000E+02  0.51100000000E-03 0. -1.
         11   -1    0    0    0    0 -0.00000000000E+00 -0.00000000000E+00 -0.45593999997E+02  0.45594000000E+02  0.51100000000E-03 0.  1.
    9900012    2    1    2    0    0 -0.18063461897E+02  0.14828780852E+01  0.47108618369E+01  0.72461553397E+02  0.69999977988E+02 0.  0.
        -12    1    1    2    0    0  0.18063461897E+02 -0.14828780852E+01 -0.47108618369E+01  0.18726446603E+02  0.00000000000E+00 0.  1.
         11    1    3    3    0    0 -0.30415153258E+02 -0.49689920462E+01  0.24177961438E+02  0.39170732049E+02  0.51100000000E-03 0.  1.
        -11    1    3    3    0    0  0.76709690324E+01 -0.65636630417E+00  0.37494164623E+01  0.85634517976E+01  0.51100000000E-03 0. -1.
        -12    1    3    3    0    0  0.46807223283E+01  0.71082364356E+01 -0.23216516064E+02  0.24727369550E+02  0.00000000000E+00 0.  1.
</event>
<event>
 7    1  0.1891413E-013  0.7246154E+02  0.7816164E-02  0.1226708E+00
        -11   -1    0    0    0    0  0.00000000000E+00  0.00000000000E+00  0.45593999997E+02  0.45594000000E+02  0.51100000000E-03 0.  1.
         11   -1    0    0    0    0 -0.00000000000E+00 -0.00000000000E+00 -0.45593999997E+02  0.45594000000E+02  0.51100000000E-03 0. -1.
    9900012    2    1    2    0    0  0.91460328215E+01  0.11567356872E+02 -0.11542379942E+02  0.72461542884E+02  0.69999964293E+02 0.  0.
        -12    1    1    2    0    0 -0.91460328215E+01 -0.11567356872E+02  0.11542379942E+02  0.18726457116E+02  0.00000000000E+00 0.  1.
         11    1    3    3    0    0  0.13132315109E+02  0.14329486827E+02 -0.30025392785E+02  0.35767528640E+02  0.51100000000E-03 0. -1.
        -11    1    3    3    0    0  0.32884478252E+01  0.24270386424E+01 -0.78695786686E+01  0.88676194299E+01  0.51100000000E-03 0.  1.
        -12    1    3    3    0    0 -0.72747301130E+01 -0.51891685973E+01  0.26352591512E+02  0.27826394814E+02  0.00000000000E+00 0.  1.
</event>
<event>
 7    1  0.1891413E-013  0.7246215E+02  0.7816164E-02  0.1226706E+00
        -11   -1    0    0    0    0  0.00000000000E+00  0.00000000000E+00  0.45593999997E+02  0.45594000000E+02  0.51100000000E-03 0.  1.
         11   -1    0    0    0    0 -0.00000000000E+00 -0.00000000000E+00 -0.45593999997E+02  0.45594000000E+02  0.51100000000E-03 0. -1.
    9900012    2    1    2    0    0 -0.10716611945E+02 -0.15257468606E+02  0.17381740089E+01  0.72462152389E+02  0.70000758283E+02 0.  0.
        -12    1    1    2    0    0  0.10716611945E+02  0.15257468606E+02 -0.17381740089E+01  0.18725847611E+02  0.00000000000E+00 0.  1.
         11    1    3    3    0    0 -0.21263621112E+02  0.38880739643E+01  0.74654073866E+01  0.22868996691E+02  0.51100000000E-03 0. -1.
        -11    1    3    3    0    0  0.78117913126E+01  0.13949045943E+02 -0.65791316607E+00  0.16001025474E+02  0.51100000000E-03 0.  1.
         12    1    3    3    0    0  0.27352178538E+01 -0.33094588514E+02 -0.50693202116E+01  0.33592130224E+02  0.00000000000E+00 0. -1.
</event>
<event>
 7    1  0.1891413E-013  0.7246152E+02  0.7816164E-02  0.1226708E+00
        -11   -1    0    0    0    0  0.00000000000E+00  0.00000000000E+00  0.45593999997E+02  0.45594000000E+02  0.51100000000E-03 0. -1.
         11   -1    0    0    0    0 -0.00000000000E+00 -0.00000000000E+00 -0.45593999997E+02  0.45594000000E+02  0.51100000000E-03 0.  1.
    9900012    2    1    2    0    0 -0.13779341242E+02  0.10376160279E+02 -0.72901282978E+01  0.72461523615E+02  0.69999939191E+02 0.  0.
        -12    1    1    2    0    0  0.13779341242E+02 -0.10376160279E+02  0.72901282978E+01  0.18726476385E+02  0.00000000000E+00 0.  1.
         11    1    3    3    0    0 -0.20327309662E+01 -0.25758874250E+01 -0.14290224243E+02  0.14662117868E+02  0.51100000000E-03 0. -1.
        -11    1    3    3    0    0  0.10096954592E+02  0.28472888125E+02  0.69672055535E+01  0.31003157963E+02  0.51100000000E-03 0.  1.
         12    1    3    3    0    0 -0.21843564868E+02 -0.15520840421E+02  0.32890391347E-01  0.26796247784E+02  0.00000000000E+00 0. -1.
</event>
<event>
 7    1  0.1891413E-013  0.7246156E+02  0.7816164E-02  0.1226708E+00
        -11   -1    0    0    0    0  0.00000000000E+00  0.00000000000E+00  0.45593999997E+02  0.45594000000E+02  0.51100000000E-03 0.  1.
         11   -1    0    0    0    0 -0.00000000000E+00 -0.00000000000E+00 -0.45593999997E+02  0.45594000000E+02  0.51100000000E-03 0. -1.
    9900012    2    1    2    0    0 -0.44038941872E+00 -0.18721056248E+02  0.87570723781E-01  0.72461559908E+02  0.69999986470E+02 0.  0.
        -12    1    1    2    0    0  0.44038941872E+00  0.18721056248E+02 -0.87570723781E-01  0.18726440092E+02  0.00000000000E+00 0.  1.
         11    1    3    3    0    0 -0.74488339026E+01 -0.59992359222E+01 -0.61566437719E+00  0.95841014730E+01  0.51100000000E-03 0. -1.
        -11    1    3    3    0    0  0.15663757188E+02  0.12669168397E+02 -0.20456348797E+02  0.28711031390E+02  0.51100000000E-03 0.  1.
         12    1    3    3    0    0 -0.86553127037E+01 -0.25390988723E+02  0.21159583898E+02  0.34166427045E+02  0.00000000000E+00 0. -1.
</event>
<event>
 7    1  0.1891413E-013  0.7246157E+02  0.7816164E-02  0.1226708E+00
        -11   -1    0    0    0    0  0.00000000000E+00  0.00000000000E+00  0.45593999997E+02  0.45594000000E+02  0.51100000000E-03 0.  1.
         11   -1    0    0    0    0 -0.00000000000E+00 -0.00000000000E+00 -0.45593999997E+02  0.45594000000E+02  0.51100000000E-03 0. -1.
    9900012    2    1    2    0    0 -0.51767899103E+01 -0.17517807596E+02 -0.41238709385E+01  0.72461573532E+02  0.70000004217E+02 0.  0.
        -12    1    1    2    0    0  0.51767899103E+01  0.17517807596E+02  0.41238709385E+01  0.18726426468E+02  0.00000000000E+00 0.  1.
         11    1    3    3    0    0 -0.18141876327E+02  0.31683226325E-01  0.82007473635E+01  0.19909317871E+02  0.51100000000E-03 0. -1.
        -11    1    3    3    0    0  0.54125089987E+01  0.20786424162E+01  0.16146428862E+02  0.17155849534E+02  0.51100000000E-03 0.  1.
         12    1    3    3    0    0  0.75525774182E+01 -0.19628133239E+02 -0.28471047164E+02  0.35396406127E+02  0.00000000000E+00 0. -1.
</event>
<event>
 7    1  0.1891413E-013  0.7246144E+02  0.7816164E-02  0.1226708E+00
        -11   -1    0    0    0    0  0.00000000000E+00  0.00000000000E+00  0.45593999997E+02  0.45594000000E+02  0.51100000000E-03 0.  1.
         11   -1    0    0    0    0 -0.00000000000E+00 -0.00000000000E+00 -0.45593999997E+02  0.45594000000E+02  0.51100000000E-03 0. -1.
    9900012    2    1    2    0    0 -0.82718944310E+01 -0.11923159805E+01 -0.16758231996E+02  0.72461436126E+02  0.69999825221E+02 0.  0.
        -12    1    1    2    0    0  0.82718944310E+01  0.11923159805E+01  0.16758231996E+02  0.18726563874E+02  0.00000000000E+00 0.  1.
         11    1    3    3    0    0 -0.21417453232E+02 -0.72551352773E+01 -0.15849299201E+02  0.27614209680E+02  0.51100000000E-03 0. -1.
        -11    1    3    3    0    0  0.86045478301E+01 -0.17540482567E+02  0.48510305190E+01  0.20130555616E+02  0.51100000000E-03 0.  1.
        -12    1    3    3    0    0  0.45410109708E+01  0.23603301864E+02 -0.57599633142E+01  0.24716670830E+02  0.00000000000E+00 0.  1.
</event>
<event>
 7    1  0.1891413E-013  0.7246159E+02  0.7816164E-02  0.1226708E+00
        -11   -1    0    0    0    0  0.00000000000E+00  0.00000000000E+00  0.45593999997E+02  0.45594000000E+02  0.51100000000E-03 0. -1.
         11   -1    0    0    0    0 -0.00000000000E+00 -0.00000000000E+00 -0.45593999997E+02  0.45594000000E+02  0.51100000000E-03 0.  1.
    9900012    2    1    2    0    0  0.10637836236E+02  0.12097137573E+02  0.95485217711E+01  0.72461586428E+02  0.70000021017E+02 0.  0.
        -12    1    1    2    0    0 -0.10637836236E+02 -0.12097137573E+02 -0.95485217711E+01  0.18726413572E+02  0.00000000000E+00 0.  1.
         11    1    3    3    0    0  0.52072446044E+01 -0.19335109019E+02 -0.35823232655E+01  0.20341948711E+02  0.51100000000E-03 0. -1.
        -11    1    3    3    0    0 -0.12069579589E+02 -0.11141141833E+01 -0.18199734335E+01  0.12256765701E+02  0.51100000000E-03 0.  1.
         12    1    3    3    0    0  0.17500171221E+02  0.32546360775E+02  0.14950818470E+02  0.39862872016E+02  0.00000000000E+00 0. -1.
</event>
<event>
 7    1  0.1891413E-013  0.7246159E+02  0.7816164E-02  0.1226708E+00
        -11   -1    0    0    0    0  0.00000000000E+00  0.00000000000E+00  0.45593999997E+02  0.45594000000E+02  0.51100000000E-03 0. -1.
         11   -1    0    0    0    0 -0.00000000000E+00 -0.00000000000E+00 -0.45593999997E+02  0.45594000000E+02  0.51100000000E-03 0.  1.
    9900012    2    1    2    0    0 -0.10265545432E+02 -0.19169698857E+01  0.15544203810E+02  0.72461589008E+02  0.70000024378E+02 0.  0.
        -12    1    1    2    0    0  0.10265545432E+02  0.19169698857E+01 -0.15544203810E+02  0.18726410992E+02  0.00000000000E+00 0.  1.
         11    1    3    3    0    0 -0.19781077324E+01  0.61394835461E+00 -0.18889569541E+01  0.28032126959E+01  0.51100000000E-03 0. -1.
        -11    1    3    3    0    0 -0.19491209464E+02  0.11736090963E+02 -0.18553756136E+02  0.29357877043E+02  0.51100000000E-03 0.  1.
         12    1    3    3    0    0  0.11203771765E+02 -0.14267009203E+02  0.35986916900E+02  0.40300499269E+02  0.00000000000E+00 0. -1.
</event>
<event>
 7    1  0.1891413E-013  0.7246157E+02  0.7816164E-02  0.1226708E+00
        -11   -1    0    0    0    0  0.00000000000E+00  0.00000000000E+00  0.45593999997E+02  0.45594000000E+02  0.51100000000E-03 0. -1.
         11   -1    0    0    0    0 -0.00000000000E+00 -0.00000000000E+00 -0.45593999997E+02  0.45594000000E+02  0.51100000000E-03 0.  1.
    9900012    2    1    2    0    0  0.16178548430E+02  0.46031177976E+01 -0.82307449639E+01  0.72461567200E+02  0.69999995969E+02 0.  0.
        -12    1    1    2    0    0 -0.16178548430E+02 -0.46031177976E+01  0.82307449639E+01  0.18726432800E+02  0.00000000000E+00 0.  1.
         11    1    3    3    0    0  0.57927924029E+01  0.29097854650E+01 -0.94875783941E+01  0.11490754515E+02  0.51100000000E-03 0. -1.
        -11    1    3    3    0    0  0.21940998693E+02 -0.15479988737E+02 -0.18299345901E+02  0.32494669342E+02  0.51100000000E-03 0.  1.
         12    1    3    3    0    0 -0.11555242667E+02  0.17173321070E+02  0.19556179332E+02  0.28476143343E+02  0.00000000000E+00 0. -1.
</event>
<event>
 7    1  0.1891413E-013  0.7246152E+02  0.7816164E-02  0.1226708E+00
        -11   -1    0    0    0    0  0.00000000000E+00  0.00000000000E+00  0.45593999997E+02  0.45594000000E+02  0.51100000000E-03 0. -1.
         11   -1    0    0    0    0 -0.00000000000E+00 -0.00000000000E+00 -0.45593999997E+02  0.45594000000E+02  0.51100000000E-03 0.  1.
    9900012    2    1    2    0    0 -0.15118825130E+02 -0.68241258980E+01  0.86909928769E+01  0.72461523429E+02  0.69999938949E+02 0.  0.
        -12    1    1    2    0    0  0.15118825130E+02  0.68241258980E+01 -0.86909928769E+01  0.18726476571E+02  0.00000000000E+00 0.  1.
         11    1    3    3    0    0  0.11803085744E+01  0.53576804971E+01 -0.11719511488E+02  0.12940047080E+02  0.51100000000E-03 0.  1.
        -11    1    3    3    0    0 -0.14840101593E+02 -0.25801744015E+02 -0.54474799893E+01  0.30259438991E+02  0.51100000000E-03 0. -1.
        -12    1    3    3    0    0 -0.14590321116E+01  0.13619937620E+02  0.25857984354E+02  0.29262037358E+02  0.00000000000E+00 0.  1.
</event>
<event>
 7    1  0.1891413E-013  0.7246156E+02  0.7816164E-02  0.1226708E+00
        -11   -1    0    0    0    0  0.00000000000E+00  0.00000000000E+00  0.45593999997E+02  0.45594000000E+02  0.51100000000E-03 0. -1.
         11   -1    0    0    0    0 -0.00000000000E+00 -0.00000000000E+00 -0.45593999997E+02  0.45594000000E+02  0.51100000000E-03 0.  1.
    9900012    2    1    2    0    0  0.17751431373E+01 -0.17215103263E+02  0.71532324454E+01  0.72461557520E+02  0.69999983359E+02 0.  0.
        -12    1    1    2    0    0 -0.17751431373E+01  0.17215103263E+02 -0.71532324454E+01  0.18726442480E+02  0.00000000000E+00 0.  1.
         11    1    3    3    0    0 -0.11563733540E+02 -0.10998228836E+02  0.89919687113E+01  0.18317654667E+02  0.51100000000E-03 0. -1.
        -11    1    3    3    0    0 -0.20073247679E+01 -0.68915312259E+01 -0.25190258445E+02  0.26192969976E+02  0.51100000000E-03 0.  1.
         12    1    3    3    0    0  0.15346201446E+02  0.67465679868E+00  0.23351522180E+02  0.27950932877E+02  0.00000000000E+00 0. -1.
</event>
<event>
 7    1  0.1891413E-013  0.7246158E+02  0.7816164E-02  0.1226708E+00
        -11   -1    0    0    0    0  0.00000000000E+00  0.00000000000E+00  0.45593999997E+02  0.45594000000E+02  0.51100000000E-03 0.  1.
         11   -1    0    0    0    0 -0.00000000000E+00 -0.00000000000E+00 -0.45593999997E+02  0.45594000000E+02  0.51100000000E-03 0. -1.
    9900012    2    1    2    0    0 -0.55238379257E+01  0.15560147138E+02 -0.88344694062E+01  0.72461579784E+02  0.70000012363E+02 0.  0.
        -12    1    1    2    0    0  0.55238379257E+01 -0.15560147138E+02  0.88344694062E+01  0.18726420216E+02  0.00000000000E+00 0.  1.
         11    1    3    3    0    0 -0.10739045142E+02  0.16666329549E+02 -0.21424309669E+02  0.29190660771E+02  0.51100000000E-03 0. -1.
        -11    1    3    3    0    0 -0.11009877571E+02 -0.14775177691E+02 -0.33367567416E+00  0.18429178485E+02  0.51100000000E-03 0.  1.
        -12    1    3    3    0    0  0.16225084787E+02  0.13668995280E+02  0.12923515937E+02  0.24841740528E+02  0.00000000000E+00 0.  1.
</event>
<event>
 7    1  0.1891413E-013  0.7246155E+02  0.7816164E-02  0.1226708E+00
        -11   -1    0    0    0    0  0.00000000000E+00  0.00000000000E+00  0.45593999997E+02  0.45594000000E+02  0.51100000000E-03 0.  1.
         11   -1    0    0    0    0 -0.00000000000E+00 -0.00000000000E+00 -0.45593999997E+02  0.45594000000E+02  0.51100000000E-03 0. -1.
    9900012    2    1    2    0    0 -0.14465274986E+02 -0.32773119384E+01 -0.11432193439E+02  0.72461548099E+02  0.69999971087E+02 0.  0.
        -12    1    1    2    0    0  0.14465274986E+02  0.32773119384E+01  0.11432193439E+02  0.18726451901E+02  0.00000000000E+00 0.  1.
         11    1    3    3    0    0 -0.16867943177E+02 -0.25990158927E+01  0.11164840033E+02  0.20394510140E+02  0.51100000000E-03 0. -1.
        -11    1    3    3    0    0  0.14364740625E+01 -0.23497941317E+02 -0.75783548980E+01  0.24731521730E+02  0.51100000000E-03 0.  1.
         12    1    3    3    0    0  0.96619412858E+00  0.22819645271E+02 -0.15018678574E+02  0.27335516229E+02  0.00000000000E+00 0. -1.
</event>
<event>
 7    1  0.1891413E-013  0.7246157E+02  0.7816164E-02  0.1226708E+00
        -11   -1    0    0    0    0  0.00000000000E+00  0.00000000000E+00  0.45593999997E+02  0.45594000000E+02  0.51100000000E-03 0. -1.
         11   -1    0    0    0    0 -0.00000000000E+00 -0.00000000000E+00 -0.45593999997E+02  0.45594000000E+02  0.51100000000E-03 0.  1.
    9900012    2    1    2    0    0  0.11093188395E+02 -0.10232676759E+02  0.11086597615E+02  0.72461570840E+02  0.70000000711E+02 0.  0.
        -12    1    1    2    0    0 -0.11093188395E+02  0.10232676759E+02 -0.11086597615E+02  0.18726429160E+02  0.00000000000E+00 0.  1.
         11    1    3    3    0    0  0.12163995736E+02 -0.12316158318E+01  0.19876315601E+02  0.23335543532E+02  0.51100000000E-03 0. -1.
        -11    1    3    3    0    0 -0.16988350396E+02 -0.21152128468E+02  0.30691320137E+00  0.27131361630E+02  0.51100000000E-03 0.  1.
        -12    1    3    3    0    0  0.15917543055E+02  0.12151067541E+02 -0.90966311875E+01  0.21994665677E+02  0.00000000000E+00 0.  1.
</event>
<event>
 7    1  0.1891413E-013  0.7246153E+02  0.7816164E-02  0.1226708E+00
        -11   -1    0    0    0    0  0.00000000000E+00  0.00000000000E+00  0.45593999997E+02  0.45594000000E+02  0.51100000000E-03 0. -1.
         11   -1    0    0    0    0 -0.00000000000E+00 -0.00000000000E+00 -0.45593999997E+02  0.45594000000E+02  0.51100000000E-03 0.  1.
    9900012    2    1    2    0    0  0.17821150573E+02  0.39265819948E+01  0.42034573944E+01  0.72461534557E+02  0.69999953446E+02 0.  0.
        -12    1    1    2    0    0 -0.17821150573E+02 -0.39265819948E+01 -0.42034573944E+01  0.18726465443E+02  0.00000000000E+00 0.  1.
         11    1    3    3    0    0  0.21091743071E+02 -0.96782883100E+01  0.96041375078E+01  0.25115141805E+02  0.51100000000E-03 0. -1.
        -11    1    3    3    0    0 -0.11048683407E+02 -0.92129112300E+01 -0.15555490998E+02  0.21187837049E+02  0.51100000000E-03 0.  1.
         12    1    3    3    0    0  0.77780909097E+01  0.22817781535E+02  0.10154810885E+02  0.26158555703E+02  0.00000000000E+00 0. -1.
</event>
<event>
 7    1  0.2056182E-013  0.7246167E+02  0.7816164E-02  0.1226708E+00
        -11   -1    0    0    0    0  0.00000000000E+00  0.00000000000E+00  0.45593999997E+02  0.45594000000E+02  0.51100000000E-03 0. -1.
         11   -1    0    0    0    0 -0.00000000000E+00 -0.00000000000E+00 -0.45593999997E+02  0.45594000000E+02  0.51100000000E-03 0.  1.
    9900012    2    1    2    0    0  0.49760459179E+01  0.10231602321E+02  0.14873758483E+02  0.72461670663E+02  0.70000130749E+02 0.  0.
        -12    1    1    2    0    0 -0.49760459179E+01 -0.10231602321E+02 -0.14873758483E+02  0.18726329337E+02  0.00000000000E+00 0.  1.
         11    1    3    3    0    0  0.12658510915E+02 -0.11203217378E+02  0.12842079132E+01  0.16952851336E+02  0.51100000000E-03 0. -1.
        -11    1    3    3    0    0 -0.10819295617E+02 -0.10810478571E+02 -0.73134936909E+01  0.16953194236E+02  0.51100000000E-03 0.  1.
         12    1    3    3    0    0  0.31368306194E+01  0.32245298269E+02  0.20903044261E+02  0.38555625091E+02  0.00000000000E+00 0. -1.
</event>
<event>
 7    1  0.1891413E-013  0.7246159E+02  0.7816164E-02  0.1226708E+00
        -11   -1    0    0    0    0  0.00000000000E+00  0.00000000000E+00  0.45593999997E+02  0.45594000000E+02  0.51100000000E-03 0. -1.
         11   -1    0    0    0    0 -0.00000000000E+00 -0.00000000000E+00 -0.45593999997E+02  0.45594000000E+02  0.51100000000E-03 0.  1.
    9900012    2    1    2    0    0 -0.17180754962E+02 -0.74318718632E+01 -0.51694543771E+00  0.72461593696E+02  0.70000030485E+02 0.  0.
        -12    1    1    2    0    0  0.17180754962E+02  0.74318718632E+01  0.51694543771E+00  0.18726406304E+02  0.00000000000E+00 0.  1.
         11    1    3    3    0    0 -0.21528540398E+02 -0.21457691906E+02  0.33084370276E+01  0.30575420675E+02  0.51100000000E-03 0. -1.
        -11    1    3    3    0    0 -0.15170922708E+02 -0.12295135887E+01 -0.72822954203E+01  0.16873068077E+02  0.51100000000E-03 0.  1.
         12    1    3    3    0    0  0.19518708144E+02  0.15255333631E+02  0.34569129550E+01  0.25013104945E+02  0.00000000000E+00 0. -1.
</event>
<event>
 7    1  0.1891413E-013  0.7246158E+02  0.7816164E-02  0.1226708E+00
        -11   -1    0    0    0    0  0.00000000000E+00  0.00000000000E+00  0.45593999997E+02  0.45594000000E+02  0.51100000000E-03 0.  1.
         11   -1    0    0    0    0 -0.00000000000E+00 -0.00000000000E+00 -0.45593999997E+02  0.45594000000E+02  0.51100000000E-03 0. -1.
    9900012    2    1    2    0    0 -0.10298188578E+02  0.86465720037E+01 -0.13033148575E+02  0.72461578634E+02  0.70000010864E+02 0.  0.
        -12    1    1    2    0    0  0.10298188578E+02 -0.86465720037E+01  0.13033148575E+02  0.18726421366E+02  0.00000000000E+00 0.  1.
         11    1    3    3    0    0 -0.86122064864E+01 -0.98796922894E+01  0.52813396358E+01  0.14130497829E+02  0.51100000000E-03 0. -1.
        -11    1    3    3    0    0 -0.51217552208E+01 -0.17111763665E+02  0.53339240280E+00  0.17869788471E+02  0.51100000000E-03 0.  1.
        -12    1    3    3    0    0  0.34357731292E+01  0.35638027958E+02 -0.18847880613E+02  0.40461292334E+02  0.00000000000E+00 0.  1.
</event>
<event>
 7    1  0.1891413E-013  0.7246162E+02  0.7816164E-02  0.1226708E+00
        -11   -1    0    0    0    0  0.00000000000E+00  0.00000000000E+00  0.45593999997E+02  0.45594000000E+02  0.51100000000E-03 0.  1.
         11   -1    0    0    0    0 -0.00000000000E+00 -0.00000000000E+00 -0.45593999997E+02  0.45594000000E+02  0.51100000000E-03 0. -1.
    9900012    2    1    2    0    0  0.14550135245E+02  0.57074033165E+01 -0.10314865223E+02  0.72461619334E+02  0.70000063883E+02 0.  0.
        -12    1    1    2    0    0 -0.14550135245E+02 -0.57074033165E+01  0.10314865223E+02  0.18726380666E+02  0.00000000000E+00 0.  1.
         11    1    3    3    0    0  0.51691686029E+01  0.26699345194E+02 -0.16272010726E+02  0.31691539426E+02  0.51100000000E-03 0. -1.
        -11    1    3    3    0    0 -0.91669952388E+01  0.32238286172E+01  0.14561297995E+00  0.97184400015E+01  0.51100000000E-03 0.  1.
         12    1    3    3    0    0  0.18547961881E+02 -0.24215770495E+02  0.58115325229E+01  0.31051639906E+02  0.00000000000E+00 0. -1.
</event>
<event>
 7    1  0.1891413E-013  0.7246160E+02  0.7816164E-02  0.1226708E+00
        -11   -1    0    0    0    0  0.00000000000E+00  0.00000000000E+00  0.45593999997E+02  0.45594000000E+02  0.51100000000E-03 0.  1.
         11   -1    0    0    0    0 -0.00000000000E+00 -0.00000000000E+00 -0.45593999997E+02  0.45594000000E+02  0.51100000000E-03 0. -1.
    9900012    2    1    2    0    0  0.42841295322E+01  0.18173214453E+02  0.14348159516E+01  0.72461596549E+02  0.70000034202E+02 0.  0.
        -12    1    1    2    0    0 -0.42841295322E+01 -0.18173214453E+02 -0.14348159516E+01  0.18726403451E+02  0.00000000000E+00 0.  1.
         11    1    3    3    0    0 -0.18843916085E+02  0.15025233619E+02  0.16359639153E+01  0.24156307602E+02  0.51100000000E-03 0. -1.
        -11    1    3    3    0    0 -0.10421286756E+01 -0.43722285228E+01  0.17076295998E+02  0.17657924559E+02  0.51100000000E-03 0.  1.
         12    1    3    3    0    0  0.24170174293E+02  0.75202093561E+01 -0.17277443962E+02  0.30647364389E+02  0.00000000000E+00 0. -1.
</event>
<event>
 7    1  0.1891413E-013  0.7246154E+02  0.7816164E-02  0.1226708E+00
        -11   -1    0    0    0    0  0.00000000000E+00  0.00000000000E+00  0.45593999997E+02  0.45594000000E+02  0.51100000000E-03 0.  1.
         11   -1    0    0    0    0 -0.00000000000E+00 -0.00000000000E+00 -0.45593999997E+02  0.45594000000E+02  0.51100000000E-03 0. -1.
    9900012    2    1    2    0    0 -0.12477032033E+02 -0.69305158914E+01 -0.12123203620E+02  0.72461536242E+02  0.69999955640E+02 0.  0.
        -12    1    1    2    0    0  0.12477032033E+02  0.69305158914E+01  0.12123203620E+02  0.18726463758E+02  0.00000000000E+00 0.  1.
         11    1    3    3    0    0  0.70676153912E+01 -0.57067845073E+00  0.18807778270E+02  0.20099984699E+02  0.51100000000E-03 0. -1.
        -11    1    3    3    0    0  0.49269195731E+01 -0.96935194211E+01  0.21437966149E+01  0.11083082578E+02  0.51100000000E-03 0.  1.
         12    1    3    3    0    0 -0.24471566998E+02  0.33336819804E+01 -0.33074778505E+02  0.41278468964E+02  0.00000000000E+00 0. -1.
</event>
<event>
 7    1  0.1891413E-013  0.7246157E+02  0.7816164E-02  0.1226708E+00
        -11   -1    0    0    0    0  0.00000000000E+00  0.00000000000E+00  0.45593999997E+02  0.45594000000E+02  0.51100000000E-03 0. -1.
         11   -1    0    0    0    0 -0.00000000000E+00 -0.00000000000E+00 -0.45593999997E+02  0.45594000000E+02  0.51100000000E-03 0.  1.
    9900012    2    1    2    0    0  0.13659346692E+02 -0.50870458103E+01  0.11756838900E+02  0.72461573538E+02  0.70000004225E+02 0.  0.
        -12    1    1    2    0    0 -0.13659346692E+02  0.50870458103E+01 -0.11756838900E+02  0.18726426462E+02  0.00000000000E+00 0.  1.
         11    1    3    3    0    0  0.83022210923E+01  0.38821250399E+01 -0.46176579561E+01  0.10262579361E+02  0.51100000000E-03 0. -1.
        -11    1    3    3    0    0  0.15337521869E+02 -0.41393480649E+01 -0.19209580240E+02  0.24927530017E+02  0.51100000000E-03 0.  1.
         12    1    3    3    0    0 -0.99803962687E+01 -0.48298227853E+01  0.35584077096E+02  0.37271464159E+02  0.00000000000E+00 0. -1.
</event>
<event>
 7    1  0.1891413E-013  0.7246152E+02  0.7816164E-02  0.1226708E+00
        -11   -1    0    0    0    0  0.00000000000E+00  0.00000000000E+00  0.45593999997E+02  0.45594000000E+02  0.51100000000E-03 0. -1.
         11   -1    0    0    0    0 -0.00000000000E+00 -0.00000000000E+00 -0.45593999997E+02  0.45594000000E+02  0.51100000000E-03 0.  1.
    9900012    2    1    2    0    0  0.83453609729E+01 -0.64428610501E+00  0.16751740756E+02  0.72461522149E+02  0.69999937282E+02 0.  0.
        -12    1    1    2    0    0 -0.83453609729E+01  0.64428610501E+00 -0.16751740756E+02  0.18726477851E+02  0.00000000000E+00 0.  1.
         11    1    3    3    0    0 -0.15700711824E+01  0.44734287259E+01  0.95694568377E+01  0.10679475292E+02  0.51100000000E-03 0. -1.
        -11    1    3    3    0    0 -0.18688333015E+02  0.67264032632E+01 -0.13973609367E+02  0.24284975824E+02  0.51100000000E-03 0.  1.
         12    1    3    3    0    0  0.28603765171E+02 -0.11844118094E+02  0.21155893285E+02  0.37497071033E+02  0.00000000000E+00 0. -1.
</event>
<event>
 7    1  0.1891413E-013  0.7246158E+02  0.7816164E-02  0.1226708E+00
        -11   -1    0    0    0    0  0.00000000000E+00  0.00000000000E+00  0.45593999997E+02  0.45594000000E+02  0.51100000000E-03 0. -1.
         11   -1    0    0    0    0 -0.00000000000E+00 -0.00000000000E+00 -0.45593999997E+02  0.45594000000E+02  0.51100000000E-03 0.  1.
    9900012    2    1    2    0    0 -0.13457185273E+02 -0.12456155218E+02  0.37983332082E+01  0.72461575530E+02  0.70000006820E+02 0.  0.
        -12    1    1    2    0    0  0.13457185273E+02  0.12456155218E+02 -0.37983332082E+01  0.18726424470E+02  0.00000000000E+00 0.  1.
         11    1    3    3    0    0 -0.12088833876E+02  0.20037409286E+02  0.82910606169E+01  0.24826988576E+02  0.51100000000E-03 0. -1.
        -11    1    3    3    0    0 -0.75880906452E+00  0.42301799543E+01  0.77980107986E+01  0.89038860234E+01  0.51100000000E-03 0.  1.
        -12    1    3    3    0    0 -0.60954233216E+00 -0.36723744458E+02 -0.12290738207E+02  0.38730700930E+02  0.00000000000E+00 0.  1.
</event>
<event>
 7    1  0.1891413E-013  0.7246158E+02  0.7816164E-02  0.1226708E+00
        -11   -1    0    0    0    0  0.00000000000E+00  0.00000000000E+00  0.45593999997E+02  0.45594000000E+02  0.51100000000E-03 0.  1.
         11   -1    0    0    0    0 -0.00000000000E+00 -0.00000000000E+00 -0.45593999997E+02  0.45594000000E+02  0.51100000000E-03 0. -1.
    9900012    2    1    2    0    0  0.18759944276E+01  0.16858960030E+02 -0.79331608872E+01  0.72461576689E+02  0.70000008330E+02 0.  0.
        -12    1    1    2    0    0 -0.18759944276E+01 -0.16858960030E+02  0.79331608872E+01  0.18726423311E+02  0.00000000000E+00 0.  1.
         11    1    3    3    0    0  0.52766584806E+00  0.16623377631E+02 -0.24360846301E+02  0.29496880308E+02  0.51100000000E-03 0. -1.
        -11    1    3    3    0    0  0.20516399210E+02  0.54929903288E+00  0.88572523013E+01  0.22353417738E+02  0.51100000000E-03 0.  1.
         12    1    3    3    0    0 -0.19168070630E+02 -0.31371663417E+00  0.75704331129E+01  0.20611278644E+02  0.00000000000E+00 0. -1.
</event>
<event>
 7    1  0.1891413E-013  0.7246157E+02  0.7816164E-02  0.1226708E+00
        -11   -1    0    0    0    0  0.00000000000E+00  0.00000000000E+00  0.45593999997E+02  0.45594000000E+02  0.51100000000E-03 0.  1.
         11   -1    0    0    0    0 -0.00000000000E+00 -0.00000000000E+00 -0.45593999997E+02  0.45594000000E+02  0.51100000000E-03 0. -1.
    9900012    2    1    2    0    0  0.16818885760E+02  0.79718415568E+01 -0.20624985286E+01  0.72461572786E+02  0.70000003246E+02 0.  0.
        -12    1    1    2    0    0 -0.16818885760E+02 -0.79718415568E+01  0.20624985286E+01  0.18726427214E+02  0.00000000000E+00 0.  1.
         11    1    3    3    0    0  0.16718389255E+02  0.19643358657E+01 -0.11732613717E+02  0.20518708038E+02  0.51100000000E-03 0.  1.
        -11    1    3    3    0    0 -0.54726589523E+01 -0.19335929831E+02 -0.67923766994E+01  0.21212368088E+02  0.51100000000E-03 0. -1.
        -12    1    3    3    0    0  0.55731554575E+01  0.25343435522E+02  0.16462491888E+02  0.30730496660E+02  0.00000000000E+00 0.  1.
</event>
<event>
 7    1  0.1891413E-013  0.7246157E+02  0.7816164E-02  0.1226708E+00
        -11   -1    0    0    0    0  0.00000000000E+00  0.00000000000E+00  0.45593999997E+02  0.45594000000E+02  0.51100000000E-03 0.  1.
         11   -1    0    0    0    0 -0.00000000000E+00 -0.00000000000E+00 -0.45593999997E+02  0.45594000000E+02  0.51100000000E-03 0. -1.
    9900012    2    1    2    0    0  0.44869061604E+01  0.13984265218E+02 -0.11618391776E+02  0.72461574072E+02  0.70000004921E+02 0.  0.
        -12    1    1    2    0    0 -0.44869061604E+01 -0.13984265218E+02  0.11618391776E+02  0.18726425928E+02  0.00000000000E+00 0.  1.
         11    1    3    3    0    0  0.91381643554E+01 -0.12182593656E+02 -0.60633785613E+01  0.16391650186E+02  0.51100000000E-03 0. -1.
        -11    1    3    3    0    0  0.20585676008E+02  0.19230308201E+02  0.34730533751E+01  0.28383743767E+02  0.51100000000E-03 0.  1.
         12    1    3    3    0    0 -0.25236934203E+02  0.69365506729E+01 -0.90280665900E+01  0.27686180119E+02  0.00000000000E+00 0. -1.
</event>
<event>
 7    1  0.1891413E-013  0.7246150E+02  0.7816164E-02  0.1226708E+00
        -11   -1    0    0    0    0  0.00000000000E+00  0.00000000000E+00  0.45593999997E+02  0.45594000000E+02  0.51100000000E-03 0.  1.
         11   -1    0    0    0    0 -0.00000000000E+00 -0.00000000000E+00 -0.45593999997E+02  0.45594000000E+02  0.51100000000E-03 0. -1.
    9900012    2    1    2    0    0  0.25414746175E+01  0.10898808313E+02  0.15014609577E+02  0.72461504956E+02  0.69999914885E+02 0.  0.
        -12    1    1    2    0    0 -0.25414746175E+01 -0.10898808313E+02 -0.15014609577E+02  0.18726495044E+02  0.00000000000E+00 0.  1.
         11    1    3    3    0    0  0.15716563274E+02  0.14663037049E+02 -0.13553702906E+02  0.25410979504E+02  0.51100000000E-03 0. -1.
        -11    1    3    3    0    0 -0.10048364178E+02 -0.52039226209E+00 -0.63137414730E+01  0.11878710469E+02  0.51100000000E-03 0.  1.
        -12    1    3    3    0    0 -0.31267244782E+01 -0.32438364732E+01  0.34882053956E+02  0.35171814983E+02  0.00000000000E+00 0.  1.
</event>
<event>
 7    1  0.1891413E-013  0.7246151E+02  0.7816164E-02  0.1226708E+00
        -11   -1    0    0    0    0  0.00000000000E+00  0.00000000000E+00  0.45593999997E+02  0.45594000000E+02  0.51100000000E-03 0. -1.
         11   -1    0    0    0    0 -0.00000000000E+00 -0.00000000000E+00 -0.45593999997E+02  0.45594000000E+02  0.51100000000E-03 0.  1.
    9900012    2    1    2    0    0  0.10556538515E+02 -0.53706687651E+01  0.14505066697E+02  0.72461506781E+02  0.69999917262E+02 0.  0.
        -12    1    1    2    0    0 -0.10556538515E+02  0.53706687651E+01 -0.14505066697E+02  0.18726493219E+02  0.00000000000E+00 0.  1.
         11    1    3    3    0    0  0.17177265060E+02 -0.15465924844E+02  0.51810988828E+01  0.23687487248E+02  0.51100000000E-03 0. -1.
        -11    1    3    3    0    0 -0.78313231428E+01 -0.70988752802E+01 -0.15373411779E+02  0.18656512064E+02  0.51100000000E-03 0.  1.
         12    1    3    3    0    0  0.12105965972E+01  0.17194131359E+02  0.24697379594E+02  0.30117507468E+02  0.00000000000E+00 0. -1.
</event>
<event>
 7    1  0.1891413E-013  0.7246156E+02  0.7816164E-02  0.1226708E+00
        -11   -1    0    0    0    0  0.00000000000E+00  0.00000000000E+00  0.45593999997E+02  0.45594000000E+02  0.51100000000E-03 0. -1.
         11   -1    0    0    0    0 -0.00000000000E+00 -0.00000000000E+00 -0.45593999997E+02  0.45594000000E+02  0.51100000000E-03 0.  1.
    9900012    2    1    2    0    0  0.11220682666E+02 -0.72271305460E+00  0.14975094522E+02  0.72461561748E+02  0.69999988867E+02 0.  0.
        -12    1    1    2    0    0 -0.11220682666E+02  0.72271305460E+00 -0.14975094522E+02  0.18726438252E+02  0.00000000000E+00 0.  1.
         11    1    3    3    0    0 -0.27888210581E+01  0.34188831239E+01 -0.95243464515E+01  0.10496640429E+02  0.51100000000E-03 0. -1.
        -11    1    3    3    0    0  0.12809015664E+01 -0.86622759770E+01 -0.16564441824E+02  0.18736500931E+02  0.51100000000E-03 0.  1.
         12    1    3    3    0    0  0.12728602158E+02  0.45206797985E+01  0.41063882798E+02  0.43228420388E+02  0.00000000000E+00 0. -1.
</event>
<event>
 7    1  0.1891413E-013  0.7246155E+02  0.7816164E-02  0.1226708E+00
        -11   -1    0    0    0    0  0.00000000000E+00  0.00000000000E+00  0.45593999997E+02  0.45594000000E+02  0.51100000000E-03 0. -1.
         11   -1    0    0    0    0 -0.00000000000E+00 -0.00000000000E+00 -0.45593999997E+02  0.45594000000E+02  0.51100000000E-03 0.  1.
    9900012    2    1    2    0    0 -0.17304774438E+02 -0.71148263100E+01  0.77708644511E+00  0.72461552523E+02  0.69999976849E+02 0.  0.
        -12    1    1    2    0    0  0.17304774438E+02  0.71148263100E+01 -0.77708644511E+00  0.18726447477E+02  0.00000000000E+00 0.  1.
         11    1    3    3    0    0 -0.12202990842E+02 -0.13375512381E+02  0.19210963859E+02  0.26398455440E+02  0.51100000000E-03 0. -1.
        -11    1    3    3    0    0  0.13458574128E+02  0.94307815184E+01 -0.21420733026E+02  0.26998530724E+02  0.51100000000E-03 0.  1.
         12    1    3    3    0    0 -0.18560357725E+02 -0.31700954470E+01  0.29868556122E+01  0.19064566359E+02  0.00000000000E+00 0. -1.
</event>
<event>
 7    1  0.1891413E-013  0.7246162E+02  0.7816164E-02  0.1226708E+00
        -11   -1    0    0    0    0  0.00000000000E+00  0.00000000000E+00  0.45593999997E+02  0.45594000000E+02  0.51100000000E-03 0.  1.
         11   -1    0    0    0    0 -0.00000000000E+00 -0.00000000000E+00 -0.45593999997E+02  0.45594000000E+02  0.51100000000E-03 0. -1.
    9900012    2    1    2    0    0  0.15047713695E+02  0.67516456488E+01 -0.88689951443E+01  0.72461615371E+02  0.70000058720E+02 0.  0.
        -12    1    1    2    0    0 -0.15047713695E+02 -0.67516456488E+01  0.88689951443E+01  0.18726384629E+02  0.00000000000E+00 0.  1.
         11    1    3    3    0    0 -0.95693675805E+01 -0.22894395279E+02 -0.50892514715E+01  0.25330349620E+02  0.51100000000E-03 0. -1.
        -11    1    3    3    0    0  0.15209329597E+02  0.58016104460E+01 -0.11987646485E+02  0.20215985236E+02  0.51100000000E-03 0.  1.
        -12    1    3    3    0    0  0.94077516786E+01  0.23844430481E+02  0.82079028118E+01  0.26915280515E+02  0.00000000000E+00 0.  1.
</event>
<event>
 7    1  0.1891413E-013  0.7246157E+02  0.7816164E-02  0.1226708E+00
        -11   -1    0    0    0    0  0.00000000000E+00  0.00000000000E+00  0.45593999997E+02  0.45594000000E+02  0.51100000000E-03 0. -1.
         11   -1    0    0    0    0 -0.00000000000E+00 -0.00000000000E+00 -0.45593999997E+02  0.45594000000E+02  0.51100000000E-03 0.  1.
    9900012    2    1    2    0    0  0.47243517810E+01  0.16534028773E+02  0.74152209885E+01  0.72461571896E+02  0.70000002087E+02 0.  0.
        -12    1    1    2    0    0 -0.47243517810E+01 -0.16534028773E+02 -0.74152209885E+01  0.18726428104E+02  0.00000000000E+00 0.  1.
         11    1    3    3    0    0 -0.10416649331E+02 -0.28306952659E+01  0.35744024776E+01  0.11370829886E+02  0.51100000000E-03 0. -1.
        -11    1    3    3    0    0  0.12647223787E+02 -0.18717887063E+02  0.39131574605E+01  0.22926499235E+02  0.51100000000E-03 0.  1.
         12    1    3    3    0    0  0.24937773253E+01  0.38082611102E+02 -0.72338949558E-01  0.38164242775E+02  0.00000000000E+00 0. -1.
</event>
<event>
 7    1  0.1891413E-013  0.7246146E+02  0.7816164E-02  0.1226708E+00
        -11   -1    0    0    0    0  0.00000000000E+00  0.00000000000E+00  0.45593999997E+02  0.45594000000E+02  0.51100000000E-03 0. -1.
         11   -1    0    0    0    0 -0.00000000000E+00 -0.00000000000E+00 -0.45593999997E+02  0.45594000000E+02  0.51100000000E-03 0.  1.
    9900012    2    1    2    0    0  0.10554630163E+02  0.45946125679E+01  0.14770661554E+02  0.72461464675E+02  0.69999862411E+02 0.  0.
        -12    1    1    2    0    0 -0.10554630163E+02 -0.45946125679E+01 -0.14770661554E+02  0.18726535325E+02  0.00000000000E+00 0.  1.
         11    1    3    3    0    0 -0.10582039405E+02 -0.75493597165E+01  0.14946549075E+02  0.19808374987E+02  0.51100000000E-03 0. -1.
        -11    1    3    3    0    0 -0.53348895236E+01  0.22521302920E+01  0.18096789979E+02  0.19000709063E+02  0.51100000000E-03 0.  1.
        -12    1    3    3    0    0  0.26471559091E+02  0.98918419925E+01 -0.18272677500E+02  0.33652380625E+02  0.00000000000E+00 0.  1.
</event>
<event>
 7    1  0.1891413E-013  0.7246156E+02  0.7816164E-02  0.1226708E+00
        -11   -1    0    0    0    0  0.00000000000E+00  0.00000000000E+00  0.45593999997E+02  0.45594000000E+02  0.51100000000E-03 0.  1.
         11   -1    0    0    0    0 -0.00000000000E+00 -0.00000000000E+00 -0.45593999997E+02  0.45594000000E+02  0.51100000000E-03 0. -1.
    9900012    2    1    2    0    0 -0.10057426116E+01  0.59158541978E+01 -0.17738955049E+02  0.72461564800E+02  0.69999992842E+02 0.  0.
        -12    1    1    2    0    0  0.10057426116E+01 -0.59158541978E+01  0.17738955049E+02  0.18726435200E+02  0.00000000000E+00 0.  1.
         11    1    3    3    0    0  0.15057301502E+01  0.22691495583E+02 -0.26337253114E+02  0.34796869068E+02  0.51100000000E-03 0. -1.
        -11    1    3    3    0    0  0.60938374777E+01 -0.99511896811E+01 -0.10458371282E+02  0.15669670112E+02  0.51100000000E-03 0.  1.
        -12    1    3    3    0    0 -0.86053102395E+01 -0.68244517040E+01  0.19056669348E+02  0.21995025620E+02  0.00000000000E+00 0.  1.
</event>
<event>
 7    1  0.1891413E-013  0.7246160E+02  0.7816164E-02  0.1226708E+00
        -11   -1    0    0    0    0  0.00000000000E+00  0.00000000000E+00  0.45593999997E+02  0.45594000000E+02  0.51100000000E-03 0. -1.
         11   -1    0    0    0    0 -0.00000000000E+00 -0.00000000000E+00 -0.45593999997E+02  0.45594000000E+02  0.51100000000E-03 0.  1.
    9900012    2    1    2    0    0 -0.35763781199E+00 -0.14015885454E+02  0.12413908253E+02  0.72461599706E+02  0.70000038314E+02 0.  0.
        -12    1    1    2    0    0  0.35763781199E+00  0.14015885454E+02 -0.12413908253E+02  0.18726400294E+02  0.00000000000E+00 0.  1.
         11    1    3    3    0    0 -0.14462229508E+02 -0.12125025119E+02 -0.60337472268E+01  0.19813591859E+02  0.51100000000E-03 0. -1.
        -11    1    3    3    0    0  0.80083517416E+01 -0.21398166734E+01 -0.15809987544E+02  0.17851280610E+02  0.51100000000E-03 0.  1.
        -12    1    3    3    0    0  0.60962399546E+01  0.24895633859E+00  0.34257643024E+02  0.34796727237E+02  0.00000000000E+00 0.  1.
</event>
<event>
 7    1  0.1891413E-013  0.7246156E+02  0.7816164E-02  0.1226708E+00
        -11   -1    0    0    0    0  0.00000000000E+00  0.00000000000E+00  0.45593999997E+02  0.45594000000E+02  0.51100000000E-03 0. -1.
         11   -1    0    0    0    0 -0.00000000000E+00 -0.00000000000E+00 -0.45593999997E+02  0.45594000000E+02  0.51100000000E-03 0.  1.
    9900012    2    1    2    0    0 -0.91002029646E+01  0.16322002901E+02 -0.12075852570E+01  0.72461555200E+02  0.69999980336E+02 0.  0.
        -12    1    1    2    0    0  0.91002029646E+01 -0.16322002901E+02  0.12075852570E+01  0.18726444800E+02  0.00000000000E+00 0.  1.
         11    1    3    3    0    0 -0.21775159521E+01 -0.32972728260E+01  0.78458634762E+01  0.87847115922E+01  0.51100000000E-03 0. -1.
        -11    1    3    3    0    0 -0.16103156768E+02  0.23388053360E+01 -0.30546703108E+02  0.34610442634E+02  0.51100000000E-03 0.  1.
         12    1    3    3    0    0  0.91804697558E+01  0.17280470391E+02  0.21493254375E+02  0.29066400973E+02  0.00000000000E+00 0. -1.
</event>
<event>
 7    1  0.1891413E-013  0.7246158E+02  0.7816164E-02  0.1226708E+00
        -11   -1    0    0    0    0  0.00000000000E+00  0.00000000000E+00  0.45593999997E+02  0.45594000000E+02  0.51100000000E-03 0.  1.
         11   -1    0    0    0    0 -0.00000000000E+00 -0.00000000000E+00 -0.45593999997E+02  0.45594000000E+02  0.51100000000E-03 0. -1.
    9900012    2    1    2    0    0  0.91574393611E+01  0.30347776238E+01 -0.16050246443E+02  0.72461575308E+02  0.70000006531E+02 0.  0.
        -12    1    1    2    0    0 -0.91574393611E+01 -0.30347776238E+01  0.16050246443E+02  0.18726424692E+02  0.00000000000E+00 0.  1.
         11    1    3    3    0    0  0.63816409840E+01 -0.14935271476E+02  0.35359200394E+01  0.16621985636E+02  0.51100000000E-03 0. -1.
        -11    1    3    3    0    0  0.15383882858E+02 -0.83567318108E+01  0.44080674334E+01  0.18053528107E+02  0.51100000000E-03 0.  1.
         12    1    3    3    0    0 -0.12608084481E+02  0.26326780910E+02 -0.23994233916E+02  0.37786061565E+02  0.00000000000E+00 0. -1.
</event>
<event>
 7    1  0.1891413E-013  0.7246161E+02  0.7816164E-02  0.1226708E+00
        -11   -1    0    0    0    0  0.00000000000E+00  0.00000000000E+00  0.45593999997E+02  0.45594000000E+02  0.51100000000E-03 0. -1.
         11   -1    0    0    0    0 -0.00000000000E+00 -0.00000000000E+00 -0.45593999997E+02  0.45594000000E+02  0.51100000000E-03 0.  1.
    9900012    2    1    2    0    0  0.95785491355E+01 -0.86048232169E+01  0.13597277947E+02  0.72461613437E+02  0.70000056202E+02 0.  0.
        -12    1    1    2    0    0 -0.95785491355E+01  0.86048232169E+01 -0.13597277947E+02  0.18726386563E+02  0.00000000000E+00 0.  1.
         11    1    3    3    0    0  0.54968488040E+01 -0.52630101963E+01  0.97336121760E+01  0.12355477706E+02  0.51100000000E-03 0. -1.
        -11    1    3    3    0    0 -0.47892826676E+01 -0.25054698373E+02 -0.15363292263E+02  0.29777607165E+02  0.51100000000E-03 0.  1.
         12    1    3    3    0    0  0.88709829991E+01  0.21712885353E+02  0.19226958034E+02  0.30328528566E+02  0.00000000000E+00 0. -1.
</event>
<event>
 7    1  0.1891413E-013  0.7246157E+02  0.7816164E-02  0.1226708E+00
        -11   -1    0    0    0    0  0.00000000000E+00  0.00000000000E+00  0.45593999997E+02  0.45594000000E+02  0.51100000000E-03 0. -1.
         11   -1    0    0    0    0 -0.00000000000E+00 -0.00000000000E+00 -0.45593999997E+02  0.45594000000E+02  0.51100000000E-03 0.  1.
    9900012    2    1    2    0    0 -0.14659826151E+01 -0.18646129601E+02 -0.92295986514E+00  0.72461571909E+02  0.70000002104E+02 0.  0.
        -12    1    1    2    0    0  0.14659826151E+01  0.18646129601E+02  0.92295986514E+00  0.18726428091E+02  0.00000000000E+00 0.  1.
         11    1    3    3    0    0  0.10193566595E+02 -0.69452467282E+01 -0.52983865026E+01  0.13424535442E+02  0.51100000000E-03 0. -1.
        -11    1    3    3    0    0 -0.17677761898E+02 -0.30669431668E+02  0.12500749340E+02  0.37541790566E+02  0.51100000000E-03 0.  1.
         12    1    3    3    0    0  0.60182126881E+01  0.18968548795E+02 -0.81253227025E+01  0.21495245902E+02  0.00000000000E+00 0. -1.
</event>
<event>
 7    1  0.1891413E-013  0.7246158E+02  0.7816164E-02  0.1226708E+00
        -11   -1    0    0    0    0  0.00000000000E+00  0.00000000000E+00  0.45593999997E+02  0.45594000000E+02  0.51100000000E-03 0.  1.
         11   -1    0    0    0    0 -0.00000000000E+00 -0.00000000000E+00 -0.45593999997E+02  0.45594000000E+02  0.51100000000E-03 0. -1.
    9900012    2    1    2    0    0 -0.60413566395E+01 -0.95556309650E+01 -0.14928854001E+02  0.72461581363E+02  0.70000014419E+02 0.  0.
        -12    1    1    2    0    0  0.60413566395E+01  0.95556309650E+01  0.14928854001E+02  0.18726418637E+02  0.00000000000E+00 0.  1.
         11    1    3    3    0    0  0.64241285158E+01 -0.13696365886E+01  0.15215177678E+02  0.16572476086E+02  0.51100000000E-03 0. -1.
        -11    1    3    3    0    0  0.74449210304E+01 -0.19017112986E+02 -0.31872064157E+01  0.20669681189E+02  0.51100000000E-03 0.  1.
         12    1    3    3    0    0 -0.19910406186E+02  0.10831118610E+02 -0.26956825263E+02  0.35219424088E+02  0.00000000000E+00 0. -1.
</event>
<event>
 7    1  0.1891413E-013  0.7246153E+02  0.7816164E-02  0.1226708E+00
        -11   -1    0    0    0    0  0.00000000000E+00  0.00000000000E+00  0.45593999997E+02  0.45594000000E+02  0.51100000000E-03 0.  1.
         11   -1    0    0    0    0 -0.00000000000E+00 -0.00000000000E+00 -0.45593999997E+02  0.45594000000E+02  0.51100000000E-03 0. -1.
    9900012    2    1    2    0    0  0.15158619817E+02  0.86063070841E+01  0.68431384338E+01  0.72461526226E+02  0.69999942593E+02 0.  0.
        -12    1    1    2    0    0 -0.15158619817E+02 -0.86063070841E+01 -0.68431384338E+01  0.18726473774E+02  0.00000000000E+00 0.  1.
         11    1    3    3    0    0  0.13919130734E+01  0.33682848275E-01 -0.19917514518E+02  0.19966119838E+02  0.51100000000E-03 0. -1.
        -11    1    3    3    0    0  0.25873056319E+02 -0.41882443553E+01  0.95759291328E+01  0.27904387703E+02  0.51100000000E-03 0.  1.
        -12    1    3    3    0    0 -0.12106349575E+02  0.12760868591E+02  0.17184723819E+02  0.24591018685E+02  0.00000000000E+00 0.  1.
</event>
<event>
 7    1  0.1891413E-013  0.7246156E+02  0.7816164E-02  0.1226708E+00
        -11   -1    0    0    0    0  0.00000000000E+00  0.00000000000E+00  0.45593999997E+02  0.45594000000E+02  0.51100000000E-03 0. -1.
         11   -1    0    0    0    0 -0.00000000000E+00 -0.00000000000E+00 -0.45593999997E+02  0.45594000000E+02  0.51100000000E-03 0.  1.
    9900012    2    1    2    0    0  0.65846875905E+01 -0.45417581289E+01 -0.16932034429E+02  0.72461562339E+02  0.69999989636E+02 0.  0.
        -12    1    1    2    0    0 -0.65846875905E+01  0.45417581289E+01  0.16932034429E+02  0.18726437661E+02  0.00000000000E+00 0.  1.
         11    1    3    3    0    0  0.58373863142E+01 -0.83470657671E+01  0.16714202100E+02  0.19573276119E+02  0.51100000000E-03 0. -1.
        -11    1    3    3    0    0  0.68010477735E+01  0.44498404347E+01  0.76406054447E+01  0.11155007061E+02  0.51100000000E-03 0.  1.
        -12    1    3    3    0    0 -0.60537464972E+01 -0.64453279648E+00 -0.41286841974E+02  0.41733279159E+02  0.00000000000E+00 0.  1.
</event>
<event>
 7    1  0.1891413E-013  0.7246159E+02  0.7816164E-02  0.1226708E+00
        -11   -1    0    0    0    0  0.00000000000E+00  0.00000000000E+00  0.45593999997E+02  0.45594000000E+02  0.51100000000E-03 0. -1.
         11   -1    0    0    0    0 -0.00000000000E+00 -0.00000000000E+00 -0.45593999997E+02  0.45594000000E+02  0.51100000000E-03 0.  1.
    9900012    2    1    2    0    0  0.10371120899E+02 -0.12066833135E+02  0.98747046171E+01  0.72461590790E+02  0.70000026700E+02 0.  0.
        -12    1    1    2    0    0 -0.10371120899E+02  0.12066833135E+02 -0.98747046171E+01  0.18726409210E+02  0.00000000000E+00 0.  1.
         11    1    3    3    0    0  0.64325314589E+01 -0.13905548179E+02 -0.12166253229E+02  0.19564239035E+02  0.51100000000E-03 0.  1.
        -11    1    3    3    0    0  0.22396150963E+02 -0.60174159009E+01  0.23201274584E+02  0.32803902431E+02  0.51100000000E-03 0. -1.
         12    1    3    3    0    0 -0.18457561523E+02  0.78561309447E+01 -0.11603167381E+01  0.20093449324E+02  0.00000000000E+00 0. -1.
</event>
<event>
 7    1  0.1891413E-013  0.7246158E+02  0.7816164E-02  0.1226708E+00
        -11   -1    0    0    0    0  0.00000000000E+00  0.00000000000E+00  0.45593999997E+02  0.45594000000E+02  0.51100000000E-03 0.  1.
         11   -1    0    0    0    0 -0.00000000000E+00 -0.00000000000E+00 -0.45593999997E+02  0.45594000000E+02  0.51100000000E-03 0. -1.
    9900012    2    1    2    0    0  0.14843642614E+02  0.64511026410E+01 -0.94195698263E+01  0.72461581575E+02  0.70000014695E+02 0.  0.
        -12    1    1    2    0    0 -0.14843642614E+02 -0.64511026410E+01  0.94195698263E+01  0.18726418425E+02  0.00000000000E+00 0.  1.
         11    1    3    3    0    0  0.45294506338E+01  0.11576961747E+02  0.11241605591E+02  0.16760538860E+02  0.51100000000E-03 0. -1.
        -11    1    3    3    0    0 -0.15787126093E+02  0.56578470658E+01  0.50446008036E+01  0.17512640613E+02  0.51100000000E-03 0.  1.
         12    1    3    3    0    0  0.26101318073E+02 -0.10783706172E+02 -0.25705776221E+02  0.38188402102E+02  0.00000000000E+00 0. -1.
</event>
<event>
 7    1  0.1891413E-013  0.7246157E+02  0.7816164E-02  0.1226708E+00
        -11   -1    0    0    0    0  0.00000000000E+00  0.00000000000E+00  0.45593999997E+02  0.45594000000E+02  0.51100000000E-03 0. -1.
         11   -1    0    0    0    0 -0.00000000000E+00 -0.00000000000E+00 -0.45593999997E+02  0.45594000000E+02  0.51100000000E-03 0.  1.
    9900012    2    1    2    0    0  0.87949299745E+01 -0.27239938329E+01  0.16306698279E+02  0.72461565624E+02  0.69999993917E+02 0.  0.
        -12    1    1    2    0    0 -0.87949299745E+01  0.27239938329E+01 -0.16306698279E+02  0.18726434376E+02  0.00000000000E+00 0.  1.
         11    1    3    3    0    0  0.14957086772E+02  0.14636709336E+01  0.19517814109E+02  0.24633348233E+02  0.51100000000E-03 0. -1.
        -11    1    3    3    0    0  0.15525121149E+02  0.49498898636E+01  0.11617461280E+02  0.20012401235E+02  0.51100000000E-03 0.  1.
        -12    1    3    3    0    0 -0.21687277946E+02 -0.91375546301E+01 -0.14828577110E+02  0.27815816156E+02  0.00000000000E+00 0.  1.
</event>
<event>
 7    1  0.1891413E-013  0.7246158E+02  0.7816164E-02  0.1226708E+00
        -11   -1    0    0    0    0  0.00000000000E+00  0.00000000000E+00  0.45593999997E+02  0.45594000000E+02  0.51100000000E-03 0. -1.
         11   -1    0    0    0    0 -0.00000000000E+00 -0.00000000000E+00 -0.45593999997E+02  0.45594000000E+02  0.51100000000E-03 0.  1.
    9900012    2    1    2    0    0  0.92858489790E+01 -0.14165115578E+02 -0.79875773304E+01  0.72461577966E+02  0.70000009994E+02 0.  0.
        -12    1    1    2    0    0 -0.92858489790E+01  0.14165115578E+02  0.79875773304E+01  0.18726422034E+02  0.00000000000E+00 0.  1.
         11    1    3    3    0    0  0.35709437712E+01  0.22008458731E+02  0.41630005474E+01  0.22681588766E+02  0.51100000000E-03 0. -1.
        -11    1    3    3    0    0 -0.91945684402E+00  0.40625635222E+01  0.41347011377E+01  0.58690354419E+01  0.51100000000E-03 0.  1.
        -12    1    3    3    0    0  0.66343620518E+01 -0.40236137831E+02 -0.16285279015E+02  0.43910953758E+02  0.00000000000E+00 0.  1.
</event>
<event>
 7    1  0.1891413E-013  0.7246168E+02  0.7816164E-02  0.1226708E+00
        -11   -1    0    0    0    0  0.00000000000E+00  0.00000000000E+00  0.45593999997E+02  0.45594000000E+02  0.51100000000E-03 0.  1.
         11   -1    0    0    0    0 -0.00000000000E+00 -0.00000000000E+00 -0.45593999997E+02  0.45594000000E+02  0.51100000000E-03 0. -1.
    9900012    2    1    2    0    0 -0.37692728336E+01  0.84951603222E+01 -0.16257303771E+02  0.72461679152E+02  0.70000141807E+02 0.  0.
        -12    1    1    2    0    0  0.37692728336E+01 -0.84951603222E+01  0.16257303771E+02  0.18726320848E+02  0.00000000000E+00 0.  1.
         11    1    3    3    0    0 -0.11122676842E+02 -0.94618236557E+01 -0.20379231639E+02  0.25070961878E+02  0.51100000000E-03 0. -1.
        -11    1    3    3    0    0 -0.14037377100E+02 -0.58471300705E+01  0.11513254616E+01  0.15249997918E+02  0.51100000000E-03 0.  1.
        -12    1    3    3    0    0  0.21390781109E+02  0.23804114048E+02  0.29706024062E+01  0.32140719356E+02  0.00000000000E+00 0.  1.
</event>
<event>
 7    1  0.1891413E-013  0.7246096E+02  0.7816164E-02  0.1226710E+00
        -11   -1    0    0    0    0  0.00000000000E+00  0.00000000000E+00  0.45593999997E+02  0.45594000000E+02  0.51100000000E-03 0.  1.
         11   -1    0    0    0    0 -0.00000000000E+00 -0.00000000000E+00 -0.45593999997E+02  0.45594000000E+02  0.51100000000E-03 0. -1.
    9900012    2    1    2    0    0 -0.94125274825E+01  0.14646038028E+02 -0.68992632294E+01  0.72460962417E+02  0.69999208122E+02 0.  0.
        -12    1    1    2    0    0  0.94125274825E+01 -0.14646038028E+02  0.68992632294E+01  0.18727037583E+02  0.00000000000E+00 0.  1.
         11    1    3    3    0    0 -0.22355816415E+00 -0.17537167850E+01 -0.39295950522E-01  0.17683453417E+01  0.51100000000E-03 0. -1.
        -11    1    3    3    0    0  0.97034751080E+01  0.13551112224E+02  0.27048876961E+02  0.31771556726E+02  0.51100000000E-03 0.  1.
         12    1    3    3    0    0 -0.18892444426E+02  0.28486425896E+01 -0.33908844240E+02  0.38921060349E+02  0.00000000000E+00 0. -1.
</event>
<event>
 7    1  0.1891413E-013  0.7246201E+02  0.7816164E-02  0.1226707E+00
        -11   -1    0    0    0    0  0.00000000000E+00  0.00000000000E+00  0.45593999997E+02  0.45594000000E+02  0.51100000000E-03 0.  1.
         11   -1    0    0    0    0 -0.00000000000E+00 -0.00000000000E+00 -0.45593999997E+02  0.45594000000E+02  0.51100000000E-03 0. -1.
    9900012    2    1    2    0    0 -0.55257803583E+01 -0.49864143295E+01 -0.17183253059E+02  0.72462008381E+02  0.70000570687E+02 0.  0.
        -12    1    1    2    0    0  0.55257803583E+01  0.49864143295E+01  0.17183253059E+02  0.18725991619E+02  0.00000000000E+00 0.  1.
         11    1    3    3    0    0  0.18595510847E+02  0.15452158335E+02 -0.10850615743E+00  0.24177965066E+02  0.51100000000E-03 0. -1.
        -11    1    3    3    0    0 -0.17106175002E+01  0.82954752577E+01 -0.52874571337E+01  0.99849048661E+01  0.51100000000E-03 0.  1.
        -12    1    3    3    0    0 -0.22410673705E+02 -0.28734047922E+02 -0.11787289768E+02  0.38299138449E+02  0.00000000000E+00 0.  1.
</event>
<event>
 7    1  0.1891413E-013  0.7246156E+02  0.7816164E-02  0.1226708E+00
        -11   -1    0    0    0    0  0.00000000000E+00  0.00000000000E+00  0.45593999997E+02  0.45594000000E+02  0.51100000000E-03 0.  1.
         11   -1    0    0    0    0 -0.00000000000E+00 -0.00000000000E+00 -0.45593999997E+02  0.45594000000E+02  0.51100000000E-03 0. -1.
    9900012    2    1    2    0    0  0.38940989410E+01  0.18081969775E+02 -0.29253723231E+01  0.72461563053E+02  0.69999990567E+02 0.  0.
        -12    1    1    2    0    0 -0.38940989410E+01 -0.18081969775E+02  0.29253723231E+01  0.18726436947E+02  0.00000000000E+00 0.  1.
         11    1    3    3    0    0  0.17379884338E+02 -0.13797603875E+02 -0.18369579862E+02  0.28807563536E+02  0.51100000000E-03 0. -1.
        -11    1    3    3    0    0 -0.81798719253E+01 -0.31808544998E+00  0.26632811811E+01  0.86083999662E+01  0.51100000000E-03 0.  1.
        -12    1    3    3    0    0 -0.53059134713E+01  0.32197659100E+02  0.12780926358E+02  0.35045599551E+02  0.00000000000E+00 0.  1.
</event>
<event>
 7    1  0.1891413E-013  0.7246140E+02  0.7816164E-02  0.1226708E+00
        -11   -1    0    0    0    0  0.00000000000E+00  0.00000000000E+00  0.45593999997E+02  0.45594000000E+02  0.51100000000E-03 0. -1.
         11   -1    0    0    0    0 -0.00000000000E+00 -0.00000000000E+00 -0.45593999997E+02  0.45594000000E+02  0.51100000000E-03 0.  1.
    9900012    2    1    2    0    0  0.15072829388E+02  0.59884471405E+01  0.93612870073E+01  0.72461404491E+02  0.69999784010E+02 0.  0.
        -12    1    1    2    0    0 -0.15072829388E+02 -0.59884471405E+01 -0.93612870073E+01  0.18726595509E+02  0.00000000000E+00 0.  1.
         11    1    3    3    0    0  0.34068660083E+01  0.18325914121E+02 -0.52805192142E+00  0.18647377925E+02  0.51100000000E-03 0. -1.
        -11    1    3    3    0    0 -0.95550389191E+01  0.12046108292E+02 -0.75016387961E+01  0.17107953665E+02  0.51100000000E-03 0.  1.
         12    1    3    3    0    0  0.21221002299E+02 -0.24383575272E+02  0.17390977725E+02  0.36706072901E+02  0.00000000000E+00 0. -1.
</event>
<event>
 7    1  0.1891413E-013  0.7246156E+02  0.7816164E-02  0.1226708E+00
        -11   -1    0    0    0    0  0.00000000000E+00  0.00000000000E+00  0.45593999997E+02  0.45594000000E+02  0.51100000000E-03 0.  1.
         11   -1    0    0    0    0 -0.00000000000E+00 -0.00000000000E+00 -0.45593999997E+02  0.45594000000E+02  0.51100000000E-03 0. -1.
    9900012    2    1    2    0    0 -0.58898956493E+01  0.13248398710E+02 -0.11851951062E+02  0.72461556581E+02  0.69999982136E+02 0.  0.
        -12    1    1    2    0    0  0.58898956493E+01 -0.13248398710E+02  0.11851951062E+02  0.18726443419E+02  0.00000000000E+00 0.  1.
         11    1    3    3    0    0  0.10790873895E+01  0.34798622844E+02  0.72135938444E+01  0.35554810052E+02  0.51100000000E-03 0. -1.
        -11    1    3    3    0    0 -0.10281739911E+02 -0.10595773119E+01 -0.33288507282E+01  0.10859011332E+02  0.51100000000E-03 0.  1.
        -12    1    3    3    0    0  0.33127568718E+01 -0.20490646822E+02 -0.15736694178E+02  0.26047735198E+02  0.00000000000E+00 0.  1.
</event>
<event>
 7    1  0.1891413E-013  0.7246159E+02  0.7816164E-02  0.1226708E+00
        -11   -1    0    0    0    0  0.00000000000E+00  0.00000000000E+00  0.45593999997E+02  0.45594000000E+02  0.51100000000E-03 0.  1.
         11   -1    0    0    0    0 -0.00000000000E+00 -0.00000000000E+00 -0.45593999997E+02  0.45594000000E+02  0.51100000000E-03 0. -1.
    9900012    2    1    2    0    0  0.17158291184E+02 -0.47343590210E+01 -0.58186967720E+01  0.72461592341E+02  0.70000028720E+02 0.  0.
        -12    1    1    2    0    0 -0.17158291184E+02  0.47343590210E+01  0.58186967720E+01  0.18726407659E+02  0.00000000000E+00 0.  1.
         11    1    3    3    0    0  0.16613263299E+02 -0.80525786082E+00  0.14294450741E+02  0.21931262616E+02  0.51100000000E-03 0. -1.
        -11    1    3    3    0    0  0.72347095667E+01  0.19752112102E+02 -0.48967142910E+01  0.21597795399E+02  0.51100000000E-03 0.  1.
         12    1    3    3    0    0 -0.66896816822E+01 -0.23681213262E+02 -0.15216433222E+02  0.28932534327E+02  0.00000000000E+00 0. -1.
</event>
<event>
 7    1  0.2082295E-013  0.7246154E+02  0.7816164E-02  0.1226708E+00
        -11   -1    0    0    0    0  0.00000000000E+00  0.00000000000E+00  0.45593999997E+02  0.45594000000E+02  0.51100000000E-03 0. -1.
         11   -1    0    0    0    0 -0.00000000000E+00 -0.00000000000E+00 -0.45593999997E+02  0.45594000000E+02  0.51100000000E-03 0.  1.
    9900012    2    1    2    0    0 -0.18311647356E+01  0.43471963324E+01  0.18122607954E+02  0.72461542799E+02  0.69999964183E+02 0.  0.
        -12    1    1    2    0    0  0.18311647356E+01 -0.43471963324E+01 -0.18122607954E+02  0.18726457201E+02  0.00000000000E+00 0.  1.
         11    1    3    3    0    0 -0.88956746341E+01 -0.43652904877E+01  0.12473760489E+02  0.15930583456E+02  0.51100000000E-03 0. -1.
        -11    1    3    3    0    0 -0.17383609550E+02  0.71600344280E+00 -0.15445384086E+02  0.23265047426E+02  0.51100000000E-03 0.  1.
         12    1    3    3    0    0  0.24448119449E+02  0.79964833773E+01  0.21094231551E+02  0.33265911917E+02  0.00000000000E+00 0. -1.
</event>
<event>
 7    1  0.1891413E-013  0.7246150E+02  0.7816164E-02  0.1226708E+00
        -11   -1    0    0    0    0  0.00000000000E+00  0.00000000000E+00  0.45593999997E+02  0.45594000000E+02  0.51100000000E-03 0. -1.
         11   -1    0    0    0    0 -0.00000000000E+00 -0.00000000000E+00 -0.45593999997E+02  0.45594000000E+02  0.51100000000E-03 0.  1.
    9900012    2    1    2    0    0 -0.18517556849E+02 -0.81601195037E+00  0.26675718644E+01  0.72461502015E+02  0.69999911053E+02 0.  0.
        -12    1    1    2    0    0  0.18517556849E+02  0.81601195037E+00 -0.26675718644E+01  0.18726497985E+02  0.00000000000E+00 0.  1.
         11    1    3    3    0    0 -0.20517400819E+02  0.63868470043E+01  0.70567661205E+01  0.22617548483E+02  0.51100000000E-03 0. -1.
        -11    1    3    3    0    0 -0.14427398807E+02 -0.11011366658E+02 -0.19899192826E+02  0.26932840686E+02  0.51100000000E-03 0.  1.
         12    1    3    3    0    0  0.16427242778E+02  0.38085077031E+01  0.15509998570E+02  0.22911112846E+02  0.00000000000E+00 0. -1.
</event>
<event>
 7    1  0.1891413E-013  0.7246151E+02  0.7816164E-02  0.1226708E+00
        -11   -1    0    0    0    0  0.00000000000E+00  0.00000000000E+00  0.45593999997E+02  0.45594000000E+02  0.51100000000E-03 0. -1.
         11   -1    0    0    0    0 -0.00000000000E+00 -0.00000000000E+00 -0.45593999997E+02  0.45594000000E+02  0.51100000000E-03 0.  1.
    9900012    2    1    2    0    0  0.13076592352E+02  0.41461924861E+01  0.12747291181E+02  0.72461505077E+02  0.69999915042E+02 0.  0.
        -12    1    1    2    0    0 -0.13076592352E+02 -0.41461924861E+01 -0.12747291181E+02  0.18726494923E+02  0.00000000000E+00 0.  1.
         11    1    3    3    0    0  0.16695593280E+01  0.18033759160E+01 -0.12986758054E+02  0.13217241697E+02  0.51100000000E-03 0. -1.
        -11    1    3    3    0    0  0.67661766602E+01 -0.10311975222E+02 -0.13186660992E+02  0.18055636459E+02  0.51100000000E-03 0.  1.
         12    1    3    3    0    0  0.46408563634E+01  0.12654791792E+02  0.38920710227E+02  0.41188626921E+02  0.00000000000E+00 0. -1.
</event>
<event>
 7    1  0.1891413E-013  0.7246152E+02  0.7816164E-02  0.1226708E+00
        -11   -1    0    0    0    0  0.00000000000E+00  0.00000000000E+00  0.45593999997E+02  0.45594000000E+02  0.51100000000E-03 0. -1.
         11   -1    0    0    0    0 -0.00000000000E+00 -0.00000000000E+00 -0.45593999997E+02  0.45594000000E+02  0.51100000000E-03 0.  1.
    9900012    2    1    2    0    0 -0.61812966451E+01 -0.69871236644E+01  0.16237381612E+02  0.72461524439E+02  0.69999940265E+02 0.  0.
        -12    1    1    2    0    0  0.61812966451E+01  0.69871236644E+01 -0.16237381612E+02  0.18726475561E+02  0.00000000000E+00 0.  1.
         11    1    3    3    0    0  0.74125582662E+01  0.83056068751E+01 -0.14477281168E+02  0.18262551735E+02  0.51100000000E-03 0.  1.
        -11    1    3    3    0    0  0.10388207829E+02 -0.17149049028E+02  0.97670946028E+01  0.22302485998E+02  0.51100000000E-03 0. -1.
         12    1    3    3    0    0 -0.23982062741E+02  0.18563184885E+01  0.20947568177E+02  0.31896486705E+02  0.00000000000E+00 0. -1.
</event>
<event>
 7    1  0.1891413E-013  0.7246145E+02  0.7816164E-02  0.1226708E+00
        -11   -1    0    0    0    0  0.00000000000E+00  0.00000000000E+00  0.45593999997E+02  0.45594000000E+02  0.51100000000E-03 0. -1.
         11   -1    0    0    0    0 -0.00000000000E+00 -0.00000000000E+00 -0.45593999997E+02  0.45594000000E+02  0.51100000000E-03 0.  1.
    9900012    2    1    2    0    0 -0.79678431480E+01  0.62868648771E+01  0.15737609307E+02  0.72461453572E+02  0.69999847947E+02 0.  0.
        -12    1    1    2    0    0  0.79678431480E+01 -0.62868648771E+01 -0.15737609307E+02  0.18726546428E+02  0.00000000000E+00 0.  1.
         11    1    3    3    0    0 -0.13488696595E+02  0.51610974750E+00  0.25229019662E+02  0.28613191686E+02  0.51100000000E-03 0. -1.
        -11    1    3    3    0    0 -0.15556786236E+02  0.33236767910E+01 -0.15065020323E+02  0.21909250626E+02  0.51100000000E-03 0.  1.
        -12    1    3    3    0    0  0.21077639683E+02  0.24470783387E+01  0.55736099684E+01  0.21939011260E+02  0.00000000000E+00 0.  1.
</event>
<event>
 7    1  0.1891413E-013  0.7246156E+02  0.7816164E-02  0.1226708E+00
        -11   -1    0    0    0    0  0.00000000000E+00  0.00000000000E+00  0.45593999997E+02  0.45594000000E+02  0.51100000000E-03 0.  1.
         11   -1    0    0    0    0 -0.00000000000E+00 -0.00000000000E+00 -0.45593999997E+02  0.45594000000E+02  0.51100000000E-03 0. -1.
    9900012    2    1    2    0    0  0.15798069875E+02  0.34841215879E+01 -0.94319329553E+01  0.72461562157E+02  0.69999989400E+02 0.  0.
        -12    1    1    2    0    0 -0.15798069875E+02 -0.34841215879E+01  0.94319329553E+01  0.18726437843E+02  0.00000000000E+00 0.  1.
         11    1    3    3    0    0  0.13357154675E+02 -0.25225632083E+01  0.27370210397E+01  0.13866080578E+02  0.51100000000E-03 0. -1.
        -11    1    3    3    0    0 -0.13998008098E+02 -0.92993723981E+01  0.15565408587E+02  0.22906429282E+02  0.51100000000E-03 0.  1.
         12    1    3    3    0    0  0.16438923298E+02  0.15306057194E+02 -0.27734362582E+02  0.35689052297E+02  0.00000000000E+00 0. -1.
</event>
<event>
 7    1  0.1891413E-013  0.7246159E+02  0.7816164E-02  0.1226708E+00
        -11   -1    0    0    0    0  0.00000000000E+00  0.00000000000E+00  0.45593999997E+02  0.45594000000E+02  0.51100000000E-03 0.  1.
         11   -1    0    0    0    0 -0.00000000000E+00 -0.00000000000E+00 -0.45593999997E+02  0.45594000000E+02  0.51100000000E-03 0. -1.
    9900012    2    1    2    0    0 -0.72812673350E+00 -0.16989087508E+02  0.78434163190E+01  0.72461589707E+02  0.70000025289E+02 0.  0.
        -12    1    1    2    0    0  0.72812673350E+00  0.16989087508E+02 -0.78434163190E+01  0.18726410293E+02  0.00000000000E+00 0.  1.
         11    1    3    3    0    0  0.35376442895E+01  0.87359630588E+01 -0.13410976227E+01  0.95200063434E+01  0.51100000000E-03 0. -1.
        -11    1    3    3    0    0 -0.16870625931E+02  0.13095744984E+02  0.15077761702E+01  0.21410043093E+02  0.51100000000E-03 0.  1.
         12    1    3    3    0    0  0.12604854908E+02 -0.38820795551E+02  0.76767377715E+01  0.41531540271E+02  0.00000000000E+00 0. -1.
</event>
<event>
 7    1  0.1891413E-013  0.7246154E+02  0.7816164E-02  0.1226708E+00
        -11   -1    0    0    0    0  0.00000000000E+00  0.00000000000E+00  0.45593999997E+02  0.45594000000E+02  0.51100000000E-03 0.  1.
         11   -1    0    0    0    0 -0.00000000000E+00 -0.00000000000E+00 -0.45593999997E+02  0.45594000000E+02  0.51100000000E-03 0. -1.
    9900012    2    1    2    0    0 -0.15185539635E+02  0.10166016706E+02  0.40904578752E+01  0.72461538634E+02  0.69999958757E+02 0.  0.
        -12    1    1    2    0    0  0.15185539635E+02 -0.10166016706E+02 -0.40904578752E+01  0.18726461366E+02  0.00000000000E+00 0.  1.
         11    1    3    3    0    0  0.99863194625E+01  0.31082274426E+01 -0.13159926429E+02  0.16809857766E+02  0.51100000000E-03 0. -1.
        -11    1    3    3    0    0  0.13554031451E+01  0.20057060521E+02  0.16653055148E+02  0.26104540610E+02  0.51100000000E-03 0.  1.
        -12    1    3    3    0    0 -0.26527262242E+02 -0.12999271258E+02  0.59732915571E+00  0.29547140258E+02  0.00000000000E+00 0.  1.
</event>
<event>
 7    1  0.1891413E-013  0.7246159E+02  0.7816164E-02  0.1226708E+00
        -11   -1    0    0    0    0  0.00000000000E+00  0.00000000000E+00  0.45593999997E+02  0.45594000000E+02  0.51100000000E-03 0.  1.
         11   -1    0    0    0    0 -0.00000000000E+00 -0.00000000000E+00 -0.45593999997E+02  0.45594000000E+02  0.51100000000E-03 0. -1.
    9900012    2    1    2    0    0  0.60933027485E+01 -0.15667049938E+02 -0.82518765328E+01  0.72461594620E+02  0.70000031689E+02 0.  0.
        -12    1    1    2    0    0 -0.60933027485E+01  0.15667049938E+02  0.82518765328E+01  0.18726405380E+02  0.00000000000E+00 0.  1.
         11    1    3    3    0    0 -0.22222759409E+02 -0.63786882216E+01  0.73118231875E+01  0.24248741365E+02  0.51100000000E-03 0. -1.
        -11    1    3    3    0    0 -0.23731870622E+01  0.63327127801E+01  0.47198814936E+01  0.82469721451E+01  0.51100000000E-03 0.  1.
        -12    1    3    3    0    0  0.30689249220E+02 -0.15621074496E+02 -0.20283581214E+02  0.39965881111E+02  0.00000000000E+00 0.  1.
</event>
<event>
 7    1  0.1891413E-013  0.7246165E+02  0.7816164E-02  0.1226708E+00
        -11   -1    0    0    0    0  0.00000000000E+00  0.00000000000E+00  0.45593999997E+02  0.45594000000E+02  0.51100000000E-03 0. -1.
         11   -1    0    0    0    0 -0.00000000000E+00 -0.00000000000E+00 -0.45593999997E+02  0.45594000000E+02  0.51100000000E-03 0.  1.
    9900012    2    1    2    0    0  0.66574695948E+01 -0.10285478682E+02  0.14162039852E+02  0.72461645686E+02  0.70000098211E+02 0.  0.
        -12    1    1    2    0    0 -0.66574695948E+01  0.10285478682E+02 -0.14162039852E+02  0.18726354314E+02  0.00000000000E+00 0.  1.
         11    1    3    3    0    0 -0.96093926441E+01  0.21548713960E+02  0.79779173161E+01  0.24906518530E+02  0.51100000000E-03 0.  1.
        -11    1    3    3    0    0 -0.58060759959E+01 -0.19535146284E+02  0.87060493793E+01  0.22161402367E+02  0.51100000000E-03 0. -1.
        -12    1    3    3    0    0  0.22072938235E+02 -0.12299046359E+02 -0.25219268433E+01  0.25393724789E+02  0.00000000000E+00 0.  1.
</event>
<event>
 7    1  0.1891413E-013  0.7246160E+02  0.7816164E-02  0.1226708E+00
        -11   -1    0    0    0    0  0.00000000000E+00  0.00000000000E+00  0.45593999997E+02  0.45594000000E+02  0.51100000000E-03 0.  1.
         11   -1    0    0    0    0 -0.00000000000E+00 -0.00000000000E+00 -0.45593999997E+02  0.45594000000E+02  0.51100000000E-03 0. -1.
    9900012    2    1    2    0    0 -0.47962946842E+01  0.14381539061E+02 -0.10992944216E+02  0.72461603363E+02  0.70000043078E+02 0.  0.
        -12    1    1    2    0    0  0.47962946842E+01 -0.14381539061E+02  0.10992944216E+02  0.18726396637E+02  0.00000000000E+00 0.  1.
         11    1    3    3    0    0 -0.33582863992E+01 -0.21647864798E+02 -0.83164206800E+00  0.21922585765E+02  0.51100000000E-03 0. -1.
        -11    1    3    3    0    0  0.75746092759E+01  0.33171500117E+01  0.84633840656E+01  0.11832457901E+02  0.51100000000E-03 0.  1.
        -12    1    3    3    0    0 -0.90126175609E+01  0.32712253847E+02 -0.18624686214E+02  0.38706559697E+02  0.00000000000E+00 0.  1.
</event>
<event>
 7    1  0.1891413E-013  0.7246152E+02  0.7816164E-02  0.1226708E+00
        -11   -1    0    0    0    0  0.00000000000E+00  0.00000000000E+00  0.45593999997E+02  0.45594000000E+02  0.51100000000E-03 0.  1.
         11   -1    0    0    0    0 -0.00000000000E+00 -0.00000000000E+00 -0.45593999997E+02  0.45594000000E+02  0.51100000000E-03 0. -1.
    9900012    2    1    2    0    0  0.70102856931E+01 -0.17348758176E+02 -0.74659221581E+00  0.72461523672E+02  0.69999939265E+02 0.  0.
        -12    1    1    2    0    0 -0.70102856931E+01  0.17348758176E+02  0.74659221581E+00  0.18726476328E+02  0.00000000000E+00 0.  1.
         11    1    3    3    0    0  0.24251112813E+02 -0.29658446389E+02 -0.13139112689E+02  0.40501557963E+02  0.51100000000E-03 0. -1.
        -11    1    3    3    0    0  0.36255048830E+01 -0.17916371529E+01  0.31761571951E+01  0.51422003203E+01  0.51100000000E-03 0.  1.
         12    1    3    3    0    0 -0.20866332003E+02  0.14101325367E+02  0.92163632782E+01  0.26817765389E+02  0.00000000000E+00 0. -1.
</event>
<event>
 7    1  0.1891413E-013  0.7246160E+02  0.7816164E-02  0.1226708E+00
        -11   -1    0    0    0    0  0.00000000000E+00  0.00000000000E+00  0.45593999997E+02  0.45594000000E+02  0.51100000000E-03 0. -1.
         11   -1    0    0    0    0 -0.00000000000E+00 -0.00000000000E+00 -0.45593999997E+02  0.45594000000E+02  0.51100000000E-03 0.  1.
    9900012    2    1    2    0    0  0.11167247440E+02  0.67478170509E+01  0.13432712946E+02  0.72461595448E+02  0.70000032768E+02 0.  0.
        -12    1    1    2    0    0 -0.11167247440E+02 -0.67478170509E+01 -0.13432712946E+02  0.18726404552E+02  0.00000000000E+00 0.  1.
         11    1    3    3    0    0 -0.14975426499E+01 -0.62292126352E+01 -0.40634719884E+01  0.75866678394E+01  0.51100000000E-03 0. -1.
        -11    1    3    3    0    0 -0.18206735022E+02 -0.12438931012E+02  0.26011675271E+01  0.22203114143E+02  0.51100000000E-03 0.  1.
         12    1    3    3    0    0  0.30871525112E+02  0.25415960698E+02  0.14895017407E+02  0.42671813466E+02  0.00000000000E+00 0. -1.
</event>
<event>
 7    1  0.1891413E-013  0.7246159E+02  0.7816164E-02  0.1226708E+00
        -11   -1    0    0    0    0  0.00000000000E+00  0.00000000000E+00  0.45593999997E+02  0.45594000000E+02  0.51100000000E-03 0.  1.
         11   -1    0    0    0    0 -0.00000000000E+00 -0.00000000000E+00 -0.45593999997E+02  0.45594000000E+02  0.51100000000E-03 0. -1.
    9900012    2    1    2    0    0  0.16132006050E+02  0.78875109231E+01  0.53126378633E+01  0.72461586333E+02  0.70000020894E+02 0.  0.
        -12    1    1    2    0    0 -0.16132006050E+02 -0.78875109231E+01 -0.53126378633E+01  0.18726413667E+02  0.00000000000E+00 0.  1.
         11    1    3    3    0    0  0.17981948318E+02  0.28151026295E+01 -0.67070612215E+01  0.19397420927E+02  0.51100000000E-03 0. -1.
        -11    1    3    3    0    0  0.92118913919E+01  0.21026881637E+02 -0.88110578389E+01  0.24589091787E+02  0.51100000000E-03 0.  1.
         12    1    3    3    0    0 -0.11061833660E+02 -0.15954473344E+02  0.20830756924E+02  0.28475073619E+02  0.00000000000E+00 0. -1.
</event>
<event>
 7    1  0.1891413E-013  0.7246157E+02  0.7816164E-02  0.1226708E+00
        -11   -1    0    0    0    0  0.00000000000E+00  0.00000000000E+00  0.45593999997E+02  0.45594000000E+02  0.51100000000E-03 0. -1.
         11   -1    0    0    0    0 -0.00000000000E+00 -0.00000000000E+00 -0.45593999997E+02  0.45594000000E+02  0.51100000000E-03 0.  1.
    9900012    2    1    2    0    0  0.18155602629E+02  0.44006518263E+01 -0.12991164639E+01  0.72461565558E+02  0.69999993830E+02 0.  0.
        -12    1    1    2    0    0 -0.18155602629E+02 -0.44006518263E+01  0.12991164639E+01  0.18726434442E+02  0.00000000000E+00 0.  1.
         11    1    3    3    0    0  0.97932623808E+01  0.46421540344E+01 -0.12026253062E+02  0.16189142816E+02  0.51100000000E-03 0.  1.
        -11    1    3    3    0    0  0.29416823772E+02 -0.96230558282E+01  0.11979758375E+02  0.33188361443E+02  0.51100000000E-03 0. -1.
         12    1    3    3    0    0 -0.21054483523E+02  0.93815536201E+01 -0.12526217770E+01  0.23084061299E+02  0.00000000000E+00 0. -1.
</event>
<event>
 7    1  0.1891413E-013  0.7246151E+02  0.7816164E-02  0.1226708E+00
        -11   -1    0    0    0    0  0.00000000000E+00  0.00000000000E+00  0.45593999997E+02  0.45594000000E+02  0.51100000000E-03 0. -1.
         11   -1    0    0    0    0 -0.00000000000E+00 -0.00000000000E+00 -0.45593999997E+02  0.45594000000E+02  0.51100000000E-03 0.  1.
    9900012    2    1    2    0    0  0.44703858864E+01 -0.17771493731E+02  0.38562994849E+01  0.72461511137E+02  0.69999922937E+02 0.  0.
        -12    1    1    2    0    0 -0.44703858864E+01  0.17771493731E+02 -0.38562994849E+01  0.18726488863E+02  0.00000000000E+00 0.  1.
         11    1    3    3    0    0 -0.20109058169E+02 -0.59516857065E+01 -0.18299208353E+02  0.27832675218E+02  0.51100000000E-03 0. -1.
        -11    1    3    3    0    0 -0.37041607397E+01 -0.58937434377E+01 -0.16896371054E+01  0.71632319733E+01  0.51100000000E-03 0.  1.
         12    1    3    3    0    0  0.28283604795E+02 -0.59260645870E+01  0.23845144943E+02  0.37465603946E+02  0.00000000000E+00 0. -1.
</event>
<event>
 7    1  0.1891413E-013  0.7246158E+02  0.7816164E-02  0.1226708E+00
        -11   -1    0    0    0    0  0.00000000000E+00  0.00000000000E+00  0.45593999997E+02  0.45594000000E+02  0.51100000000E-03 0.  1.
         11   -1    0    0    0    0 -0.00000000000E+00 -0.00000000000E+00 -0.45593999997E+02  0.45594000000E+02  0.51100000000E-03 0. -1.
    9900012    2    1    2    0    0  0.64936073611E+01  0.65083373449E+01 -0.16314209307E+02  0.72461579710E+02  0.70000012266E+02 0.  0.
        -12    1    1    2    0    0 -0.64936073611E+01 -0.65083373449E+01  0.16314209307E+02  0.18726420290E+02  0.00000000000E+00 0.  1.
         11    1    3    3    0    0  0.43211678501E+00  0.17209594285E+01 -0.17566377907E+01  0.24968385729E+01  0.51100000000E-03 0. -1.
        -11    1    3    3    0    0 -0.15501710893E+02 -0.21729926779E+02 -0.22460323537E+02  0.34884937897E+02  0.51100000000E-03 0.  1.
         12    1    3    3    0    0  0.21563201469E+02  0.26517304695E+02  0.79027520204E+01  0.35079803240E+02  0.00000000000E+00 0. -1.
</event>
<event>
 7    1  0.1891413E-013  0.7246157E+02  0.7816164E-02  0.1226708E+00
        -11   -1    0    0    0    0  0.00000000000E+00  0.00000000000E+00  0.45593999997E+02  0.45594000000E+02  0.51100000000E-03 0. -1.
         11   -1    0    0    0    0 -0.00000000000E+00 -0.00000000000E+00 -0.45593999997E+02  0.45594000000E+02  0.51100000000E-03 0.  1.
    9900012    2    1    2    0    0  0.67978765865E+01  0.17447030724E+02 -0.26326058990E+00  0.72461566455E+02  0.69999994999E+02 0.  0.
        -12    1    1    2    0    0 -0.67978765865E+01 -0.17447030724E+02  0.26326058990E+00  0.18726433545E+02  0.00000000000E+00 0.  1.
         11    1    3    3    0    0  0.25813397510E+02  0.13447080633E+02  0.25006721832E+02  0.38373058330E+02  0.51100000000E-03 0. -1.
        -11    1    3    3    0    0 -0.88505117458E+00  0.21837905391E+01  0.61328085580E+00  0.24348245049E+01  0.51100000000E-03 0.  1.
        -12    1    3    3    0    0 -0.18130469749E+02  0.18161595517E+01 -0.25883263278E+02  0.31653683620E+02  0.00000000000E+00 0.  1.
</event>
<event>
 7    1  0.1891413E-013  0.7246154E+02  0.7816164E-02  0.1226708E+00
        -11   -1    0    0    0    0  0.00000000000E+00  0.00000000000E+00  0.45593999997E+02  0.45594000000E+02  0.51100000000E-03 0.  1.
         11   -1    0    0    0    0 -0.00000000000E+00 -0.00000000000E+00 -0.45593999997E+02  0.45594000000E+02  0.51100000000E-03 0. -1.
    9900012    2    1    2    0    0  0.72707709158E+01 -0.14778793353E+02  0.89108698572E+01  0.72461536258E+02  0.69999955661E+02 0.  0.
        -12    1    1    2    0    0 -0.72707709158E+01  0.14778793353E+02 -0.89108698572E+01  0.18726463742E+02  0.00000000000E+00 0.  1.
         11    1    3    3    0    0 -0.18349996039E+02 -0.32003986011E+01  0.62326922145E+01  0.19642081314E+02  0.51100000000E-03 0.  1.
        -11    1    3    3    0    0  0.11629236966E+02  0.15348826893E+02  0.98621923766E+01  0.21635352508E+02  0.51100000000E-03 0. -1.
         12    1    3    3    0    0  0.13991529989E+02 -0.26927221646E+02 -0.71840147339E+01  0.31184102435E+02  0.00000000000E+00 0. -1.
</event>
<event>
 7    1  0.1891413E-013  0.7246159E+02  0.7816164E-02  0.1226708E+00
        -11   -1    0    0    0    0  0.00000000000E+00  0.00000000000E+00  0.45593999997E+02  0.45594000000E+02  0.51100000000E-03 0.  1.
         11   -1    0    0    0    0 -0.00000000000E+00 -0.00000000000E+00 -0.45593999997E+02  0.45594000000E+02  0.51100000000E-03 0. -1.
    9900012    2    1    2    0    0  0.18603098729E+02  0.21148079207E+01  0.36154072571E+00  0.72461590666E+02  0.70000026537E+02 0.  0.
        -12    1    1    2    0    0 -0.18603098729E+02 -0.21148079207E+01 -0.36154072571E+00  0.18726409334E+02  0.00000000000E+00 0.  1.
         11    1    3    3    0    0  0.13421723744E+02 -0.13605724208E+01  0.11094437597E+01  0.13536051540E+02  0.51100000000E-03 0. -1.
        -11    1    3    3    0    0  0.18509428231E+02 -0.85742802669E+01  0.21957615022E+02  0.29970887094E+02  0.51100000000E-03 0.  1.
         12    1    3    3    0    0 -0.13328053246E+02  0.12049660608E+02 -0.22705518056E+02  0.28954652032E+02  0.00000000000E+00 0. -1.
</event>
<event>
 7    1  0.1891413E-013  0.7246156E+02  0.7816164E-02  0.1226708E+00
        -11   -1    0    0    0    0  0.00000000000E+00  0.00000000000E+00  0.45593999997E+02  0.45594000000E+02  0.51100000000E-03 0.  1.
         11   -1    0    0    0    0 -0.00000000000E+00 -0.00000000000E+00 -0.45593999997E+02  0.45594000000E+02  0.51100000000E-03 0. -1.
    9900012    2    1    2    0    0  0.20095759908E+01  0.18555514303E+02  0.15277282155E+01  0.72461562533E+02  0.69999989890E+02 0.  0.
        -12    1    1    2    0    0 -0.20095759908E+01 -0.18555514303E+02 -0.15277282155E+01  0.18726437467E+02  0.00000000000E+00 0.  1.
         11    1    3    3    0    0  0.13814890491E+00 -0.35972582054E+01  0.19196654747E+02  0.19531280179E+02  0.51100000000E-03 0. -1.
        -11    1    3    3    0    0 -0.19850905777E+02  0.88784770492E+01  0.33755271171E+00  0.21748557583E+02  0.51100000000E-03 0.  1.
         12    1    3    3    0    0  0.21722332863E+02  0.13274295459E+02 -0.18006479243E+02  0.31181724770E+02  0.00000000000E+00 0. -1.
</event>
<event>
 7    1  0.1891413E-013  0.7246159E+02  0.7816164E-02  0.1226708E+00
        -11   -1    0    0    0    0  0.00000000000E+00  0.00000000000E+00  0.45593999997E+02  0.45594000000E+02  0.51100000000E-03 0. -1.
         11   -1    0    0    0    0 -0.00000000000E+00 -0.00000000000E+00 -0.45593999997E+02  0.45594000000E+02  0.51100000000E-03 0.  1.
    9900012    2    1    2    0    0 -0.99091412403E+01 -0.26603716948E+01  0.15665564617E+02  0.72461586236E+02  0.70000020767E+02 0.  0.
        -12    1    1    2    0    0  0.99091412403E+01  0.26603716948E+01 -0.15665564617E+02  0.18726413764E+02  0.00000000000E+00 0.  1.
         11    1    3    3    0    0 -0.17915143841E+02  0.18538156978E+02  0.26939171568E+02  0.37287190938E+02  0.51100000000E-03 0. -1.
        -11    1    3    3    0    0 -0.54909331079E+01  0.17263319619E+01  0.10579331255E+01  0.58523321161E+01  0.51100000000E-03 0.  1.
        -12    1    3    3    0    0  0.13496935708E+02 -0.22924860634E+02 -0.12331540076E+02  0.29322063182E+02  0.00000000000E+00 0.  1.
</event>
<event>
 7    1  0.1891413E-013  0.7246161E+02  0.7816164E-02  0.1226708E+00
        -11   -1    0    0    0    0  0.00000000000E+00  0.00000000000E+00  0.45593999997E+02  0.45594000000E+02  0.51100000000E-03 0.  1.
         11   -1    0    0    0    0 -0.00000000000E+00 -0.00000000000E+00 -0.45593999997E+02  0.45594000000E+02  0.51100000000E-03 0. -1.
    9900012    2    1    2    0    0  0.18682903410E+02 -0.21717017982E+00 -0.12567656914E+01  0.72461614798E+02  0.70000057975E+02 0.  0.
        -12    1    1    2    0    0 -0.18682903410E+02  0.21717017982E+00  0.12567656914E+01  0.18726385202E+02  0.00000000000E+00 0.  1.
         11    1    3    3    0    0  0.14957761302E+02  0.84551152381E+01 -0.30359013478E+02  0.34883997714E+02  0.51100000000E-03 0. -1.
        -11    1    3    3    0    0 -0.31864409990E+01  0.58120726062E+01  0.38742079581E+01  0.76774397935E+01  0.51100000000E-03 0.  1.
        -12    1    3    3    0    0  0.69115831073E+01 -0.14484358024E+02  0.25228039829E+02  0.29900177291E+02  0.00000000000E+00 0.  1.
</event>
<event>
 7    1  0.1891413E-013  0.7246153E+02  0.7816164E-02  0.1226708E+00
        -11   -1    0    0    0    0  0.00000000000E+00  0.00000000000E+00  0.45593999997E+02  0.45594000000E+02  0.51100000000E-03 0.  1.
         11   -1    0    0    0    0 -0.00000000000E+00 -0.00000000000E+00 -0.45593999997E+02  0.45594000000E+02  0.51100000000E-03 0. -1.
    9900012    2    1    2    0    0  0.30421615237E+01 -0.18378253278E+02 -0.19145688661E+01  0.72461534390E+02  0.69999953228E+02 0.  0.
        -12    1    1    2    0    0 -0.30421615237E+01  0.18378253278E+02  0.19145688661E+01  0.18726465610E+02  0.00000000000E+00 0.  1.
         11    1    3    3    0    0 -0.76984736670E+01 -0.65887176334E+01 -0.56066140797E+01  0.11580665722E+02  0.51100000000E-03 0. -1.
        -11    1    3    3    0    0 -0.22819445624E+02 -0.10501179487E+02  0.93875321255E+01  0.26816555127E+02  0.51100000000E-03 0.  1.
         12    1    3    3    0    0  0.33560080815E+02 -0.12883561582E+01 -0.56954869119E+01  0.34064313542E+02  0.00000000000E+00 0. -1.
</event>
<event>
 7    1  0.1891413E-013  0.7246153E+02  0.7816164E-02  0.1226708E+00
        -11   -1    0    0    0    0  0.00000000000E+00  0.00000000000E+00  0.45593999997E+02  0.45594000000E+02  0.51100000000E-03 0.  1.
         11   -1    0    0    0    0 -0.00000000000E+00 -0.00000000000E+00 -0.45593999997E+02  0.45594000000E+02  0.51100000000E-03 0. -1.
    9900012    2    1    2    0    0 -0.42120983702E+01 -0.18155602853E+02  0.18201207249E+01  0.72461534047E+02  0.69999952781E+02 0.  0.
        -12    1    1    2    0    0  0.42120983702E+01  0.18155602853E+02 -0.18201207249E+01  0.18726465953E+02  0.00000000000E+00 0.  1.
         11    1    3    3    0    0  0.10532866113E+02 -0.12339018039E+02 -0.15502023529E+02  0.22438925297E+02  0.51100000000E-03 0. -1.
        -11    1    3    3    0    0  0.10121317945E+02 -0.13562366769E+02  0.16983916031E+02  0.23975660018E+02  0.51100000000E-03 0.  1.
        -12    1    3    3    0    0 -0.24866282428E+02  0.77457819554E+01  0.33822822382E+00  0.26046948732E+02  0.00000000000E+00 0.  1.
</event>
<event>
 7    1  0.1891413E-013  0.7246154E+02  0.7816164E-02  0.1226708E+00
        -11   -1    0    0    0    0  0.00000000000E+00  0.00000000000E+00  0.45593999997E+02  0.45594000000E+02  0.51100000000E-03 0. -1.
         11   -1    0    0    0    0 -0.00000000000E+00 -0.00000000000E+00 -0.45593999997E+02  0.45594000000E+02  0.51100000000E-03 0.  1.
    9900012    2    1    2    0    0  0.15391925112E+02 -0.10266324156E+02 -0.28933781317E+01  0.72461537244E+02  0.69999956946E+02 0.  0.
        -12    1    1    2    0    0 -0.15391925112E+02  0.10266324156E+02  0.28933781317E+01  0.18726462756E+02  0.00000000000E+00 0.  1.
         11    1    3    3    0    0  0.69564638227E+01 -0.28624790566E+01 -0.22236257776E+01  0.78441498664E+01  0.51100000000E-03 0. -1.
        -11    1    3    3    0    0 -0.23804460258E+02  0.59430297499E+01 -0.12802918156E+02  0.27674657078E+02  0.51100000000E-03 0.  1.
         12    1    3    3    0    0  0.32239921548E+02 -0.13346874849E+02  0.12133165802E+02  0.36942730300E+02  0.00000000000E+00 0. -1.
</event>
<event>
 7    1  0.1891413E-013  0.7246160E+02  0.7816164E-02  0.1226708E+00
        -11   -1    0    0    0    0  0.00000000000E+00  0.00000000000E+00  0.45593999997E+02  0.45594000000E+02  0.51100000000E-03 0. -1.
         11   -1    0    0    0    0 -0.00000000000E+00 -0.00000000000E+00 -0.45593999997E+02  0.45594000000E+02  0.51100000000E-03 0.  1.
    9900012    2    1    2    0    0  0.94229164739E+01 -0.85996302682E+01  0.13708872483E+02  0.72461596704E+02  0.70000034404E+02 0.  0.
        -12    1    1    2    0    0 -0.94229164739E+01  0.85996302682E+01 -0.13708872483E+02  0.18726403296E+02  0.00000000000E+00 0.  1.
         11    1    3    3    0    0 -0.13792960407E+02  0.14642516942E+02  0.16033886415E+02  0.25724202087E+02  0.51100000000E-03 0. -1.
        -11    1    3    3    0    0  0.19259944342E+02 -0.72226451994E+01  0.12904718208E+02  0.24282582483E+02  0.51100000000E-03 0.  1.
        -12    1    3    3    0    0  0.39559325386E+01 -0.16019502011E+02 -0.15229732140E+02  0.22454812134E+02  0.00000000000E+00 0.  1.
</event>
<event>
 7    1  0.1891413E-013  0.7246196E+02  0.7816164E-02  0.1226707E+00
        -11   -1    0    0    0    0  0.00000000000E+00  0.00000000000E+00  0.45593999997E+02  0.45594000000E+02  0.51100000000E-03 0.  1.
         11   -1    0    0    0    0 -0.00000000000E+00 -0.00000000000E+00 -0.45593999997E+02  0.45594000000E+02  0.51100000000E-03 0. -1.
    9900012    2    1    2    0    0 -0.72558273681E+01 -0.13199905850E+02  0.11125642911E+02  0.72461962634E+02  0.70000511094E+02 0.  0.
        -12    1    1    2    0    0  0.72558273681E+01  0.13199905850E+02 -0.11125642911E+02  0.18726037366E+02  0.00000000000E+00 0.  1.
         11    1    3    3    0    0  0.48602200315E+01 -0.18526702027E+02 -0.17508092569E+01  0.19233454190E+02  0.51100000000E-03 0. -1.
        -11    1    3    3    0    0 -0.48702750450E+01 -0.22425856934E+02  0.63823316260E+01  0.23819588482E+02  0.51100000000E-03 0.  1.
         12    1    3    3    0    0 -0.72457723546E+01  0.27752653111E+02  0.64941205417E+01  0.29408919962E+02  0.00000000000E+00 0. -1.
</event>
<event>
 7    1  0.1891413E-013  0.7246183E+02  0.7816164E-02  0.1226707E+00
        -11   -1    0    0    0    0  0.00000000000E+00  0.00000000000E+00  0.45593999997E+02  0.45594000000E+02  0.51100000000E-03 0.  1.
         11   -1    0    0    0    0 -0.00000000000E+00 -0.00000000000E+00 -0.45593999997E+02  0.45594000000E+02  0.51100000000E-03 0. -1.
    9900012    2    1    2    0    0 -0.35532425177E+01  0.16954448394E+02 -0.71127163572E+01  0.72461826159E+02  0.70000333310E+02 0.  0.
        -12    1    1    2    0    0  0.35532425177E+01 -0.16954448394E+02  0.71127163572E+01  0.18726173841E+02  0.00000000000E+00 0.  1.
         11    1    3    3    0    0 -0.33845262439E+02  0.22004866393E+02 -0.52135658325E+01  0.40705002193E+02  0.51100000000E-03 0. -1.
        -11    1    3    3    0    0  0.70903558550E+01  0.35188833130E+00  0.25103435518E+01  0.75298603279E+01  0.51100000000E-03 0.  1.
        -12    1    3    3    0    0  0.23201664066E+02 -0.54023063300E+01 -0.44094940766E+01  0.24226963638E+02  0.00000000000E+00 0.  1.
</event>
<event>
 7    1  0.1891413E-013  0.7246175E+02  0.7816164E-02  0.1226708E+00
        -11   -1    0    0    0    0  0.00000000000E+00  0.00000000000E+00  0.45593999997E+02  0.45594000000E+02  0.51100000000E-03 0. -1.
         11   -1    0    0    0    0 -0.00000000000E+00 -0.00000000000E+00 -0.45593999997E+02  0.45594000000E+02  0.51100000000E-03 0.  1.
    9900012    2    1    2    0    0 -0.16450001110E+02 -0.48641359225E+01  0.75106559722E+01  0.72461753502E+02  0.70000238661E+02 0.  0.
        -12    1    1    2    0    0  0.16450001110E+02  0.48641359225E+01 -0.75106559722E+01  0.18726246498E+02  0.00000000000E+00 0.  1.
         11    1    3    3    0    0 -0.33922833080E+02  0.17635950605E+01 -0.16982722031E+02  0.37977384317E+02  0.51100000000E-03 0. -1.
        -11    1    3    3    0    0 -0.14386140331E+01  0.15858634441E+01 -0.38211255884E+00  0.21749904525E+01  0.51100000000E-03 0.  1.
        -12    1    3    3    0    0  0.18911446004E+02 -0.82135944271E+01  0.24875490562E+02  0.32309378732E+02  0.00000000000E+00 0.  1.
</event>
<event>
 7    1  0.1891413E-013  0.7246155E+02  0.7816164E-02  0.1226708E+00
        -11   -1    0    0    0    0  0.00000000000E+00  0.00000000000E+00  0.45593999997E+02  0.45594000000E+02  0.51100000000E-03 0. -1.
         11   -1    0    0    0    0 -0.00000000000E+00 -0.00000000000E+00 -0.45593999997E+02  0.45594000000E+02  0.51100000000E-03 0.  1.
    9900012    2    1    2    0    0  0.73752722322E+01  0.15784335817E+02 -0.68658641100E+01  0.72461548450E+02  0.69999971544E+02 0.  0.
        -12    1    1    2    0    0 -0.73752722322E+01 -0.15784335817E+02  0.68658641100E+01  0.18726451550E+02  0.00000000000E+00 0.  1.
         11    1    3    3    0    0  0.17750018392E+02  0.29983365843E+02 -0.49399334014E+01  0.35191878644E+02  0.51100000000E-03 0. -1.
        -11    1    3    3    0    0  0.15049979628E+01 -0.42976601100E+01  0.14208600212E+02  0.14920429670E+02  0.51100000000E-03 0.  1.
        -12    1    3    3    0    0 -0.11879744123E+02 -0.99013699168E+01 -0.16134530920E+02  0.22349240136E+02  0.00000000000E+00 0.  1.
</event>
<event>
 7    1  0.1891413E-013  0.7246167E+02  0.7816164E-02  0.1226708E+00
        -11   -1    0    0    0    0  0.00000000000E+00  0.00000000000E+00  0.45593999997E+02  0.45594000000E+02  0.51100000000E-03 0. -1.
         11   -1    0    0    0    0 -0.00000000000E+00 -0.00000000000E+00 -0.45593999997E+02  0.45594000000E+02  0.51100000000E-03 0.  1.
    9900012    2    1    2    0    0 -0.15972382356E+02  0.46077418841E+01 -0.86213136100E+01  0.72461672764E+02  0.70000133486E+02 0.  0.
        -12    1    1    2    0    0  0.15972382356E+02 -0.46077418841E+01  0.86213136100E+01  0.18726327236E+02  0.00000000000E+00 0.  1.
         11    1    3    3    0    0  0.65916687740E+00  0.47259508425E+01 -0.15004840236E+02  0.15745295905E+02  0.51100000000E-03 0. -1.
        -11    1    3    3    0    0  0.92887232811E+01  0.20962177126E+02  0.32978618875E+01  0.23163962169E+02  0.51100000000E-03 0.  1.
         12    1    3    3    0    0 -0.25920272514E+02 -0.21080386085E+02  0.30856647390E+01  0.33552414691E+02  0.00000000000E+00 0. -1.
</event>
<event>
 7    1  0.1891413E-013  0.7246157E+02  0.7816164E-02  0.1226708E+00
        -11   -1    0    0    0    0  0.00000000000E+00  0.00000000000E+00  0.45593999997E+02  0.45594000000E+02  0.51100000000E-03 0. -1.
         11   -1    0    0    0    0 -0.00000000000E+00 -0.00000000000E+00 -0.45593999997E+02  0.45594000000E+02  0.51100000000E-03 0.  1.
    9900012    2    1    2    0    0  0.74818105331E+01 -0.10097334119E+02  0.13883277085E+02  0.72461574079E+02  0.70000004931E+02 0.  0.
        -12    1    1    2    0    0 -0.74818105331E+01  0.10097334119E+02 -0.13883277085E+02  0.18726425921E+02  0.00000000000E+00 0.  1.
         11    1    3    3    0    0  0.10857200236E+02 -0.95849626155E+01  0.94699300833E+00  0.14513686690E+02  0.51100000000E-03 0. -1.
        -11    1    3    3    0    0  0.23062703445E+02 -0.13747005818E+02  0.47085757795E+01  0.27258744382E+02  0.51100000000E-03 0.  1.
         12    1    3    3    0    0 -0.26438093148E+02  0.13234634315E+02  0.82277082969E+01  0.30689143008E+02  0.00000000000E+00 0. -1.
</event>
<event>
 7    1  0.1998015E-013  0.7246165E+02  0.7816164E-02  0.1226708E+00
        -11   -1    0    0    0    0  0.00000000000E+00  0.00000000000E+00  0.45593999997E+02  0.45594000000E+02  0.51100000000E-03 0. -1.
         11   -1    0    0    0    0 -0.00000000000E+00 -0.00000000000E+00 -0.45593999997E+02  0.45594000000E+02  0.51100000000E-03 0.  1.
    9900012    2    1    2    0    0 -0.54190957228E+01  0.57853164369E+01  0.16965837176E+02  0.72461651829E+02  0.70000106214E+02 0.  0.
        -12    1    1    2    0    0  0.54190957228E+01 -0.57853164369E+01 -0.16965837176E+02  0.18726348171E+02  0.00000000000E+00 0.  1.
         11    1    3    3    0    0 -0.59858388088E+01  0.31869853199E+01 -0.66016911415E+01  0.94641147427E+01  0.51100000000E-03 0.  1.
        -11    1    3    3    0    0  0.19623129002E+02 -0.11904461785E+02 -0.71579375806E+01  0.24042035539E+02  0.51100000000E-03 0. -1.
         12    1    3    3    0    0 -0.19056385916E+02  0.14502792902E+02  0.30725465899E+02  0.38955501547E+02  0.00000000000E+00 0. -1.
</event>
<event>
 7    1  0.1891413E-013  0.7246170E+02  0.7816164E-02  0.1226708E+00
        -11   -1    0    0    0    0  0.00000000000E+00  0.00000000000E+00  0.45593999997E+02  0.45594000000E+02  0.51100000000E-03 0.  1.
         11   -1    0    0    0    0 -0.00000000000E+00 -0.00000000000E+00 -0.45593999997E+02  0.45594000000E+02  0.51100000000E-03 0. -1.
    9900012    2    1    2    0    0 -0.17357536935E+02  0.70272608640E+01  0.89242931361E-01  0.72461696360E+02  0.70000164224E+02 0.  0.
        -12    1    1    2    0    0  0.17357536935E+02 -0.70272608640E+01 -0.89242931361E-01  0.18726303640E+02  0.00000000000E+00 0.  1.
         11    1    3    3    0    0 -0.21742687873E+02 -0.14793328550E+02 -0.61764835071E+01  0.27013626086E+02  0.51100000000E-03 0. -1.
        -11    1    3    3    0    0  0.66173097942E+01  0.93049510546E+01 -0.16090404016E+02  0.19729977312E+02  0.51100000000E-03 0.  1.
        -12    1    3    3    0    0 -0.22321588566E+01  0.12515638360E+02  0.22356130455E+02  0.25718092962E+02  0.00000000000E+00 0.  1.
</event>
<event>
 7    1  0.1891413E-013  0.7246155E+02  0.7816164E-02  0.1226708E+00
        -11   -1    0    0    0    0  0.00000000000E+00  0.00000000000E+00  0.45593999997E+02  0.45594000000E+02  0.51100000000E-03 0.  1.
         11   -1    0    0    0    0 -0.00000000000E+00 -0.00000000000E+00 -0.45593999997E+02  0.45594000000E+02  0.51100000000E-03 0. -1.
    9900012    2    1    2    0    0  0.90257418224E+01  0.16178596799E+02  0.27329341737E+01  0.72461549748E+02  0.69999973235E+02 0.  0.
        -12    1    1    2    0    0 -0.90257418224E+01 -0.16178596799E+02 -0.27329341737E+01  0.18726450252E+02  0.00000000000E+00 0.  1.
         11    1    3    3    0    0 -0.14201228676E+02  0.52489359347E+01  0.17429913739E+02  0.23087401707E+02  0.51100000000E-03 0. -1.
        -11    1    3    3    0    0 -0.89458517560E+01 -0.55775446571E+01 -0.61950355175E+01  0.12227662629E+02  0.51100000000E-03 0.  1.
         12    1    3    3    0    0  0.32172822254E+02  0.16507205521E+02 -0.85019440477E+01  0.37146485413E+02  0.00000000000E+00 0. -1.
</event>
<event>
 7    1  0.1891413E-013  0.7246160E+02  0.7816164E-02  0.1226708E+00
        -11   -1    0    0    0    0  0.00000000000E+00  0.00000000000E+00  0.45593999997E+02  0.45594000000E+02  0.51100000000E-03 0.  1.
         11   -1    0    0    0    0 -0.00000000000E+00 -0.00000000000E+00 -0.45593999997E+02  0.45594000000E+02  0.51100000000E-03 0. -1.
    9900012    2    1    2    0    0 -0.16096655593E+02 -0.64782191853E+01 -0.70433306403E+01  0.72461597473E+02  0.70000035405E+02 0.  0.
        -12    1    1    2    0    0  0.16096655593E+02  0.64782191853E+01  0.70433306403E+01  0.18726402527E+02  0.00000000000E+00 0.  1.
         11    1    3    3    0    0  0.84187121901E+01  0.94652108097E+01 -0.60845216578E+01  0.14052983124E+02  0.51100000000E-03 0. -1.
        -11    1    3    3    0    0  0.79425097343E+01  0.43586728998E+01  0.14519081511E+02  0.17113889637E+02  0.51100000000E-03 0.  1.
         12    1    3    3    0    0 -0.32457877518E+02 -0.20302102895E+02 -0.15477890494E+02  0.41294724712E+02  0.00000000000E+00 0. -1.
</event>
<event>
 7    1  0.1891413E-013  0.7246161E+02  0.7816164E-02  0.1226708E+00
        -11   -1    0    0    0    0  0.00000000000E+00  0.00000000000E+00  0.45593999997E+02  0.45594000000E+02  0.51100000000E-03 0. -1.
         11   -1    0    0    0    0 -0.00000000000E+00 -0.00000000000E+00 -0.45593999997E+02  0.45594000000E+02  0.51100000000E-03 0.  1.
    9900012    2    1    2    0    0  0.13339346931E+02 -0.69818962948E+01  0.11135193024E+02  0.72461612839E+02  0.70000055422E+02 0.  0.
        -12    1    1    2    0    0 -0.13339346931E+02  0.69818962948E+01 -0.11135193024E+02  0.18726387161E+02  0.00000000000E+00 0.  1.
         11    1    3    3    0    0  0.52840024328E+01  0.12973412358E+02  0.18577019104E+02  0.23266623068E+02  0.51100000000E-03 0. -1.
        -11    1    3    3    0    0  0.50538989037E+01 -0.14506801549E+02  0.17617892015E+02  0.23374757852E+02  0.51100000000E-03 0.  1.
        -12    1    3    3    0    0  0.30014455949E+01 -0.54485071040E+01 -0.25059718096E+02  0.25820231919E+02  0.00000000000E+00 0.  1.
</event>
<event>
 7    1  0.1891413E-013  0.7246191E+02  0.7816164E-02  0.1226707E+00
        -11   -1    0    0    0    0  0.00000000000E+00  0.00000000000E+00  0.45593999997E+02  0.45594000000E+02  0.51100000000E-03 0. -1.
         11   -1    0    0    0    0 -0.00000000000E+00 -0.00000000000E+00 -0.45593999997E+02  0.45594000000E+02  0.51100000000E-03 0.  1.
    9900012    2    1    2    0    0  0.66445707099E+01  0.79436446949E+01  0.15601747694E+02  0.72461912794E+02  0.70000446168E+02 0.  0.
        -12    1    1    2    0    0 -0.66445707099E+01 -0.79436446949E+01 -0.15601747694E+02  0.18726087206E+02  0.00000000000E+00 0.  1.
         11    1    3    3    0    0 -0.66238963874E+01 -0.14895245603E+02 -0.48512375101E+01  0.17008199509E+02  0.51100000000E-03 0. -1.
        -11    1    3    3    0    0 -0.69866915372E+01 -0.31498567807E+01  0.21150888112E+02  0.22496566951E+02  0.51100000000E-03 0.  1.
         12    1    3    3    0    0  0.20255158634E+02  0.25988747078E+02 -0.69790290856E+00  0.32957146334E+02  0.00000000000E+00 0. -1.
</event>
<event>
 7    1  0.1891413E-013  0.7246158E+02  0.7816164E-02  0.1226708E+00
        -11   -1    0    0    0    0  0.00000000000E+00  0.00000000000E+00  0.45593999997E+02  0.45594000000E+02  0.51100000000E-03 0.  1.
         11   -1    0    0    0    0 -0.00000000000E+00 -0.00000000000E+00 -0.45593999997E+02  0.45594000000E+02  0.51100000000E-03 0. -1.
    9900012    2    1    2    0    0 -0.48371516809E+01  0.91796815913E+01 -0.15588914539E+02  0.72461578905E+02  0.70000011217E+02 0.  0.
        -12    1    1    2    0    0  0.48371516809E+01 -0.91796815913E+01  0.15588914539E+02  0.18726421095E+02  0.00000000000E+00 0.  1.
         11    1    3    3    0    0  0.31348004720E+01 -0.19683806264E+02 -0.40932878810E+01  0.20347830572E+02  0.51100000000E-03 0.  1.
        -11    1    3    3    0    0 -0.17862758737E+02  0.30057098625E+01  0.63281832544E+01  0.19187452802E+02  0.51100000000E-03 0. -1.
        -12    1    3    3    0    0  0.98908065841E+01  0.25857777993E+02 -0.17823809913E+02  0.32926295531E+02  0.00000000000E+00 0.  1.
</event>
<event>
 7    1  0.1891413E-013  0.7246146E+02  0.7816164E-02  0.1226708E+00
        -11   -1    0    0    0    0  0.00000000000E+00  0.00000000000E+00  0.45593999997E+02  0.45594000000E+02  0.51100000000E-03 0.  1.
         11   -1    0    0    0    0 -0.00000000000E+00 -0.00000000000E+00 -0.45593999997E+02  0.45594000000E+02  0.51100000000E-03 0. -1.
    9900012    2    1    2    0    0 -0.22321271105E+01 -0.18480080070E+02 -0.20463713685E+01  0.72461457697E+02  0.69999853321E+02 0.  0.
        -12    1    1    2    0    0  0.22321271105E+01  0.18480080070E+02  0.20463713685E+01  0.18726542303E+02  0.00000000000E+00 0.  1.
         11    1    3    3    0    0  0.98249232876E+01  0.19166326046E+02  0.86594592983E+01  0.23213431615E+02  0.51100000000E-03 0. -1.
        -11    1    3    3    0    0  0.59255868971E+01 -0.68368048052E+01  0.49241689199E+01  0.10300578616E+02  0.51100000000E-03 0.  1.
        -12    1    3    3    0    0 -0.17982637295E+02 -0.30809601311E+02 -0.15629999587E+02  0.38947447466E+02  0.00000000000E+00 0.  1.
</event>
<event>
 7    1  0.1891413E-013  0.7246159E+02  0.7816164E-02  0.1226708E+00
        -11   -1    0    0    0    0  0.00000000000E+00  0.00000000000E+00  0.45593999997E+02  0.45594000000E+02  0.51100000000E-03 0. -1.
         11   -1    0    0    0    0 -0.00000000000E+00 -0.00000000000E+00 -0.45593999997E+02  0.45594000000E+02  0.51100000000E-03 0.  1.
    9900012    2    1    2    0    0 -0.41093131953E+01  0.74706727285E+01  0.16672758399E+02  0.72461594082E+02  0.70000030988E+02 0.  0.
        -12    1    1    2    0    0  0.41093131953E+01 -0.74706727285E+01 -0.16672758399E+02  0.18726405918E+02  0.00000000000E+00 0.  1.
         11    1    3    3    0    0  0.43678785138E+01 -0.78584276536E+01  0.66355173402E+01  0.11174226529E+02  0.51100000000E-03 0. -1.
        -11    1    3    3    0    0  0.62370155791E+01 -0.15332062379E+02 -0.12279748164E+02  0.20609820848E+02  0.51100000000E-03 0.  1.
         12    1    3    3    0    0 -0.14714207288E+02  0.30661162761E+02  0.22316989223E+02  0.40677546705E+02  0.00000000000E+00 0. -1.
</event>
<event>
 7    1  0.1891413E-013  0.7246155E+02  0.7816164E-02  0.1226708E+00
        -11   -1    0    0    0    0  0.00000000000E+00  0.00000000000E+00  0.45593999997E+02  0.45594000000E+02  0.51100000000E-03 0. -1.
         11   -1    0    0    0    0 -0.00000000000E+00 -0.00000000000E+00 -0.45593999997E+02  0.45594000000E+02  0.51100000000E-03 0.  1.
    9900012    2    1    2    0    0 -0.12852917745E+02  0.13403157483E+02  0.24161348113E+01  0.72461552593E+02  0.69999976940E+02 0.  0.
        -12    1    1    2    0    0  0.12852917745E+02 -0.13403157483E+02 -0.24161348113E+01  0.18726447407E+02  0.00000000000E+00 0.  1.
         11    1    3    3    0    0 -0.71252318495E+01  0.27322722161E+02  0.10945468728E+02  0.30283714453E+02  0.51100000000E-03 0. -1.
        -11    1    3    3    0    0  0.36760026589E+01  0.12158080416E+02  0.12941327392E+01  0.12767407519E+02  0.51100000000E-03 0.  1.
        -12    1    3    3    0    0 -0.94036885548E+01 -0.26077645094E+02 -0.98234666555E+01  0.29410430620E+02  0.00000000000E+00 0.  1.
</event>
<event>
 7    1  0.1891413E-013  0.7246154E+02  0.7816164E-02  0.1226708E+00
        -11   -1    0    0    0    0  0.00000000000E+00  0.00000000000E+00  0.45593999997E+02  0.45594000000E+02  0.51100000000E-03 0. -1.
         11   -1    0    0    0    0 -0.00000000000E+00 -0.00000000000E+00 -0.45593999997E+02  0.45594000000E+02  0.51100000000E-03 0.  1.
    9900012    2    1    2    0    0  0.11040042507E+02  0.40076797099E+01 -0.14585482714E+02  0.72461539010E+02  0.69999959247E+02 0.  0.
        -12    1    1    2    0    0 -0.11040042507E+02 -0.40076797099E+01  0.14585482714E+02  0.18726460990E+02  0.00000000000E+00 0.  1.
         11    1    3    3    0    0 -0.21312175245E+02 -0.10005081096E+02 -0.19834457693E+01  0.23627198708E+02  0.51100000000E-03 0. -1.
        -11    1    3    3    0    0 -0.29125354095E+01 -0.11144369164E+01  0.55646710367E+01  0.63789024260E+01  0.51100000000E-03 0.  1.
        -12    1    3    3    0    0  0.35264753161E+02  0.15127197722E+02 -0.18166707981E+02  0.42455437877E+02  0.00000000000E+00 0.  1.
</event>
<event>
 7    1  0.1891413E-013  0.7246160E+02  0.7816164E-02  0.1226708E+00
        -11   -1    0    0    0    0  0.00000000000E+00  0.00000000000E+00  0.45593999997E+02  0.45594000000E+02  0.51100000000E-03 0.  1.
         11   -1    0    0    0    0 -0.00000000000E+00 -0.00000000000E+00 -0.45593999997E+02  0.45594000000E+02  0.51100000000E-03 0. -1.
    9900012    2    1    2    0    0 -0.63185889465E+01  0.17619734097E+02 -0.54633438495E+00  0.72461599460E+02  0.70000037993E+02 0.  0.
        -12    1    1    2    0    0  0.63185889465E+01 -0.17619734097E+02  0.54633438495E+00  0.18726400540E+02  0.00000000000E+00 0.  1.
         11    1    3    3    0    0 -0.14224856943E+01  0.14207098960E+02 -0.13583912510E+01  0.14342606230E+02  0.51100000000E-03 0. -1.
        -11    1    3    3    0    0 -0.18179790215E+02  0.23031331207E+02  0.12266304590E+02  0.31802660549E+02  0.51100000000E-03 0.  1.
        -12    1    3    3    0    0  0.13283686963E+02 -0.19618696070E+02 -0.11454247724E+02  0.26316332680E+02  0.00000000000E+00 0.  1.
</event>
<event>
 7    1  0.1891413E-013  0.7246155E+02  0.7816164E-02  0.1226708E+00
        -11   -1    0    0    0    0  0.00000000000E+00  0.00000000000E+00  0.45593999997E+02  0.45594000000E+02  0.51100000000E-03 0.  1.
         11   -1    0    0    0    0 -0.00000000000E+00 -0.00000000000E+00 -0.45593999997E+02  0.45594000000E+02  0.51100000000E-03 0. -1.
    9900012    2    1    2    0    0 -0.17830896494E+02  0.53362584855E+01  0.20648193321E+01  0.72461548032E+02  0.69999971000E+02 0.  0.
        -12    1    1    2    0    0  0.17830896494E+02 -0.53362584855E+01 -0.20648193321E+01  0.18726451968E+02  0.00000000000E+00 0.  1.
         11    1    3    3    0    0 -0.21591281455E+01 -0.21719710808E+02  0.17411403153E+02  0.27920684661E+02  0.51100000000E-03 0. -1.
        -11    1    3    3    0    0 -0.96699817012E+01  0.95584197652E+01  0.71931495679E+01  0.15382240912E+02  0.51100000000E-03 0.  1.
         12    1    3    3    0    0 -0.60017866478E+01  0.17497549528E+02 -0.22539733389E+02  0.29158622459E+02  0.00000000000E+00 0. -1.
</event>
<event>
 7    1  0.1891413E-013  0.7246142E+02  0.7816164E-02  0.1226708E+00
        -11   -1    0    0    0    0  0.00000000000E+00  0.00000000000E+00  0.45593999997E+02  0.45594000000E+02  0.51100000000E-03 0.  1.
         11   -1    0    0    0    0 -0.00000000000E+00 -0.00000000000E+00 -0.45593999997E+02  0.45594000000E+02  0.51100000000E-03 0. -1.
    9900012    2    1    2    0    0  0.77720859389E+01 -0.15398914098E+02 -0.72906025089E+01  0.72461421023E+02  0.69999805546E+02 0.  0.
        -12    1    1    2    0    0 -0.77720859389E+01  0.15398914098E+02  0.72906025089E+01  0.18726578977E+02  0.00000000000E+00 0.  1.
         11    1    3    3    0    0 -0.15772403617E+02  0.38828495308E+01  0.40492089775E+01  0.16740410089E+02  0.51100000000E-03 0. -1.
        -11    1    3    3    0    0  0.78706306964E+01 -0.63707248004E+00  0.16764045179E+02  0.18530674568E+02  0.51100000000E-03 0.  1.
         12    1    3    3    0    0  0.15673858860E+02 -0.18644691148E+02 -0.28103856666E+02  0.37190336367E+02  0.00000000000E+00 0. -1.
</event>
<event>
 7    1  0.1891413E-013  0.7246193E+02  0.7816164E-02  0.1226707E+00
        -11   -1    0    0    0    0  0.00000000000E+00  0.00000000000E+00  0.45593999997E+02  0.45594000000E+02  0.51100000000E-03 0.  1.
         11   -1    0    0    0    0 -0.00000000000E+00 -0.00000000000E+00 -0.45593999997E+02  0.45594000000E+02  0.51100000000E-03 0. -1.
    9900012    2    1    2    0    0 -0.15118211507E+02  0.69678476646E+01 -0.85763940321E+01  0.72461928473E+02  0.70000466593E+02 0.  0.
        -12    1    1    2    0    0  0.15118211507E+02 -0.69678476646E+01  0.85763940321E+01  0.18726071527E+02  0.00000000000E+00 0.  1.
         11    1    3    3    0    0 -0.13272420929E+02  0.36113307035E+02 -0.59732140973E+01  0.38935939558E+02  0.51100000000E-03 0. -1.
        -11    1    3    3    0    0 -0.74851759043E+01 -0.62255327582E+01  0.32725719490E+00  0.97412634691E+01  0.51100000000E-03 0.  1.
        -12    1    3    3    0    0  0.56393853268E+01 -0.22919926612E+02 -0.29304371297E+01  0.23784725446E+02  0.00000000000E+00 0.  1.
</event>
<event>
 7    1  0.1891413E-013  0.7246150E+02  0.7816164E-02  0.1226708E+00
        -11   -1    0    0    0    0  0.00000000000E+00  0.00000000000E+00  0.45593999997E+02  0.45594000000E+02  0.51100000000E-03 0. -1.
         11   -1    0    0    0    0 -0.00000000000E+00 -0.00000000000E+00 -0.45593999997E+02  0.45594000000E+02  0.51100000000E-03 0.  1.
    9900012    2    1    2    0    0 -0.58718740050E+01  0.24448594120E+01  0.17613223740E+02  0.72461497593E+02  0.69999905294E+02 0.  0.
        -12    1    1    2    0    0  0.58718740050E+01 -0.24448594120E+01 -0.17613223740E+02  0.18726502407E+02  0.00000000000E+00 0.  1.
         11    1    3    3    0    0 -0.11041867211E+02 -0.13899599840E+02  0.91400364716E+01  0.19966521334E+02  0.51100000000E-03 0. -1.
        -11    1    3    3    0    0  0.10536260942E+02 -0.12575998445E+02  0.15151332555E+02  0.22332295224E+02  0.51100000000E-03 0.  1.
        -12    1    3    3    0    0 -0.53662677355E+01  0.28920457697E+02 -0.66781452865E+01  0.30162681036E+02  0.00000000000E+00 0.  1.
</event>
<event>
 7    1  0.1891413E-013  0.7246156E+02  0.7816164E-02  0.1226708E+00
        -11   -1    0    0    0    0  0.00000000000E+00  0.00000000000E+00  0.45593999997E+02  0.45594000000E+02  0.51100000000E-03 0.  1.
         11   -1    0    0    0    0 -0.00000000000E+00 -0.00000000000E+00 -0.45593999997E+02  0.45594000000E+02  0.51100000000E-03 0. -1.
    9900012    2    1    2    0    0 -0.12082181321E+02 -0.10113185766E+02 -0.10120478753E+02  0.72461555543E+02  0.69999980784E+02 0.  0.
        -12    1    1    2    0    0  0.12082181321E+02  0.10113185766E+02  0.10120478753E+02  0.18726444457E+02  0.00000000000E+00 0.  1.
         11    1    3    3    0    0  0.13977752505E+02 -0.21101905508E+01 -0.27343932327E+02  0.30781830755E+02  0.51100000000E-03 0. -1.
        -11    1    3    3    0    0 -0.13251618292E+02 -0.48943116682E+01 -0.57033256706E+01  0.15234421487E+02  0.51100000000E-03 0.  1.
        -12    1    3    3    0    0 -0.12808315534E+02 -0.31086835469E+01  0.22926779244E+02  0.26445303302E+02  0.00000000000E+00 0.  1.
</event>
<event>
 7    1  0.1891413E-013  0.7246153E+02  0.7816164E-02  0.1226708E+00
        -11   -1    0    0    0    0  0.00000000000E+00  0.00000000000E+00  0.45593999997E+02  0.45594000000E+02  0.51100000000E-03 0.  1.
         11   -1    0    0    0    0 -0.00000000000E+00 -0.00000000000E+00 -0.45593999997E+02  0.45594000000E+02  0.51100000000E-03 0. -1.
    9900012    2    1    2    0    0 -0.77020557855E+01 -0.18878258584E+01 -0.16964520984E+02  0.72461534182E+02  0.69999952957E+02 0.  0.
        -12    1    1    2    0    0  0.77020557855E+01  0.18878258584E+01  0.16964520984E+02  0.18726465818E+02  0.00000000000E+00 0.  1.
         11    1    3    3    0    0 -0.22684621127E+02 -0.32395852088E+01 -0.19220955579E+02  0.29908729188E+02  0.51100000000E-03 0. -1.
        -11    1    3    3    0    0 -0.84368282148E+01 -0.12649467980E+02  0.58788368710E+00  0.15216264916E+02  0.51100000000E-03 0.  1.
        -12    1    3    3    0    0  0.23419393556E+02  0.14001227330E+02  0.16685509079E+01  0.27336540078E+02  0.00000000000E+00 0.  1.
</event>
<event>
 7    1  0.1891413E-013  0.7246165E+02  0.7816164E-02  0.1226708E+00
        -11   -1    0    0    0    0  0.00000000000E+00  0.00000000000E+00  0.45593999997E+02  0.45594000000E+02  0.51100000000E-03 0. -1.
         11   -1    0    0    0    0 -0.00000000000E+00 -0.00000000000E+00 -0.45593999997E+02  0.45594000000E+02  0.51100000000E-03 0.  1.
    9900012    2    1    2    0    0  0.50226908971E+00  0.15456032538E+02 -0.10561010510E+02  0.72461650675E+02  0.70000104711E+02 0.  0.
        -12    1    1    2    0    0 -0.50226908971E+00 -0.15456032538E+02  0.10561010510E+02  0.18726349325E+02  0.00000000000E+00 0.  1.
         11    1    3    3    0    0  0.17074871132E+02  0.22338710974E+02 -0.18017050778E+02  0.33394361068E+02  0.51100000000E-03 0. -1.
        -11    1    3    3    0    0 -0.13521561854E+01  0.88896988537E+01 -0.81696818045E+01  0.12149023545E+02  0.51100000000E-03 0.  1.
        -12    1    3    3    0    0 -0.15220445857E+02 -0.15772377290E+02  0.15625722073E+02  0.26918266061E+02  0.00000000000E+00 0.  1.
</event>
<event>
 7    1  0.1891413E-013  0.7246175E+02  0.7816164E-02  0.1226708E+00
        -11   -1    0    0    0    0  0.00000000000E+00  0.00000000000E+00  0.45593999997E+02  0.45594000000E+02  0.51100000000E-03 0. -1.
         11   -1    0    0    0    0 -0.00000000000E+00 -0.00000000000E+00 -0.45593999997E+02  0.45594000000E+02  0.51100000000E-03 0.  1.
    9900012    2    1    2    0    0 -0.60825473562E+01  0.13970505251E+02  0.10885769087E+02  0.72461751900E+02  0.70000236574E+02 0.  0.
        -12    1    1    2    0    0  0.60825473562E+01 -0.13970505251E+02 -0.10885769087E+02  0.18726248100E+02  0.00000000000E+00 0.  1.
         11    1    3    3    0    0  0.71191774699E+01 -0.59940018743E+01  0.14737159443E+02  0.17429704961E+02  0.51100000000E-03 0. -1.
        -11    1    3    3    0    0 -0.29690915696E+02  0.38800462672E+01  0.49945999631E+01  0.30357062818E+02  0.51100000000E-03 0.  1.
        -12    1    3    3    0    0  0.16489190869E+02  0.16084460858E+02 -0.88459903192E+01  0.24674984120E+02  0.00000000000E+00 0.  1.
</event>
<event>
 7    1  0.1891413E-013  0.7246153E+02  0.7816164E-02  0.1226708E+00
        -11   -1    0    0    0    0  0.00000000000E+00  0.00000000000E+00  0.45593999997E+02  0.45594000000E+02  0.51100000000E-03 0.  1.
         11   -1    0    0    0    0 -0.00000000000E+00 -0.00000000000E+00 -0.45593999997E+02  0.45594000000E+02  0.51100000000E-03 0. -1.
    9900012    2    1    2    0    0  0.61202836555E+01 -0.13032864794E+02 -0.11973605564E+02  0.72461530312E+02  0.69999947916E+02 0.  0.
        -12    1    1    2    0    0 -0.61202836555E+01  0.13032864794E+02  0.11973605564E+02  0.18726469688E+02  0.00000000000E+00 0.  1.
         11    1    3    3    0    0  0.10500223280E+02  0.18157605180E+02 -0.76603461285E+01  0.22330119074E+02  0.51100000000E-03 0. -1.
        -11    1    3    3    0    0 -0.14852194516E+02  0.96972276583E+00  0.37758032021E+01  0.15355283594E+02  0.51100000000E-03 0.  1.
        -12    1    3    3    0    0  0.10472254892E+02 -0.32160192740E+02 -0.80890626372E+01  0.34776127644E+02  0.00000000000E+00 0.  1.
</event>
<event>
 7    1  0.1891413E-013  0.7246165E+02  0.7816164E-02  0.1226708E+00
        -11   -1    0    0    0    0  0.00000000000E+00  0.00000000000E+00  0.45593999997E+02  0.45594000000E+02  0.51100000000E-03 0.  1.
         11   -1    0    0    0    0 -0.00000000000E+00 -0.00000000000E+00 -0.45593999997E+02  0.45594000000E+02  0.51100000000E-03 0. -1.
    9900012    2    1    2    0    0  0.74805806104E+01 -0.91830005546E+01 -0.14504815741E+02  0.72461647842E+02  0.70000101021E+02 0.  0.
        -12    1    1    2    0    0 -0.74805806104E+01  0.91830005546E+01  0.14504815741E+02  0.18726352158E+02  0.00000000000E+00 0.  1.
         11    1    3    3    0    0  0.32331140900E+02  0.56353832843E+01 -0.14609707857E+02  0.35923582513E+02  0.51100000000E-03 0. -1.
        -11    1    3    3    0    0 -0.12899843279E+02 -0.15187505633E+02  0.87708339505E+01  0.21771398955E+02  0.51100000000E-03 0.  1.
        -12    1    3    3    0    0 -0.11950717010E+02  0.36912179446E+00 -0.86659418346E+01  0.14766666375E+02  0.00000000000E+00 0.  1.
</event>
<event>
 7    1  0.1891413E-013  0.7246132E+02  0.7816164E-02  0.1226709E+00
        -11   -1    0    0    0    0  0.00000000000E+00  0.00000000000E+00  0.45593999997E+02  0.45594000000E+02  0.51100000000E-03 0. -1.
         11   -1    0    0    0    0 -0.00000000000E+00 -0.00000000000E+00 -0.45593999997E+02  0.45594000000E+02  0.51100000000E-03 0.  1.
    9900012    2    1    2    0    0  0.76691337510E+00 -0.16225079510E+02  0.93191934068E+01  0.72461315109E+02  0.69999667574E+02 0.  0.
        -12    1    1    2    0    0 -0.76691337510E+00  0.16225079510E+02 -0.93191934068E+01  0.18726684891E+02  0.00000000000E+00 0.  1.
         11    1    3    3    0    0  0.63717395759E+01 -0.97177737000E+01 -0.37839054451E+00  0.11626580347E+02  0.51100000000E-03 0. -1.
        -11    1    3    3    0    0  0.18022618594E+02 -0.57627758909E+01 -0.16815370397E+02  0.25313653407E+02  0.51100000000E-03 0.  1.
         12    1    3    3    0    0 -0.23627444795E+02 -0.74452991918E+00  0.26512954349E+02  0.35521081355E+02  0.00000000000E+00 0. -1.
</event>
<event>
 7    1  0.1891413E-013  0.7246161E+02  0.7816164E-02  0.1226708E+00
        -11   -1    0    0    0    0  0.00000000000E+00  0.00000000000E+00  0.45593999997E+02  0.45594000000E+02  0.51100000000E-03 0.  1.
         11   -1    0    0    0    0 -0.00000000000E+00 -0.00000000000E+00 -0.45593999997E+02  0.45594000000E+02  0.51100000000E-03 0. -1.
    9900012    2    1    2    0    0  0.16764957011E+02 -0.72440655276E+01  0.41397207989E+01  0.72461613343E+02  0.70000056078E+02 0.  0.
        -12    1    1    2    0    0 -0.16764957011E+02  0.72440655276E+01 -0.41397207989E+01  0.18726386657E+02  0.00000000000E+00 0.  1.
         11    1    3    3    0    0  0.54100761638E+01  0.68191773369E+00  0.12182822776E+02  0.13347475677E+02  0.51100000000E-03 0. -1.
        -11    1    3    3    0    0 -0.45553313839E-01  0.24284795395E+02 -0.15528247196E+01  0.24334432957E+02  0.51100000000E-03 0.  1.
         12    1    3    3    0    0  0.11400434161E+02 -0.32210778656E+02 -0.64902772575E+01  0.34779704708E+02  0.00000000000E+00 0. -1.
</event>
<event>
 7    1  0.1891413E-013  0.7246163E+02  0.7816164E-02  0.1226708E+00
        -11   -1    0    0    0    0  0.00000000000E+00  0.00000000000E+00  0.45593999997E+02  0.45594000000E+02  0.51100000000E-03 0.  1.
         11   -1    0    0    0    0 -0.00000000000E+00 -0.00000000000E+00 -0.45593999997E+02  0.45594000000E+02  0.51100000000E-03 0. -1.
    9900012    2    1    2    0    0 -0.17345350752E+02 -0.39758481326E+00 -0.70468280808E+01  0.72461626823E+02  0.70000073639E+02 0.  0.
        -12    1    1    2    0    0  0.17345350752E+02  0.39758481326E+00  0.70468280808E+01  0.18726373177E+02  0.00000000000E+00 0.  1.
         11    1    3    3    0    0 -0.17455548287E+02  0.11127780076E+02 -0.18933222420E+02  0.28053352150E+02  0.51100000000E-03 0. -1.
        -11    1    3    3    0    0 -0.39700807321E+01  0.15221955030E+02  0.43428397522E+01  0.16319611311E+02  0.51100000000E-03 0.  1.
        -12    1    3    3    0    0  0.40802782671E+01 -0.26747319920E+02  0.75435545866E+01  0.28088663362E+02  0.00000000000E+00 0.  1.
</event>
<event>
 7    1  0.1891413E-013  0.7246157E+02  0.7816164E-02  0.1226708E+00
        -11   -1    0    0    0    0  0.00000000000E+00  0.00000000000E+00  0.45593999997E+02  0.45594000000E+02  0.51100000000E-03 0. -1.
         11   -1    0    0    0    0 -0.00000000000E+00 -0.00000000000E+00 -0.45593999997E+02  0.45594000000E+02  0.51100000000E-03 0.  1.
    9900012    2    1    2    0    0 -0.66899826453E+01  0.57465702393E+00  0.17481217887E+02  0.72461572757E+02  0.70000003208E+02 0.  0.
        -12    1    1    2    0    0  0.66899826453E+01 -0.57465702393E+00 -0.17481217887E+02  0.18726427243E+02  0.00000000000E+00 0.  1.
         11    1    3    3    0    0  0.14460905128E+02  0.10868473566E+02  0.33499897145E+02  0.38072097444E+02  0.51100000000E-03 0. -1.
        -11    1    3    3    0    0  0.29046473611E+01 -0.26322256350E+01  0.86990190487E+00  0.40152605982E+01  0.51100000000E-03 0.  1.
        -12    1    3    3    0    0 -0.24055535134E+02 -0.76615909074E+01 -0.16888581163E+02  0.30374214714E+02  0.00000000000E+00 0.  1.
</event>
<event>
 7    1  0.1891413E-013  0.7246160E+02  0.7816164E-02  0.1226708E+00
        -11   -1    0    0    0    0  0.00000000000E+00  0.00000000000E+00  0.45593999997E+02  0.45594000000E+02  0.51100000000E-03 0.  1.
         11   -1    0    0    0    0 -0.00000000000E+00 -0.00000000000E+00 -0.45593999997E+02  0.45594000000E+02  0.51100000000E-03 0. -1.
    9900012    2    1    2    0    0 -0.18463594963E+02 -0.22734247791E+01 -0.21459527652E+01  0.72461603859E+02  0.70000043724E+02 0.  0.
        -12    1    1    2    0    0  0.18463594963E+02  0.22734247791E+01  0.21459527652E+01  0.18726396141E+02  0.00000000000E+00 0.  1.
         11    1    3    3    0    0  0.87260082578E+01 -0.34624996731E+01  0.94292139799E+01  0.13305720598E+02  0.51100000000E-03 0.  1.
        -11    1    3    3    0    0  0.12444992013E+02 -0.10918215351E+02 -0.38976825435E+01  0.17008150462E+02  0.51100000000E-03 0. -1.
         12    1    3    3    0    0 -0.39634595234E+02  0.12107290245E+02 -0.76774842016E+01  0.42147732799E+02  0.00000000000E+00 0. -1.
</event>
<event>
 7    1  0.1891413E-013  0.7246155E+02  0.7816164E-02  0.1226708E+00
        -11   -1    0    0    0    0  0.00000000000E+00  0.00000000000E+00  0.45593999997E+02  0.45594000000E+02  0.51100000000E-03 0.  1.
         11   -1    0    0    0    0 -0.00000000000E+00 -0.00000000000E+00 -0.45593999997E+02  0.45594000000E+02  0.51100000000E-03 0. -1.
    9900012    2    1    2    0    0  0.30569427701E+01 -0.10821076617E+02 -0.14974620302E+02  0.72461552087E+02  0.69999976282E+02 0.  0.
        -12    1    1    2    0    0 -0.30569427701E+01  0.10821076617E+02  0.14974620302E+02  0.18726447913E+02  0.00000000000E+00 0.  1.
         11    1    3    3    0    0  0.26525214823E+01  0.28828863602E+01 -0.57158917853E+01  0.69295254630E+01  0.51100000000E-03 0. -1.
        -11    1    3    3    0    0 -0.66944248110E+01  0.22557788182E+02  0.78611288874E+01  0.24808596874E+02  0.51100000000E-03 0.  1.
         12    1    3    3    0    0  0.70988460988E+01 -0.36261751159E+02 -0.17119857404E+02  0.40723429750E+02  0.00000000000E+00 0. -1.
</event>
<event>
 7    1  0.1891413E-013  0.7246158E+02  0.7816164E-02  0.1226708E+00
        -11   -1    0    0    0    0  0.00000000000E+00  0.00000000000E+00  0.45593999997E+02  0.45594000000E+02  0.51100000000E-03 0. -1.
         11   -1    0    0    0    0 -0.00000000000E+00 -0.00000000000E+00 -0.45593999997E+02  0.45594000000E+02  0.51100000000E-03 0.  1.
    9900012    2    1    2    0    0 -0.17351722418E+02  0.54725156339E+01  0.44325995675E+01  0.72461584508E+02  0.70000018516E+02 0.  0.
        -12    1    1    2    0    0  0.17351722418E+02 -0.54725156339E+01 -0.44325995675E+01  0.18726415492E+02  0.00000000000E+00 0.  1.
         11    1    3    3    0    0 -0.14948533143E+02 -0.11594649941E+02  0.24764702297E+02  0.31163841716E+02  0.51100000000E-03 0. -1.
        -11    1    3    3    0    0 -0.14441621164E+02  0.31462181419E+00 -0.40075470041E+01  0.14990658491E+02  0.51100000000E-03 0.  1.
        -12    1    3    3    0    0  0.12038431889E+02  0.16752543761E+02 -0.16324555725E+02  0.26307084301E+02  0.00000000000E+00 0.  1.
</event>
<event>
 7    1  0.1891413E-013  0.7246160E+02  0.7816164E-02  0.1226708E+00
        -11   -1    0    0    0    0  0.00000000000E+00  0.00000000000E+00  0.45593999997E+02  0.45594000000E+02  0.51100000000E-03 0.  1.
         11   -1    0    0    0    0 -0.00000000000E+00 -0.00000000000E+00 -0.45593999997E+02  0.45594000000E+02  0.51100000000E-03 0. -1.
    9900012    2    1    2    0    0  0.11542839561E+02 -0.26640449897E+01  0.14503238446E+02  0.72461596014E+02  0.70000033504E+02 0.  0.
        -12    1    1    2    0    0 -0.11542839561E+02  0.26640449897E+01 -0.14503238446E+02  0.18726403986E+02  0.00000000000E+00 0.  1.
         11    1    3    3    0    0 -0.16912745021E+02 -0.49253549830E+01 -0.79367966530E+00  0.17633207126E+02  0.51100000000E-03 0. -1.
        -11    1    3    3    0    0 -0.12456075187E+01 -0.14023563965E+02  0.15520925485E+02  0.20954975842E+02  0.51100000000E-03 0.  1.
         12    1    3    3    0    0  0.29701192101E+02  0.16284873958E+02 -0.22400737403E+00  0.33873413046E+02  0.00000000000E+00 0. -1.
</event>
<event>
 7    1  0.1891413E-013  0.7246152E+02  0.7816164E-02  0.1226708E+00
        -11   -1    0    0    0    0  0.00000000000E+00  0.00000000000E+00  0.45593999997E+02  0.45594000000E+02  0.51100000000E-03 0. -1.
         11   -1    0    0    0    0 -0.00000000000E+00 -0.00000000000E+00 -0.45593999997E+02  0.45594000000E+02  0.51100000000E-03 0.  1.
    9900012    2    1    2    0    0  0.14606768312E+02 -0.11708833760E+02  0.47604527270E+00  0.72461519080E+02  0.69999933284E+02 0.  0.
        -12    1    1    2    0    0 -0.14606768312E+02  0.11708833760E+02 -0.47604527270E+00  0.18726480920E+02  0.00000000000E+00 0.  1.
         11    1    3    3    0    0  0.34758637126E+01  0.46608475863E+01  0.10040529746E+01  0.59002755366E+01  0.51100000000E-03 0. -1.
        -11    1    3    3    0    0  0.34824296436E+02  0.36341036903E+01  0.39325101195E+01  0.35233548899E+02  0.51100000000E-03 0.  1.
        -12    1    3    3    0    0 -0.23693391836E+02 -0.20003785037E+02 -0.44605178215E+01  0.31327694645E+02  0.00000000000E+00 0.  1.
</event>
<event>
 7    1  0.1891413E-013  0.7246160E+02  0.7816164E-02  0.1226708E+00
        -11   -1    0    0    0    0  0.00000000000E+00  0.00000000000E+00  0.45593999997E+02  0.45594000000E+02  0.51100000000E-03 0. -1.
         11   -1    0    0    0    0 -0.00000000000E+00 -0.00000000000E+00 -0.45593999997E+02  0.45594000000E+02  0.51100000000E-03 0.  1.
    9900012    2    1    2    0    0 -0.26675687482E+01  0.51671699114E+01  0.17800634204E+02  0.72461597623E+02  0.70000035601E+02 0.  0.
        -12    1    1    2    0    0  0.26675687482E+01 -0.51671699114E+01 -0.17800634204E+02  0.18726402377E+02  0.00000000000E+00 0.  1.
         11    1    3    3    0    0  0.20246042151E+02  0.16922719399E+02  0.18549921811E+01  0.26452252283E+02  0.51100000000E-03 0. -1.
        -11    1    3    3    0    0  0.18227995257E+01  0.43082541226E+01  0.15838063062E+02  0.16514475272E+02  0.51100000000E-03 0.  1.
        -12    1    3    3    0    0 -0.24736410425E+02 -0.16063803610E+02  0.10757896093E+00  0.29494870068E+02  0.00000000000E+00 0.  1.
</event>
<event>
 7    1  0.1891413E-013  0.7246153E+02  0.7816164E-02  0.1226708E+00
        -11   -1    0    0    0    0  0.00000000000E+00  0.00000000000E+00  0.45593999997E+02  0.45594000000E+02  0.51100000000E-03 0. -1.
         11   -1    0    0    0    0 -0.00000000000E+00 -0.00000000000E+00 -0.45593999997E+02  0.45594000000E+02  0.51100000000E-03 0.  1.
    9900012    2    1    2    0    0  0.27470865206E+01 -0.17893303879E+02 -0.47920533024E+01  0.72461532557E+02  0.69999950840E+02 0.  0.
        -12    1    1    2    0    0 -0.27470865206E+01  0.17893303879E+02  0.47920533024E+01  0.18726467443E+02  0.00000000000E+00 0.  1.
         11    1    3    3    0    0  0.75016402455E+01  0.88933551876E+01  0.70732400266E+01  0.13616060282E+02  0.51100000000E-03 0. -1.
        -11    1    3    3    0    0  0.10057434727E+02  0.12257196454E+02 -0.40013851572E+01  0.16352429227E+02  0.51100000000E-03 0.  1.
        -12    1    3    3    0    0 -0.14811988452E+02 -0.39043855520E+02 -0.78639081718E+01  0.42493043048E+02  0.00000000000E+00 0.  1.
</event>
<event>
 7    1  0.2234092E-013  0.7246146E+02  0.7816164E-02  0.1226708E+00
        -11   -1    0    0    0    0  0.00000000000E+00  0.00000000000E+00  0.45593999997E+02  0.45594000000E+02  0.51100000000E-03 0.  1.
         11   -1    0    0    0    0 -0.00000000000E+00 -0.00000000000E+00 -0.45593999997E+02  0.45594000000E+02  0.51100000000E-03 0. -1.
    9900012    2    1    2    0    0 -0.77737129539E+01  0.13481094533E+02  0.10416949654E+02  0.72461458328E+02  0.69999854143E+02 0.  0.
        -12    1    1    2    0    0  0.77737129539E+01 -0.13481094533E+02 -0.10416949654E+02  0.18726541672E+02  0.00000000000E+00 0.  1.
         11    1    3    3    0    0 -0.13184981138E+02  0.19331055299E+02  0.49301816355E+01  0.23913178748E+02  0.51100000000E-03 0. -1.
        -11    1    3    3    0    0  0.25732782771E+02  0.29213168825E+01  0.51879619460E+01  0.26412594550E+02  0.51100000000E-03 0.  1.
         12    1    3    3    0    0 -0.20321514586E+02 -0.87712776495E+01  0.29880607274E+00  0.22135685030E+02  0.00000000000E+00 0. -1.
</event>
<event>
 7    1  0.1891413E-013  0.7246156E+02  0.7816164E-02  0.1226708E+00
        -11   -1    0    0    0    0  0.00000000000E+00  0.00000000000E+00  0.45593999997E+02  0.45594000000E+02  0.51100000000E-03 0.  1.
         11   -1    0    0    0    0 -0.00000000000E+00 -0.00000000000E+00 -0.45593999997E+02  0.45594000000E+02  0.51100000000E-03 0. -1.
    9900012    2    1    2    0    0  0.12801567639E+02 -0.63142637269E+01 -0.12121448906E+02  0.72461559228E+02  0.69999985584E+02 0.  0.
        -12    1    1    2    0    0 -0.12801567639E+02  0.63142637269E+01  0.12121448906E+02  0.18726440772E+02  0.00000000000E+00 0.  1.
         11    1    3    3    0    0 -0.48343789054E+01 -0.57788261849E+01  0.11877908298E+02  0.14065943170E+02  0.51100000000E-03 0. -1.
        -11    1    3    3    0    0  0.17828385535E+02 -0.44384968356E+01  0.12155812241E+02  0.22029874181E+02  0.51100000000E-03 0.  1.
         12    1    3    3    0    0 -0.19243899123E+00  0.39030592936E+01 -0.36155169445E+02  0.36365741876E+02  0.00000000000E+00 0. -1.
</event>
<event>
 7    1  0.1891413E-013  0.7246161E+02  0.7816164E-02  0.1226708E+00
        -11   -1    0    0    0    0  0.00000000000E+00  0.00000000000E+00  0.45593999997E+02  0.45594000000E+02  0.51100000000E-03 0.  1.
         11   -1    0    0    0    0 -0.00000000000E+00 -0.00000000000E+00 -0.45593999997E+02  0.45594000000E+02  0.51100000000E-03 0. -1.
    9900012    2    1    2    0    0 -0.16140473008E+02  0.82694086058E+01 -0.46668885893E+01  0.72461605880E+02  0.70000046357E+02 0.  0.
        -12    1    1    2    0    0  0.16140473008E+02 -0.82694086058E+01  0.46668885893E+01  0.18726394120E+02  0.00000000000E+00 0.  1.
         11    1    3    3    0    0 -0.30979275195E+02  0.11369725722E+01  0.31200975934E+01  0.31156752197E+02  0.51100000000E-03 0. -1.
        -11    1    3    3    0    0 -0.57186317868E+01 -0.93533586178E+01  0.49594875220E+01  0.12032646579E+02  0.51100000000E-03 0.  1.
         12    1    3    3    0    0  0.20557433973E+02  0.16485794651E+02 -0.12746473705E+02  0.29272207104E+02  0.00000000000E+00 0. -1.
</event>
<event>
 7    1  0.1891413E-013  0.7246156E+02  0.7816164E-02  0.1226708E+00
        -11   -1    0    0    0    0  0.00000000000E+00  0.00000000000E+00  0.45593999997E+02  0.45594000000E+02  0.51100000000E-03 0. -1.
         11   -1    0    0    0    0 -0.00000000000E+00 -0.00000000000E+00 -0.45593999997E+02  0.45594000000E+02  0.51100000000E-03 0.  1.
    9900012    2    1    2    0    0  0.18557478610E+02 -0.24839772667E+01  0.35961009984E+00  0.72461562142E+02  0.69999989380E+02 0.  0.
        -12    1    1    2    0    0 -0.18557478610E+02  0.24839772667E+01 -0.35961009984E+00  0.18726437858E+02  0.00000000000E+00 0.  1.
         11    1    3    3    0    0  0.28046614380E+02 -0.21460252913E+01 -0.34649982233E+01  0.28341210554E+02  0.51100000000E-03 0. -1.
        -11    1    3    3    0    0  0.13522076462E+02 -0.69884690516E+01 -0.82314866963E+01  0.17304410566E+02  0.51100000000E-03 0.  1.
         12    1    3    3    0    0 -0.23011212232E+02  0.66505170762E+01  0.12056095019E+02  0.26815941022E+02  0.00000000000E+00 0. -1.
</event>
<event>
 7    1  0.1891413E-013  0.7246152E+02  0.7816164E-02  0.1226708E+00
        -11   -1    0    0    0    0  0.00000000000E+00  0.00000000000E+00  0.45593999997E+02  0.45594000000E+02  0.51100000000E-03 0. -1.
         11   -1    0    0    0    0 -0.00000000000E+00 -0.00000000000E+00 -0.45593999997E+02  0.45594000000E+02  0.51100000000E-03 0.  1.
    9900012    2    1    2    0    0  0.10932903257E+02  0.12495852712E+02  0.86606176519E+01  0.72461521240E+02  0.69999936098E+02 0.  0.
        -12    1    1    2    0    0 -0.10932903257E+02 -0.12495852712E+02 -0.86606176519E+01  0.18726478760E+02  0.00000000000E+00 0.  1.
         11    1    3    3    0    0  0.21963079202E+02 -0.64529445874E+01 -0.10410398861E+02  0.25147440160E+02  0.51100000000E-03 0. -1.
        -11    1    3    3    0    0  0.50073412556E+01 -0.14304625706E+01  0.20685502671E+02  0.21330956628E+02  0.51100000000E-03 0.  1.
        -12    1    3    3    0    0 -0.16037517200E+02  0.20379259870E+02 -0.16144861584E+01  0.25983124453E+02  0.00000000000E+00 0.  1.
</event>
<event>
 7    1  0.1891413E-013  0.7246159E+02  0.7816164E-02  0.1226708E+00
        -11   -1    0    0    0    0  0.00000000000E+00  0.00000000000E+00  0.45593999997E+02  0.45594000000E+02  0.51100000000E-03 0.  1.
         11   -1    0    0    0    0 -0.00000000000E+00 -0.00000000000E+00 -0.45593999997E+02  0.45594000000E+02  0.51100000000E-03 0. -1.
    9900012    2    1    2    0    0  0.11292421226E+02  0.34170078660E+00 -0.14934625603E+02  0.72461586076E+02  0.70000020559E+02 0.  0.
        -12    1    1    2    0    0 -0.11292421226E+02 -0.34170078660E+00  0.14934625603E+02  0.18726413924E+02  0.00000000000E+00 0.  1.
         11    1    3    3    0    0  0.67133896727E+00 -0.17067955428E+00  0.92980245734E+00  0.11594655622E+01  0.51100000000E-03 0. -1.
        -11    1    3    3    0    0  0.14806326654E+02  0.19920750465E+02  0.18947612980E+02  0.31226201274E+02  0.51100000000E-03 0.  1.
         12    1    3    3    0    0 -0.41852443954E+01 -0.19408370124E+02 -0.34812041040E+02  0.40075919240E+02  0.00000000000E+00 0. -1.
</event>
<event>
 7    1  0.1891413E-013  0.7246160E+02  0.7816164E-02  0.1226708E+00
        -11   -1    0    0    0    0  0.00000000000E+00  0.00000000000E+00  0.45593999997E+02  0.45594000000E+02  0.51100000000E-03 0.  1.
         11   -1    0    0    0    0 -0.00000000000E+00 -0.00000000000E+00 -0.45593999997E+02  0.45594000000E+02  0.51100000000E-03 0. -1.
    9900012    2    1    2    0    0  0.16677158187E+02  0.22401419110E+01  0.82178047869E+01  0.72461597342E+02  0.70000035235E+02 0.  0.
        -12    1    1    2    0    0 -0.16677158187E+02 -0.22401419110E+01 -0.82178047869E+01  0.18726402658E+02  0.00000000000E+00 0.  1.
         11    1    3    3    0    0  0.13532654348E+02 -0.11333500926E+02  0.21764236480E+02  0.28022543902E+02  0.51100000000E-03 0.  1.
        -11    1    3    3    0    0 -0.60550675325E+00 -0.91781908066E+01  0.85091912270E+01  0.12530449334E+02  0.51100000000E-03 0. -1.
         12    1    3    3    0    0  0.37500105930E+01  0.22751833644E+02 -0.22055622920E+02  0.31908604106E+02  0.00000000000E+00 0. -1.
</event>
<event>
 7    1  0.1891413E-013  0.7246154E+02  0.7816164E-02  0.1226708E+00
        -11   -1    0    0    0    0  0.00000000000E+00  0.00000000000E+00  0.45593999997E+02  0.45594000000E+02  0.51100000000E-03 0. -1.
         11   -1    0    0    0    0 -0.00000000000E+00 -0.00000000000E+00 -0.45593999997E+02  0.45594000000E+02  0.51100000000E-03 0.  1.
    9900012    2    1    2    0    0  0.16076873567E+02 -0.24053480774E+01  0.92967143650E+01  0.72461535811E+02  0.69999955079E+02 0.  0.
        -12    1    1    2    0    0 -0.16076873567E+02  0.24053480774E+01 -0.92967143650E+01  0.18726464189E+02  0.00000000000E+00 0.  1.
         11    1    3    3    0    0 -0.17736216955E+02  0.72068373643E+01  0.46522542316E+01  0.19701658975E+02  0.51100000000E-03 0. -1.
        -11    1    3    3    0    0 -0.54744103326E+01 -0.11892965086E+02 -0.30649020986E+00  0.13096019378E+02  0.51100000000E-03 0.  1.
        -12    1    3    3    0    0  0.39287500854E+02  0.22807796446E+01  0.49509503432E+01  0.39663857458E+02  0.00000000000E+00 0.  1.
</event>
<event>
 7    1  0.1891413E-013  0.7246158E+02  0.7816164E-02  0.1226708E+00
        -11   -1    0    0    0    0  0.00000000000E+00  0.00000000000E+00  0.45593999997E+02  0.45594000000E+02  0.51100000000E-03 0. -1.
         11   -1    0    0    0    0 -0.00000000000E+00 -0.00000000000E+00 -0.45593999997E+02  0.45594000000E+02  0.51100000000E-03 0.  1.
    9900012    2    1    2    0    0  0.11358104739E+02  0.18722725622E+01  0.14770467141E+02  0.72461584236E+02  0.70000018161E+02 0.  0.
        -12    1    1    2    0    0 -0.11358104739E+02 -0.18722725622E+01 -0.14770467141E+02  0.18726415764E+02  0.00000000000E+00 0.  1.
         11    1    3    3    0    0 -0.12446848886E+02 -0.26246570450E+01  0.79435181727E+01  0.14997078149E+02  0.51100000000E-03 0. -1.
        -11    1    3    3    0    0 -0.10052124018E+02  0.45267774084E+01  0.18597665554E+02  0.21619668714E+02  0.51100000000E-03 0.  1.
         12    1    3    3    0    0  0.33857077643E+02 -0.29847801216E-01 -0.11770716585E+02  0.35844837373E+02  0.00000000000E+00 0. -1.
</event>
<event>
 7    1  0.1891413E-013  0.7246159E+02  0.7816164E-02  0.1226708E+00
        -11   -1    0    0    0    0  0.00000000000E+00  0.00000000000E+00  0.45593999997E+02  0.45594000000E+02  0.51100000000E-03 0.  1.
         11   -1    0    0    0    0 -0.00000000000E+00 -0.00000000000E+00 -0.45593999997E+02  0.45594000000E+02  0.51100000000E-03 0. -1.
    9900012    2    1    2    0    0 -0.13981017091E+02  0.46109579821E+01 -0.11573622209E+02  0.72461588079E+02  0.70000023167E+02 0.  0.
        -12    1    1    2    0    0  0.13981017091E+02 -0.46109579821E+01  0.11573622209E+02  0.18726411921E+02  0.00000000000E+00 0.  1.
         11    1    3    3    0    0 -0.14220513818E+02 -0.18278635823E+02  0.63556104923E+01  0.24015106200E+02  0.51100000000E-03 0. -1.
        -11    1    3    3    0    0  0.14125139076E+02  0.87472081971E+01  0.57373586900E+01  0.17576987516E+02  0.51100000000E-03 0.  1.
         12    1    3    3    0    0 -0.13885642349E+02  0.14142385608E+02 -0.23666591391E+02  0.30869494362E+02  0.00000000000E+00 0. -1.
</event>
<event>
 7    1  0.1891413E-013  0.7246154E+02  0.7816164E-02  0.1226708E+00
        -11   -1    0    0    0    0  0.00000000000E+00  0.00000000000E+00  0.45593999997E+02  0.45594000000E+02  0.51100000000E-03 0.  1.
         11   -1    0    0    0    0 -0.00000000000E+00 -0.00000000000E+00 -0.45593999997E+02  0.45594000000E+02  0.51100000000E-03 0. -1.
    9900012    2    1    2    0    0 -0.11469551400E+02  0.19393335088E+00 -0.14801755407E+02  0.72461543245E+02  0.69999964764E+02 0.  0.
        -12    1    1    2    0    0  0.11469551400E+02 -0.19393335088E+00  0.14801755407E+02  0.18726456755E+02  0.00000000000E+00 0.  1.
         11    1    3    3    0    0 -0.18253192526E+02 -0.16745170931E+01  0.17424004110E+02  0.25289898465E+02  0.51100000000E-03 0. -1.
        -11    1    3    3    0    0 -0.13576308387E+02  0.18865025162E+01 -0.16468926394E+02  0.21426632446E+02  0.51100000000E-03 0.  1.
        -12    1    3    3    0    0  0.20359949512E+02 -0.18052072233E-01 -0.15756833124E+02  0.25745012335E+02  0.00000000000E+00 0.  1.
</event>
<event>
 7    1  0.1891413E-013  0.7246157E+02  0.7816164E-02  0.1226708E+00
        -11   -1    0    0    0    0  0.00000000000E+00  0.00000000000E+00  0.45593999997E+02  0.45594000000E+02  0.51100000000E-03 0.  1.
         11   -1    0    0    0    0 -0.00000000000E+00 -0.00000000000E+00 -0.45593999997E+02  0.45594000000E+02  0.51100000000E-03 0. -1.
    9900012    2    1    2    0    0  0.85570073268E+01  0.15028291482E+02 -0.71838242025E+01  0.72461568161E+02  0.69999997220E+02 0.  0.
        -12    1    1    2    0    0 -0.85570073268E+01 -0.15028291482E+02  0.71838242025E+01  0.18726431839E+02  0.00000000000E+00 0.  1.
         11    1    3    3    0    0 -0.13672914358E+02  0.48966968387E+01 -0.20138841414E+02  0.24829401135E+02  0.51100000000E-03 0. -1.
        -11    1    3    3    0    0  0.47220872340E+00 -0.13607511755E+02  0.32210408851E+01  0.13991513924E+02  0.51100000000E-03 0.  1.
         12    1    3    3    0    0  0.21757712961E+02  0.23739106399E+02  0.97339763268E+01  0.33640653101E+02  0.00000000000E+00 0. -1.
</event>
<event>
 7    1  0.1891413E-013  0.7246154E+02  0.7816164E-02  0.1226708E+00
        -11   -1    0    0    0    0  0.00000000000E+00  0.00000000000E+00  0.45593999997E+02  0.45594000000E+02  0.51100000000E-03 0.  1.
         11   -1    0    0    0    0 -0.00000000000E+00 -0.00000000000E+00 -0.45593999997E+02  0.45594000000E+02  0.51100000000E-03 0. -1.
    9900012    2    1    2    0    0 -0.17499257792E+01 -0.10510084539E+02 -0.15399882227E+02  0.72461535042E+02  0.69999954077E+02 0.  0.
        -12    1    1    2    0    0  0.17499257792E+01  0.10510084539E+02  0.15399882227E+02  0.18726464958E+02  0.00000000000E+00 0.  1.
         11    1    3    3    0    0 -0.79917944233E+01  0.24743871899E+01  0.35791462646E+01  0.90995416540E+01  0.51100000000E-03 0. -1.
        -11    1    3    3    0    0  0.15915985809E+02  0.20222908934E+02 -0.10157376615E+02  0.27666892670E+02  0.51100000000E-03 0.  1.
         12    1    3    3    0    0 -0.96741171650E+01 -0.33207380663E+02 -0.88216518763E+01  0.35695100718E+02  0.00000000000E+00 0. -1.
</event>
<event>
 7    1  0.1891413E-013  0.7246169E+02  0.7816164E-02  0.1226708E+00
        -11   -1    0    0    0    0  0.00000000000E+00  0.00000000000E+00  0.45593999997E+02  0.45594000000E+02  0.51100000000E-03 0.  1.
         11   -1    0    0    0    0 -0.00000000000E+00 -0.00000000000E+00 -0.45593999997E+02  0.45594000000E+02  0.51100000000E-03 0. -1.
    9900012    2    1    2    0    0 -0.30278287285E+01  0.16177829195E+01 -0.18408954633E+02  0.72461692861E+02  0.70000159666E+02 0.  0.
        -12    1    1    2    0    0  0.30278287285E+01 -0.16177829195E+01  0.18408954633E+02  0.18726307139E+02  0.00000000000E+00 0.  1.
         11    1    3    3    0    0  0.19551889141E+02  0.90183115005E+01 -0.11539242270E+02  0.24428680352E+02  0.51100000000E-03 0. -1.
        -11    1    3    3    0    0  0.18603473960E+01  0.11303374587E+01  0.14378920986E+02  0.14542761917E+02  0.51100000000E-03 0.  1.
        -12    1    3    3    0    0 -0.24440065266E+02 -0.85308660397E+01 -0.21248633348E+02  0.33490250592E+02  0.00000000000E+00 0.  1.
</event>
<event>
 7    1  0.1891413E-013  0.7246161E+02  0.7816164E-02  0.1226708E+00
        -11   -1    0    0    0    0  0.00000000000E+00  0.00000000000E+00  0.45593999997E+02  0.45594000000E+02  0.51100000000E-03 0. -1.
         11   -1    0    0    0    0 -0.00000000000E+00 -0.00000000000E+00 -0.45593999997E+02  0.45594000000E+02  0.51100000000E-03 0.  1.
    9900012    2    1    2    0    0 -0.26065869281E-01  0.14272384775E+02  0.12123359982E+02  0.72461614768E+02  0.70000057935E+02 0.  0.
        -12    1    1    2    0    0  0.26065869281E-01 -0.14272384775E+02 -0.12123359982E+02  0.18726385232E+02  0.00000000000E+00 0.  1.
         11    1    3    3    0    0  0.40911245523E+00  0.11220112963E+02  0.13921291527E+02  0.17884648890E+02  0.51100000000E-03 0. -1.
        -11    1    3    3    0    0 -0.20176071107E+02 -0.30637489655E+01  0.17060534977E+02  0.26599290536E+02  0.51100000000E-03 0.  1.
        -12    1    3    3    0    0  0.19740892782E+02  0.61160207777E+01 -0.18858466522E+02  0.27977675342E+02  0.00000000000E+00 0.  1.
</event>
<event>
 7    1  0.2082051E-013  0.7246153E+02  0.7816164E-02  0.1226708E+00
        -11   -1    0    0    0    0  0.00000000000E+00  0.00000000000E+00  0.45593999997E+02  0.45594000000E+02  0.51100000000E-03 0. -1.
         11   -1    0    0    0    0 -0.00000000000E+00 -0.00000000000E+00 -0.45593999997E+02  0.45594000000E+02  0.51100000000E-03 0.  1.
    9900012    2    1    2    0    0  0.12942684365E+02 -0.64489838277E+01  0.11898661912E+02  0.72461531398E+02  0.69999949331E+02 0.  0.
        -12    1    1    2    0    0 -0.12942684365E+02  0.64489838277E+01 -0.11898661912E+02  0.18726468602E+02  0.00000000000E+00 0.  1.
         11    1    3    3    0    0 -0.10676747455E+02  0.13325780843E+02  0.29944764316E+01  0.17335981675E+02  0.51100000000E-03 0. -1.
        -11    1    3    3    0    0  0.21691149905E+02  0.11055860056E+01 -0.12583918731E+02  0.25101460426E+02  0.51100000000E-03 0.  1.
         12    1    3    3    0    0  0.19282819156E+01 -0.20880350676E+02  0.21488104212E+02  0.30024089297E+02  0.00000000000E+00 0. -1.
</event>
<event>
 7    1  0.1891413E-013  0.7246150E+02  0.7816164E-02  0.1226708E+00
        -11   -1    0    0    0    0  0.00000000000E+00  0.00000000000E+00  0.45593999997E+02  0.45594000000E+02  0.51100000000E-03 0.  1.
         11   -1    0    0    0    0 -0.00000000000E+00 -0.00000000000E+00 -0.45593999997E+02  0.45594000000E+02  0.51100000000E-03 0. -1.
    9900012    2    1    2    0    0 -0.13949640583E+01 -0.20909529969E+01 -0.18557037467E+02  0.72461504099E+02  0.69999913769E+02 0.  0.
        -12    1    1    2    0    0  0.13949640583E+01  0.20909529969E+01  0.18557037467E+02  0.18726495901E+02  0.00000000000E+00 0.  1.
         11    1    3    3    0    0 -0.63714419406E+01  0.12679046841E+02 -0.14423880270E+02  0.20233680424E+02  0.51100000000E-03 0. -1.
        -11    1    3    3    0    0  0.17512922696E+02  0.11139635491E+02  0.61746900462E+01  0.21654577753E+02  0.51100000000E-03 0.  1.
         12    1    3    3    0    0 -0.12536444814E+02 -0.25909635329E+02 -0.10307847244E+02  0.30573245923E+02  0.00000000000E+00 0. -1.
</event>
<event>
 7    1  0.1891413E-013  0.7246156E+02  0.7816164E-02  0.1226708E+00
        -11   -1    0    0    0    0  0.00000000000E+00  0.00000000000E+00  0.45593999997E+02  0.45594000000E+02  0.51100000000E-03 0.  1.
         11   -1    0    0    0    0 -0.00000000000E+00 -0.00000000000E+00 -0.45593999997E+02  0.45594000000E+02  0.51100000000E-03 0. -1.
    9900012    2    1    2    0    0  0.11028619283E+02  0.13231478224E+02 -0.73469107618E+01  0.72461559948E+02  0.69999986523E+02 0.  0.
        -12    1    1    2    0    0 -0.11028619283E+02 -0.13231478224E+02  0.73469107618E+01  0.18726440052E+02  0.00000000000E+00 0.  1.
         11    1    3    3    0    0  0.27475888635E+02  0.36173698024E+01 -0.28406742445E+02  0.39685675466E+02  0.51100000000E-03 0. -1.
        -11    1    3    3    0    0  0.28130350783E+01 -0.72531655936E+00  0.90590578421E+00  0.30430110111E+01  0.51100000000E-03 0.  1.
         12    1    3    3    0    0 -0.19260304431E+02  0.10339424980E+02  0.20153925899E+02  0.29732873471E+02  0.00000000000E+00 0. -1.
</event>
<event>
 7    1  0.1891413E-013  0.7246162E+02  0.7816164E-02  0.1226708E+00
        -11   -1    0    0    0    0  0.00000000000E+00  0.00000000000E+00  0.45593999997E+02  0.45594000000E+02  0.51100000000E-03 0.  1.
         11   -1    0    0    0    0 -0.00000000000E+00 -0.00000000000E+00 -0.45593999997E+02  0.45594000000E+02  0.51100000000E-03 0. -1.
    9900012    2    1    2    0    0 -0.14444532976E+02 -0.10691745464E+02  0.52649288917E+01  0.72461616734E+02  0.70000060497E+02 0.  0.
        -12    1    1    2    0    0  0.14444532976E+02  0.10691745464E+02 -0.52649288917E+01  0.18726383266E+02  0.00000000000E+00 0.  1.
         11    1    3    3    0    0 -0.11051534894E+02 -0.97141830174E+01 -0.25186397121E+01  0.14928004604E+02  0.51100000000E-03 0. -1.
        -11    1    3    3    0    0  0.13141599554E+01 -0.31166007637E+01  0.32300658515E+02  0.32477265240E+02  0.51100000000E-03 0.  1.
         12    1    3    3    0    0 -0.47071580376E+01  0.21390383166E+01 -0.24517089912E+02  0.25056346889E+02  0.00000000000E+00 0. -1.
</event>
<event>
 7    1  0.1891413E-013  0.7246154E+02  0.7816164E-02  0.1226708E+00
        -11   -1    0    0    0    0  0.00000000000E+00  0.00000000000E+00  0.45593999997E+02  0.45594000000E+02  0.51100000000E-03 0.  1.
         11   -1    0    0    0    0 -0.00000000000E+00 -0.00000000000E+00 -0.45593999997E+02  0.45594000000E+02  0.51100000000E-03 0. -1.
    9900012    2    1    2    0    0 -0.17477389777E+02 -0.38325301370E+01 -0.55256530906E+01  0.72461540571E+02  0.69999961279E+02 0.  0.
        -12    1    1    2    0    0  0.17477389777E+02  0.38325301370E+01  0.55256530906E+01  0.18726459429E+02  0.00000000000E+00 0.  1.
         11    1    3    3    0    0 -0.10089740415E+02  0.65969831504E+01 -0.12028527113E+02  0.17029636317E+02  0.51100000000E-03 0. -1.
        -11    1    3    3    0    0 -0.29314165107E+02 -0.14552185942E+02  0.33234121505E+01  0.32895766601E+02  0.51100000000E-03 0.  1.
         12    1    3    3    0    0  0.21926515745E+02  0.41226726551E+01  0.31794618721E+01  0.22536137653E+02  0.00000000000E+00 0. -1.
</event>
<event>
 7    1  0.1891413E-013  0.7246151E+02  0.7816164E-02  0.1226708E+00
        -11   -1    0    0    0    0  0.00000000000E+00  0.00000000000E+00  0.45593999997E+02  0.45594000000E+02  0.51100000000E-03 0. -1.
         11   -1    0    0    0    0 -0.00000000000E+00 -0.00000000000E+00 -0.45593999997E+02  0.45594000000E+02  0.51100000000E-03 0.  1.
    9900012    2    1    2    0    0  0.64990379994E+01  0.13826317419E+02 -0.10829453068E+02  0.72461505346E+02  0.69999915392E+02 0.  0.
        -12    1    1    2    0    0 -0.64990379994E+01 -0.13826317419E+02  0.10829453068E+02  0.18726494654E+02  0.00000000000E+00 0.  1.
         11    1    3    3    0    0 -0.20835825861E+02  0.44255246683E+01 -0.24332530001E+01  0.21439161092E+02  0.51100000000E-03 0. -1.
        -11    1    3    3    0    0 -0.16645123859E+01 -0.35368016030E+01 -0.17545848694E+02  0.17975994374E+02  0.51100000000E-03 0.  1.
         12    1    3    3    0    0  0.28999376247E+02  0.12937594354E+02  0.91496486264E+01  0.33046349879E+02  0.00000000000E+00 0. -1.
</event>
<event>
 7    1  0.1891413E-013  0.7246158E+02  0.7816164E-02  0.1226708E+00
        -11   -1    0    0    0    0  0.00000000000E+00  0.00000000000E+00  0.45593999997E+02  0.45594000000E+02  0.51100000000E-03 0. -1.
         11   -1    0    0    0    0 -0.00000000000E+00 -0.00000000000E+00 -0.45593999997E+02  0.45594000000E+02  0.51100000000E-03 0.  1.
    9900012    2    1    2    0    0 -0.11684731740E+02 -0.48485552850E+01  0.13807152902E+02  0.72461577078E+02  0.70000008837E+02 0.  0.
        -12    1    1    2    0    0  0.11684731740E+02  0.48485552850E+01 -0.13807152902E+02  0.18726422922E+02  0.00000000000E+00 0.  1.
         11    1    3    3    0    0  0.18931260243E+02 -0.35552436144E+01  0.24315480177E+02  0.31020556862E+02  0.51100000000E-03 0. -1.
        -11    1    3    3    0    0  0.18219707794E+01 -0.49508469763E+01  0.30501131004E+01  0.60937388761E+01  0.51100000000E-03 0.  1.
        -12    1    3    3    0    0 -0.32437962763E+02  0.36575353058E+01 -0.13558440375E+02  0.35347281340E+02  0.00000000000E+00 0.  1.
</event>
<event>
 7    1  0.1891413E-013  0.7246158E+02  0.7816164E-02  0.1226708E+00
        -11   -1    0    0    0    0  0.00000000000E+00  0.00000000000E+00  0.45593999997E+02  0.45594000000E+02  0.51100000000E-03 0. -1.
         11   -1    0    0    0    0 -0.00000000000E+00 -0.00000000000E+00 -0.45593999997E+02  0.45594000000E+02  0.51100000000E-03 0.  1.
    9900012    2    1    2    0    0  0.12489231344E+02  0.10409814715E+02  0.92915896491E+01  0.72461580690E+02  0.70000013542E+02 0.  0.
        -12    1    1    2    0    0 -0.12489231344E+02 -0.10409814715E+02 -0.92915896491E+01  0.18726419310E+02  0.00000000000E+00 0.  1.
         11    1    3    3    0    0 -0.12091819370E+02  0.49903301216E+01  0.85377638729E+01  0.15620784315E+02  0.51100000000E-03 0. -1.
        -11    1    3    3    0    0  0.33307115516E+01  0.10117082853E+02  0.23229499831E+02  0.25555012572E+02  0.51100000000E-03 0.  1.
        -12    1    3    3    0    0  0.21250339163E+02 -0.46975982594E+01 -0.22475674055E+02  0.31285783803E+02  0.00000000000E+00 0.  1.
</event>
<event>
 7    1  0.1891413E-013  0.7246194E+02  0.7816164E-02  0.1226707E+00
        -11   -1    0    0    0    0  0.00000000000E+00  0.00000000000E+00  0.45593999997E+02  0.45594000000E+02  0.51100000000E-03 0. -1.
         11   -1    0    0    0    0 -0.00000000000E+00 -0.00000000000E+00 -0.45593999997E+02  0.45594000000E+02  0.51100000000E-03 0.  1.
    9900012    2    1    2    0    0  0.72374820691E+01  0.47504306374E+01  0.16604747327E+02  0.72461938702E+02  0.70000479918E+02 0.  0.
        -12    1    1    2    0    0 -0.72374820691E+01 -0.47504306374E+01 -0.16604747327E+02  0.18726061298E+02  0.00000000000E+00 0.  1.
         11    1    3    3    0    0  0.81517879246E+00 -0.15774175899E+02  0.79834687238E+01  0.17698161342E+02  0.51100000000E-03 0. -1.
        -11    1    3    3    0    0 -0.12571891941E+01  0.49224216538E+01 -0.20349770768E+02  0.20974363642E+02  0.51100000000E-03 0.  1.
         12    1    3    3    0    0  0.76794924708E+01  0.15602184883E+02  0.28971049371E+02  0.33789413718E+02  0.00000000000E+00 0. -1.
</event>
<event>
 7    1  0.1891413E-013  0.7246157E+02  0.7816164E-02  0.1226708E+00
        -11   -1    0    0    0    0  0.00000000000E+00  0.00000000000E+00  0.45593999997E+02  0.45594000000E+02  0.51100000000E-03 0. -1.
         11   -1    0    0    0    0 -0.00000000000E+00 -0.00000000000E+00 -0.45593999997E+02  0.45594000000E+02  0.51100000000E-03 0.  1.
    9900012    2    1    2    0    0  0.14142222965E+02 -0.57953816216E+01  0.10820821593E+02  0.72461572191E+02  0.70000002470E+02 0.  0.
        -12    1    1    2    0    0 -0.14142222965E+02  0.57953816216E+01 -0.10820821593E+02  0.18726427809E+02  0.00000000000E+00 0.  1.
         11    1    3    3    0    0 -0.89865239973E+00  0.15392521600E+02  0.22602848512E+02  0.27361031751E+02  0.51100000000E-03 0. -1.
        -11    1    3    3    0    0 -0.69600024860E+01  0.53915921960E+01 -0.42862299739E+01  0.97919696008E+01  0.51100000000E-03 0.  1.
        -12    1    3    3    0    0  0.22000877851E+02 -0.26579495418E+02 -0.74957969444E+01  0.35308570839E+02  0.00000000000E+00 0.  1.
</event>
<event>
 7    1  0.1891413E-013  0.7246163E+02  0.7816164E-02  0.1226708E+00
        -11   -1    0    0    0    0  0.00000000000E+00  0.00000000000E+00  0.45593999997E+02  0.45594000000E+02  0.51100000000E-03 0.  1.
         11   -1    0    0    0    0 -0.00000000000E+00 -0.00000000000E+00 -0.45593999997E+02  0.45594000000E+02  0.51100000000E-03 0. -1.
    9900012    2    1    2    0    0 -0.14606147754E+02 -0.87813357692E+01 -0.77605121513E+01  0.72461629317E+02  0.70000076888E+02 0.  0.
        -12    1    1    2    0    0  0.14606147754E+02  0.87813357692E+01  0.77605121513E+01  0.18726370683E+02  0.00000000000E+00 0.  1.
         11    1    3    3    0    0  0.21565518684E+02  0.19192514725E+00  0.70033014201E+01  0.22674978775E+02  0.51100000000E-03 0. -1.
        -11    1    3    3    0    0 -0.46574887352E+01 -0.33257372390E+01  0.84744336035E+01  0.10225886498E+02  0.51100000000E-03 0.  1.
         12    1    3    3    0    0 -0.31514177704E+02 -0.56475236774E+01 -0.23238247175E+02  0.39560764045E+02  0.00000000000E+00 0. -1.
</event>
<event>
 7    1  0.1891413E-013  0.7246154E+02  0.7816164E-02  0.1226708E+00
        -11   -1    0    0    0    0  0.00000000000E+00  0.00000000000E+00  0.45593999997E+02  0.45594000000E+02  0.51100000000E-03 0. -1.
         11   -1    0    0    0    0 -0.00000000000E+00 -0.00000000000E+00 -0.45593999997E+02  0.45594000000E+02  0.51100000000E-03 0.  1.
    9900012    2    1    2    0    0  0.13721381676E+02 -0.18153098516E+01  0.12613828169E+02  0.72461539415E+02  0.69999959774E+02 0.  0.
        -12    1    1    2    0    0 -0.13721381676E+02  0.18153098516E+01 -0.12613828169E+02  0.18726460585E+02  0.00000000000E+00 0.  1.
         11    1    3    3    0    0  0.94101461002E+01 -0.31410185447E+02  0.13441195769E+02  0.35437499114E+02  0.51100000000E-03 0. -1.
        -11    1    3    3    0    0  0.31782350977E+01  0.60561362617E+01  0.91577843662E+01  0.11429915989E+02  0.51100000000E-03 0.  1.
        -12    1    3    3    0    0  0.11330004786E+01  0.23538739334E+02 -0.99851519663E+01  0.25594124312E+02  0.00000000000E+00 0.  1.
</event>
<event>
 7    1  0.1891413E-013  0.7246156E+02  0.7816164E-02  0.1226708E+00
        -11   -1    0    0    0    0  0.00000000000E+00  0.00000000000E+00  0.45593999997E+02  0.45594000000E+02  0.51100000000E-03 0. -1.
         11   -1    0    0    0    0 -0.00000000000E+00 -0.00000000000E+00 -0.45593999997E+02  0.45594000000E+02  0.51100000000E-03 0.  1.
    9900012    2    1    2    0    0 -0.87783668958E+01  0.63783179557E+01  0.15262271780E+02  0.72461558662E+02  0.69999984847E+02 0.  0.
        -12    1    1    2    0    0  0.87783668958E+01 -0.63783179557E+01 -0.15262271780E+02  0.18726441338E+02  0.00000000000E+00 0.  1.
         11    1    3    3    0    0  0.21351972168E+02  0.20022891069E+02  0.11203075663E+01  0.29292967953E+02  0.51100000000E-03 0. -1.
        -11    1    3    3    0    0 -0.12857993509E+02  0.56884503894E+01  0.91281063457E+01  0.16763316815E+02  0.51100000000E-03 0.  1.
        -12    1    3    3    0    0 -0.17272345554E+02 -0.19333023503E+02  0.50138578679E+01  0.26405273894E+02  0.00000000000E+00 0.  1.
</event>
<event>
 7    1  0.1891413E-013  0.7246154E+02  0.7816164E-02  0.1226708E+00
        -11   -1    0    0    0    0  0.00000000000E+00  0.00000000000E+00  0.45593999997E+02  0.45594000000E+02  0.51100000000E-03 0. -1.
         11   -1    0    0    0    0 -0.00000000000E+00 -0.00000000000E+00 -0.45593999997E+02  0.45594000000E+02  0.51100000000E-03 0.  1.
    9900012    2    1    2    0    0 -0.47300678074E+01  0.13088169843E+02  0.12530223898E+02  0.72461541652E+02  0.69999962688E+02 0.  0.
        -12    1    1    2    0    0  0.47300678074E+01 -0.13088169843E+02 -0.12530223898E+02  0.18726458348E+02  0.00000000000E+00 0.  1.
         11    1    3    3    0    0  0.69487333715E+01 -0.10617997454E+02  0.29932616596E+02  0.32511356507E+02  0.51100000000E-03 0. -1.
        -11    1    3    3    0    0  0.62438686475E+00  0.11506497312E+02  0.41936879484E+01  0.12262803848E+02  0.51100000000E-03 0.  1.
        -12    1    3    3    0    0 -0.12303188044E+02  0.12199669985E+02 -0.21596080646E+02  0.27687381297E+02  0.00000000000E+00 0.  1.
</event>
<event>
 7    1  0.1891413E-013  0.7246160E+02  0.7816164E-02  0.1226708E+00
        -11   -1    0    0    0    0  0.00000000000E+00  0.00000000000E+00  0.45593999997E+02  0.45594000000E+02  0.51100000000E-03 0. -1.
         11   -1    0    0    0    0 -0.00000000000E+00 -0.00000000000E+00 -0.45593999997E+02  0.45594000000E+02  0.51100000000E-03 0.  1.
    9900012    2    1    2    0    0  0.19198421214E+01 -0.46003200998E+00  0.18622043375E+02  0.72461603585E+02  0.70000043367E+02 0.  0.
        -12    1    1    2    0    0 -0.19198421214E+01  0.46003200998E+00 -0.18622043375E+02  0.18726396415E+02  0.00000000000E+00 0.  1.
         11    1    3    3    0    0  0.36014646588E+01  0.23951354680E+02  0.16894111695E+02  0.29530474919E+02  0.51100000000E-03 0. -1.
        -11    1    3    3    0    0 -0.25462130867E+01 -0.29518605954E+01 -0.15132578279E+02  0.15626631361E+02  0.51100000000E-03 0.  1.
         12    1    3    3    0    0  0.86459054928E+00 -0.21459526095E+02  0.16860509959E+02  0.27304497306E+02  0.00000000000E+00 0. -1.
</event>
<event>
 7    1  0.1891413E-013  0.7246157E+02  0.7816164E-02  0.1226708E+00
        -11   -1    0    0    0    0  0.00000000000E+00  0.00000000000E+00  0.45593999997E+02  0.45594000000E+02  0.51100000000E-03 0.  1.
         11   -1    0    0    0    0 -0.00000000000E+00 -0.00000000000E+00 -0.45593999997E+02  0.45594000000E+02  0.51100000000E-03 0. -1.
    9900012    2    1    2    0    0 -0.80787129805E+01 -0.13665709014E+02 -0.99328716935E+01  0.72461570913E+02  0.70000000806E+02 0.  0.
        -12    1    1    2    0    0  0.80787129805E+01  0.13665709014E+02  0.99328716935E+01  0.18726429087E+02  0.00000000000E+00 0.  1.
         11    1    3    3    0    0 -0.99690910107E+01  0.18048962382E+02  0.15532326855E+02  0.25814743780E+02  0.51100000000E-03 0. -1.
        -11    1    3    3    0    0 -0.38791894048E+01 -0.20712183915E+00 -0.10686044467E+02  0.11370248744E+02  0.51100000000E-03 0.  1.
        -12    1    3    3    0    0  0.57695674351E+01 -0.31507549557E+02 -0.14779154082E+02  0.35276578389E+02  0.00000000000E+00 0.  1.
</event>
<event>
 7    1  0.1891413E-013  0.7246179E+02  0.7816164E-02  0.1226707E+00
        -11   -1    0    0    0    0  0.00000000000E+00  0.00000000000E+00  0.45593999997E+02  0.45594000000E+02  0.51100000000E-03 0. -1.
         11   -1    0    0    0    0 -0.00000000000E+00 -0.00000000000E+00 -0.45593999997E+02  0.45594000000E+02  0.51100000000E-03 0.  1.
    9900012    2    1    2    0    0 -0.10819859633E+02 -0.15120426382E+02  0.22303040269E+01  0.72461790760E+02  0.70000287196E+02 0.  0.
        -12    1    1    2    0    0  0.10819859633E+02  0.15120426382E+02 -0.22303040269E+01  0.18726209240E+02  0.00000000000E+00 0.  1.
         11    1    3    3    0    0  0.40191859276E+01 -0.34501150395E+02  0.13476515033E+02  0.37257209931E+02  0.51100000000E-03 0. -1.
        -11    1    3    3    0    0 -0.89905087454E+01 -0.31206786176E+01 -0.63637848593E+01  0.11448390303E+02  0.51100000000E-03 0.  1.
        -12    1    3    3    0    0 -0.58485368151E+01  0.22501402631E+02 -0.48824261466E+01  0.23756190526E+02  0.00000000000E+00 0.  1.
</event>
<event>
 7    1  0.1891413E-013  0.7246156E+02  0.7816164E-02  0.1226708E+00
        -11   -1    0    0    0    0  0.00000000000E+00  0.00000000000E+00  0.45593999997E+02  0.45594000000E+02  0.51100000000E-03 0. -1.
         11   -1    0    0    0    0 -0.00000000000E+00 -0.00000000000E+00 -0.45593999997E+02  0.45594000000E+02  0.51100000000E-03 0.  1.
    9900012    2    1    2    0    0 -0.28410578680E+01  0.52550236114E+01  0.17748037965E+02  0.72461555208E+02  0.69999980347E+02 0.  0.
        -12    1    1    2    0    0  0.28410578680E+01 -0.52550236114E+01 -0.17748037965E+02  0.18726444792E+02  0.00000000000E+00 0.  1.
         11    1    3    3    0    0  0.52313247136E+01 -0.30988883670E+02  0.10153045608E+02  0.33026686251E+02  0.51100000000E-03 0. -1.
        -11    1    3    3    0    0 -0.30747383417E+00 -0.45814613713E+00  0.12783383307E+01  0.13923315663E+01  0.51100000000E-03 0.  1.
        -12    1    3    3    0    0 -0.77649087474E+01  0.36702053418E+02  0.63166540263E+01  0.38042537390E+02  0.00000000000E+00 0.  1.
</event>
<event>
 7    1  0.1891413E-013  0.7246159E+02  0.7816164E-02  0.1226708E+00
        -11   -1    0    0    0    0  0.00000000000E+00  0.00000000000E+00  0.45593999997E+02  0.45594000000E+02  0.51100000000E-03 0.  1.
         11   -1    0    0    0    0 -0.00000000000E+00 -0.00000000000E+00 -0.45593999997E+02  0.45594000000E+02  0.51100000000E-03 0. -1.
    9900012    2    1    2    0    0  0.11718294599E+02  0.71890899444E+01 -0.12715232623E+02  0.72461585949E+02  0.70000020394E+02 0.  0.
        -12    1    1    2    0    0 -0.11718294599E+02 -0.71890899444E+01  0.12715232623E+02  0.18726414051E+02  0.00000000000E+00 0.  1.
         11    1    3    3    0    0 -0.43721878719E+01  0.63155148555E+01  0.15746785239E+02  0.17520359594E+02  0.51100000000E-03 0. -1.
        -11    1    3    3    0    0  0.60740222910E+01  0.17065623856E+02  0.28080755392E+01  0.18330699738E+02  0.51100000000E-03 0.  1.
         12    1    3    3    0    0  0.10016460180E+02 -0.16192048768E+02 -0.31270093401E+02  0.36610526617E+02  0.00000000000E+00 0. -1.
</event>
<event>
 7    1  0.1891413E-013  0.7246148E+02  0.7816164E-02  0.1226708E+00
        -11   -1    0    0    0    0  0.00000000000E+00  0.00000000000E+00  0.45593999997E+02  0.45594000000E+02  0.51100000000E-03 0. -1.
         11   -1    0    0    0    0 -0.00000000000E+00 -0.00000000000E+00 -0.45593999997E+02  0.45594000000E+02  0.51100000000E-03 0.  1.
    9900012    2    1    2    0    0 -0.51809098278E+01  0.90947763503E+01  0.15528224485E+02  0.72461480324E+02  0.69999882797E+02 0.  0.
        -12    1    1    2    0    0  0.51809098278E+01 -0.90947763503E+01 -0.15528224485E+02  0.18726519676E+02  0.00000000000E+00 0.  1.
         11    1    3    3    0    0 -0.13613814933E+02 -0.13197226166E+02  0.18176760963E+02  0.26265897565E+02  0.51100000000E-03 0. -1.
        -11    1    3    3    0    0  0.11181284203E+02 -0.91703188765E+01  0.40230354496E+00  0.14466434016E+02  0.51100000000E-03 0.  1.
        -12    1    3    3    0    0 -0.27483790978E+01  0.31462321393E+02 -0.30508400230E+01  0.31729148743E+02  0.00000000000E+00 0.  1.
</event>
<event>
 7    1  0.1891413E-013  0.7246159E+02  0.7816164E-02  0.1226708E+00
        -11   -1    0    0    0    0  0.00000000000E+00  0.00000000000E+00  0.45593999997E+02  0.45594000000E+02  0.51100000000E-03 0.  1.
         11   -1    0    0    0    0 -0.00000000000E+00 -0.00000000000E+00 -0.45593999997E+02  0.45594000000E+02  0.51100000000E-03 0. -1.
    9900012    2    1    2    0    0  0.95516523425E+01  0.32115532405E+01 -0.15783859961E+02  0.72461591590E+02  0.70000027741E+02 0.  0.
        -12    1    1    2    0    0 -0.95516523425E+01 -0.32115532405E+01  0.15783859961E+02  0.18726408410E+02  0.00000000000E+00 0.  1.
         11    1    3    3    0    0 -0.15994563616E+02 -0.19403124473E+02 -0.69563888054E+01  0.26090202185E+02  0.51100000000E-03 0. -1.
        -11    1    3    3    0    0  0.21248637912E+00 -0.50635476574E+01  0.42724296223E+01  0.66285986814E+01  0.51100000000E-03 0.  1.
        -12    1    3    3    0    0  0.25333729579E+02  0.27678225371E+02 -0.13099900778E+02  0.39742790723E+02  0.00000000000E+00 0.  1.
</event>
<event>
 7    1  0.1891413E-013  0.7246159E+02  0.7816164E-02  0.1226708E+00
        -11   -1    0    0    0    0  0.00000000000E+00  0.00000000000E+00  0.45593999997E+02  0.45594000000E+02  0.51100000000E-03 0.  1.
         11   -1    0    0    0    0 -0.00000000000E+00 -0.00000000000E+00 -0.45593999997E+02  0.45594000000E+02  0.51100000000E-03 0. -1.
    9900012    2    1    2    0    0  0.18622060241E+02 -0.99817899611E+00  0.17031766428E+01  0.72461593521E+02  0.70000030257E+02 0.  0.
        -12    1    1    2    0    0 -0.18622060241E+02  0.99817899611E+00 -0.17031766428E+01  0.18726406479E+02  0.00000000000E+00 0.  1.
         11    1    3    3    0    0 -0.10135607124E+02  0.13341577824E+02 -0.13364979039E+02  0.21432472923E+02  0.51100000000E-03 0. -1.
        -11    1    3    3    0    0  0.92862116306E+01  0.32209342116E+01 -0.10516471340E+02  0.14394593198E+02  0.51100000000E-03 0.  1.
        -12    1    3    3    0    0  0.19471455735E+02 -0.17560691032E+02  0.25584627022E+02  0.36634527400E+02  0.00000000000E+00 0.  1.
</event>
<event>
 7    1  0.1891413E-013  0.7246158E+02  0.7816164E-02  0.1226708E+00
        -11   -1    0    0    0    0  0.00000000000E+00  0.00000000000E+00  0.45593999997E+02  0.45594000000E+02  0.51100000000E-03 0.  1.
         11   -1    0    0    0    0 -0.00000000000E+00 -0.00000000000E+00 -0.45593999997E+02  0.45594000000E+02  0.51100000000E-03 0. -1.
    9900012    2    1    2    0    0 -0.76501924087E+01 -0.40440066792E+01 -0.16607211747E+02  0.72461577065E+02  0.70000008821E+02 0.  0.
        -12    1    1    2    0    0  0.76501924087E+01  0.40440066792E+01  0.16607211747E+02  0.18726422935E+02  0.00000000000E+00 0.  1.
         11    1    3    3    0    0 -0.98128069517E+00 -0.63609553028E+01 -0.37737716548E+02  0.38282632024E+02  0.51100000000E-03 0. -1.
        -11    1    3    3    0    0  0.16809478441E+01  0.11526978888E+02  0.27166174376E+01  0.11961473090E+02  0.51100000000E-03 0.  1.
        -12    1    3    3    0    0 -0.83498595577E+01 -0.92100302640E+01  0.18413887363E+02  0.22217471951E+02  0.00000000000E+00 0.  1.
</event>
<event>
 7    1  0.1891413E-013  0.7246139E+02  0.7816164E-02  0.1226708E+00
        -11   -1    0    0    0    0  0.00000000000E+00  0.00000000000E+00  0.45593999997E+02  0.45594000000E+02  0.51100000000E-03 0. -1.
         11   -1    0    0    0    0 -0.00000000000E+00 -0.00000000000E+00 -0.45593999997E+02  0.45594000000E+02  0.51100000000E-03 0.  1.
    9900012    2    1    2    0    0  0.15410694343E+02  0.10523898696E+02  0.15632881369E+01  0.72461392895E+02  0.69999768904E+02 0.  0.
        -12    1    1    2    0    0 -0.15410694343E+02 -0.10523898696E+02 -0.15632881369E+01  0.18726607105E+02  0.00000000000E+00 0.  1.
         11    1    3    3    0    0  0.45233493289E+01  0.11792139797E+02  0.10191046476E+02  0.16228760849E+02  0.51100000000E-03 0. -1.
        -11    1    3    3    0    0  0.13107882629E+02  0.25506759391E+02 -0.52482527156E+01  0.29153996613E+02  0.51100000000E-03 0.  1.
         12    1    3    3    0    0 -0.22205376151E+01 -0.26775000493E+02 -0.33795056237E+01  0.27078635433E+02  0.00000000000E+00 0. -1.
</event>
<event>
 7    1  0.1891413E-013  0.7246143E+02  0.7816164E-02  0.1226708E+00
        -11   -1    0    0    0    0  0.00000000000E+00  0.00000000000E+00  0.45593999997E+02  0.45594000000E+02  0.51100000000E-03 0.  1.
         11   -1    0    0    0    0 -0.00000000000E+00 -0.00000000000E+00 -0.45593999997E+02  0.45594000000E+02  0.51100000000E-03 0. -1.
    9900012    2    1    2    0    0 -0.11391332450E+02  0.13466077951E+02 -0.62918018337E+01  0.72461428485E+02  0.69999815267E+02 0.  0.
        -12    1    1    2    0    0  0.11391332450E+02 -0.13466077951E+02  0.62918018337E+01  0.18726571515E+02  0.00000000000E+00 0.  1.
         11    1    3    3    0    0  0.13209894661E+02 -0.10043002272E+02  0.13422511257E+01  0.16648268677E+02  0.51100000000E-03 0. -1.
        -11    1    3    3    0    0  0.10276434600E+02 -0.38340708919E+01 -0.17075375451E+01  0.11100490639E+02  0.51100000000E-03 0.  1.
         12    1    3    3    0    0 -0.34877661711E+02  0.27343151115E+02 -0.59265154143E+01  0.44712669170E+02  0.00000000000E+00 0. -1.
</event>
<event>
 7    1  0.1891413E-013  0.7246160E+02  0.7816164E-02  0.1226708E+00
        -11   -1    0    0    0    0  0.00000000000E+00  0.00000000000E+00  0.45593999997E+02  0.45594000000E+02  0.51100000000E-03 0.  1.
         11   -1    0    0    0    0 -0.00000000000E+00 -0.00000000000E+00 -0.45593999997E+02  0.45594000000E+02  0.51100000000E-03 0. -1.
    9900012    2    1    2    0    0 -0.49364697569E+01  0.40080823696E+00 -0.18059585155E+02  0.72461601604E+02  0.70000040787E+02 0.  0.
        -12    1    1    2    0    0  0.49364697569E+01 -0.40080823696E+00  0.18059585155E+02  0.18726398396E+02  0.00000000000E+00 0.  1.
         11    1    3    3    0    0 -0.19168649267E+01 -0.30558143852E+00 -0.50067828355E+01  0.53698813568E+01  0.51100000000E-03 0. -1.
        -11    1    3    3    0    0  0.13619583921E+02  0.28543390058E+02 -0.14138506956E+02  0.34642684096E+02  0.51100000000E-03 0.  1.
         12    1    3    3    0    0 -0.16639188751E+02 -0.27837000383E+02  0.10857046361E+01  0.32449036151E+02  0.00000000000E+00 0. -1.
</event>
<event>
 7    1  0.1891413E-013  0.7246154E+02  0.7816164E-02  0.1226708E+00
        -11   -1    0    0    0    0  0.00000000000E+00  0.00000000000E+00  0.45593999997E+02  0.45594000000E+02  0.51100000000E-03 0.  1.
         11   -1    0    0    0    0 -0.00000000000E+00 -0.00000000000E+00 -0.45593999997E+02  0.45594000000E+02  0.51100000000E-03 0. -1.
    9900012    2    1    2    0    0 -0.45909432495E+00  0.50091730754E+01 -0.18038224363E+02  0.72461544899E+02  0.69999966917E+02 0.  0.
        -12    1    1    2    0    0  0.45909432495E+00 -0.50091730754E+01  0.18038224363E+02  0.18726455101E+02  0.00000000000E+00 0.  1.
         11    1    3    3    0    0  0.73762959161E+01 -0.17967340603E+02  0.81264991478E+01  0.21054098377E+02  0.51100000000E-03 0. -1.
        -11    1    3    3    0    0 -0.17983160038E+01 -0.93072995724E+01 -0.12849013728E+02  0.15967370473E+02  0.51100000000E-03 0.  1.
        -12    1    3    3    0    0 -0.60370742373E+01  0.32283813251E+02 -0.13315709783E+02  0.35440076049E+02  0.00000000000E+00 0.  1.
</event>
<event>
 7    1  0.1891413E-013  0.7246155E+02  0.7816164E-02  0.1226708E+00
        -11   -1    0    0    0    0  0.00000000000E+00  0.00000000000E+00  0.45593999997E+02  0.45594000000E+02  0.51100000000E-03 0.  1.
         11   -1    0    0    0    0 -0.00000000000E+00 -0.00000000000E+00 -0.45593999997E+02  0.45594000000E+02  0.51100000000E-03 0. -1.
    9900012    2    1    2    0    0  0.13661738018E+02  0.26836432923E+01 -0.12523379852E+02  0.72461546254E+02  0.69999968683E+02 0.  0.
        -12    1    1    2    0    0 -0.13661738018E+02 -0.26836432923E+01  0.12523379852E+02  0.18726453746E+02  0.00000000000E+00 0.  1.
         11    1    3    3    0    0  0.71349685973E+01 -0.20553692615E+02 -0.13071140373E+02  0.25381425647E+02  0.51100000000E-03 0. -1.
        -11    1    3    3    0    0  0.23641758092E+02  0.11948319419E+02  0.17078788949E+01  0.26544526991E+02  0.51100000000E-03 0.  1.
        -12    1    3    3    0    0 -0.17114988671E+02  0.11289016488E+02 -0.11601183735E+01  0.20535593615E+02  0.00000000000E+00 0.  1.
</event>
<event>
 7    1  0.1891413E-013  0.7246163E+02  0.7816164E-02  0.1226708E+00
        -11   -1    0    0    0    0  0.00000000000E+00  0.00000000000E+00  0.45593999997E+02  0.45594000000E+02  0.51100000000E-03 0.  1.
         11   -1    0    0    0    0 -0.00000000000E+00 -0.00000000000E+00 -0.45593999997E+02  0.45594000000E+02  0.51100000000E-03 0. -1.
    9900012    2    1    2    0    0  0.93829028132E+01  0.48003165615E+01 -0.15478857989E+02  0.72461629585E+02  0.70000077237E+02 0.  0.
        -12    1    1    2    0    0 -0.93829028132E+01 -0.48003165615E+01  0.15478857989E+02  0.18726370415E+02  0.00000000000E+00 0.  1.
         11    1    3    3    0    0 -0.80765141143E+01  0.88468529727E+01  0.11381587581E+02  0.16523844101E+02  0.51100000000E-03 0. -1.
        -11    1    3    3    0    0 -0.14097594327E+02 -0.35700306806E+01 -0.74754291573E-01  0.14542794551E+02  0.51100000000E-03 0.  1.
        -12    1    3    3    0    0  0.31557011255E+02 -0.47650573061E+00 -0.26785691278E+02  0.41394990933E+02  0.00000000000E+00 0.  1.
</event>
<event>
 7    1  0.1891413E-013  0.7246158E+02  0.7816164E-02  0.1226708E+00
        -11   -1    0    0    0    0  0.00000000000E+00  0.00000000000E+00  0.45593999997E+02  0.45594000000E+02  0.51100000000E-03 0.  1.
         11   -1    0    0    0    0 -0.00000000000E+00 -0.00000000000E+00 -0.45593999997E+02  0.45594000000E+02  0.51100000000E-03 0. -1.
    9900012    2    1    2    0    0  0.31564804645E+01 -0.14899622038E+02 -0.10895725867E+02  0.72461576210E+02  0.70000007706E+02 0.  0.
        -12    1    1    2    0    0 -0.31564804645E+01  0.14899622038E+02  0.10895725867E+02  0.18726423790E+02  0.00000000000E+00 0.  1.
         11    1    3    3    0    0 -0.98248369491E+01 -0.42866298132E+01 -0.17399074485E+02  0.20436007668E+02  0.51100000000E-03 0. -1.
        -11    1    3    3    0    0 -0.11826772205E+01 -0.28251836576E+02  0.79037675017E+01  0.29360424662E+02  0.51100000000E-03 0.  1.
         12    1    3    3    0    0  0.14163994634E+02  0.17638844352E+02 -0.14004188843E+01  0.22665143880E+02  0.00000000000E+00 0. -1.
</event>
<event>
 7    1  0.1891413E-013  0.7246165E+02  0.7816164E-02  0.1226708E+00
        -11   -1    0    0    0    0  0.00000000000E+00  0.00000000000E+00  0.45593999997E+02  0.45594000000E+02  0.51100000000E-03 0.  1.
         11   -1    0    0    0    0 -0.00000000000E+00 -0.00000000000E+00 -0.45593999997E+02  0.45594000000E+02  0.51100000000E-03 0. -1.
    9900012    2    1    2    0    0  0.56450259184E+01 -0.12864705405E+02 -0.12381815069E+02  0.72461646719E+02  0.70000099558E+02 0.  0.
        -12    1    1    2    0    0 -0.56450259184E+01  0.12864705405E+02  0.12381815069E+02  0.18726353281E+02  0.00000000000E+00 0.  1.
         11    1    3    3    0    0 -0.12164599520E+02  0.41660499134E+01 -0.27926987698E+02  0.30744919832E+02  0.51100000000E-03 0. -1.
        -11    1    3    3    0    0 -0.63512048615E+01  0.31750061374E+01  0.41378345202E+01  0.82182809604E+01  0.51100000000E-03 0.  1.
        -12    1    3    3    0    0  0.24160830300E+02 -0.20205761456E+02  0.11407338108E+02  0.33498445927E+02  0.00000000000E+00 0.  1.
</event>
<event>
 7    1  0.1891413E-013  0.7246158E+02  0.7816164E-02  0.1226708E+00
        -11   -1    0    0    0    0  0.00000000000E+00  0.00000000000E+00  0.45593999997E+02  0.45594000000E+02  0.51100000000E-03 0.  1.
         11   -1    0    0    0    0 -0.00000000000E+00 -0.00000000000E+00 -0.45593999997E+02  0.45594000000E+02  0.51100000000E-03 0. -1.
    9900012    2    1    2    0    0 -0.81103522182E+01  0.16809132585E+02 -0.15342875103E+01  0.72461580440E+02  0.70000013217E+02 0.  0.
        -12    1    1    2    0    0  0.81103522182E+01 -0.16809132585E+02  0.15342875103E+01  0.18726419560E+02  0.00000000000E+00 0.  1.
         11    1    3    3    0    0 -0.10370224738E+02  0.15845793975E+02 -0.84725523891E+01  0.20746442877E+02  0.51100000000E-03 0. -1.
        -11    1    3    3    0    0  0.54936164561E+00  0.68350032064E+01 -0.21530930189E+02  0.22596460389E+02  0.51100000000E-03 0.  1.
        -12    1    3    3    0    0  0.17105108742E+01 -0.58716645964E+01  0.28469195068E+02  0.29118677174E+02  0.00000000000E+00 0.  1.
</event>
<event>
 7    1  0.1891413E-013  0.7246156E+02  0.7816164E-02  0.1226708E+00
        -11   -1    0    0    0    0  0.00000000000E+00  0.00000000000E+00  0.45593999997E+02  0.45594000000E+02  0.51100000000E-03 0. -1.
         11   -1    0    0    0    0 -0.00000000000E+00 -0.00000000000E+00 -0.45593999997E+02  0.45594000000E+02  0.51100000000E-03 0.  1.
    9900012    2    1    2    0    0 -0.91661320745E+01  0.65576395003E+01  0.14955228706E+02  0.72461562040E+02  0.69999989247E+02 0.  0.
        -12    1    1    2    0    0  0.91661320745E+01 -0.65576395003E+01 -0.14955228706E+02  0.18726437960E+02  0.00000000000E+00 0.  1.
         11    1    3    3    0    0 -0.19512850008E+02 -0.20080793692E+01  0.12097173505E+02  0.23046155976E+02  0.51100000000E-03 0. -1.
        -11    1    3    3    0    0 -0.15759455187E+02 -0.76965847681E+01 -0.38013500122E+01  0.17945698846E+02  0.51100000000E-03 0.  1.
        -12    1    3    3    0    0  0.26106173121E+02  0.16262303638E+02  0.66594052134E+01  0.31469707218E+02  0.00000000000E+00 0.  1.
</event>
<event>
 7    1  0.1891413E-013  0.7246161E+02  0.7816164E-02  0.1226708E+00
        -11   -1    0    0    0    0  0.00000000000E+00  0.00000000000E+00  0.45593999997E+02  0.45594000000E+02  0.51100000000E-03 0.  1.
         11   -1    0    0    0    0 -0.00000000000E+00 -0.00000000000E+00 -0.45593999997E+02  0.45594000000E+02  0.51100000000E-03 0. -1.
    9900012    2    1    2    0    0 -0.75700614486E+01  0.17123126944E+02 -0.41297383033E+00  0.72461605418E+02  0.70000045755E+02 0.  0.
        -12    1    1    2    0    0  0.75700614486E+01 -0.17123126944E+02  0.41297383033E+00  0.18726394582E+02  0.00000000000E+00 0.  1.
         11    1    3    3    0    0 -0.48839201397E+01  0.10491892310E+02 -0.26691725391E+02  0.29092622515E+02  0.51100000000E-03 0. -1.
        -11    1    3    3    0    0  0.80830168194E+01 -0.16692729812E+01 -0.47281301162E+01  0.95119318671E+01  0.51100000000E-03 0.  1.
        -12    1    3    3    0    0 -0.10769158128E+02  0.83005076150E+01  0.31006881677E+02  0.33857051035E+02  0.00000000000E+00 0.  1.
</event>
<event>
 7    1  0.1891413E-013  0.7246153E+02  0.7816164E-02  0.1226708E+00
        -11   -1    0    0    0    0  0.00000000000E+00  0.00000000000E+00  0.45593999997E+02  0.45594000000E+02  0.51100000000E-03 0.  1.
         11   -1    0    0    0    0 -0.00000000000E+00 -0.00000000000E+00 -0.45593999997E+02  0.45594000000E+02  0.51100000000E-03 0. -1.
    9900012    2    1    2    0    0  0.76914436944E+01 -0.20386750219E+01 -0.16951880596E+02  0.72461527890E+02  0.69999944760E+02 0.  0.
        -12    1    1    2    0    0 -0.76914436944E+01  0.20386750219E+01  0.16951880596E+02  0.18726472110E+02  0.00000000000E+00 0.  1.
         11    1    3    3    0    0  0.10436860447E+02  0.21825409832E+02 -0.50424982074E+01  0.24712413050E+02  0.51100000000E-03 0. -1.
        -11    1    3    3    0    0 -0.11334808293E+02 -0.10381309271E+02 -0.23445780128E+02  0.28034872343E+02  0.51100000000E-03 0.  1.
         12    1    3    3    0    0  0.85893915408E+01 -0.13482775583E+02  0.11536397739E+02  0.19714242497E+02  0.00000000000E+00 0. -1.
</event>
<event>
 7    1  0.1891413E-013  0.7246160E+02  0.7816164E-02  0.1226708E+00
        -11   -1    0    0    0    0  0.00000000000E+00  0.00000000000E+00  0.45593999997E+02  0.45594000000E+02  0.51100000000E-03 0.  1.
         11   -1    0    0    0    0 -0.00000000000E+00 -0.00000000000E+00 -0.45593999997E+02  0.45594000000E+02  0.51100000000E-03 0. -1.
    9900012    2    1    2    0    0 -0.13259020889E+02 -0.74923605966E+01 -0.10896837243E+02  0.72461597138E+02  0.70000034969E+02 0.  0.
        -12    1    1    2    0    0  0.13259020889E+02  0.74923605966E+01  0.10896837243E+02  0.18726402862E+02  0.00000000000E+00 0.  1.
         11    1    3    3    0    0  0.45214559631E+01  0.28984603019E+01  0.12487546617E+02  0.13593507896E+02  0.51100000000E-03 0. -1.
        -11    1    3    3    0    0 -0.28565045731E+01 -0.64275856471E+01  0.15504735360E+02  0.17025577655E+02  0.51100000000E-03 0.  1.
         12    1    3    3    0    0 -0.14923972279E+02 -0.39632352514E+01 -0.38889119220E+02  0.41842511588E+02  0.00000000000E+00 0. -1.
</event>
<event>
 7    1  0.1891413E-013  0.7246157E+02  0.7816164E-02  0.1226708E+00
        -11   -1    0    0    0    0  0.00000000000E+00  0.00000000000E+00  0.45593999997E+02  0.45594000000E+02  0.51100000000E-03 0. -1.
         11   -1    0    0    0    0 -0.00000000000E+00 -0.00000000000E+00 -0.45593999997E+02  0.45594000000E+02  0.51100000000E-03 0.  1.
    9900012    2    1    2    0    0  0.78729744776E+01  0.79789284040E+01  0.15001067976E+02  0.72461573058E+02  0.70000003600E+02 0.  0.
        -12    1    1    2    0    0 -0.78729744776E+01 -0.79789284040E+01 -0.15001067976E+02  0.18726426942E+02  0.00000000000E+00 0.  1.
         11    1    3    3    0    0 -0.12990511988E+02 -0.15598985849E+01  0.32294940268E+01  0.13476509832E+02  0.51100000000E-03 0. -1.
        -11    1    3    3    0    0  0.11418023224E+02  0.19343790166E+02 -0.16322164051E+02  0.27766283725E+02  0.51100000000E-03 0.  1.
         12    1    3    3    0    0  0.94454632417E+01 -0.98049631766E+01  0.28093738000E+02  0.31218779501E+02  0.00000000000E+00 0. -1.
</event>
<event>
 7    1  0.1891413E-013  0.7246138E+02  0.7816164E-02  0.1226709E+00
        -11   -1    0    0    0    0  0.00000000000E+00  0.00000000000E+00  0.45593999997E+02  0.45594000000E+02  0.51100000000E-03 0. -1.
         11   -1    0    0    0    0 -0.00000000000E+00 -0.00000000000E+00 -0.45593999997E+02  0.45594000000E+02  0.51100000000E-03 0.  1.
    9900012    2    1    2    0    0 -0.19517413044E+01  0.41499087015E+01  0.18156409369E+02  0.72461381578E+02  0.69999754161E+02 0.  0.
        -12    1    1    2    0    0  0.19517413044E+01 -0.41499087015E+01 -0.18156409369E+02  0.18726618422E+02  0.00000000000E+00 0.  1.
         11    1    3    3    0    0  0.95909088949E+01  0.17158262538E+02 -0.17192232602E+02  0.26114447512E+02  0.51100000000E-03 0. -1.
        -11    1    3    3    0    0 -0.59441903442E+00  0.59888921412E+01  0.18238801249E+01  0.62886168621E+01  0.51100000000E-03 0.  1.
         12    1    3    3    0    0 -0.10948231165E+02 -0.18997245977E+02  0.33524761846E+02  0.40058317204E+02  0.00000000000E+00 0. -1.
</event>
<event>
 7    1  0.1891413E-013  0.7246155E+02  0.7816164E-02  0.1226708E+00
        -11   -1    0    0    0    0  0.00000000000E+00  0.00000000000E+00  0.45593999997E+02  0.45594000000E+02  0.51100000000E-03 0. -1.
         11   -1    0    0    0    0 -0.00000000000E+00 -0.00000000000E+00 -0.45593999997E+02  0.45594000000E+02  0.51100000000E-03 0.  1.
    9900012    2    1    2    0    0  0.40937370255E+01  0.13819094103E+02  0.11956330137E+02  0.72461551458E+02  0.69999975462E+02 0.  0.
        -12    1    1    2    0    0 -0.40937370255E+01 -0.13819094103E+02 -0.11956330137E+02  0.18726448542E+02  0.00000000000E+00 0.  1.
         11    1    3    3    0    0  0.12110042626E+02  0.23086213250E+02  0.51300283284E+01  0.26569598521E+02  0.51100000000E-03 0. -1.
        -11    1    3    3    0    0 -0.75113287399E+01 -0.15781835011E+01 -0.18175507055E+02  0.19729667498E+02  0.51100000000E-03 0.  1.
         12    1    3    3    0    0 -0.50497686070E+00 -0.76889356465E+01  0.25001808863E+02  0.26162285440E+02  0.00000000000E+00 0. -1.
</event>
<event>
 7    1  0.1891413E-013  0.7246158E+02  0.7816164E-02  0.1226708E+00
        -11   -1    0    0    0    0  0.00000000000E+00  0.00000000000E+00  0.45593999997E+02  0.45594000000E+02  0.51100000000E-03 0.  1.
         11   -1    0    0    0    0 -0.00000000000E+00 -0.00000000000E+00 -0.45593999997E+02  0.45594000000E+02  0.51100000000E-03 0. -1.
    9900012    2    1    2    0    0 -0.17618853532E+02 -0.23260723052E+01  0.59028825820E+01  0.72461584568E+02  0.70000018595E+02 0.  0.
        -12    1    1    2    0    0  0.17618853532E+02  0.23260723052E+01 -0.59028825820E+01  0.18726415432E+02  0.00000000000E+00 0.  1.
         11    1    3    3    0    0 -0.14725866524E+02  0.37441614147E+01 -0.14831269739E+02  0.21232909643E+02  0.51100000000E-03 0. -1.
        -11    1    3    3    0    0 -0.22253856562E+02  0.53486954318E+01  0.40673009843E+01  0.23246195652E+02  0.51100000000E-03 0.  1.
         12    1    3    3    0    0  0.19360869554E+02 -0.11418929152E+02  0.16666851337E+02  0.27982479274E+02  0.00000000000E+00 0. -1.
</event>
<event>
 7    1  0.1891413E-013  0.7246164E+02  0.7816164E-02  0.1226708E+00
        -11   -1    0    0    0    0  0.00000000000E+00  0.00000000000E+00  0.45593999997E+02  0.45594000000E+02  0.51100000000E-03 0.  1.
         11   -1    0    0    0    0 -0.00000000000E+00 -0.00000000000E+00 -0.45593999997E+02  0.45594000000E+02  0.51100000000E-03 0. -1.
    9900012    2    1    2    0    0  0.50997360478E+01 -0.13617957212E+02 -0.11799171310E+02  0.72461641304E+02  0.70000092504E+02 0.  0.
        -12    1    1    2    0    0 -0.50997360478E+01  0.13617957212E+02  0.11799171310E+02  0.18726358696E+02  0.00000000000E+00 0.  1.
         11    1    3    3    0    0  0.23488928296E+02  0.12690968962E+02 -0.63994726167E+01  0.27454393013E+02  0.51100000000E-03 0. -1.
        -11    1    3    3    0    0 -0.32630321232E+01  0.65012630741E+01 -0.50876753320E+01  0.88768373163E+01  0.51100000000E-03 0.  1.
        -12    1    3    3    0    0 -0.15126160125E+02 -0.32810189248E+02 -0.31202336120E+00  0.36130410975E+02  0.00000000000E+00 0.  1.
</event>
<event>
 7    1  0.1891413E-013  0.7246152E+02  0.7816164E-02  0.1226708E+00
        -11   -1    0    0    0    0  0.00000000000E+00  0.00000000000E+00  0.45593999997E+02  0.45594000000E+02  0.51100000000E-03 0. -1.
         11   -1    0    0    0    0 -0.00000000000E+00 -0.00000000000E+00 -0.45593999997E+02  0.45594000000E+02  0.51100000000E-03 0.  1.
    9900012    2    1    2    0    0  0.25375192538E+01  0.16244855427E+02  0.89636314562E+01  0.72461520868E+02  0.69999935613E+02 0.  0.
        -12    1    1    2    0    0 -0.25375192538E+01 -0.16244855427E+02 -0.89636314562E+01  0.18726479132E+02  0.00000000000E+00 0.  1.
         11    1    3    3    0    0  0.67295152146E+01  0.12722305117E+02 -0.17831931495E+02  0.22915523201E+02  0.51100000000E-03 0. -1.
        -11    1    3    3    0    0  0.18289568802E+02  0.15539919293E+01  0.74074593204E+01  0.19793778612E+02  0.51100000000E-03 0.  1.
        -12    1    3    3    0    0 -0.22481564763E+02  0.19685583809E+01  0.19388103631E+02  0.29752219055E+02  0.00000000000E+00 0.  1.
</event>
<event>
 7    1  0.1891413E-013  0.7246180E+02  0.7816164E-02  0.1226707E+00
        -11   -1    0    0    0    0  0.00000000000E+00  0.00000000000E+00  0.45593999997E+02  0.45594000000E+02  0.51100000000E-03 0.  1.
         11   -1    0    0    0    0 -0.00000000000E+00 -0.00000000000E+00 -0.45593999997E+02  0.45594000000E+02  0.51100000000E-03 0. -1.
    9900012    2    1    2    0    0 -0.87548604406E+01 -0.10654301980E+02 -0.12669209453E+02  0.72461799099E+02  0.70000298060E+02 0.  0.
        -12    1    1    2    0    0  0.87548604406E+01  0.10654301980E+02  0.12669209453E+02  0.18726200901E+02  0.00000000000E+00 0.  1.
         11    1    3    3    0    0  0.11088975815E+02  0.82434763065E+01 -0.94149003674E+01  0.16720066849E+02  0.51100000000E-03 0. -1.
        -11    1    3    3    0    0  0.18698259983E+01  0.37081672161E+01 -0.19846312221E+02  0.20276164884E+02  0.51100000000E-03 0.  1.
        -12    1    3    3    0    0 -0.21713662254E+02 -0.22605945503E+02  0.16592003135E+02  0.35465567366E+02  0.00000000000E+00 0.  1.
</event>
<event>
 7    1  0.1891413E-013  0.7246197E+02  0.7816164E-02  0.1226707E+00
        -11   -1    0    0    0    0  0.00000000000E+00  0.00000000000E+00  0.45593999997E+02  0.45594000000E+02  0.51100000000E-03 0. -1.
         11   -1    0    0    0    0 -0.00000000000E+00 -0.00000000000E+00 -0.45593999997E+02  0.45594000000E+02  0.51100000000E-03 0.  1.
    9900012    2    1    2    0    0  0.13637037330E+02  0.10590720954E+02 -0.72478897703E+01  0.72461973631E+02  0.70000525419E+02 0.  0.
        -12    1    1    2    0    0 -0.13637037330E+02 -0.10590720954E+02  0.72478897703E+01  0.18726026369E+02  0.00000000000E+00 0.  1.
         11    1    3    3    0    0 -0.16632501128E+01  0.17809465220E+02 -0.87503271655E+01  0.19912600988E+02  0.51100000000E-03 0. -1.
        -11    1    3    3    0    0  0.78693657566E+01 -0.28718601469E+02  0.11221627168E+01  0.29798393198E+02  0.51100000000E-03 0.  1.
         12    1    3    3    0    0  0.74309216858E+01  0.21499857203E+02  0.38027467839E+00  0.22750979445E+02  0.00000000000E+00 0. -1.
</event>
<event>
 7    1  0.1891413E-013  0.7246156E+02  0.7816164E-02  0.1226708E+00
        -11   -1    0    0    0    0  0.00000000000E+00  0.00000000000E+00  0.45593999997E+02  0.45594000000E+02  0.51100000000E-03 0.  1.
         11   -1    0    0    0    0 -0.00000000000E+00 -0.00000000000E+00 -0.45593999997E+02  0.45594000000E+02  0.51100000000E-03 0. -1.
    9900012    2    1    2    0    0  0.14601617525E+01  0.17200317186E+02 -0.72592353537E+01  0.72461561963E+02  0.69999989146E+02 0.  0.
        -12    1    1    2    0    0 -0.14601617525E+01 -0.17200317186E+02  0.72592353537E+01  0.18726438037E+02  0.00000000000E+00 0.  1.
         11    1    3    3    0    0  0.91741412764E+01 -0.61270775169E+01  0.95928087868E+01  0.14619436642E+02  0.51100000000E-03 0.  1.
        -11    1    3    3    0    0 -0.23609241977E+02  0.13245090481E+02 -0.25443396981E+02  0.37150978167E+02  0.51100000000E-03 0. -1.
         12    1    3    3    0    0  0.15895262453E+02  0.10082304222E+02  0.85913528403E+01  0.20691147153E+02  0.00000000000E+00 0. -1.
</event>
<event>
 7    1  0.1891413E-013  0.7246156E+02  0.7816164E-02  0.1226708E+00
        -11   -1    0    0    0    0  0.00000000000E+00  0.00000000000E+00  0.45593999997E+02  0.45594000000E+02  0.51100000000E-03 0.  1.
         11   -1    0    0    0    0 -0.00000000000E+00 -0.00000000000E+00 -0.45593999997E+02  0.45594000000E+02  0.51100000000E-03 0. -1.
    9900012    2    1    2    0    0 -0.14945733928E+02  0.58150422842E+01 -0.96690162736E+01  0.72461559999E+02  0.69999986588E+02 0.  0.
        -12    1    1    2    0    0  0.14945733928E+02 -0.58150422842E+01  0.96690162736E+01  0.18726440001E+02  0.00000000000E+00 0.  1.
         11    1    3    3    0    0 -0.17479513853E+02  0.20074445305E+02  0.78172874555E+01  0.27742147398E+02  0.51100000000E-03 0. -1.
        -11    1    3    3    0    0  0.11349887526E+02  0.10028042914E+02 -0.84733967059E+01  0.17354539565E+02  0.51100000000E-03 0.  1.
        -12    1    3    3    0    0 -0.88161076004E+01 -0.24287445935E+02 -0.90129070232E+01  0.27364873036E+02  0.00000000000E+00 0.  1.
</event>
<event>
 7    1  0.1891413E-013  0.7246169E+02  0.7816164E-02  0.1226708E+00
        -11   -1    0    0    0    0  0.00000000000E+00  0.00000000000E+00  0.45593999997E+02  0.45594000000E+02  0.51100000000E-03 0.  1.
         11   -1    0    0    0    0 -0.00000000000E+00 -0.00000000000E+00 -0.45593999997E+02  0.45594000000E+02  0.51100000000E-03 0. -1.
    9900012    2    1    2    0    0  0.12345413366E+02 -0.27449403330E+01 -0.13810526277E+02  0.72461693245E+02  0.70000160166E+02 0.  0.
        -12    1    1    2    0    0 -0.12345413366E+02  0.27449403330E+01  0.13810526277E+02  0.18726306755E+02  0.00000000000E+00 0.  1.
         11    1    3    3    0    0  0.16466566202E+02 -0.47080968648E+01 -0.30376717478E+02  0.34872036700E+02  0.51100000000E-03 0. -1.
        -11    1    3    3    0    0  0.98476220164E+01 -0.10939772182E+02  0.68480890540E+01  0.16234241551E+02  0.51100000000E-03 0.  1.
         12    1    3    3    0    0 -0.13968774852E+02  0.12902928714E+02  0.97181021469E+01  0.21355414995E+02  0.00000000000E+00 0. -1.
</event>
<event>
 7    1  0.1891413E-013  0.7246153E+02  0.7816164E-02  0.1226708E+00
        -11   -1    0    0    0    0  0.00000000000E+00  0.00000000000E+00  0.45593999997E+02  0.45594000000E+02  0.51100000000E-03 0.  1.
         11   -1    0    0    0    0 -0.00000000000E+00 -0.00000000000E+00 -0.45593999997E+02  0.45594000000E+02  0.51100000000E-03 0. -1.
    9900012    2    1    2    0    0 -0.12344549215E+02  0.11126827337E+02 -0.86305517309E+01  0.72461531965E+02  0.69999950068E+02 0.  0.
        -12    1    1    2    0    0  0.12344549215E+02 -0.11126827337E+02  0.86305517309E+01  0.18726468035E+02  0.00000000000E+00 0.  1.
         11    1    3    3    0    0  0.61302797518E+01 -0.22638965404E+01  0.79255802192E+01  0.10272311300E+02  0.51100000000E-03 0. -1.
        -11    1    3    3    0    0 -0.23268951762E+02  0.11798570522E+02  0.15092319988E+02  0.30140147733E+02  0.51100000000E-03 0.  1.
         12    1    3    3    0    0  0.47941227955E+01  0.15921533555E+01 -0.31648451938E+02  0.32049072931E+02  0.00000000000E+00 0. -1.
</event>
<event>
 7    1  0.1891413E-013  0.7246163E+02  0.7816164E-02  0.1226708E+00
        -11   -1    0    0    0    0  0.00000000000E+00  0.00000000000E+00  0.45593999997E+02  0.45594000000E+02  0.51100000000E-03 0. -1.
         11   -1    0    0    0    0 -0.00000000000E+00 -0.00000000000E+00 -0.45593999997E+02  0.45594000000E+02  0.51100000000E-03 0.  1.
    9900012    2    1    2    0    0 -0.14087865133E+02  0.11870134480E+02 -0.33628570068E+01  0.72461632391E+02  0.70000080892E+02 0.  0.
        -12    1    1    2    0    0  0.14087865133E+02 -0.11870134480E+02  0.33628570068E+01  0.18726367609E+02  0.00000000000E+00 0.  1.
         11    1    3    3    0    0  0.46292099385E+01 -0.14329914726E+01  0.10873789211E+02  0.11904719286E+02  0.51100000000E-03 0. -1.
        -11    1    3    3    0    0  0.19112170482E+02  0.46426985070E+01 -0.15544751830E+01  0.19729320904E+02  0.51100000000E-03 0.  1.
         12    1    3    3    0    0 -0.37829245554E+02  0.86604274452E+01 -0.12682171035E+02  0.40827592201E+02  0.00000000000E+00 0. -1.
</event>
<event>
 7    1  0.1891413E-013  0.7246160E+02  0.7816164E-02  0.1226708E+00
        -11   -1    0    0    0    0  0.00000000000E+00  0.00000000000E+00  0.45593999997E+02  0.45594000000E+02  0.51100000000E-03 0.  1.
         11   -1    0    0    0    0 -0.00000000000E+00 -0.00000000000E+00 -0.45593999997E+02  0.45594000000E+02  0.51100000000E-03 0. -1.
    9900012    2    1    2    0    0 -0.32569069344E+01  0.90976427906E+01 -0.16040685587E+02  0.72461597750E+02  0.70000035767E+02 0.  0.
        -12    1    1    2    0    0  0.32569069344E+01 -0.90976427906E+01  0.16040685587E+02  0.18726402250E+02  0.00000000000E+00 0.  1.
         11    1    3    3    0    0  0.15754819266E+02 -0.54671083815E+01 -0.23104509207E+02  0.28494244157E+02  0.51100000000E-03 0. -1.
        -11    1    3    3    0    0  0.14924595000E+00  0.20987536455E+02 -0.33165297043E+01  0.21248490072E+02  0.51100000000E-03 0.  1.
        -12    1    3    3    0    0 -0.19160972150E+02 -0.64227852832E+01  0.10380353324E+02  0.22718863521E+02  0.00000000000E+00 0.  1.
</event>
<event>
 7    1  0.1891413E-013  0.7246157E+02  0.7816164E-02  0.1226708E+00
        -11   -1    0    0    0    0  0.00000000000E+00  0.00000000000E+00  0.45593999997E+02  0.45594000000E+02  0.51100000000E-03 0.  1.
         11   -1    0    0    0    0 -0.00000000000E+00 -0.00000000000E+00 -0.45593999997E+02  0.45594000000E+02  0.51100000000E-03 0. -1.
    9900012    2    1    2    0    0 -0.18274709285E+01  0.85511064345E+00 -0.18617424556E+02  0.72461565174E+02  0.69999993330E+02 0.  0.
        -12    1    1    2    0    0  0.18274709285E+01 -0.85511064345E+00  0.18617424556E+02  0.18726434826E+02  0.00000000000E+00 0.  1.
         11    1    3    3    0    0 -0.17319551171E+02 -0.22594646210E+02 -0.12213842734E+02  0.30978425472E+02  0.51100000000E-03 0. -1.
        -11    1    3    3    0    0  0.73373657967E+01 -0.37719829801E+01  0.62757630718E+01  0.10365808933E+02  0.51100000000E-03 0.  1.
        -12    1    3    3    0    0  0.81547144458E+01  0.27221739834E+02 -0.12679344894E+02  0.31117330769E+02  0.00000000000E+00 0.  1.
</event>
<event>
 7    1  0.1891413E-013  0.7246154E+02  0.7816164E-02  0.1226708E+00
        -11   -1    0    0    0    0  0.00000000000E+00  0.00000000000E+00  0.45593999997E+02  0.45594000000E+02  0.51100000000E-03 0.  1.
         11   -1    0    0    0    0 -0.00000000000E+00 -0.00000000000E+00 -0.45593999997E+02  0.45594000000E+02  0.51100000000E-03 0. -1.
    9900012    2    1    2    0    0  0.94605720685E+00 -0.13999767254E+02 -0.12401287358E+02  0.72461536491E+02  0.69999955965E+02 0.  0.
        -12    1    1    2    0    0 -0.94605720685E+00  0.13999767254E+02  0.12401287358E+02  0.18726463509E+02  0.00000000000E+00 0.  1.
         11    1    3    3    0    0  0.12340106886E+02 -0.64207529883E+01 -0.69035127637E+01  0.15529417106E+02  0.51100000000E-03 0. -1.
        -11    1    3    3    0    0  0.85108247812E+01 -0.13379445028E+02  0.19059442140E+02  0.24793265671E+02  0.51100000000E-03 0.  1.
         12    1    3    3    0    0 -0.19904874461E+02  0.58004307624E+01 -0.24557216735E+02  0.32138853714E+02  0.00000000000E+00 0. -1.
</event>
<event>
 7    1  0.1891413E-013  0.7246159E+02  0.7816164E-02  0.1226708E+00
        -11   -1    0    0    0    0  0.00000000000E+00  0.00000000000E+00  0.45593999997E+02  0.45594000000E+02  0.51100000000E-03 0.  1.
         11   -1    0    0    0    0 -0.00000000000E+00 -0.00000000000E+00 -0.45593999997E+02  0.45594000000E+02  0.51100000000E-03 0. -1.
    9900012    2    1    2    0    0 -0.13443605275E+02 -0.19421730696E+01  0.12890924825E+02  0.72461588121E+02  0.70000023222E+02 0.  0.
        -12    1    1    2    0    0  0.13443605275E+02  0.19421730696E+01 -0.12890924825E+02  0.18726411879E+02  0.00000000000E+00 0.  1.
         11    1    3    3    0    0  0.23895472626E+01 -0.14927916721E+02  0.95118614593E+01  0.17861358919E+02  0.51100000000E-03 0. -1.
        -11    1    3    3    0    0  0.74529570320E+01  0.12748215754E+02  0.20806289392E+02  0.25514020694E+02  0.51100000000E-03 0.  1.
         12    1    3    3    0    0 -0.23286109570E+02  0.23752789775E+00 -0.17427226027E+02  0.29086208508E+02  0.00000000000E+00 0. -1.
</event>
<event>
 7    1  0.1891413E-013  0.7246158E+02  0.7816164E-02  0.1226708E+00
        -11   -1    0    0    0    0  0.00000000000E+00  0.00000000000E+00  0.45593999997E+02  0.45594000000E+02  0.51100000000E-03 0. -1.
         11   -1    0    0    0    0 -0.00000000000E+00 -0.00000000000E+00 -0.45593999997E+02  0.45594000000E+02  0.51100000000E-03 0.  1.
    9900012    2    1    2    0    0  0.22808142318E+01  0.13976634790E+02  0.12252772330E+02  0.72461578468E+02  0.70000010648E+02 0.  0.
        -12    1    1    2    0    0 -0.22808142318E+01 -0.13976634790E+02 -0.12252772330E+02  0.18726421532E+02  0.00000000000E+00 0.  1.
         11    1    3    3    0    0 -0.82041417763E+01  0.11711294816E+01  0.18835340064E+02  0.20577889156E+02  0.51100000000E-03 0. -1.
        -11    1    3    3    0    0  0.20407632850E+02  0.26130583939E+02  0.19388277311E+01  0.33212015126E+02  0.51100000000E-03 0.  1.
         12    1    3    3    0    0 -0.99226768423E+01 -0.13325078630E+02 -0.85213954646E+01  0.18671674185E+02  0.00000000000E+00 0. -1.
</event>
<event>
 7    1  0.1891413E-013  0.7246154E+02  0.7816164E-02  0.1226708E+00
        -11   -1    0    0    0    0  0.00000000000E+00  0.00000000000E+00  0.45593999997E+02  0.45594000000E+02  0.51100000000E-03 0.  1.
         11   -1    0    0    0    0 -0.00000000000E+00 -0.00000000000E+00 -0.45593999997E+02  0.45594000000E+02  0.51100000000E-03 0. -1.
    9900012    2    1    2    0    0  0.15859887345E+02 -0.95168590089E+01 -0.29280653756E+01  0.72461542812E+02  0.69999964199E+02 0.  0.
        -12    1    1    2    0    0 -0.15859887345E+02  0.95168590089E+01  0.29280653756E+01  0.18726457188E+02  0.00000000000E+00 0.  1.
         11    1    3    3    0    0 -0.18160683732E+02 -0.12386837902E+02 -0.16832481579E+02  0.27687120168E+02  0.51100000000E-03 0. -1.
        -11    1    3    3    0    0  0.60831294183E+00  0.86026819072E+01  0.35684334965E+01  0.93332683725E+01  0.51100000000E-03 0.  1.
        -12    1    3    3    0    0  0.33412258135E+02 -0.57327030141E+01  0.10335982707E+02  0.35441154271E+02  0.00000000000E+00 0.  1.
</event>
<event>
 7    1  0.1919160E-013  0.7246149E+02  0.7816164E-02  0.1226708E+00
        -11   -1    0    0    0    0  0.00000000000E+00  0.00000000000E+00  0.45593999997E+02  0.45594000000E+02  0.51100000000E-03 0. -1.
         11   -1    0    0    0    0 -0.00000000000E+00 -0.00000000000E+00 -0.45593999997E+02  0.45594000000E+02  0.51100000000E-03 0.  1.
    9900012    2    1    2    0    0 -0.10431118215E+02  0.86570135808E+01  0.12920139581E+02  0.72461491565E+02  0.69999897441E+02 0.  0.
        -12    1    1    2    0    0  0.10431118215E+02 -0.86570135808E+01 -0.12920139581E+02  0.18726508435E+02  0.00000000000E+00 0.  1.
         11    1    3    3    0    0 -0.21485339515E+01  0.45702013484E+01 -0.25560081664E+01  0.56600456282E+01  0.51100000000E-03 0. -1.
        -11    1    3    3    0    0  0.16050852544E+02  0.13545650296E+02 -0.15638075479E+02  0.26185185015E+02  0.51100000000E-03 0.  1.
         12    1    3    3    0    0 -0.24333436807E+02 -0.94588380631E+01  0.31114223227E+02  0.40616260923E+02  0.00000000000E+00 0. -1.
</event>
<event>
 7    1  0.1891413E-013  0.7246164E+02  0.7816164E-02  0.1226708E+00
        -11   -1    0    0    0    0  0.00000000000E+00  0.00000000000E+00  0.45593999997E+02  0.45594000000E+02  0.51100000000E-03 0.  1.
         11   -1    0    0    0    0 -0.00000000000E+00 -0.00000000000E+00 -0.45593999997E+02  0.45594000000E+02  0.51100000000E-03 0. -1.
    9900012    2    1    2    0    0 -0.57586314195E+01  0.10792510687E+02 -0.14178726538E+02  0.72461644002E+02  0.70000096017E+02 0.  0.
        -12    1    1    2    0    0  0.57586314195E+01 -0.10792510687E+02  0.14178726538E+02  0.18726355998E+02  0.00000000000E+00 0.  1.
         11    1    3    3    0    0  0.29022205330E+01  0.14624355407E+02 -0.34354225498E+02  0.37450066287E+02  0.51100000000E-03 0. -1.
        -11    1    3    3    0    0  0.48005906733E+01 -0.11671200779E+02  0.61007888965E+01  0.14017211700E+02  0.51100000000E-03 0.  1.
        -12    1    3    3    0    0 -0.13461442626E+02  0.78393560581E+01  0.14074710063E+02  0.20994366014E+02  0.00000000000E+00 0.  1.
</event>
<event>
 7    1  0.1891413E-013  0.7246157E+02  0.7816164E-02  0.1226708E+00
        -11   -1    0    0    0    0  0.00000000000E+00  0.00000000000E+00  0.45593999997E+02  0.45594000000E+02  0.51100000000E-03 0. -1.
         11   -1    0    0    0    0 -0.00000000000E+00 -0.00000000000E+00 -0.45593999997E+02  0.45594000000E+02  0.51100000000E-03 0.  1.
    9900012    2    1    2    0    0  0.13597796091E+02 -0.88275553827E+01  0.93730181608E+01  0.72461567825E+02  0.69999996783E+02 0.  0.
        -12    1    1    2    0    0 -0.13597796091E+02  0.88275553827E+01 -0.93730181608E+01  0.18726432175E+02  0.00000000000E+00 0.  1.
         11    1    3    3    0    0  0.24539572497E+02 -0.16664778986E+02  0.58330935313E+01  0.30231282762E+02  0.51100000000E-03 0. -1.
        -11    1    3    3    0    0  0.10535444612E+02  0.16161616575E+00 -0.10960277097E+02  0.15203597839E+02  0.51100000000E-03 0.  1.
         12    1    3    3    0    0 -0.21477221018E+02  0.76756074380E+01  0.14500201726E+02  0.27026687224E+02  0.00000000000E+00 0. -1.
</event>
<event>
 7    1  0.1891413E-013  0.7246159E+02  0.7816164E-02  0.1226708E+00
        -11   -1    0    0    0    0  0.00000000000E+00  0.00000000000E+00  0.45593999997E+02  0.45594000000E+02  0.51100000000E-03 0. -1.
         11   -1    0    0    0    0 -0.00000000000E+00 -0.00000000000E+00 -0.45593999997E+02  0.45594000000E+02  0.51100000000E-03 0.  1.
    9900012    2    1    2    0    0 -0.52207777599E+01 -0.11310820915E+01  0.17948326741E+02  0.72461593513E+02  0.70000030246E+02 0.  0.
        -12    1    1    2    0    0  0.52207777599E+01  0.11310820915E+01 -0.17948326741E+02  0.18726406487E+02  0.00000000000E+00 0.  1.
         11    1    3    3    0    0  0.44456470745E+01  0.14833472630E+02  0.47054683439E+01  0.16184471594E+02  0.51100000000E-03 0. -1.
        -11    1    3    3    0    0  0.16175870276E+02  0.60450088102E+01 -0.46797728110E+01  0.17891371790E+02  0.51100000000E-03 0.  1.
         12    1    3    3    0    0 -0.25842295111E+02 -0.22009563532E+02  0.17922631209E+02  0.38385750128E+02  0.00000000000E+00 0. -1.
</event>
<event>
 7    1  0.1891413E-013  0.7246156E+02  0.7816164E-02  0.1226708E+00
        -11   -1    0    0    0    0  0.00000000000E+00  0.00000000000E+00  0.45593999997E+02  0.45594000000E+02  0.51100000000E-03 0.  1.
         11   -1    0    0    0    0 -0.00000000000E+00 -0.00000000000E+00 -0.45593999997E+02  0.45594000000E+02  0.51100000000E-03 0. -1.
    9900012    2    1    2    0    0 -0.72155130554E+01 -0.58713829449E+01 -0.16252467524E+02  0.72461562353E+02  0.69999989655E+02 0.  0.
        -12    1    1    2    0    0  0.72155130554E+01  0.58713829449E+01  0.16252467524E+02  0.18726437647E+02  0.00000000000E+00 0.  1.
         11    1    3    3    0    0 -0.87241990079E+01 -0.25547757686E+02 -0.26777751798E+02  0.38024302265E+02  0.51100000000E-03 0. -1.
        -11    1    3    3    0    0 -0.78205275872E+01  0.16840992779E+01 -0.45270362003E+01  0.91918931206E+01  0.51100000000E-03 0.  1.
        -12    1    3    3    0    0  0.93292135397E+01  0.17992275464E+02  0.15052320475E+02  0.25245366967E+02  0.00000000000E+00 0.  1.
</event>
<event>
 7    1  0.1891413E-013  0.7246157E+02  0.7816164E-02  0.1226708E+00
        -11   -1    0    0    0    0  0.00000000000E+00  0.00000000000E+00  0.45593999997E+02  0.45594000000E+02  0.51100000000E-03 0.  1.
         11   -1    0    0    0    0 -0.00000000000E+00 -0.00000000000E+00 -0.45593999997E+02  0.45594000000E+02  0.51100000000E-03 0. -1.
    9900012    2    1    2    0    0 -0.76717580058E+01  0.11443790054E+02 -0.12683179460E+02  0.72461568335E+02  0.69999997447E+02 0.  0.
        -12    1    1    2    0    0  0.76717580058E+01 -0.11443790054E+02  0.12683179460E+02  0.18726431665E+02  0.00000000000E+00 0.  1.
         11    1    3    3    0    0 -0.24769457752E+02  0.10535413561E+02  0.63349828088E+01  0.27652359459E+02  0.51100000000E-03 0. -1.
        -11    1    3    3    0    0  0.69717342769E+01  0.13822819553E+02  0.45082818679E+01  0.16124516268E+02  0.51100000000E-03 0.  1.
         12    1    3    3    0    0  0.10125965469E+02 -0.12914443060E+02 -0.23526444137E+02  0.28684692607E+02  0.00000000000E+00 0. -1.
</event>
<event>
 7    1  0.1891413E-013  0.7246159E+02  0.7816164E-02  0.1226708E+00
        -11   -1    0    0    0    0  0.00000000000E+00  0.00000000000E+00  0.45593999997E+02  0.45594000000E+02  0.51100000000E-03 0. -1.
         11   -1    0    0    0    0 -0.00000000000E+00 -0.00000000000E+00 -0.45593999997E+02  0.45594000000E+02  0.51100000000E-03 0.  1.
    9900012    2    1    2    0    0  0.80542761739E+01 -0.16896860979E+02 -0.55049763139E+00  0.72461592889E+02  0.70000029434E+02 0.  0.
        -12    1    1    2    0    0 -0.80542761739E+01  0.16896860979E+02  0.55049763139E+00  0.18726407111E+02  0.00000000000E+00 0.  1.
         11    1    3    3    0    0  0.83637002997E+01 -0.19386371978E+02  0.40041135103E+01  0.21489900569E+02  0.51100000000E-03 0. -1.
        -11    1    3    3    0    0  0.38658449955E+01 -0.21149148313E+02 -0.13463508680E+02  0.25367248533E+02  0.51100000000E-03 0.  1.
         12    1    3    3    0    0 -0.41752691213E+01  0.23638659312E+02  0.89088975387E+01  0.25604443787E+02  0.00000000000E+00 0. -1.
</event>
<event>
 7    1  0.1891413E-013  0.7246170E+02  0.7816164E-02  0.1226708E+00
        -11   -1    0    0    0    0  0.00000000000E+00  0.00000000000E+00  0.45593999997E+02  0.45594000000E+02  0.51100000000E-03 0.  1.
         11   -1    0    0    0    0 -0.00000000000E+00 -0.00000000000E+00 -0.45593999997E+02  0.45594000000E+02  0.51100000000E-03 0. -1.
    9900012    2    1    2    0    0  0.18438420784E+02  0.31807484731E+01 -0.76272164810E+00  0.72461701215E+02  0.70000170549E+02 0.  0.
        -12    1    1    2    0    0 -0.18438420784E+02 -0.31807484731E+01  0.76272164810E+00  0.18726298785E+02  0.00000000000E+00 0.  1.
         11    1    3    3    0    0 -0.83432924256E+01  0.12382675257E+01 -0.23583259934E+02  0.25046236929E+02  0.51100000000E-03 0. -1.
        -11    1    3    3    0    0 -0.47482771904E-01 -0.11524192551E+02  0.56927846904E+01  0.12853679098E+02  0.51100000000E-03 0.  1.
        -12    1    3    3    0    0  0.26829195982E+02  0.13466673498E+02  0.17127753595E+02  0.34561785188E+02  0.00000000000E+00 0.  1.
</event>
<event>
 7    1  0.1891413E-013  0.7246158E+02  0.7816164E-02  0.1226708E+00
        -11   -1    0    0    0    0  0.00000000000E+00  0.00000000000E+00  0.45593999997E+02  0.45594000000E+02  0.51100000000E-03 0. -1.
         11   -1    0    0    0    0 -0.00000000000E+00 -0.00000000000E+00 -0.45593999997E+02  0.45594000000E+02  0.51100000000E-03 0.  1.
    9900012    2    1    2    0    0  0.70742064153E+01  0.13236858507E+02 -0.11199114250E+02  0.72461575367E+02  0.70000006608E+02 0.  0.
        -12    1    1    2    0    0 -0.70742064153E+01 -0.13236858507E+02  0.11199114250E+02  0.18726424633E+02  0.00000000000E+00 0.  1.
         11    1    3    3    0    0 -0.77248698338E+00 -0.14103231241E+02  0.86027900939E+01  0.16538012736E+02  0.51100000000E-03 0. -1.
        -11    1    3    3    0    0  0.47299474634E+01 -0.11910484478E+02 -0.33156094156E+01  0.13237269717E+02  0.51100000000E-03 0.  1.
        -12    1    3    3    0    0  0.31167459353E+01  0.39250574226E+02 -0.16486294928E+02  0.42686292915E+02  0.00000000000E+00 0.  1.
</event>
<event>
 7    1  0.1891413E-013  0.7246158E+02  0.7816164E-02  0.1226708E+00
        -11   -1    0    0    0    0  0.00000000000E+00  0.00000000000E+00  0.45593999997E+02  0.45594000000E+02  0.51100000000E-03 0.  1.
         11   -1    0    0    0    0 -0.00000000000E+00 -0.00000000000E+00 -0.45593999997E+02  0.45594000000E+02  0.51100000000E-03 0. -1.
    9900012    2    1    2    0    0 -0.14322873497E+02  0.11720405944E+02 -0.28576725852E+01  0.72461577135E+02  0.70000008912E+02 0.  0.
        -12    1    1    2    0    0  0.14322873497E+02 -0.11720405944E+02  0.28576725852E+01  0.18726422865E+02  0.00000000000E+00 0.  1.
         11    1    3    3    0    0 -0.21342190889E+02 -0.10852841389E+02  0.58260983327E+01  0.24641767392E+02  0.51100000000E-03 0. -1.
        -11    1    3    3    0    0  0.87762685287E+01  0.21193250007E+01  0.14357078218E+02  0.16959956455E+02  0.51100000000E-03 0.  1.
         12    1    3    3    0    0 -0.17569511368E+01  0.20453922332E+02 -0.23040849136E+02  0.30859853288E+02  0.00000000000E+00 0. -1.
</event>
<event>
 7    1  0.1891413E-013  0.7246156E+02  0.7816164E-02  0.1226708E+00
        -11   -1    0    0    0    0  0.00000000000E+00  0.00000000000E+00  0.45593999997E+02  0.45594000000E+02  0.51100000000E-03 0.  1.
         11   -1    0    0    0    0 -0.00000000000E+00 -0.00000000000E+00 -0.45593999997E+02  0.45594000000E+02  0.51100000000E-03 0. -1.
    9900012    2    1    2    0    0  0.17127973823E+01 -0.11824156041E+02 -0.14419953618E+02  0.72461564052E+02  0.69999991869E+02 0.  0.
        -12    1    1    2    0    0 -0.17127973823E+01  0.11824156041E+02  0.14419953618E+02  0.18726435948E+02  0.00000000000E+00 0.  1.
         11    1    3    3    0    0 -0.88367968872E+01  0.82769989484E+01 -0.40706783257E+01  0.12773727456E+02  0.51100000000E-03 0. -1.
        -11    1    3    3    0    0  0.10880922506E+00  0.13461823940E+02  0.12000513192E+02  0.18034546303E+02  0.51100000000E-03 0.  1.
        -12    1    3    3    0    0  0.10440785044E+02 -0.33562978929E+02 -0.22349788485E+02  0.41653290293E+02  0.00000000000E+00 0.  1.
</event>
<event>
 7    1  0.1891413E-013  0.7246156E+02  0.7816164E-02  0.1226708E+00
        -11   -1    0    0    0    0  0.00000000000E+00  0.00000000000E+00  0.45593999997E+02  0.45594000000E+02  0.51100000000E-03 0. -1.
         11   -1    0    0    0    0 -0.00000000000E+00 -0.00000000000E+00 -0.45593999997E+02  0.45594000000E+02  0.51100000000E-03 0.  1.
    9900012    2    1    2    0    0  0.10412694770E+02 -0.96795443455E+01 -0.12188592369E+02  0.72461559467E+02  0.69999985895E+02 0.  0.
        -12    1    1    2    0    0 -0.10412694770E+02  0.96795443455E+01  0.12188592369E+02  0.18726440533E+02  0.00000000000E+00 0.  1.
         11    1    3    3    0    0 -0.88017637951E+01 -0.33325828389E+01 -0.98017696572E+00  0.94624469049E+01  0.51100000000E-03 0. -1.
        -11    1    3    3    0    0  0.32538033343E+01 -0.26756426602E+02 -0.22137372388E+02  0.34879175122E+02  0.51100000000E-03 0.  1.
         12    1    3    3    0    0  0.15960655231E+02  0.20409465096E+02  0.10928956985E+02  0.28119937441E+02  0.00000000000E+00 0. -1.
</event>
<event>
 7    1  0.1891413E-013  0.7246177E+02  0.7816164E-02  0.1226707E+00
        -11   -1    0    0    0    0  0.00000000000E+00  0.00000000000E+00  0.45593999997E+02  0.45594000000E+02  0.51100000000E-03 0. -1.
         11   -1    0    0    0    0 -0.00000000000E+00 -0.00000000000E+00 -0.45593999997E+02  0.45594000000E+02  0.51100000000E-03 0.  1.
    9900012    2    1    2    0    0  0.10459804614E+02 -0.14441171881E+02  0.57198498328E+01  0.72461771336E+02  0.70000261893E+02 0.  0.
        -12    1    1    2    0    0 -0.10459804614E+02  0.14441171881E+02 -0.57198498328E+01  0.18726228664E+02  0.00000000000E+00 0.  1.
         11    1    3    3    0    0  0.24606786775E+01  0.75214265356E+01 -0.63368837527E+01  0.10138189811E+02  0.51100000000E-03 0. -1.
        -11    1    3    3    0    0  0.64930372155E+00  0.23561917522E+01 -0.20714514786E+02  0.20858196422E+02  0.51100000000E-03 0.  1.
         12    1    3    3    0    0  0.73498222150E+01 -0.24318790169E+02  0.32771248372E+02  0.41465385103E+02  0.00000000000E+00 0. -1.
</event>
<event>
 7    1  0.1891413E-013  0.7246154E+02  0.7816164E-02  0.1226708E+00
        -11   -1    0    0    0    0  0.00000000000E+00  0.00000000000E+00  0.45593999997E+02  0.45594000000E+02  0.51100000000E-03 0. -1.
         11   -1    0    0    0    0 -0.00000000000E+00 -0.00000000000E+00 -0.45593999997E+02  0.45594000000E+02  0.51100000000E-03 0.  1.
    9900012    2    1    2    0    0  0.25038283329E+01 -0.15726819795E+02  0.98528309372E+01  0.72461540252E+02  0.69999960865E+02 0.  0.
        -12    1    1    2    0    0 -0.25038283329E+01  0.15726819795E+02 -0.98528309372E+01  0.18726459748E+02  0.00000000000E+00 0.  1.
         11    1    3    3    0    0  0.96138338746E+01 -0.23909176730E+02  0.55872639655E-01  0.25769704222E+02  0.51100000000E-03 0. -1.
        -11    1    3    3    0    0 -0.17231849471E+02 -0.19463271120E+01  0.21905838339E+02  0.27939051147E+02  0.51100000000E-03 0.  1.
         12    1    3    3    0    0  0.10121843929E+02  0.10128684047E+02 -0.12108880041E+02  0.18752784884E+02  0.00000000000E+00 0. -1.
</event>
<event>
 7    1  0.1891413E-013  0.7246162E+02  0.7816164E-02  0.1226708E+00
        -11   -1    0    0    0    0  0.00000000000E+00  0.00000000000E+00  0.45593999997E+02  0.45594000000E+02  0.51100000000E-03 0. -1.
         11   -1    0    0    0    0 -0.00000000000E+00 -0.00000000000E+00 -0.45593999997E+02  0.45594000000E+02  0.51100000000E-03 0.  1.
    9900012    2    1    2    0    0 -0.11831637259E+02  0.13752996185E+02 -0.46416441758E+01  0.72461617409E+02  0.70000061376E+02 0.  0.
        -12    1    1    2    0    0  0.11831637259E+02 -0.13752996185E+02  0.46416441758E+01  0.18726382591E+02  0.00000000000E+00 0.  1.
         11    1    3    3    0    0  0.23341212453E+01  0.10683944452E+01  0.67694985438E+01  0.72398687470E+01  0.51100000000E-03 0. -1.
        -11    1    3    3    0    0  0.10391504958E+02  0.16079569185E+02 -0.29053421097E+02  0.34794212136E+02  0.51100000000E-03 0.  1.
         12    1    3    3    0    0 -0.24557263462E+02 -0.33949674458E+01  0.17642278377E+02  0.30427536526E+02  0.00000000000E+00 0. -1.
</event>
<event>
 7    1  0.1891413E-013  0.7246160E+02  0.7816164E-02  0.1226708E+00
        -11   -1    0    0    0    0  0.00000000000E+00  0.00000000000E+00  0.45593999997E+02  0.45594000000E+02  0.51100000000E-03 0. -1.
         11   -1    0    0    0    0 -0.00000000000E+00 -0.00000000000E+00 -0.45593999997E+02  0.45594000000E+02  0.51100000000E-03 0.  1.
    9900012    2    1    2    0    0  0.12229206065E+02  0.50086997754E+01  0.13267909102E+02  0.72461602419E+02  0.70000041848E+02 0.  0.
        -12    1    1    2    0    0 -0.12229206065E+02 -0.50086997754E+01 -0.13267909102E+02  0.18726397581E+02  0.00000000000E+00 0.  1.
         11    1    3    3    0    0  0.83988279807E+01 -0.22594597478E+02  0.12618320557E+02  0.27208053230E+02  0.51100000000E-03 0. -1.
        -11    1    3    3    0    0  0.16476445191E+02  0.10981330043E+02 -0.95809870442E+01  0.21996776324E+02  0.51100000000E-03 0.  1.
         12    1    3    3    0    0 -0.12646067107E+02  0.16621967210E+02  0.10230575590E+02  0.23256772865E+02  0.00000000000E+00 0. -1.
</event>
<event>
 7    1  0.1891413E-013  0.7246155E+02  0.7816164E-02  0.1226708E+00
        -11   -1    0    0    0    0  0.00000000000E+00  0.00000000000E+00  0.45593999997E+02  0.45594000000E+02  0.51100000000E-03 0.  1.
         11   -1    0    0    0    0 -0.00000000000E+00 -0.00000000000E+00 -0.45593999997E+02  0.45594000000E+02  0.51100000000E-03 0. -1.
    9900012    2    1    2    0    0  0.93146628042E+00 -0.86440606159E+01 -0.16585913440E+02  0.72461549776E+02  0.69999973271E+02 0.  0.
        -12    1    1    2    0    0 -0.93146628042E+00  0.86440606159E+01  0.16585913440E+02  0.18726450224E+02  0.00000000000E+00 0.  1.
         11    1    3    3    0    0  0.24250919555E+02 -0.54145973917E+01 -0.20753158970E+02  0.32374659407E+02  0.51100000000E-03 0. -1.
        -11    1    3    3    0    0 -0.23221630562E+02  0.10471863961E+01 -0.99873871826E+01  0.25299972891E+02  0.51100000000E-03 0.  1.
        -12    1    3    3    0    0 -0.97822713117E-01 -0.42766496203E+01  0.14154632713E+02  0.14786917478E+02  0.00000000000E+00 0.  1.
</event>
<event>
 7    1  0.1891413E-013  0.7246160E+02  0.7816164E-02  0.1226708E+00
        -11   -1    0    0    0    0  0.00000000000E+00  0.00000000000E+00  0.45593999997E+02  0.45594000000E+02  0.51100000000E-03 0. -1.
         11   -1    0    0    0    0 -0.00000000000E+00 -0.00000000000E+00 -0.45593999997E+02  0.45594000000E+02  0.51100000000E-03 0.  1.
    9900012    2    1    2    0    0 -0.23208723233E+01 -0.12825533633E+02  0.13446082557E+02  0.72461604259E+02  0.70000044245E+02 0.  0.
        -12    1    1    2    0    0  0.23208723233E+01  0.12825533633E+02 -0.13446082557E+02  0.18726395741E+02  0.00000000000E+00 0.  1.
         11    1    3    3    0    0  0.14246727563E+01 -0.40819957803E+01 -0.18117473897E+02  0.18626197752E+02  0.51100000000E-03 0. -1.
        -11    1    3    3    0    0 -0.22766030721E+02 -0.55177190393E+00  0.14454746335E+02  0.26972880805E+02  0.51100000000E-03 0.  1.
         12    1    3    3    0    0  0.19020485642E+02 -0.81917659488E+01  0.17108810119E+02  0.26862525702E+02  0.00000000000E+00 0. -1.
</event>
<event>
 7    1  0.1891413E-013  0.7246160E+02  0.7816164E-02  0.1226708E+00
        -11   -1    0    0    0    0  0.00000000000E+00  0.00000000000E+00  0.45593999997E+02  0.45594000000E+02  0.51100000000E-03 0.  1.
         11   -1    0    0    0    0 -0.00000000000E+00 -0.00000000000E+00 -0.45593999997E+02  0.45594000000E+02  0.51100000000E-03 0. -1.
    9900012    2    1    2    0    0 -0.13078129982E+02 -0.72277673276E+01 -0.11287158123E+02  0.72461600377E+02  0.70000039188E+02 0.  0.
        -12    1    1    2    0    0  0.13078129982E+02  0.72277673276E+01  0.11287158123E+02  0.18726399623E+02  0.00000000000E+00 0.  1.
         11    1    3    3    0    0 -0.18448592232E+02 -0.18903465819E+02  0.47294795187E+01  0.26833925394E+02  0.51100000000E-03 0. -1.
        -11    1    3    3    0    0 -0.48313135523E+01 -0.14133835355E+02 -0.47304536144E+01  0.15667931713E+02  0.51100000000E-03 0.  1.
        -12    1    3    3    0    0  0.10201775802E+02  0.25809533846E+02 -0.11286184028E+02  0.29959743270E+02  0.00000000000E+00 0.  1.
</event>
<event>
 7    1  0.1891413E-013  0.7246159E+02  0.7816164E-02  0.1226708E+00
        -11   -1    0    0    0    0  0.00000000000E+00  0.00000000000E+00  0.45593999997E+02  0.45594000000E+02  0.51100000000E-03 0. -1.
         11   -1    0    0    0    0 -0.00000000000E+00 -0.00000000000E+00 -0.45593999997E+02  0.45594000000E+02  0.51100000000E-03 0.  1.
    9900012    2    1    2    0    0  0.41756302214E+01 -0.18225583710E+02  0.10347111523E+01  0.72461590401E+02  0.70000026192E+02 0.  0.
        -12    1    1    2    0    0 -0.41756302214E+01  0.18225583710E+02 -0.10347111523E+01  0.18726409599E+02  0.00000000000E+00 0.  1.
         11    1    3    3    0    0 -0.19023567723E+02  0.65451824474E+01  0.22734919866E+02  0.30358065217E+02  0.51100000000E-03 0. -1.
        -11    1    3    3    0    0  0.97412242721E+01 -0.63530630383E+01 -0.13606553986E+02  0.17899474068E+02  0.51100000000E-03 0.  1.
        -12    1    3    3    0    0  0.13457973672E+02 -0.18417703119E+02 -0.80936547274E+01  0.24204051115E+02  0.00000000000E+00 0.  1.
</event>
<event>
 7    1  0.1891413E-013  0.7246159E+02  0.7816164E-02  0.1226708E+00
        -11   -1    0    0    0    0  0.00000000000E+00  0.00000000000E+00  0.45593999997E+02  0.45594000000E+02  0.51100000000E-03 0.  1.
         11   -1    0    0    0    0 -0.00000000000E+00 -0.00000000000E+00 -0.45593999997E+02  0.45594000000E+02  0.51100000000E-03 0. -1.
    9900012    2    1    2    0    0 -0.13334551161E+02  0.50097201102E+01 -0.12156109312E+02  0.72461587000E+02  0.70000021763E+02 0.  0.
        -12    1    1    2    0    0  0.13334551161E+02 -0.50097201102E+01  0.12156109312E+02  0.18726413000E+02  0.00000000000E+00 0.  1.
         11    1    3    3    0    0  0.12822429702E+02  0.43863498697E+01 -0.19564198377E+02  0.23799424931E+02  0.51100000000E-03 0. -1.
        -11    1    3    3    0    0  0.47734652830E+01  0.13692302492E+02  0.16531315619E+01  0.14594449718E+02  0.51100000000E-03 0.  1.
        -12    1    3    3    0    0 -0.30930446146E+02 -0.13068932252E+02  0.57549575032E+01  0.34067712352E+02  0.00000000000E+00 0.  1.
</event>
<event>
 7    1  0.1891413E-013  0.7246156E+02  0.7816164E-02  0.1226708E+00
        -11   -1    0    0    0    0  0.00000000000E+00  0.00000000000E+00  0.45593999997E+02  0.45594000000E+02  0.51100000000E-03 0.  1.
         11   -1    0    0    0    0 -0.00000000000E+00 -0.00000000000E+00 -0.45593999997E+02  0.45594000000E+02  0.51100000000E-03 0. -1.
    9900012    2    1    2    0    0 -0.70623203023E+01 -0.46089735751E+01 -0.16720064809E+02  0.72461559530E+02  0.69999985977E+02 0.  0.
        -12    1    1    2    0    0  0.70623203023E+01  0.46089735751E+01  0.16720064809E+02  0.18726440470E+02  0.00000000000E+00 0.  1.
         11    1    3    3    0    0 -0.40200181721E+01 -0.24472241161E+00  0.39881816947E+01  0.56679827676E+01  0.51100000000E-03 0. -1.
        -11    1    3    3    0    0  0.16997193804E+02 -0.11241380384E+02  0.14978944066E+02  0.25291144612E+02  0.51100000000E-03 0.  1.
         12    1    3    3    0    0 -0.20039495934E+02  0.68771292208E+01 -0.35687190570E+02  0.41502432150E+02  0.00000000000E+00 0. -1.
</event>
<event>
 7    1  0.1891413E-013  0.7246159E+02  0.7816164E-02  0.1226708E+00
        -11   -1    0    0    0    0  0.00000000000E+00  0.00000000000E+00  0.45593999997E+02  0.45594000000E+02  0.51100000000E-03 0. -1.
         11   -1    0    0    0    0 -0.00000000000E+00 -0.00000000000E+00 -0.45593999997E+02  0.45594000000E+02  0.51100000000E-03 0.  1.
    9900012    2    1    2    0    0  0.86703992674E+01  0.12045592409E+02  0.11419551753E+02  0.72461593986E+02  0.70000030863E+02 0.  0.
        -12    1    1    2    0    0 -0.86703992674E+01 -0.12045592409E+02 -0.11419551753E+02  0.18726406014E+02  0.00000000000E+00 0.  1.
         11    1    3    3    0    0  0.33611653334E+02  0.15099194486E+01  0.27869731134E+00  0.33646705173E+02  0.51100000000E-03 0. -1.
        -11    1    3    3    0    0  0.38750160083E+01 -0.34120459150E+01  0.17509011370E+01  0.54519227291E+01  0.51100000000E-03 0.  1.
        -12    1    3    3    0    0 -0.28816270075E+02  0.13947718876E+02  0.93899533048E+01  0.33362966084E+02  0.00000000000E+00 0.  1.
</event>
<event>
 7    1  0.1891413E-013  0.7246179E+02  0.7816164E-02  0.1226707E+00
        -11   -1    0    0    0    0  0.00000000000E+00  0.00000000000E+00  0.45593999997E+02  0.45594000000E+02  0.51100000000E-03 0. -1.
         11   -1    0    0    0    0 -0.00000000000E+00 -0.00000000000E+00 -0.45593999997E+02  0.45594000000E+02  0.51100000000E-03 0.  1.
    9900012    2    1    2    0    0 -0.33036976445E+01 -0.15078519706E+01  0.18370704788E+02  0.72461792960E+02  0.70000290063E+02 0.  0.
        -12    1    1    2    0    0  0.33036976445E+01  0.15078519706E+01 -0.18370704788E+02  0.18726207040E+02  0.00000000000E+00 0.  1.
         11    1    3    3    0    0 -0.11516373342E+02  0.35529277252E+01  0.43839722149E+01  0.12824560929E+02  0.51100000000E-03 0. -1.
        -11    1    3    3    0    0 -0.16213779726E+02 -0.22599220192E+02  0.83745394862E+01  0.29047277294E+02  0.51100000000E-03 0.  1.
         12    1    3    3    0    0  0.24426455424E+02  0.17538440496E+02  0.56121930867E+01  0.30589954738E+02  0.00000000000E+00 0. -1.
</event>
<event>
 7    1  0.1891413E-013  0.7246159E+02  0.7816164E-02  0.1226708E+00
        -11   -1    0    0    0    0  0.00000000000E+00  0.00000000000E+00  0.45593999997E+02  0.45594000000E+02  0.51100000000E-03 0. -1.
         11   -1    0    0    0    0 -0.00000000000E+00 -0.00000000000E+00 -0.45593999997E+02  0.45594000000E+02  0.51100000000E-03 0.  1.
    9900012    2    1    2    0    0  0.12080857035E+01 -0.16459580853E+01  0.18614771471E+02  0.72461591748E+02  0.70000027948E+02 0.  0.
        -12    1    1    2    0    0 -0.12080857035E+01  0.16459580853E+01 -0.18614771471E+02  0.18726408252E+02  0.00000000000E+00 0.  1.
         11    1    3    3    0    0  0.58224415897E+01 -0.22500510752E+02 -0.20147157954E+01  0.23328799587E+02  0.51100000000E-03 0. -1.
        -11    1    3    3    0    0  0.11071192319E+02 -0.45396956985E+01 -0.13833274242E+01  0.12045485935E+02  0.51100000000E-03 0.  1.
        -12    1    3    3    0    0 -0.15685548205E+02  0.25394248365E+02  0.22012814691E+02  0.37087306226E+02  0.00000000000E+00 0.  1.
</event>
<event>
 7    1  0.1891413E-013  0.7246159E+02  0.7816164E-02  0.1226708E+00
        -11   -1    0    0    0    0  0.00000000000E+00  0.00000000000E+00  0.45593999997E+02  0.45594000000E+02  0.51100000000E-03 0.  1.
         11   -1    0    0    0    0 -0.00000000000E+00 -0.00000000000E+00 -0.45593999997E+02  0.45594000000E+02  0.51100000000E-03 0. -1.
    9900012    2    1    2    0    0 -0.16928145785E+02 -0.57820604279E+01 -0.55393381913E+01  0.72461585231E+02  0.70000019458E+02 0.  0.
        -12    1    1    2    0    0  0.16928145785E+02  0.57820604279E+01  0.55393381913E+01  0.18726414769E+02  0.00000000000E+00 0.  1.
         11    1    3    3    0    0  0.14887889215E+00  0.11444508723E+02  0.53268586054E+01  0.12624356130E+02  0.51100000000E-03 0. -1.
        -11    1    3    3    0    0  0.15309917020E+02  0.16935757657E+01 -0.15728736134E+02  0.22014879029E+02  0.51100000000E-03 0.  1.
         12    1    3    3    0    0 -0.32386941697E+02 -0.18920144917E+02  0.48625393374E+01  0.37822350072E+02  0.00000000000E+00 0. -1.
</event>
<event>
 7    1  0.1891413E-013  0.7246159E+02  0.7816164E-02  0.1226708E+00
        -11   -1    0    0    0    0  0.00000000000E+00  0.00000000000E+00  0.45593999997E+02  0.45594000000E+02  0.51100000000E-03 0. -1.
         11   -1    0    0    0    0 -0.00000000000E+00 -0.00000000000E+00 -0.45593999997E+02  0.45594000000E+02  0.51100000000E-03 0.  1.
    9900012    2    1    2    0    0  0.74884220922E+01 -0.49932158453E+01  0.16421624676E+02  0.72461590123E+02  0.70000025830E+02 0.  0.
        -12    1    1    2    0    0 -0.74884220922E+01  0.49932158453E+01 -0.16421624676E+02  0.18726409877E+02  0.00000000000E+00 0.  1.
         11    1    3    3    0    0 -0.19442170201E+02  0.13264586577E+02  0.51679184319E+01  0.24096776141E+02  0.51100000000E-03 0. -1.
        -11    1    3    3    0    0  0.80213698217E+00 -0.46845423637E+01 -0.10653315711E+02  0.11665397413E+02  0.51100000000E-03 0.  1.
         12    1    3    3    0    0  0.26128455311E+02 -0.13573260059E+02  0.21907021955E+02  0.36699416569E+02  0.00000000000E+00 0. -1.
</event>
<event>
 7    1  0.1978883E-013  0.7246153E+02  0.7816164E-02  0.1226708E+00
        -11   -1    0    0    0    0  0.00000000000E+00  0.00000000000E+00  0.45593999997E+02  0.45594000000E+02  0.51100000000E-03 0. -1.
         11   -1    0    0    0    0 -0.00000000000E+00 -0.00000000000E+00 -0.45593999997E+02  0.45594000000E+02  0.51100000000E-03 0.  1.
    9900012    2    1    2    0    0  0.29918947443E+01  0.14137703099E+02  0.11910269759E+02  0.72461531865E+02  0.69999949939E+02 0.  0.
        -12    1    1    2    0    0 -0.29918947443E+01 -0.14137703099E+02 -0.11910269759E+02  0.18726468135E+02  0.00000000000E+00 0.  1.
         11    1    3    3    0    0 -0.14081703703E+02  0.10554924423E+02  0.18032007268E+02  0.25196311141E+02  0.51100000000E-03 0. -1.
        -11    1    3    3    0    0 -0.12066182333E+02  0.98240521575E+01 -0.78237807402E+01  0.17415978359E+02  0.51100000000E-03 0.  1.
         12    1    3    3    0    0  0.29139780780E+02 -0.62412734815E+01  0.17020432319E+01  0.29849242365E+02  0.00000000000E+00 0. -1.
</event>
<event>
 7    1  0.1891413E-013  0.7246155E+02  0.7816164E-02  0.1226708E+00
        -11   -1    0    0    0    0  0.00000000000E+00  0.00000000000E+00  0.45593999997E+02  0.45594000000E+02  0.51100000000E-03 0.  1.
         11   -1    0    0    0    0 -0.00000000000E+00 -0.00000000000E+00 -0.45593999997E+02  0.45594000000E+02  0.51100000000E-03 0. -1.
    9900012    2    1    2    0    0  0.10441069820E+02  0.11977050030E+02  0.99103106216E+01  0.72461550176E+02  0.69999973792E+02 0.  0.
        -12    1    1    2    0    0 -0.10441069820E+02 -0.11977050030E+02 -0.99103106216E+01  0.18726449824E+02  0.00000000000E+00 0.  1.
         11    1    3    3    0    0  0.27981935386E+00  0.19559422935E+02  0.44123127710E+01  0.20052875821E+02  0.51100000000E-03 0. -1.
        -11    1    3    3    0    0 -0.14088810933E+02  0.12283112753E+02 -0.50014605585E+01  0.19349006703E+02  0.51100000000E-03 0.  1.
         12    1    3    3    0    0  0.24250061400E+02 -0.19865485659E+02  0.10499458409E+02  0.33059667652E+02  0.00000000000E+00 0. -1.
</event>
<event>
 7    1  0.1891413E-013  0.7246153E+02  0.7816164E-02  0.1226708E+00
        -11   -1    0    0    0    0  0.00000000000E+00  0.00000000000E+00  0.45593999997E+02  0.45594000000E+02  0.51100000000E-03 0.  1.
         11   -1    0    0    0    0 -0.00000000000E+00 -0.00000000000E+00 -0.45593999997E+02  0.45594000000E+02  0.51100000000E-03 0. -1.
    9900012    2    1    2    0    0 -0.11176257263E+02 -0.14599187233E+02 -0.35546935352E+01  0.72461525682E+02  0.69999941883E+02 0.  0.
        -12    1    1    2    0    0  0.11176257263E+02  0.14599187233E+02  0.35546935352E+01  0.18726474318E+02  0.00000000000E+00 0.  1.
         11    1    3    3    0    0 -0.11286217830E+02  0.23813682181E+02 -0.76191218779E+00  0.26363813881E+02  0.51100000000E-03 0. -1.
        -11    1    3    3    0    0 -0.72576790091E+01 -0.19117633822E+01 -0.46242209322E+01  0.88154502618E+01  0.51100000000E-03 0.  1.
         12    1    3    3    0    0  0.73676395767E+01 -0.36501106032E+02  0.18314395848E+01  0.37282261538E+02  0.00000000000E+00 0. -1.
</event>
<event>
 7    1  0.1891413E-013  0.7246158E+02  0.7816164E-02  0.1226708E+00
        -11   -1    0    0    0    0  0.00000000000E+00  0.00000000000E+00  0.45593999997E+02  0.45594000000E+02  0.51100000000E-03 0.  1.
         11   -1    0    0    0    0 -0.00000000000E+00 -0.00000000000E+00 -0.45593999997E+02  0.45594000000E+02  0.51100000000E-03 0. -1.
    9900012    2    1    2    0    0  0.15831608756E+02  0.96532471316E+01 -0.26180031133E+01  0.72461575988E+02  0.70000007417E+02 0.  0.
        -12    1    1    2    0    0 -0.15831608756E+02 -0.96532471316E+01  0.26180031133E+01  0.18726424012E+02  0.00000000000E+00 0.  1.
         11    1    3    3    0    0  0.16621798244E+02 -0.13970121469E+02 -0.16663927069E+02  0.27370329490E+02  0.51100000000E-03 0. -1.
        -11    1    3    3    0    0  0.14079920609E+02  0.29218587551E-01  0.50587268579E+00  0.14089035649E+02  0.51100000000E-03 0.  1.
        -12    1    3    3    0    0 -0.14870110098E+02  0.23594150013E+02  0.13540051270E+02  0.31002210850E+02  0.00000000000E+00 0.  1.
</event>
<event>
 7    1  0.1891413E-013  0.7246149E+02  0.7816164E-02  0.1226708E+00
        -11   -1    0    0    0    0  0.00000000000E+00  0.00000000000E+00  0.45593999997E+02  0.45594000000E+02  0.51100000000E-03 0. -1.
         11   -1    0    0    0    0 -0.00000000000E+00 -0.00000000000E+00 -0.45593999997E+02  0.45594000000E+02  0.51100000000E-03 0.  1.
    9900012    2    1    2    0    0 -0.12582602957E+02 -0.81801910341E+01  0.11200219131E+02  0.72461485879E+02  0.69999890033E+02 0.  0.
        -12    1    1    2    0    0  0.12582602957E+02  0.81801910341E+01 -0.11200219131E+02  0.18726514121E+02  0.00000000000E+00 0.  1.
         11    1    3    3    0    0 -0.17907688172E+02 -0.16106394865E+00  0.18386301232E+02  0.25666462758E+02  0.51100000000E-03 0. -1.
        -11    1    3    3    0    0 -0.15450212879E+02 -0.10178328027E+02  0.88044564093E+01  0.20489653300E+02  0.51100000000E-03 0.  1.
         12    1    3    3    0    0  0.20775298094E+02  0.21592009411E+01 -0.15990538510E+02  0.26305369821E+02  0.00000000000E+00 0. -1.
</event>
<event>
 7    1  0.1891413E-013  0.7246152E+02  0.7816164E-02  0.1226708E+00
        -11   -1    0    0    0    0  0.00000000000E+00  0.00000000000E+00  0.45593999997E+02  0.45594000000E+02  0.51100000000E-03 0.  1.
         11   -1    0    0    0    0 -0.00000000000E+00 -0.00000000000E+00 -0.45593999997E+02  0.45594000000E+02  0.51100000000E-03 0. -1.
    9900012    2    1    2    0    0  0.17900183149E+02  0.17516715828E+01  0.52149758008E+01  0.72461524552E+02  0.69999940412E+02 0.  0.
        -12    1    1    2    0    0 -0.17900183149E+02 -0.17516715828E+01 -0.52149758008E+01  0.18726475448E+02  0.00000000000E+00 0.  1.
         11    1    3    3    0    0  0.12047713886E+02 -0.90633389840E+00 -0.27484182945E+01  0.12390425917E+02  0.51100000000E-03 0. -1.
        -11    1    3    3    0    0  0.22906811358E+02  0.51531538336E+01  0.26061883781E+02  0.35078466151E+02  0.51100000000E-03 0.  1.
         12    1    3    3    0    0 -0.17054342096E+02 -0.24951483524E+01 -0.18098489685E+02  0.24992632485E+02  0.00000000000E+00 0. -1.
</event>
<event>
 7    1  0.1891413E-013  0.7246158E+02  0.7816164E-02  0.1226708E+00
        -11   -1    0    0    0    0  0.00000000000E+00  0.00000000000E+00  0.45593999997E+02  0.45594000000E+02  0.51100000000E-03 0. -1.
         11   -1    0    0    0    0 -0.00000000000E+00 -0.00000000000E+00 -0.45593999997E+02  0.45594000000E+02  0.51100000000E-03 0.  1.
    9900012    2    1    2    0    0 -0.12324930257E+02  0.14005831575E+02  0.16160165019E+01  0.72461581942E+02  0.70000015173E+02 0.  0.
        -12    1    1    2    0    0  0.12324930257E+02 -0.14005831575E+02 -0.16160165019E+01  0.18726418058E+02  0.00000000000E+00 0.  1.
         11    1    3    3    0    0 -0.18338049586E+02  0.94430312286E+01 -0.29704493541E+01  0.20839349103E+02  0.51100000000E-03 0. -1.
        -11    1    3    3    0    0  0.83870643828E+01 -0.20747461189E+02 -0.73273583915E+01  0.23547615081E+02  0.51100000000E-03 0.  1.
         12    1    3    3    0    0 -0.23739450538E+01  0.25310261535E+02  0.11913824247E+02  0.28074617758E+02  0.00000000000E+00 0. -1.
</event>
<event>
 7    1  0.1891413E-013  0.7246151E+02  0.7816164E-02  0.1226708E+00
        -11   -1    0    0    0    0  0.00000000000E+00  0.00000000000E+00  0.45593999997E+02  0.45594000000E+02  0.51100000000E-03 0. -1.
         11   -1    0    0    0    0 -0.00000000000E+00 -0.00000000000E+00 -0.45593999997E+02  0.45594000000E+02  0.51100000000E-03 0.  1.
    9900012    2    1    2    0    0  0.73548154019E+01 -0.15765478007E+02  0.69309342441E+01  0.72461509248E+02  0.69999920475E+02 0.  0.
        -12    1    1    2    0    0 -0.73548154019E+01  0.15765478007E+02 -0.69309342441E+01  0.18726490752E+02  0.00000000000E+00 0.  1.
         11    1    3    3    0    0  0.24457219906E+01 -0.48077748041E+01 -0.60336282076E+01  0.80932641271E+01  0.51100000000E-03 0. -1.
        -11    1    3    3    0    0  0.25192316612E+02 -0.25984090690E+02  0.45186145141E+00  0.36194336080E+02  0.51100000000E-03 0.  1.
         12    1    3    3    0    0 -0.20283223201E+02  0.15026387486E+02  0.12512701000E+02  0.28173909041E+02  0.00000000000E+00 0. -1.
</event>
<event>
 7    1  0.1891413E-013  0.7246143E+02  0.7816164E-02  0.1226708E+00
        -11   -1    0    0    0    0  0.00000000000E+00  0.00000000000E+00  0.45593999997E+02  0.45594000000E+02  0.51100000000E-03 0.  1.
         11   -1    0    0    0    0 -0.00000000000E+00 -0.00000000000E+00 -0.45593999997E+02  0.45594000000E+02  0.51100000000E-03 0. -1.
    9900012    2    1    2    0    0 -0.17904590627E+02 -0.85013945982E+00 -0.54209907708E+01  0.72461434817E+02  0.69999823516E+02 0.  0.
        -12    1    1    2    0    0  0.17904590627E+02  0.85013945982E+00  0.54209907708E+01  0.18726565183E+02  0.00000000000E+00 0.  1.
         11    1    3    3    0    0 -0.63855410119E+01 -0.52662122232E+01 -0.13984261597E+01  0.83942671615E+01  0.51100000000E-03 0. -1.
        -11    1    3    3    0    0 -0.10232906542E+02  0.32884943298E+02  0.34307342995E+01  0.34610718139E+02  0.51100000000E-03 0.  1.
         12    1    3    3    0    0 -0.12861430726E+01 -0.28468870534E+02 -0.74532989106E+01  0.29456449517E+02  0.00000000000E+00 0. -1.
</event>
<event>
 7    1  0.1891413E-013  0.7246154E+02  0.7816164E-02  0.1226708E+00
        -11   -1    0    0    0    0  0.00000000000E+00  0.00000000000E+00  0.45593999997E+02  0.45594000000E+02  0.51100000000E-03 0. -1.
         11   -1    0    0    0    0 -0.00000000000E+00 -0.00000000000E+00 -0.45593999997E+02  0.45594000000E+02  0.51100000000E-03 0.  1.
    9900012    2    1    2    0    0  0.39037643958E+01  0.15338599936E+02 -0.10008401443E+02  0.72461544812E+02  0.69999966805E+02 0.  0.
        -12    1    1    2    0    0 -0.39037643958E+01 -0.15338599936E+02  0.10008401443E+02  0.18726455188E+02  0.00000000000E+00 0.  1.
         11    1    3    3    0    0  0.16974611604E+02  0.13180401601E+02 -0.85277659482E+01  0.23121055724E+02  0.51100000000E-03 0. -1.
        -11    1    3    3    0    0  0.81351896348E+01  0.13082972145E+02 -0.15349236131E+02  0.21747287661E+02  0.51100000000E-03 0.  1.
         12    1    3    3    0    0 -0.21206036843E+02 -0.10924773810E+02  0.13868600636E+02  0.27593201427E+02  0.00000000000E+00 0. -1.
</event>
<event>
 7    1  0.1891413E-013  0.7246157E+02  0.7816164E-02  0.1226708E+00
        -11   -1    0    0    0    0  0.00000000000E+00  0.00000000000E+00  0.45593999997E+02  0.45594000000E+02  0.51100000000E-03 0.  1.
         11   -1    0    0    0    0 -0.00000000000E+00 -0.00000000000E+00 -0.45593999997E+02  0.45594000000E+02  0.51100000000E-03 0. -1.
    9900012    2    1    2    0    0 -0.53704340696E+01  0.77586624171E+01 -0.16175311886E+02  0.72461571638E+02  0.70000001750E+02 0.  0.
        -12    1    1    2    0    0  0.53704340696E+01 -0.77586624171E+01  0.16175311886E+02  0.18726428362E+02  0.00000000000E+00 0.  1.
         11    1    3    3    0    0  0.13563176316E+02  0.58461094948E+01  0.12585356533E+01  0.14822977442E+02  0.51100000000E-03 0. -1.
        -11    1    3    3    0    0 -0.10235322839E+02  0.16905657228E+02  0.12259390734E+02  0.23256305411E+02  0.51100000000E-03 0.  1.
         12    1    3    3    0    0 -0.86982875468E+01 -0.14993104306E+02 -0.29693238273E+02  0.34382288785E+02  0.00000000000E+00 0. -1.
</event>
<event>
 7    1  0.1891413E-013  0.7246159E+02  0.7816164E-02  0.1226708E+00
        -11   -1    0    0    0    0  0.00000000000E+00  0.00000000000E+00  0.45593999997E+02  0.45594000000E+02  0.51100000000E-03 0. -1.
         11   -1    0    0    0    0 -0.00000000000E+00 -0.00000000000E+00 -0.45593999997E+02  0.45594000000E+02  0.51100000000E-03 0.  1.
    9900012    2    1    2    0    0 -0.87210392730E+01 -0.46679370902E+01  0.15900703456E+02  0.72461587288E+02  0.70000022137E+02 0.  0.
        -12    1    1    2    0    0  0.87210392730E+01  0.46679370902E+01 -0.15900703456E+02  0.18726412712E+02  0.00000000000E+00 0.  1.
         11    1    3    3    0    0 -0.24223477404E+02 -0.71596757711E+01  0.30251133854E+02  0.39410264074E+02  0.51100000000E-03 0. -1.
        -11    1    3    3    0    0 -0.41940866374E+01 -0.54773406850E+01  0.81512990883E+00  0.69466582420E+01  0.51100000000E-03 0.  1.
        -12    1    3    3    0    0  0.19696524768E+02  0.79690793658E+01 -0.15165560307E+02  0.26104664972E+02  0.00000000000E+00 0.  1.
</event>
<event>
 7    1  0.1891413E-013  0.7246158E+02  0.7816164E-02  0.1226708E+00
        -11   -1    0    0    0    0  0.00000000000E+00  0.00000000000E+00  0.45593999997E+02  0.45594000000E+02  0.51100000000E-03 0.  1.
         11   -1    0    0    0    0 -0.00000000000E+00 -0.00000000000E+00 -0.45593999997E+02  0.45594000000E+02  0.51100000000E-03 0. -1.
    9900012    2    1    2    0    0 -0.11755786995E+02 -0.41689948149E+01 -0.13967813508E+02  0.72461578563E+02  0.70000010772E+02 0.  0.
        -12    1    1    2    0    0  0.11755786995E+02  0.41689948149E+01  0.13967813508E+02  0.18726421437E+02  0.00000000000E+00 0.  1.
         11    1    3    3    0    0  0.47005936375E+01  0.61416622643E+01 -0.18448522433E+02  0.20004088986E+02  0.51100000000E-03 0. -1.
        -11    1    3    3    0    0 -0.12121252665E+02  0.10233692101E+02  0.20590427406E+02  0.25992670529E+02  0.51100000000E-03 0.  1.
         12    1    3    3    0    0 -0.43351279674E+01 -0.20544349180E+02 -0.16109718481E+02  0.26464819049E+02  0.00000000000E+00 0. -1.
</event>
<event>
 7    1  0.1891413E-013  0.7246156E+02  0.7816164E-02  0.1226708E+00
        -11   -1    0    0    0    0  0.00000000000E+00  0.00000000000E+00  0.45593999997E+02  0.45594000000E+02  0.51100000000E-03 0.  1.
         11   -1    0    0    0    0 -0.00000000000E+00 -0.00000000000E+00 -0.45593999997E+02  0.45594000000E+02  0.51100000000E-03 0. -1.
    9900012    2    1    2    0    0  0.14520183937E+00  0.12487744260E+02 -0.13954016850E+02  0.72461563432E+02  0.69999991061E+02 0.  0.
        -12    1    1    2    0    0 -0.14520183937E+00 -0.12487744260E+02  0.13954016850E+02  0.18726436568E+02  0.00000000000E+00 0.  1.
         11    1    3    3    0    0 -0.74387514879E+01  0.63747865897E+01  0.12255847746E+02  0.15690083875E+02  0.51100000000E-03 0. -1.
        -11    1    3    3    0    0 -0.59134228139E+01  0.18559227018E+02  0.54028448348E+01  0.20213960757E+02  0.51100000000E-03 0.  1.
        -12    1    3    3    0    0  0.13497376141E+02 -0.12446269348E+02 -0.31612709430E+02  0.36557518801E+02  0.00000000000E+00 0.  1.
</event>
<event>
 7    1  0.1891413E-013  0.7246160E+02  0.7816164E-02  0.1226708E+00
        -11   -1    0    0    0    0  0.00000000000E+00  0.00000000000E+00  0.45593999997E+02  0.45594000000E+02  0.51100000000E-03 0.  1.
         11   -1    0    0    0    0 -0.00000000000E+00 -0.00000000000E+00 -0.45593999997E+02  0.45594000000E+02  0.51100000000E-03 0. -1.
    9900012    2    1    2    0    0 -0.16716982622E+02 -0.67517136380E+01 -0.50630790222E+01  0.72461603811E+02  0.70000043661E+02 0.  0.
        -12    1    1    2    0    0  0.16716982622E+02  0.67517136380E+01  0.50630790222E+01  0.18726396189E+02  0.00000000000E+00 0.  1.
         11    1    3    3    0    0 -0.11634747142E+02 -0.11458217271E+00  0.15804680438E+01  0.11742161200E+02  0.51100000000E-03 0. -1.
        -11    1    3    3    0    0  0.21730025848E+02  0.12894530102E+02  0.46211769021E+01  0.25686926755E+02  0.51100000000E-03 0.  1.
         12    1    3    3    0    0 -0.26812261328E+02 -0.19531661568E+02 -0.11264723968E+02  0.35032515856E+02  0.00000000000E+00 0. -1.
</event>
<event>
 7    1  0.1891413E-013  0.7246156E+02  0.7816164E-02  0.1226708E+00
        -11   -1    0    0    0    0  0.00000000000E+00  0.00000000000E+00  0.45593999997E+02  0.45594000000E+02  0.51100000000E-03 0. -1.
         11   -1    0    0    0    0 -0.00000000000E+00 -0.00000000000E+00 -0.45593999997E+02  0.45594000000E+02  0.51100000000E-03 0.  1.
    9900012    2    1    2    0    0 -0.12587931817E+01  0.36378354505E+01  0.18326515683E+02  0.72461559225E+02  0.69999985580E+02 0.  0.
        -12    1    1    2    0    0  0.12587931817E+01 -0.36378354505E+01 -0.18326515683E+02  0.18726440775E+02  0.00000000000E+00 0.  1.
         11    1    3    3    0    0  0.93223843683E+01 -0.52684967262E+01  0.29498859006E+02  0.31382265549E+02  0.51100000000E-03 0. -1.
        -11    1    3    3    0    0  0.45701414547E+01  0.19901288242E+02 -0.29441031886E+01  0.20630443777E+02  0.51100000000E-03 0.  1.
         12    1    3    3    0    0 -0.15151319005E+02 -0.10994956065E+02 -0.82282401350E+01  0.20448849898E+02  0.00000000000E+00 0. -1.
</event>
<event>
 7    1  0.1891413E-013  0.7246153E+02  0.7816164E-02  0.1226708E+00
        -11   -1    0    0    0    0  0.00000000000E+00  0.00000000000E+00  0.45593999997E+02  0.45594000000E+02  0.51100000000E-03 0.  1.
         11   -1    0    0    0    0 -0.00000000000E+00 -0.00000000000E+00 -0.45593999997E+02  0.45594000000E+02  0.51100000000E-03 0. -1.
    9900012    2    1    2    0    0 -0.16708328944E+02 -0.71388827639E+01  0.45330691002E+01  0.72461531601E+02  0.69999949595E+02 0.  0.
        -12    1    1    2    0    0  0.16708328944E+02  0.71388827639E+01 -0.45330691002E+01  0.18726468399E+02  0.00000000000E+00 0.  1.
         11    1    3    3    0    0 -0.61858012084E+01  0.17521901696E+02  0.12083218447E+02  0.22164957567E+02  0.51100000000E-03 0. -1.
        -11    1    3    3    0    0  0.17158094822E+01 -0.13523765970E+02  0.16312065047E+02  0.21258403387E+02  0.51100000000E-03 0.  1.
         12    1    3    3    0    0 -0.12238337218E+02 -0.11137018490E+02 -0.23862214395E+02  0.29038170647E+02  0.00000000000E+00 0. -1.
</event>
<event>
 7    1  0.1891413E-013  0.7246157E+02  0.7816164E-02  0.1226708E+00
        -11   -1    0    0    0    0  0.00000000000E+00  0.00000000000E+00  0.45593999997E+02  0.45594000000E+02  0.51100000000E-03 0.  1.
         11   -1    0    0    0    0 -0.00000000000E+00 -0.00000000000E+00 -0.45593999997E+02  0.45594000000E+02  0.51100000000E-03 0. -1.
    9900012    2    1    2    0    0  0.55178359858E+01  0.29248011806E+01 -0.17654413102E+02  0.72461567401E+02  0.69999996231E+02 0.  0.
        -12    1    1    2    0    0 -0.55178359858E+01 -0.29248011806E+01  0.17654413102E+02  0.18726432599E+02  0.00000000000E+00 0.  1.
         11    1    3    3    0    0  0.10384637951E+02 -0.33739447706E+01  0.11149420947E+02  0.15605569403E+02  0.51100000000E-03 0. -1.
        -11    1    3    3    0    0  0.43252571136E+01  0.15125874689E+02  0.81845099180E+01  0.17733756992E+02  0.51100000000E-03 0.  1.
         12    1    3    3    0    0 -0.91920590785E+01 -0.88271287377E+01 -0.36988343967E+02  0.39122241005E+02  0.00000000000E+00 0. -1.
</event>
<event>
 7    1  0.1891413E-013  0.7246155E+02  0.7816164E-02  0.1226708E+00
        -11   -1    0    0    0    0  0.00000000000E+00  0.00000000000E+00  0.45593999997E+02  0.45594000000E+02  0.51100000000E-03 0.  1.
         11   -1    0    0    0    0 -0.00000000000E+00 -0.00000000000E+00 -0.45593999997E+02  0.45594000000E+02  0.51100000000E-03 0. -1.
    9900012    2    1    2    0    0  0.48051125185E+01  0.15614614184E+02 -0.91528498658E+01  0.72461549639E+02  0.69999973093E+02 0.  0.
        -12    1    1    2    0    0 -0.48051125185E+01 -0.15614614184E+02  0.91528498658E+01  0.18726450361E+02  0.00000000000E+00 0.  1.
         11    1    3    3    0    0 -0.77017097216E+01 -0.21065440425E+01 -0.42134960739E+01  0.90281454277E+01  0.51100000000E-03 0. -1.
        -11    1    3    3    0    0 -0.78202763001E+00  0.11057139392E+02 -0.31280669193E+02  0.33186626285E+02  0.51100000000E-03 0.  1.
        -12    1    3    3    0    0  0.13288849870E+02  0.66640188344E+01  0.26341315401E+02  0.30246777927E+02  0.00000000000E+00 0.  1.
</event>
<event>
 7    1  0.1891413E-013  0.7246154E+02  0.7816164E-02  0.1226708E+00
        -11   -1    0    0    0    0  0.00000000000E+00  0.00000000000E+00  0.45593999997E+02  0.45594000000E+02  0.51100000000E-03 0.  1.
         11   -1    0    0    0    0 -0.00000000000E+00 -0.00000000000E+00 -0.45593999997E+02  0.45594000000E+02  0.51100000000E-03 0. -1.
    9900012    2    1    2    0    0 -0.18176423312E+02  0.37479462486E+01 -0.25002006725E+01  0.72461535600E+02  0.69999954805E+02 0.  0.
        -12    1    1    2    0    0  0.18176423312E+02 -0.37479462486E+01  0.25002006725E+01  0.18726464400E+02  0.00000000000E+00 0.  1.
         11    1    3    3    0    0  0.36932203070E+01  0.32211836725E+02 -0.94621639189E+00  0.32436671025E+02  0.51100000000E-03 0. -1.
        -11    1    3    3    0    0 -0.75915614704E+01 -0.54209135496E+00  0.32913963181E+01  0.82921021810E+01  0.51100000000E-03 0.  1.
        -12    1    3    3    0    0 -0.14278082149E+02 -0.27921799122E+02 -0.48453805988E+01  0.31732762395E+02  0.00000000000E+00 0.  1.
</event>
<event>
 7    1  0.1891413E-013  0.7246161E+02  0.7816164E-02  0.1226708E+00
        -11   -1    0    0    0    0  0.00000000000E+00  0.00000000000E+00  0.45593999997E+02  0.45594000000E+02  0.51100000000E-03 0.  1.
         11   -1    0    0    0    0 -0.00000000000E+00 -0.00000000000E+00 -0.45593999997E+02  0.45594000000E+02  0.51100000000E-03 0. -1.
    9900012    2    1    2    0    0 -0.17104853984E+02  0.54182446370E+01 -0.53613632329E+01  0.72461611654E+02  0.70000053879E+02 0.  0.
        -12    1    1    2    0    0  0.17104853984E+02 -0.54182446370E+01  0.53613632329E+01  0.18726388346E+02  0.00000000000E+00 0.  1.
         11    1    3    3    0    0  0.12176332256E+02  0.19108163322E+02 -0.15922552579E+02  0.27693187856E+02  0.51100000000E-03 0. -1.
        -11    1    3    3    0    0 -0.64899838141E+01  0.78704492411E+01 -0.29354643125E+01  0.10615121862E+02  0.51100000000E-03 0.  1.
        -12    1    3    3    0    0 -0.22791202426E+02 -0.21560367926E+02  0.13496653659E+02  0.34153301936E+02  0.00000000000E+00 0.  1.
</event>
<event>
 7    1  0.1891413E-013  0.7246154E+02  0.7816164E-02  0.1226708E+00
        -11   -1    0    0    0    0  0.00000000000E+00  0.00000000000E+00  0.45593999997E+02  0.45594000000E+02  0.51100000000E-03 0. -1.
         11   -1    0    0    0    0 -0.00000000000E+00 -0.00000000000E+00 -0.45593999997E+02  0.45594000000E+02  0.51100000000E-03 0.  1.
    9900012    2    1    2    0    0  0.97833565038E-01  0.12590927362E+02  0.13861436541E+02  0.72461536206E+02  0.69999955594E+02 0.  0.
        -12    1    1    2    0    0 -0.97833565038E-01 -0.12590927362E+02 -0.13861436541E+02  0.18726463794E+02  0.00000000000E+00 0.  1.
         11    1    3    3    0    0 -0.10533401907E+02  0.72718575543E+01  0.54880009129E+01  0.13926615608E+02  0.51100000000E-03 0. -1.
        -11    1    3    3    0    0 -0.50485320197E+00  0.30408194671E+02  0.29539297249E+01  0.30555504921E+02  0.51100000000E-03 0.  1.
        -12    1    3    3    0    0  0.11136088674E+02 -0.25089124863E+02  0.54195059033E+01  0.27979415676E+02  0.00000000000E+00 0.  1.
</event>
<event>
 7    1  0.1891413E-013  0.7246157E+02  0.7816164E-02  0.1226708E+00
        -11   -1    0    0    0    0  0.00000000000E+00  0.00000000000E+00  0.45593999997E+02  0.45594000000E+02  0.51100000000E-03 0.  1.
         11   -1    0    0    0    0 -0.00000000000E+00 -0.00000000000E+00 -0.45593999997E+02  0.45594000000E+02  0.51100000000E-03 0. -1.
    9900012    2    1    2    0    0  0.57129759210E+01 -0.14433491317E+02 -0.10474516195E+02  0.72461568012E+02  0.69999997027E+02 0.  0.
        -12    1    1    2    0    0 -0.57129759210E+01  0.14433491317E+02  0.10474516195E+02  0.18726431988E+02  0.00000000000E+00 0.  1.
         11    1    3    3    0    0  0.12635256149E+02  0.16070995294E+01 -0.92726186461E+01  0.15754806367E+02  0.51100000000E-03 0. -1.
        -11    1    3    3    0    0  0.65055679569E+01 -0.33283819869E+02  0.42587806930E+01  0.34179998431E+02  0.51100000000E-03 0.  1.
         12    1    3    3    0    0 -0.13427848185E+02  0.17243229023E+02 -0.54606782424E+01  0.22526763214E+02  0.00000000000E+00 0. -1.
</event>
<event>
 7    1  0.1891413E-013  0.7246157E+02  0.7816164E-02  0.1226708E+00
        -11   -1    0    0    0    0  0.00000000000E+00  0.00000000000E+00  0.45593999997E+02  0.45594000000E+02  0.51100000000E-03 0.  1.
         11   -1    0    0    0    0 -0.00000000000E+00 -0.00000000000E+00 -0.45593999997E+02  0.45594000000E+02  0.51100000000E-03 0. -1.
    9900012    2    1    2    0    0  0.17905825688E+02 -0.54455653554E+01 -0.63758990349E+00  0.72461566904E+02  0.69999995584E+02 0.  0.
        -12    1    1    2    0    0 -0.17905825688E+02  0.54455653554E+01  0.63758990349E+00  0.18726433096E+02  0.00000000000E+00 0.  1.
         11    1    3    3    0    0 -0.82915263706E+01 -0.58688482048E+01  0.10415885034E+02  0.14549345350E+02  0.51100000000E-03 0. -1.
        -11    1    3    3    0    0  0.66670435526E+01 -0.22809776200E+02  0.38918176566E+01  0.24080730989E+02  0.51100000000E-03 0.  1.
         12    1    3    3    0    0  0.19530308506E+02  0.23233059050E+02 -0.14945292594E+02  0.33831490565E+02  0.00000000000E+00 0. -1.
</event>
<event>
 7    1  0.1891413E-013  0.7246159E+02  0.7816164E-02  0.1226708E+00
        -11   -1    0    0    0    0  0.00000000000E+00  0.00000000000E+00  0.45593999997E+02  0.45594000000E+02  0.51100000000E-03 0.  1.
         11   -1    0    0    0    0 -0.00000000000E+00 -0.00000000000E+00 -0.45593999997E+02  0.45594000000E+02  0.51100000000E-03 0. -1.
    9900012    2    1    2    0    0  0.14735702247E+02  0.78501445154E+00 -0.11529154367E+02  0.72461586334E+02  0.70000020894E+02 0.  0.
        -12    1    1    2    0    0 -0.14735702247E+02 -0.78501445154E+00  0.11529154367E+02  0.18726413666E+02  0.00000000000E+00 0.  1.
         11    1    3    3    0    0  0.22454096968E+02  0.27919912323E+01 -0.27856905507E+02  0.35888561832E+02  0.51100000000E-03 0. -1.
        -11    1    3    3    0    0  0.56337731238E+01 -0.12659784849E+02  0.14705191518E+01  0.13934560591E+02  0.51100000000E-03 0.  1.
        -12    1    3    3    0    0 -0.13352167845E+02  0.10652808068E+02  0.14857231988E+02  0.22638463911E+02  0.00000000000E+00 0.  1.
</event>
<event>
 7    1  0.1891413E-013  0.7246151E+02  0.7816164E-02  0.1226708E+00
        -11   -1    0    0    0    0  0.00000000000E+00  0.00000000000E+00  0.45593999997E+02  0.45594000000E+02  0.51100000000E-03 0.  1.
         11   -1    0    0    0    0 -0.00000000000E+00 -0.00000000000E+00 -0.45593999997E+02  0.45594000000E+02  0.51100000000E-03 0. -1.
    9900012    2    1    2    0    0 -0.44802104750E+01 -0.16795912089E+02 -0.69646508551E+01  0.72461513134E+02  0.69999925538E+02 0.  0.
        -12    1    1    2    0    0  0.44802104750E+01  0.16795912089E+02  0.69646508551E+01  0.18726486866E+02  0.00000000000E+00 0.  1.
         11    1    3    3    0    0 -0.68635028436E+01 -0.55137811319E+01  0.29040716225E+01  0.92705493852E+01  0.51100000000E-03 0. -1.
        -11    1    3    3    0    0 -0.26698806577E+02  0.51495296646E+01 -0.11997485207E+02  0.29720087146E+02  0.51100000000E-03 0.  1.
         12    1    3    3    0    0  0.29082098945E+02 -0.16431660622E+02  0.21287627298E+01  0.33470876603E+02  0.00000000000E+00 0. -1.
</event>
<event>
 7    1  0.1891413E-013  0.7246157E+02  0.7816164E-02  0.1226708E+00
        -11   -1    0    0    0    0  0.00000000000E+00  0.00000000000E+00  0.45593999997E+02  0.45594000000E+02  0.51100000000E-03 0.  1.
         11   -1    0    0    0    0 -0.00000000000E+00 -0.00000000000E+00 -0.45593999997E+02  0.45594000000E+02  0.51100000000E-03 0. -1.
    9900012    2    1    2    0    0 -0.62120384209E+01 -0.12964011743E+02  0.12001009995E+02  0.72461567806E+02  0.69999996759E+02 0.  0.
        -12    1    1    2    0    0  0.62120384209E+01  0.12964011743E+02 -0.12001009995E+02  0.18726432194E+02  0.00000000000E+00 0.  1.
         11    1    3    3    0    0 -0.22807519863E+02 -0.20395138599E+02  0.27252594720E+02  0.40973754527E+02  0.51100000000E-03 0. -1.
        -11    1    3    3    0    0 -0.36468516111E+01  0.59721122512E+01 -0.21063257679E+01  0.73076849902E+01  0.51100000000E-03 0.  1.
        -12    1    3    3    0    0  0.20242333053E+02  0.14590146051E+01 -0.13145258957E+02  0.24180128290E+02  0.00000000000E+00 0.  1.
</event>
<event>
 7    1  0.1891413E-013  0.7246154E+02  0.7816164E-02  0.1226708E+00
        -11   -1    0    0    0    0  0.00000000000E+00  0.00000000000E+00  0.45593999997E+02  0.45594000000E+02  0.51100000000E-03 0. -1.
         11   -1    0    0    0    0 -0.00000000000E+00 -0.00000000000E+00 -0.45593999997E+02  0.45594000000E+02  0.51100000000E-03 0.  1.
    9900012    2    1    2    0    0  0.54523102809E+01  0.17844887859E+02 -0.15851724977E+01  0.72461535252E+02  0.69999954351E+02 0.  0.
        -12    1    1    2    0    0 -0.54523102809E+01 -0.17844887859E+02  0.15851724977E+01  0.18726464748E+02  0.00000000000E+00 0.  1.
         11    1    3    3    0    0  0.15989923447E+02  0.14296937000E+02  0.27575922947E+02  0.34935820959E+02  0.51100000000E-03 0. -1.
        -11    1    3    3    0    0  0.49375045910E+00 -0.46350101675E+01  0.64647935671E+00  0.47058521639E+01  0.51100000000E-03 0.  1.
        -12    1    3    3    0    0 -0.11031363625E+02  0.81829610269E+01 -0.29807574802E+02  0.32819862129E+02  0.00000000000E+00 0.  1.
</event>
<event>
 7    1  0.1891413E-013  0.7246167E+02  0.7816164E-02  0.1226708E+00
        -11   -1    0    0    0    0  0.00000000000E+00  0.00000000000E+00  0.45593999997E+02  0.45594000000E+02  0.51100000000E-03 0.  1.
         11   -1    0    0    0    0 -0.00000000000E+00 -0.00000000000E+00 -0.45593999997E+02  0.45594000000E+02  0.51100000000E-03 0. -1.
    9900012    2    1    2    0    0  0.13660664858E+02  0.22074291148E+01 -0.12617016161E+02  0.72461665482E+02  0.70000124000E+02 0.  0.
        -12    1    1    2    0    0 -0.13660664858E+02 -0.22074291148E+01  0.12617016161E+02  0.18726334518E+02  0.00000000000E+00 0.  1.
         11    1    3    3    0    0 -0.45448778153E+01 -0.18887605433E+02 -0.16599158281E+02  0.25552487339E+02  0.51100000000E-03 0. -1.
        -11    1    3    3    0    0 -0.15468451689E+01  0.19226397260E+02 -0.10856114582E+02  0.22133736821E+02  0.51100000000E-03 0.  1.
         12    1    3    3    0    0  0.19752387842E+02  0.18686372880E+01  0.14838256701E+02  0.24775441322E+02  0.00000000000E+00 0. -1.
</event>
<event>
 7    1  0.1891413E-013  0.7246156E+02  0.7816164E-02  0.1226708E+00
        -11   -1    0    0    0    0  0.00000000000E+00  0.00000000000E+00  0.45593999997E+02  0.45594000000E+02  0.51100000000E-03 0.  1.
         11   -1    0    0    0    0 -0.00000000000E+00 -0.00000000000E+00 -0.45593999997E+02  0.45594000000E+02  0.51100000000E-03 0. -1.
    9900012    2    1    2    0    0  0.97146606851E-01  0.13662912699E+02  0.12806048894E+02  0.72461561226E+02  0.69999988187E+02 0.  0.
        -12    1    1    2    0    0 -0.97146606851E-01 -0.13662912699E+02 -0.12806048894E+02  0.18726438774E+02  0.00000000000E+00 0.  1.
         11    1    3    3    0    0  0.12275484353E+02  0.41005654044E+01  0.34140582561E+01  0.13384989606E+02  0.51100000000E-03 0. -1.
        -11    1    3    3    0    0  0.12087017497E+02  0.25070460507E+02  0.11689756296E+02  0.30187321586E+02  0.51100000000E-03 0.  1.
        -12    1    3    3    0    0 -0.24265355243E+02 -0.15508113213E+02 -0.22977656584E+01  0.28889250033E+02  0.00000000000E+00 0.  1.
</event>
<event>
 7    1  0.1891413E-013  0.7246157E+02  0.7816164E-02  0.1226708E+00
        -11   -1    0    0    0    0  0.00000000000E+00  0.00000000000E+00  0.45593999997E+02  0.45594000000E+02  0.51100000000E-03 0. -1.
         11   -1    0    0    0    0 -0.00000000000E+00 -0.00000000000E+00 -0.45593999997E+02  0.45594000000E+02  0.51100000000E-03 0.  1.
    9900012    2    1    2    0    0  0.15165892990E+02  0.57116318593E+01  0.93836087279E+01  0.72461570510E+02  0.70000000281E+02 0.  0.
        -12    1    1    2    0    0 -0.15165892990E+02 -0.57116318593E+01 -0.93836087279E+01  0.18726429490E+02  0.00000000000E+00 0.  1.
         11    1    3    3    0    0  0.10149944786E+01 -0.86234265228E+01 -0.62573990322E+01  0.10702744587E+02  0.51100000000E-03 0. -1.
        -11    1    3    3    0    0 -0.63546799537E+01  0.31828372098E+02  0.11789711045E+02  0.34531500323E+02  0.51100000000E-03 0.  1.
         12    1    3    3    0    0  0.20505578465E+02 -0.17493313716E+02  0.38512967150E+01  0.27227325600E+02  0.00000000000E+00 0. -1.
</event>
<event>
 7    1  0.1891413E-013  0.7246162E+02  0.7816164E-02  0.1226708E+00
        -11   -1    0    0    0    0  0.00000000000E+00  0.00000000000E+00  0.45593999997E+02  0.45594000000E+02  0.51100000000E-03 0. -1.
         11   -1    0    0    0    0 -0.00000000000E+00 -0.00000000000E+00 -0.45593999997E+02  0.45594000000E+02  0.51100000000E-03 0.  1.
    9900012    2    1    2    0    0 -0.38232462422E+01  0.13193879153E+02  0.12727197720E+02  0.72461622327E+02  0.70000067783E+02 0.  0.
        -12    1    1    2    0    0  0.38232462422E+01 -0.13193879153E+02 -0.12727197720E+02  0.18726377673E+02  0.00000000000E+00 0.  1.
         11    1    3    3    0    0 -0.21137236166E+02 -0.18416760699E+02  0.14954412633E+02  0.31774113439E+02  0.51100000000E-03 0. -1.
        -11    1    3    3    0    0  0.20323918680E+01 -0.18662232223E+01  0.23236932287E+01  0.36073475439E+01  0.51100000000E-03 0.  1.
        -12    1    3    3    0    0  0.15281598056E+02  0.33476863074E+02 -0.45509081416E+01  0.37080161344E+02  0.00000000000E+00 0.  1.
</event>
<event>
 7    1  0.1891413E-013  0.7246156E+02  0.7816164E-02  0.1226708E+00
        -11   -1    0    0    0    0  0.00000000000E+00  0.00000000000E+00  0.45593999997E+02  0.45594000000E+02  0.51100000000E-03 0.  1.
         11   -1    0    0    0    0 -0.00000000000E+00 -0.00000000000E+00 -0.45593999997E+02  0.45594000000E+02  0.51100000000E-03 0. -1.
    9900012    2    1    2    0    0  0.14833367590E+02 -0.17678831228E+01 -0.11292710297E+02  0.72461561186E+02  0.69999988135E+02 0.  0.
        -12    1    1    2    0    0 -0.14833367590E+02  0.17678831228E+01  0.11292710297E+02  0.18726438814E+02  0.00000000000E+00 0.  1.
         11    1    3    3    0    0 -0.26511201603E+02 -0.34332741884E+01 -0.14356018936E+02  0.30343474785E+02  0.51100000000E-03 0. -1.
        -11    1    3    3    0    0  0.23844272523E+01  0.82279144519E+00  0.18533088300E+01  0.31300531887E+01  0.51100000000E-03 0.  1.
        -12    1    3    3    0    0  0.38960141941E+02  0.84259962044E+00  0.12099998093E+01  0.38988033212E+02  0.00000000000E+00 0.  1.
</event>
<event>
 7    1  0.1891413E-013  0.7246158E+02  0.7816164E-02  0.1226708E+00
        -11   -1    0    0    0    0  0.00000000000E+00  0.00000000000E+00  0.45593999997E+02  0.45594000000E+02  0.51100000000E-03 0.  1.
         11   -1    0    0    0    0 -0.00000000000E+00 -0.00000000000E+00 -0.45593999997E+02  0.45594000000E+02  0.51100000000E-03 0. -1.
    9900012    2    1    2    0    0  0.22427752192E+00  0.49598184805E+01 -0.18056267780E+02  0.72461577332E+02  0.70000009168E+02 0.  0.
        -12    1    1    2    0    0 -0.22427752192E+00 -0.49598184805E+01  0.18056267780E+02  0.18726422668E+02  0.00000000000E+00 0.  1.
         11    1    3    3    0    0 -0.64937033717E+01  0.26992240551E+02 -0.11456392131E+02  0.30033284109E+02  0.51100000000E-03 0. -1.
        -11    1    3    3    0    0 -0.60443082996E+01  0.40561032912E+01 -0.10860841491E+02  0.13074536889E+02  0.51100000000E-03 0.  1.
        -12    1    3    3    0    0  0.12762289193E+02 -0.26088525362E+02  0.42609658408E+01  0.29353756334E+02  0.00000000000E+00 0.  1.
</event>
<event>
 7    1  0.1891413E-013  0.7246157E+02  0.7816164E-02  0.1226708E+00
        -11   -1    0    0    0    0  0.00000000000E+00  0.00000000000E+00  0.45593999997E+02  0.45594000000E+02  0.51100000000E-03 0.  1.
         11   -1    0    0    0    0 -0.00000000000E+00 -0.00000000000E+00 -0.45593999997E+02  0.45594000000E+02  0.51100000000E-03 0. -1.
    9900012    2    1    2    0    0  0.18499406918E+02 -0.24005720497E+01 -0.16396350713E+01  0.72461569330E+02  0.69999998743E+02 0.  0.
        -12    1    1    2    0    0 -0.18499406918E+02  0.24005720497E+01  0.16396350713E+01  0.18726430670E+02  0.00000000000E+00 0.  1.
         11    1    3    3    0    0  0.27482281535E+02  0.75554546845E+01 -0.19719204858E+02  0.34658443911E+02  0.51100000000E-03 0. -1.
        -11    1    3    3    0    0  0.38983725417E+01  0.76374329019E+01 -0.12481926637E+01  0.86651990740E+01  0.51100000000E-03 0.  1.
        -12    1    3    3    0    0 -0.12881247158E+02 -0.17593459636E+02  0.19327762451E+02  0.29137926345E+02  0.00000000000E+00 0.  1.
</event>
<event>
 7    1  0.1891413E-013  0.7246187E+02  0.7816164E-02  0.1226707E+00
        -11   -1    0    0    0    0  0.00000000000E+00  0.00000000000E+00  0.45593999997E+02  0.45594000000E+02  0.51100000000E-03 0.  1.
         11   -1    0    0    0    0 -0.00000000000E+00 -0.00000000000E+00 -0.45593999997E+02  0.45594000000E+02  0.51100000000E-03 0. -1.
    9900012    2    1    2    0    0 -0.10073023871E+02 -0.13306080006E+01 -0.15729960101E+02  0.72461869264E+02  0.70000389462E+02 0.  0.
        -12    1    1    2    0    0  0.10073023871E+02  0.13306080006E+01  0.15729960101E+02  0.18726130736E+02  0.00000000000E+00 0.  1.
         11    1    3    3    0    0 -0.69435765235E-01  0.18149995886E+02 -0.29524031994E+01  0.18388688286E+02  0.51100000000E-03 0. -1.
        -11    1    3    3    0    0 -0.44026262837E+01 -0.72919158797E+00 -0.28575840213E+02  0.28922197058E+02  0.51100000000E-03 0.  1.
        -12    1    3    3    0    0 -0.56009618225E+01 -0.18751412298E+02  0.15798283311E+02  0.25150983919E+02  0.00000000000E+00 0.  1.
</event>
<event>
 7    1  0.1891413E-013  0.7246169E+02  0.7816164E-02  0.1226708E+00
        -11   -1    0    0    0    0  0.00000000000E+00  0.00000000000E+00  0.45593999997E+02  0.45594000000E+02  0.51100000000E-03 0.  1.
         11   -1    0    0    0    0 -0.00000000000E+00 -0.00000000000E+00 -0.45593999997E+02  0.45594000000E+02  0.51100000000E-03 0. -1.
    9900012    2    1    2    0    0  0.76224587482E+01 -0.12426423401E+02 -0.11754013248E+02  0.72461689543E+02  0.70000155343E+02 0.  0.
        -12    1    1    2    0    0 -0.76224587482E+01  0.12426423401E+02  0.11754013248E+02  0.18726310457E+02  0.00000000000E+00 0.  1.
         11    1    3    3    0    0  0.11569472943E+02 -0.10461620836E+02 -0.32231394968E+02  0.35807276307E+02  0.51100000000E-03 0. -1.
        -11    1    3    3    0    0  0.23474181279E+01 -0.10449949944E+02 -0.28183379710E+01  0.11074965231E+02  0.51100000000E-03 0.  1.
        -12    1    3    3    0    0 -0.62944323229E+01  0.84851473788E+01  0.23295719691E+02  0.25579448005E+02  0.00000000000E+00 0.  1.
</event>
<event>
 7    1  0.1891413E-013  0.7246212E+02  0.7816164E-02  0.1226707E+00
        -11   -1    0    0    0    0  0.00000000000E+00  0.00000000000E+00  0.45593999997E+02  0.45594000000E+02  0.51100000000E-03 0. -1.
         11   -1    0    0    0    0 -0.00000000000E+00 -0.00000000000E+00 -0.45593999997E+02  0.45594000000E+02  0.51100000000E-03 0.  1.
    9900012    2    1    2    0    0 -0.13701435244E+02 -0.84374140612E+01  0.95780614898E+01  0.72462120963E+02  0.70000717345E+02 0.  0.
        -12    1    1    2    0    0  0.13701435244E+02  0.84374140612E+01 -0.95780614898E+01  0.18725879037E+02  0.00000000000E+00 0.  1.
         11    1    3    3    0    0 -0.19701797890E+02 -0.99164848343E+01  0.28563135901E+02  0.36088090062E+02  0.51100000000E-03 0. -1.
        -11    1    3    3    0    0  0.10621692764E+02 -0.31218729807E+01  0.45371321297E+01  0.11964615175E+02  0.51100000000E-03 0.  1.
         12    1    3    3    0    0 -0.46213301182E+01  0.46009437538E+01 -0.23522206541E+02  0.24409415726E+02  0.00000000000E+00 0. -1.
</event>
<event>
 7    1  0.1891413E-013  0.7246159E+02  0.7816164E-02  0.1226708E+00
        -11   -1    0    0    0    0  0.00000000000E+00  0.00000000000E+00  0.45593999997E+02  0.45594000000E+02  0.51100000000E-03 0.  1.
         11   -1    0    0    0    0 -0.00000000000E+00 -0.00000000000E+00 -0.45593999997E+02  0.45594000000E+02  0.51100000000E-03 0. -1.
    9900012    2    1    2    0    0 -0.10258631689E+02 -0.11696990871E+01 -0.15622764688E+02  0.72461588262E+02  0.70000023407E+02 0.  0.
        -12    1    1    2    0    0  0.10258631689E+02  0.11696990871E+01  0.15622764688E+02  0.18726411738E+02  0.00000000000E+00 0.  1.
         11    1    3    3    0    0 -0.23114998303E+01 -0.15418272454E+02  0.97522965053E+01  0.18389492769E+02  0.51100000000E-03 0.  1.
        -11    1    3    3    0    0  0.38156468639E+01  0.24638933409E+02 -0.84016416248E+00  0.24946784896E+02  0.51100000000E-03 0. -1.
         12    1    3    3    0    0 -0.11762778723E+02 -0.10390360043E+02 -0.24534897030E+02  0.29125310597E+02  0.00000000000E+00 0. -1.
</event>
<event>
 7    1  0.1891413E-013  0.7246159E+02  0.7816164E-02  0.1226708E+00
        -11   -1    0    0    0    0  0.00000000000E+00  0.00000000000E+00  0.45593999997E+02  0.45594000000E+02  0.51100000000E-03 0.  1.
         11   -1    0    0    0    0 -0.00000000000E+00 -0.00000000000E+00 -0.45593999997E+02  0.45594000000E+02  0.51100000000E-03 0. -1.
    9900012    2    1    2    0    0  0.16153343854E+01  0.13509917920E+02 -0.12866671867E+02  0.72461589978E+02  0.70000025641E+02 0.  0.
        -12    1    1    2    0    0 -0.16153343854E+01 -0.13509917920E+02  0.12866671867E+02  0.18726410022E+02  0.00000000000E+00 0.  1.
         11    1    3    3    0    0 -0.41192259324E+01 -0.12520752793E+02 -0.18168806277E+02  0.22446442804E+02  0.51100000000E-03 0. -1.
        -11    1    3    3    0    0 -0.90617896553E+01 -0.83296172492E+01  0.18278457064E+01  0.12443455126E+02  0.51100000000E-03 0.  1.
        -12    1    3    3    0    0  0.14796349973E+02  0.34360287962E+02  0.34742887034E+01  0.37571692048E+02  0.00000000000E+00 0.  1.
</event>
<event>
 7    1  0.1891413E-013  0.7246158E+02  0.7816164E-02  0.1226708E+00
        -11   -1    0    0    0    0  0.00000000000E+00  0.00000000000E+00  0.45593999997E+02  0.45594000000E+02  0.51100000000E-03 0. -1.
         11   -1    0    0    0    0 -0.00000000000E+00 -0.00000000000E+00 -0.45593999997E+02  0.45594000000E+02  0.51100000000E-03 0.  1.
    9900012    2    1    2    0    0 -0.12702032814E+02 -0.13374513116E+02 -0.32341426231E+01  0.72461577032E+02  0.70000008777E+02 0.  0.
        -12    1    1    2    0    0  0.12702032814E+02  0.13374513116E+02  0.32341426231E+01  0.18726422968E+02  0.00000000000E+00 0.  1.
         11    1    3    3    0    0 -0.16529267987E+02 -0.44513683844E+01  0.13155777923E+02  0.21589485258E+02  0.51100000000E-03 0. -1.
        -11    1    3    3    0    0 -0.11940186552E+02  0.13356351049E+02 -0.15294054017E+02  0.23555641719E+02  0.51100000000E-03 0.  1.
         12    1    3    3    0    0  0.15767421726E+02 -0.22279495781E+02 -0.10958665294E+01  0.27316450054E+02  0.00000000000E+00 0. -1.
</event>
<event>
 7    1  0.1891413E-013  0.7246155E+02  0.7816164E-02  0.1226708E+00
        -11   -1    0    0    0    0  0.00000000000E+00  0.00000000000E+00  0.45593999997E+02  0.45594000000E+02  0.51100000000E-03 0.  1.
         11   -1    0    0    0    0 -0.00000000000E+00 -0.00000000000E+00 -0.45593999997E+02  0.45594000000E+02  0.51100000000E-03 0. -1.
    9900012    2    1    2    0    0 -0.11545591005E+02 -0.52943448587E+01 -0.13760420403E+02  0.72461550021E+02  0.69999973590E+02 0.  0.
        -12    1    1    2    0    0  0.11545591005E+02  0.52943448587E+01  0.13760420403E+02  0.18726449979E+02  0.00000000000E+00 0.  1.
         11    1    3    3    0    0 -0.10412933795E+02 -0.34048463815E+01  0.11496937366E+02  0.15880860750E+02  0.51100000000E-03 0. -1.
        -11    1    3    3    0    0  0.10002619636E+01  0.19438737753E+02  0.44317265809E+01  0.19962596278E+02  0.51100000000E-03 0.  1.
         12    1    3    3    0    0 -0.21329191733E+01 -0.21328236230E+02 -0.29689084350E+02  0.36618092993E+02  0.00000000000E+00 0. -1.
</event>
<event>
 7    1  0.1891413E-013  0.7246162E+02  0.7816164E-02  0.1226708E+00
        -11   -1    0    0    0    0  0.00000000000E+00  0.00000000000E+00  0.45593999997E+02  0.45594000000E+02  0.51100000000E-03 0.  1.
         11   -1    0    0    0    0 -0.00000000000E+00 -0.00000000000E+00 -0.45593999997E+02  0.45594000000E+02  0.51100000000E-03 0. -1.
    9900012    2    1    2    0    0 -0.15799252888E+02  0.99390566859E+01  0.15087193040E+01  0.72461615577E+02  0.70000058989E+02 0.  0.
        -12    1    1    2    0    0  0.15799252888E+02 -0.99390566859E+01 -0.15087193040E+01  0.18726384423E+02  0.00000000000E+00 0.  1.
         11    1    3    3    0    0 -0.21848167698E+02  0.27582198918E+02 -0.28590202609E+01  0.35302891185E+02  0.51100000000E-03 0. -1.
        -11    1    3    3    0    0 -0.26383638173E+01 -0.81164390957E+01 -0.12986210711E+02  0.15539601543E+02  0.51100000000E-03 0.  1.
        -12    1    3    3    0    0  0.86872786270E+01 -0.95267031362E+01  0.17353950276E+02  0.21619122849E+02  0.00000000000E+00 0.  1.
</event>
<event>
 7    1  0.1891413E-013  0.7246210E+02  0.7816164E-02  0.1226707E+00
        -11   -1    0    0    0    0  0.00000000000E+00  0.00000000000E+00  0.45593999997E+02  0.45594000000E+02  0.51100000000E-03 0. -1.
         11   -1    0    0    0    0 -0.00000000000E+00 -0.00000000000E+00 -0.45593999997E+02  0.45594000000E+02  0.51100000000E-03 0.  1.
    9900012    2    1    2    0    0  0.48067229312E+01 -0.16602039474E+01  0.18022163322E+02  0.72462102604E+02  0.70000693428E+02 0.  0.
        -12    1    1    2    0    0 -0.48067229312E+01  0.16602039474E+01 -0.18022163322E+02  0.18725897396E+02  0.00000000000E+00 0.  1.
         11    1    3    3    0    0 -0.18957608773E+01 -0.14147531116E+01  0.33181912703E+01  0.40750250598E+01  0.51100000000E-03 0. -1.
        -11    1    3    3    0    0  0.24849544157E+02  0.25201294855E+02  0.55915229680E+01  0.35831135016E+02  0.51100000000E-03 0.  1.
         12    1    3    3    0    0 -0.18147060349E+02 -0.25446745691E+02  0.91124490841E+01  0.32555942528E+02  0.00000000000E+00 0. -1.
</event>
<event>
 7    1  0.1891413E-013  0.7246157E+02  0.7816164E-02  0.1226708E+00
        -11   -1    0    0    0    0  0.00000000000E+00  0.00000000000E+00  0.45593999997E+02  0.45594000000E+02  0.51100000000E-03 0.  1.
         11   -1    0    0    0    0 -0.00000000000E+00 -0.00000000000E+00 -0.45593999997E+02  0.45594000000E+02  0.51100000000E-03 0. -1.
    9900012    2    1    2    0    0  0.14324811119E+02 -0.88132277867E+00 -0.12029227084E+02  0.72461568207E+02  0.69999997281E+02 0.  0.
        -12    1    1    2    0    0 -0.14324811119E+02  0.88132277867E+00  0.12029227084E+02  0.18726431793E+02  0.00000000000E+00 0.  1.
         11    1    3    3    0    0  0.99349336622E+01  0.70941537119E+01 -0.36888342480E+02  0.38855884174E+02  0.51100000000E-03 0. -1.
        -11    1    3    3    0    0  0.59721790217E+01  0.20562776953E+01 -0.45271101668E+00  0.63324677459E+01  0.51100000000E-03 0.  1.
        -12    1    3    3    0    0 -0.15823015645E+01 -0.10031754186E+02  0.25311826413E+02  0.27273216287E+02  0.00000000000E+00 0.  1.
</event>
<event>
 7    1  0.1891413E-013  0.7246161E+02  0.7816164E-02  0.1226708E+00
        -11   -1    0    0    0    0  0.00000000000E+00  0.00000000000E+00  0.45593999997E+02  0.45594000000E+02  0.51100000000E-03 0.  1.
         11   -1    0    0    0    0 -0.00000000000E+00 -0.00000000000E+00 -0.45593999997E+02  0.45594000000E+02  0.51100000000E-03 0. -1.
    9900012    2    1    2    0    0 -0.74156235140E+01 -0.14355192984E+02 -0.94665011441E+01  0.72461610022E+02  0.70000051752E+02 0.  0.
        -12    1    1    2    0    0  0.74156235140E+01  0.14355192984E+02  0.94665011441E+01  0.18726389978E+02  0.00000000000E+00 0.  1.
         11    1    3    3    0    0 -0.67978430107E+01 -0.76150744221E+01 -0.10682272462E+02  0.14775350191E+02  0.51100000000E-03 0. -1.
        -11    1    3    3    0    0  0.17114536855E+02 -0.23109347562E+02 -0.10812251282E+02  0.30722208491E+02  0.51100000000E-03 0.  1.
         12    1    3    3    0    0 -0.17732317358E+02  0.16369229001E+02  0.12028022600E+02  0.26964051340E+02  0.00000000000E+00 0. -1.
</event>
<event>
 7    1  0.1891413E-013  0.7246157E+02  0.7816164E-02  0.1226708E+00
        -11   -1    0    0    0    0  0.00000000000E+00  0.00000000000E+00  0.45593999997E+02  0.45594000000E+02  0.51100000000E-03 0.  1.
         11   -1    0    0    0    0 -0.00000000000E+00 -0.00000000000E+00 -0.45593999997E+02  0.45594000000E+02  0.51100000000E-03 0. -1.
    9900012    2    1    2    0    0  0.35255869514E+01 -0.72047278444E+01 -0.16921624875E+02  0.72461568010E+02  0.69999997024E+02 0.  0.
        -12    1    1    2    0    0 -0.35255869514E+01  0.72047278444E+01  0.16921624875E+02  0.18726431990E+02  0.00000000000E+00 0.  1.
         11    1    3    3    0    0 -0.11101362456E+02  0.11882984302E+02 -0.76710610547E+01  0.17980287603E+02  0.51100000000E-03 0. -1.
        -11    1    3    3    0    0  0.24860733149E+01 -0.56052579500E+01  0.19524036893E+02  0.20464298036E+02  0.51100000000E-03 0.  1.
         12    1    3    3    0    0  0.12140876093E+02 -0.13482454197E+02 -0.28774600714E+02  0.34016982372E+02  0.00000000000E+00 0. -1.
</event>
<event>
 7    1  0.1891413E-013  0.7246155E+02  0.7816164E-02  0.1226708E+00
        -11   -1    0    0    0    0  0.00000000000E+00  0.00000000000E+00  0.45593999997E+02  0.45594000000E+02  0.51100000000E-03 0.  1.
         11   -1    0    0    0    0 -0.00000000000E+00 -0.00000000000E+00 -0.45593999997E+02  0.45594000000E+02  0.51100000000E-03 0. -1.
    9900012    2    1    2    0    0  0.10801145626E+02  0.50076261250E+01 -0.14454716521E+02  0.72461550899E+02  0.69999974734E+02 0.  0.
        -12    1    1    2    0    0 -0.10801145626E+02 -0.50076261250E+01  0.14454716521E+02  0.18726449101E+02  0.00000000000E+00 0.  1.
         11    1    3    3    0    0 -0.24917404225E+01  0.17361777873E+02 -0.13356357796E+02  0.22046142408E+02  0.51100000000E-03 0.  1.
        -11    1    3    3    0    0  0.86532571820E+01 -0.12653850949E+02 -0.23212617829E+02  0.27817699949E+02  0.51100000000E-03 0. -1.
        -12    1    3    3    0    0  0.46396288661E+01  0.29969920117E+00  0.22114259104E+02  0.22597708542E+02  0.00000000000E+00 0.  1.
</event>
<event>
 7    1  0.1891413E-013  0.7246160E+02  0.7816164E-02  0.1226708E+00
        -11   -1    0    0    0    0  0.00000000000E+00  0.00000000000E+00  0.45593999997E+02  0.45594000000E+02  0.51100000000E-03 0.  1.
         11   -1    0    0    0    0 -0.00000000000E+00 -0.00000000000E+00 -0.45593999997E+02  0.45594000000E+02  0.51100000000E-03 0. -1.
    9900012    2    1    2    0    0 -0.13734240680E+02  0.12692953202E+02 -0.96825472012E+00  0.72461602983E+02  0.70000042582E+02 0.  0.
        -12    1    1    2    0    0  0.13734240680E+02 -0.12692953202E+02  0.96825472012E+00  0.18726397017E+02  0.00000000000E+00 0.  1.
         11    1    3    3    0    0  0.98506598593E+01 -0.18237174538E+02 -0.56426593238E+01  0.21481844411E+02  0.51100000000E-03 0. -1.
        -11    1    3    3    0    0  0.88464915555E+00 -0.31829555086E+01 -0.67123372558E+01  0.74812620322E+01  0.51100000000E-03 0.  1.
        -12    1    3    3    0    0 -0.24469549695E+02  0.34113083249E+02  0.11386741859E+02  0.43498496539E+02  0.00000000000E+00 0.  1.
</event>
<event>
 7    1  0.1891413E-013  0.7246156E+02  0.7816164E-02  0.1226708E+00
        -11   -1    0    0    0    0  0.00000000000E+00  0.00000000000E+00  0.45593999997E+02  0.45594000000E+02  0.51100000000E-03 0.  1.
         11   -1    0    0    0    0 -0.00000000000E+00 -0.00000000000E+00 -0.45593999997E+02  0.45594000000E+02  0.51100000000E-03 0. -1.
    9900012    2    1    2    0    0  0.15245085439E+02 -0.75839550461E+00 -0.10848575332E+02  0.72461564660E+02  0.69999992661E+02 0.  0.
        -12    1    1    2    0    0 -0.15245085439E+02  0.75839550461E+00  0.10848575332E+02  0.18726435340E+02  0.00000000000E+00 0.  1.
         11    1    3    3    0    0 -0.58288401100E+01  0.26674309189E+02 -0.49777779129E+01  0.27753782101E+02  0.51100000000E-03 0. -1.
        -11    1    3    3    0    0  0.71622074006E+01  0.31945971613E+01 -0.77379903734E+01  0.11017221117E+02  0.51100000000E-03 0.  1.
         12    1    3    3    0    0  0.13911718148E+02 -0.30627301855E+02  0.18671929539E+01  0.33690561442E+02  0.00000000000E+00 0. -1.
</event>
<event>
 7    1  0.1891413E-013  0.7246154E+02  0.7816164E-02  0.1226708E+00
        -11   -1    0    0    0    0  0.00000000000E+00  0.00000000000E+00  0.45593999997E+02  0.45594000000E+02  0.51100000000E-03 0.  1.
         11   -1    0    0    0    0 -0.00000000000E+00 -0.00000000000E+00 -0.45593999997E+02  0.45594000000E+02  0.51100000000E-03 0. -1.
    9900012    2    1    2    0    0  0.79779441218E+01  0.94486227665E+01 -0.14062580529E+02  0.72461541826E+02  0.69999962915E+02 0.  0.
        -12    1    1    2    0    0 -0.79779441218E+01 -0.94486227665E+01  0.14062580529E+02  0.18726458174E+02  0.00000000000E+00 0.  1.
         11    1    3    3    0    0  0.42147318344E+01 -0.22819089652E+01 -0.50649102837E+01  0.69731190585E+01  0.51100000000E-03 0. -1.
        -11    1    3    3    0    0  0.28238644459E+02 -0.36116564946E+00  0.12359843117E+02  0.30827215308E+02  0.51100000000E-03 0.  1.
         12    1    3    3    0    0 -0.24475432171E+02  0.12091697381E+02 -0.21357513363E+02  0.34661207460E+02  0.00000000000E+00 0. -1.
</event>
<event>
 7    1  0.1891413E-013  0.7246156E+02  0.7816164E-02  0.1226708E+00
        -11   -1    0    0    0    0  0.00000000000E+00  0.00000000000E+00  0.45593999997E+02  0.45594000000E+02  0.51100000000E-03 0. -1.
         11   -1    0    0    0    0 -0.00000000000E+00 -0.00000000000E+00 -0.45593999997E+02  0.45594000000E+02  0.51100000000E-03 0.  1.
    9900012    2    1    2    0    0  0.17807455906E+02 -0.20643212286E+01  0.54141026829E+01  0.72461563718E+02  0.69999991433E+02 0.  0.
        -12    1    1    2    0    0 -0.17807455906E+02  0.20643212286E+01 -0.54141026829E+01  0.18726436282E+02  0.00000000000E+00 0.  1.
         11    1    3    3    0    0  0.33804329333E+02 -0.78077404191E+01 -0.10189683259E+02  0.36159689397E+02  0.51100000000E-03 0. -1.
        -11    1    3    3    0    0  0.92390356866E+00 -0.29807291994E+01 -0.64515512033E+01  0.71666489766E+01  0.51100000000E-03 0.  1.
        -12    1    3    3    0    0 -0.16920776996E+02  0.87241483899E+01  0.22055337145E+02  0.29135225344E+02  0.00000000000E+00 0.  1.
</event>
<event>
 7    1  0.1891413E-013  0.7246156E+02  0.7816164E-02  0.1226708E+00
        -11   -1    0    0    0    0  0.00000000000E+00  0.00000000000E+00  0.45593999997E+02  0.45594000000E+02  0.51100000000E-03 0. -1.
         11   -1    0    0    0    0 -0.00000000000E+00 -0.00000000000E+00 -0.45593999997E+02  0.45594000000E+02  0.51100000000E-03 0.  1.
    9900012    2    1    2    0    0 -0.18646562692E+00 -0.17769265603E+02  0.59074391494E+01  0.72461563959E+02  0.69999991746E+02 0.  0.
        -12    1    1    2    0    0  0.18646562692E+00  0.17769265603E+02 -0.59074391494E+01  0.18726436041E+02  0.00000000000E+00 0.  1.
         11    1    3    3    0    0 -0.96652006319E+00 -0.87570998828E+01  0.89662449018E+01  0.12570382146E+02  0.51100000000E-03 0. -1.
        -11    1    3    3    0    0 -0.22738626153E+02 -0.14769936122E+02 -0.16949688201E+02  0.31976367254E+02  0.51100000000E-03 0.  1.
         12    1    3    3    0    0  0.23518680589E+02  0.57577704016E+01  0.13890882449E+02  0.27914814559E+02  0.00000000000E+00 0. -1.
</event>
<event>
 7    1  0.1891413E-013  0.7246162E+02  0.7816164E-02  0.1226708E+00
        -11   -1    0    0    0    0  0.00000000000E+00  0.00000000000E+00  0.45593999997E+02  0.45594000000E+02  0.51100000000E-03 0. -1.
         11   -1    0    0    0    0 -0.00000000000E+00 -0.00000000000E+00 -0.45593999997E+02  0.45594000000E+02  0.51100000000E-03 0.  1.
    9900012    2    1    2    0    0 -0.67110009188E+01 -0.96808092331E+01  0.14557529921E+02  0.72461620795E+02  0.70000065786E+02 0.  0.
        -12    1    1    2    0    0  0.67110009188E+01  0.96808092331E+01 -0.14557529921E+02  0.18726379205E+02  0.00000000000E+00 0.  1.
         11    1    3    3    0    0 -0.15139764909E+00 -0.15692839047E+01  0.41363008576E+01  0.44265741006E+01  0.51100000000E-03 0. -1.
        -11    1    3    3    0    0 -0.35402359156E+02 -0.74138462176E+01  0.14359274745E+02  0.38916332317E+02  0.51100000000E-03 0.  1.
         12    1    3    3    0    0  0.28842755886E+02 -0.69767911077E+00 -0.39380456816E+01  0.29118714378E+02  0.00000000000E+00 0. -1.
</event>
<event>
 7    1  0.1891413E-013  0.7246175E+02  0.7816164E-02  0.1226708E+00
        -11   -1    0    0    0    0  0.00000000000E+00  0.00000000000E+00  0.45593999997E+02  0.45594000000E+02  0.51100000000E-03 0.  1.
         11   -1    0    0    0    0 -0.00000000000E+00 -0.00000000000E+00 -0.45593999997E+02  0.45594000000E+02  0.51100000000E-03 0. -1.
    9900012    2    1    2    0    0  0.12680172400E+02  0.13138791285E+02  0.41542448366E+01  0.72461752147E+02  0.70000236896E+02 0.  0.
        -12    1    1    2    0    0 -0.12680172400E+02 -0.13138791285E+02 -0.41542448366E+01  0.18726247853E+02  0.00000000000E+00 0.  1.
         11    1    3    3    0    0 -0.14160868235E+01 -0.90769621360E+01 -0.67226259068E+01  0.11383771030E+02  0.51100000000E-03 0. -1.
        -11    1    3    3    0    0 -0.19895004419E+01 -0.16734049996E+02  0.84900184866E+01  0.18869736497E+02  0.51100000000E-03 0.  1.
        -12    1    3    3    0    0  0.16085759665E+02  0.38949803417E+02  0.23868522568E+01  0.42208244620E+02  0.00000000000E+00 0.  1.
</event>
<event>
 7    1  0.1891413E-013  0.7246148E+02  0.7816164E-02  0.1226708E+00
        -11   -1    0    0    0    0  0.00000000000E+00  0.00000000000E+00  0.45593999997E+02  0.45594000000E+02  0.51100000000E-03 0. -1.
         11   -1    0    0    0    0 -0.00000000000E+00 -0.00000000000E+00 -0.45593999997E+02  0.45594000000E+02  0.51100000000E-03 0.  1.
    9900012    2    1    2    0    0  0.16542210134E+02  0.60255265915E+01  0.63820740018E+01  0.72461479891E+02  0.69999882233E+02 0.  0.
        -12    1    1    2    0    0 -0.16542210134E+02 -0.60255265915E+01 -0.63820740018E+01  0.18726520109E+02  0.00000000000E+00 0.  1.
         11    1    3    3    0    0  0.55775791230E+01  0.35037285007E+02  0.14697140245E+02  0.38402170006E+02  0.51100000000E-03 0. -1.
        -11    1    3    3    0    0 -0.16129938882E+01 -0.49675263703E+01  0.10994019232E+01  0.53372982278E+01  0.51100000000E-03 0.  1.
        -12    1    3    3    0    0  0.12577624899E+02 -0.24044232046E+02 -0.94144681661E+01  0.28722011657E+02  0.00000000000E+00 0.  1.
</event>
<event>
 7    1  0.1891413E-013  0.7246156E+02  0.7816164E-02  0.1226708E+00
        -11   -1    0    0    0    0  0.00000000000E+00  0.00000000000E+00  0.45593999997E+02  0.45594000000E+02  0.51100000000E-03 0.  1.
         11   -1    0    0    0    0 -0.00000000000E+00 -0.00000000000E+00 -0.45593999997E+02  0.45594000000E+02  0.51100000000E-03 0. -1.
    9900012    2    1    2    0    0  0.13388101788E+02 -0.11152119345E+02 -0.68606611528E+01  0.72461555949E+02  0.69999981312E+02 0.  0.
        -12    1    1    2    0    0 -0.13388101788E+02  0.11152119345E+02  0.68606611528E+01  0.18726444051E+02  0.00000000000E+00 0.  1.
         11    1    3    3    0    0  0.34344751296E+02  0.10301121287E+02 -0.11589918070E+02  0.37682903849E+02  0.51100000000E-03 0. -1.
        -11    1    3    3    0    0 -0.12190082122E+02 -0.12311610934E+01  0.33157631396E+01  0.12692838344E+02  0.51100000000E-03 0.  1.
        -12    1    3    3    0    0 -0.87665673868E+01 -0.20222079538E+02  0.14134937777E+01  0.22085813755E+02  0.00000000000E+00 0.  1.
</event>
<event>
 7    1  0.1891413E-013  0.7246152E+02  0.7816164E-02  0.1226708E+00
        -11   -1    0    0    0    0  0.00000000000E+00  0.00000000000E+00  0.45593999997E+02  0.45594000000E+02  0.51100000000E-03 0.  1.
         11   -1    0    0    0    0 -0.00000000000E+00 -0.00000000000E+00 -0.45593999997E+02  0.45594000000E+02  0.51100000000E-03 0. -1.
    9900012    2    1    2    0    0  0.71493827374E+01 -0.12265881214E+02 -0.12211288580E+02  0.72461519170E+02  0.69999933401E+02 0.  0.
        -12    1    1    2    0    0 -0.71493827374E+01  0.12265881214E+02  0.12211288580E+02  0.18726480830E+02  0.00000000000E+00 0.  1.
         11    1    3    3    0    0  0.68178163894E+01  0.97961088068E+01 -0.10179784561E+02  0.15686758175E+02  0.51100000000E-03 0. -1.
        -11    1    3    3    0    0  0.23114505567E+01 -0.95327695011E+00  0.23474737784E+02  0.23607516915E+02  0.51100000000E-03 0.  1.
         12    1    3    3    0    0 -0.19798842088E+01 -0.21108713071E+02 -0.25506241802E+02  0.33167244080E+02  0.00000000000E+00 0. -1.
</event>
<event>
 7    1  0.1891413E-013  0.7246159E+02  0.7816164E-02  0.1226708E+00
        -11   -1    0    0    0    0  0.00000000000E+00  0.00000000000E+00  0.45593999997E+02  0.45594000000E+02  0.51100000000E-03 0. -1.
         11   -1    0    0    0    0 -0.00000000000E+00 -0.00000000000E+00 -0.45593999997E+02  0.45594000000E+02  0.51100000000E-03 0.  1.
    9900012    2    1    2    0    0  0.16962880203E+01 -0.42544438535E+01  0.18157658697E+02  0.72461594715E+02  0.70000031812E+02 0.  0.
        -12    1    1    2    0    0 -0.16962880203E+01  0.42544438535E+01 -0.18157658697E+02  0.18726405285E+02  0.00000000000E+00 0.  1.
         11    1    3    3    0    0 -0.21390123809E+02 -0.18419365641E+01  0.10101198075E+02  0.23726869361E+02  0.51100000000E-03 0. -1.
        -11    1    3    3    0    0  0.68184052498E+00  0.12334917273E+02  0.16502076922E+02  0.20613918444E+02  0.51100000000E-03 0.  1.
        -12    1    3    3    0    0  0.22404571304E+02 -0.14747424562E+02 -0.84456162998E+01  0.28120806909E+02  0.00000000000E+00 0.  1.
</event>
<event>
 7    1  0.1891413E-013  0.7246163E+02  0.7816164E-02  0.1226708E+00
        -11   -1    0    0    0    0  0.00000000000E+00  0.00000000000E+00  0.45593999997E+02  0.45594000000E+02  0.51100000000E-03 0. -1.
         11   -1    0    0    0    0 -0.00000000000E+00 -0.00000000000E+00 -0.45593999997E+02  0.45594000000E+02  0.51100000000E-03 0.  1.
    9900012    2    1    2    0    0  0.94438830606E+01  0.20685413271E+01  0.16037807504E+02  0.72461626619E+02  0.70000073373E+02 0.  0.
        -12    1    1    2    0    0 -0.94438830606E+01 -0.20685413271E+01 -0.16037807504E+02  0.18726373381E+02  0.00000000000E+00 0.  1.
         11    1    3    3    0    0  0.14679359409E+02 -0.79399317753E+01  0.18236735121E+02  0.24720530282E+02  0.51100000000E-03 0. -1.
        -11    1    3    3    0    0  0.13399976392E+02  0.29698499233E+01  0.15775273473E+02  0.20910251775E+02  0.51100000000E-03 0.  1.
        -12    1    3    3    0    0 -0.18635452741E+02  0.70386231791E+01 -0.17974201090E+02  0.26830844563E+02  0.00000000000E+00 0.  1.
</event>
<event>
 7    1  0.1891413E-013  0.7246170E+02  0.7816164E-02  0.1226708E+00
        -11   -1    0    0    0    0  0.00000000000E+00  0.00000000000E+00  0.45593999997E+02  0.45594000000E+02  0.51100000000E-03 0.  1.
         11   -1    0    0    0    0 -0.00000000000E+00 -0.00000000000E+00 -0.45593999997E+02  0.45594000000E+02  0.51100000000E-03 0. -1.
    9900012    2    1    2    0    0  0.60540392563E+01  0.67032932634E+01 -0.16403926971E+02  0.72461698924E+02  0.70000167564E+02 0.  0.
        -12    1    1    2    0    0 -0.60540392563E+01 -0.67032932634E+01  0.16403926971E+02  0.18726301076E+02  0.00000000000E+00 0.  1.
         11    1    3    3    0    0 -0.91106601472E+01  0.52728284539E+01 -0.18371297895E+02  0.21173366167E+02  0.51100000000E-03 0. -1.
        -11    1    3    3    0    0 -0.14981775968E+02  0.11182629435E+02 -0.38151988438E+01  0.19080370927E+02  0.51100000000E-03 0.  1.
        -12    1    3    3    0    0  0.30146475371E+02 -0.97521646255E+01  0.57825697674E+01  0.32207961831E+02  0.00000000000E+00 0.  1.
</event>
<event>
 7    1  0.1891413E-013  0.7246158E+02  0.7816164E-02  0.1226708E+00
        -11   -1    0    0    0    0  0.00000000000E+00  0.00000000000E+00  0.45593999997E+02  0.45594000000E+02  0.51100000000E-03 0. -1.
         11   -1    0    0    0    0 -0.00000000000E+00 -0.00000000000E+00 -0.45593999997E+02  0.45594000000E+02  0.51100000000E-03 0.  1.
    9900012    2    1    2    0    0  0.31553243272E+01  0.18457237628E+02 -0.23022475563E+00  0.72461582940E+02  0.70000016473E+02 0.  0.
        -12    1    1    2    0    0 -0.31553243272E+01 -0.18457237628E+02  0.23022475563E+00  0.18726417060E+02  0.00000000000E+00 0.  1.
         11    1    3    3    0    0  0.74265941725E+01  0.38067285913E+02  0.30771713145E+00  0.38786173411E+02  0.51100000000E-03 0. -1.
        -11    1    3    3    0    0 -0.30741902853E+01  0.65353330944E+01 -0.18974103588E+01  0.74673550134E+01  0.51100000000E-03 0.  1.
        -12    1    3    3    0    0 -0.11970795600E+01 -0.26145381379E+02  0.13594684717E+01  0.26208054515E+02  0.00000000000E+00 0.  1.
</event>
<event>
 7    1  0.1891413E-013  0.7246156E+02  0.7816164E-02  0.1226708E+00
        -11   -1    0    0    0    0  0.00000000000E+00  0.00000000000E+00  0.45593999997E+02  0.45594000000E+02  0.51100000000E-03 0.  1.
         11   -1    0    0    0    0 -0.00000000000E+00 -0.00000000000E+00 -0.45593999997E+02  0.45594000000E+02  0.51100000000E-03 0. -1.
    9900012    2    1    2    0    0 -0.89148836451E+01  0.18837587454E+01 -0.16360195587E+02  0.72461556209E+02  0.69999981651E+02 0.  0.
        -12    1    1    2    0    0  0.89148836451E+01 -0.18837587454E+01  0.16360195587E+02  0.18726443791E+02  0.00000000000E+00 0.  1.
         11    1    3    3    0    0  0.20431707565E+02  0.31689415230E+01  0.15036051324E+00  0.20676544028E+02  0.51100000000E-03 0. -1.
        -11    1    3    3    0    0  0.95394534205E+00 -0.13652335872E+02 -0.12990140834E+02  0.18869023442E+02  0.51100000000E-03 0.  1.
         12    1    3    3    0    0 -0.30300536552E+02  0.12367153095E+02 -0.35204152655E+01  0.32915988739E+02  0.00000000000E+00 0. -1.
</event>
<event>
 7    1  0.1891413E-013  0.7246156E+02  0.7816164E-02  0.1226708E+00
        -11   -1    0    0    0    0  0.00000000000E+00  0.00000000000E+00  0.45593999997E+02  0.45594000000E+02  0.51100000000E-03 0.  1.
         11   -1    0    0    0    0 -0.00000000000E+00 -0.00000000000E+00 -0.45593999997E+02  0.45594000000E+02  0.51100000000E-03 0. -1.
    9900012    2    1    2    0    0  0.22234477788E+01 -0.49068474927E+01 -0.17934840989E+02  0.72461564310E+02  0.69999992204E+02 0.  0.
        -12    1    1    2    0    0 -0.22234477788E+01  0.49068474927E+01  0.17934840989E+02  0.18726435690E+02  0.00000000000E+00 0.  1.
         11    1    3    3    0    0  0.29440886198E+02  0.11690549669E+02 -0.16811062475E+02  0.35861491233E+02  0.51100000000E-03 0. -1.
        -11    1    3    3    0    0 -0.45474904194E+01 -0.11376241698E+02 -0.45835037301E+01  0.13080789387E+02  0.51100000000E-03 0.  1.
        -12    1    3    3    0    0 -0.22669948000E+02 -0.52211554632E+01  0.34597252162E+01  0.23519283689E+02  0.00000000000E+00 0.  1.
</event>
<event>
 7    1  0.1891413E-013  0.7246139E+02  0.7816164E-02  0.1226708E+00
        -11   -1    0    0    0    0  0.00000000000E+00  0.00000000000E+00  0.45593999997E+02  0.45594000000E+02  0.51100000000E-03 0. -1.
         11   -1    0    0    0    0 -0.00000000000E+00 -0.00000000000E+00 -0.45593999997E+02  0.45594000000E+02  0.51100000000E-03 0.  1.
    9900012    2    1    2    0    0  0.14444226073E+01  0.14883647620E+02  0.11272821625E+02  0.72461392445E+02  0.69999768318E+02 0.  0.
        -12    1    1    2    0    0 -0.14444226073E+01 -0.14883647620E+02 -0.11272821625E+02  0.18726607555E+02  0.00000000000E+00 0.  1.
         11    1    3    3    0    0 -0.14234014912E+01 -0.18234444465E+02 -0.97983354503E+01  0.20749178649E+02  0.51100000000E-03 0. -1.
        -11    1    3    3    0    0 -0.27319710757E+01  0.33084001853E+01 -0.83930166749E+01  0.94261289462E+01  0.51100000000E-03 0.  1.
         12    1    3    3    0    0  0.55997951742E+01  0.29809691900E+02  0.29464173750E+02  0.42286084850E+02  0.00000000000E+00 0. -1.
</event>
<event>
 7    1  0.1891413E-013  0.7246143E+02  0.7816164E-02  0.1226708E+00
        -11   -1    0    0    0    0  0.00000000000E+00  0.00000000000E+00  0.45593999997E+02  0.45594000000E+02  0.51100000000E-03 0. -1.
         11   -1    0    0    0    0 -0.00000000000E+00 -0.00000000000E+00 -0.45593999997E+02  0.45594000000E+02  0.51100000000E-03 0.  1.
    9900012    2    1    2    0    0 -0.55804286128E+01 -0.17627277321E+02 -0.29702199951E+01  0.72461433415E+02  0.69999821689E+02 0.  0.
        -12    1    1    2    0    0  0.55804286128E+01  0.17627277321E+02  0.29702199951E+01  0.18726566585E+02  0.00000000000E+00 0.  1.
         11    1    3    3    0    0 -0.61370615899E-01 -0.22264286992E+02  0.99676996648E+01  0.24393795902E+02  0.51100000000E-03 0. -1.
        -11    1    3    3    0    0 -0.25277917528E+02  0.31414536744E+00 -0.11551265305E+02  0.27793947764E+02  0.51100000000E-03 0.  1.
        -12    1    3    3    0    0  0.19758859531E+02  0.43228643040E+01 -0.13866543550E+01  0.20273689750E+02  0.00000000000E+00 0.  1.
</event>
<event>
 7    1  0.1891413E-013  0.7246158E+02  0.7816164E-02  0.1226708E+00
        -11   -1    0    0    0    0  0.00000000000E+00  0.00000000000E+00  0.45593999997E+02  0.45594000000E+02  0.51100000000E-03 0. -1.
         11   -1    0    0    0    0 -0.00000000000E+00 -0.00000000000E+00 -0.45593999997E+02  0.45594000000E+02  0.51100000000E-03 0.  1.
    9900012    2    1    2    0    0  0.79806517948E+01  0.16894737599E+02 -0.12473184582E+01  0.72461581097E+02  0.70000014072E+02 0.  0.
        -12    1    1    2    0    0 -0.79806517948E+01 -0.16894737599E+02  0.12473184582E+01  0.18726418903E+02  0.00000000000E+00 0.  1.
         11    1    3    3    0    0  0.25746702870E+02  0.21238148700E+02 -0.95204053431E+01  0.34707200795E+02  0.51100000000E-03 0. -1.
        -11    1    3    3    0    0  0.47507944477E+01  0.93451880624E+01  0.21710651659E+01  0.10705891463E+02  0.51100000000E-03 0.  1.
        -12    1    3    3    0    0 -0.22516845523E+02 -0.13688599163E+02  0.61020217190E+01  0.27048488838E+02  0.00000000000E+00 0.  1.
</event>
<event>
 7    1  0.1891413E-013  0.7246159E+02  0.7816164E-02  0.1226708E+00
        -11   -1    0    0    0    0  0.00000000000E+00  0.00000000000E+00  0.45593999997E+02  0.45594000000E+02  0.51100000000E-03 0.  1.
         11   -1    0    0    0    0 -0.00000000000E+00 -0.00000000000E+00 -0.45593999997E+02  0.45594000000E+02  0.51100000000E-03 0. -1.
    9900012    2    1    2    0    0 -0.12782706640E+02  0.88389655250E+01 -0.10447656472E+02  0.72461590137E+02  0.70000025848E+02 0.  0.
        -12    1    1    2    0    0  0.12782706640E+02 -0.88389655250E+01  0.10447656472E+02  0.18726409863E+02  0.00000000000E+00 0.  1.
         11    1    3    3    0    0  0.50981340897E+01 -0.63275363017E+01  0.51230702230E+01  0.96059635444E+01  0.51100000000E-03 0. -1.
        -11    1    3    3    0    0 -0.15896847391E+02  0.19827977161E+02  0.16556700639E+02  0.30331217773E+02  0.51100000000E-03 0.  1.
         12    1    3    3    0    0 -0.19839933391E+01 -0.46614753346E+01 -0.32127427335E+02  0.32524408819E+02  0.00000000000E+00 0. -1.
</event>
<event>
 7    1  0.1891413E-013  0.7246160E+02  0.7816164E-02  0.1226708E+00
        -11   -1    0    0    0    0  0.00000000000E+00  0.00000000000E+00  0.45593999997E+02  0.45594000000E+02  0.51100000000E-03 0. -1.
         11   -1    0    0    0    0 -0.00000000000E+00 -0.00000000000E+00 -0.45593999997E+02  0.45594000000E+02  0.51100000000E-03 0.  1.
    9900012    2    1    2    0    0  0.18164364182E+01 -0.15066180379E+02 -0.10972177440E+02  0.72461603917E+02  0.70000043800E+02 0.  0.
        -12    1    1    2    0    0 -0.18164364182E+01  0.15066180379E+02  0.10972177440E+02  0.18726396083E+02  0.00000000000E+00 0.  1.
         11    1    3    3    0    0 -0.74900308530E+01 -0.38184751262E+01  0.33034301623E+01  0.90329378148E+01  0.51100000000E-03 0. -1.
        -11    1    3    3    0    0 -0.13203044002E+02 -0.29552375407E+02 -0.11212462933E+02  0.34254672504E+02  0.51100000000E-03 0.  1.
         12    1    3    3    0    0  0.22509511273E+02  0.18304670153E+02 -0.30631446690E+01  0.29173993598E+02  0.00000000000E+00 0. -1.
</event>
<event>
 7    1  0.1891413E-013  0.7246155E+02  0.7816164E-02  0.1226708E+00
        -11   -1    0    0    0    0  0.00000000000E+00  0.00000000000E+00  0.45593999997E+02  0.45594000000E+02  0.51100000000E-03 0.  1.
         11   -1    0    0    0    0 -0.00000000000E+00 -0.00000000000E+00 -0.45593999997E+02  0.45594000000E+02  0.51100000000E-03 0. -1.
    9900012    2    1    2    0    0  0.12738913410E+02  0.10646519278E+02 -0.86632260933E+01  0.72461554156E+02  0.69999978976E+02 0.  0.
        -12    1    1    2    0    0 -0.12738913410E+02 -0.10646519278E+02  0.86632260933E+01  0.18726445844E+02  0.00000000000E+00 0.  1.
         11    1    3    3    0    0  0.81701039403E+01 -0.26568858209E+01 -0.11606435425E+02  0.14440186433E+02  0.51100000000E-03 0. -1.
        -11    1    3    3    0    0  0.19659932075E+02 -0.78276672445E+01  0.18194251390E+02  0.27907276607E+02  0.51100000000E-03 0.  1.
        -12    1    3    3    0    0 -0.15091122606E+02  0.21131072344E+02 -0.15251042058E+02  0.30114091116E+02  0.00000000000E+00 0.  1.
</event>
<event>
 7    1  0.1891413E-013  0.7246102E+02  0.7816164E-02  0.1226709E+00
        -11   -1    0    0    0    0  0.00000000000E+00  0.00000000000E+00  0.45593999997E+02  0.45594000000E+02  0.51100000000E-03 0. -1.
         11   -1    0    0    0    0 -0.00000000000E+00 -0.00000000000E+00 -0.45593999997E+02  0.45594000000E+02  0.51100000000E-03 0.  1.
    9900012    2    1    2    0    0 -0.81559326875E+01  0.50759168758E+01  0.16075309855E+02  0.72461020610E+02  0.69999283930E+02 0.  0.
        -12    1    1    2    0    0  0.81559326875E+01 -0.50759168758E+01 -0.16075309855E+02  0.18726979390E+02  0.00000000000E+00 0.  1.
         11    1    3    3    0    0 -0.28027656835E+02  0.95489386109E+01 -0.46924447626E+01  0.29979173010E+02  0.51100000000E-03 0. -1.
        -11    1    3    3    0    0  0.89909191226E+01  0.67201603837E+01 -0.50525386352E+01  0.12309562509E+02  0.51100000000E-03 0.  1.
         12    1    3    3    0    0  0.10880805025E+02 -0.11193182119E+02  0.25820293253E+02  0.30172285091E+02  0.00000000000E+00 0. -1.
</event>
<event>
 7    1  0.1891413E-013  0.7246156E+02  0.7816164E-02  0.1226708E+00
        -11   -1    0    0    0    0  0.00000000000E+00  0.00000000000E+00  0.45593999997E+02  0.45594000000E+02  0.51100000000E-03 0. -1.
         11   -1    0    0    0    0 -0.00000000000E+00 -0.00000000000E+00 -0.45593999997E+02  0.45594000000E+02  0.51100000000E-03 0.  1.
    9900012    2    1    2    0    0  0.50399709297E+01  0.13929120429E+02  0.11456776788E+02  0.72461563145E+02  0.69999990687E+02 0.  0.
        -12    1    1    2    0    0 -0.50399709297E+01 -0.13929120429E+02 -0.11456776788E+02  0.18726436855E+02  0.00000000000E+00 0.  1.
         11    1    3    3    0    0 -0.63315985871E+01  0.81767726020E+01  0.35749783438E+02  0.37215531260E+02  0.51100000000E-03 0. -1.
        -11    1    3    3    0    0 -0.39418856046E+01  0.88415865771E-01  0.19032135755E+01  0.43781847448E+01  0.51100000000E-03 0.  1.
        -12    1    3    3    0    0  0.15313455121E+02  0.56639319614E+01 -0.26196220225E+02  0.30867847141E+02  0.00000000000E+00 0.  1.
</event>
<event>
 7    1  0.1891413E-013  0.7246165E+02  0.7816164E-02  0.1226708E+00
        -11   -1    0    0    0    0  0.00000000000E+00  0.00000000000E+00  0.45593999997E+02  0.45594000000E+02  0.51100000000E-03 0.  1.
         11   -1    0    0    0    0 -0.00000000000E+00 -0.00000000000E+00 -0.45593999997E+02  0.45594000000E+02  0.51100000000E-03 0. -1.
    9900012    2    1    2    0    0 -0.92792787557E+01 -0.83784391964E+01 -0.13941765979E+02  0.72461652353E+02  0.70000106896E+02 0.  0.
        -12    1    1    2    0    0  0.92792787557E+01  0.83784391964E+01  0.13941765979E+02  0.18726347647E+02  0.00000000000E+00 0.  1.
         11    1    3    3    0    0 -0.37803664547E+01  0.96110118421E+01  0.86570727963E+01  0.13476187474E+02  0.51100000000E-03 0.  1.
        -11    1    3    3    0    0 -0.40735100338E+01 -0.17645361405E+02  0.13668329992E+02  0.22688664750E+02  0.51100000000E-03 0. -1.
         12    1    3    3    0    0 -0.14254022672E+01 -0.34408963392E+00 -0.36267168767E+02  0.36296800130E+02  0.00000000000E+00 0. -1.
</event>
<event>
 7    1  0.1891413E-013  0.7246157E+02  0.7816164E-02  0.1226708E+00
        -11   -1    0    0    0    0  0.00000000000E+00  0.00000000000E+00  0.45593999997E+02  0.45594000000E+02  0.51100000000E-03 0.  1.
         11   -1    0    0    0    0 -0.00000000000E+00 -0.00000000000E+00 -0.45593999997E+02  0.45594000000E+02  0.51100000000E-03 0. -1.
    9900012    2    1    2    0    0 -0.11247817473E+02  0.14934121853E+02 -0.10667146083E+01  0.72461567518E+02  0.69999996384E+02 0.  0.
        -12    1    1    2    0    0  0.11247817473E+02 -0.14934121853E+02  0.10667146083E+01  0.18726432482E+02  0.00000000000E+00 0.  1.
         11    1    3    3    0    0 -0.14049619133E+02 -0.10642302300E+01  0.29556207451E+01  0.14396530069E+02  0.51100000000E-03 0. -1.
        -11    1    3    3    0    0 -0.69919671427E+01  0.26490748162E+02  0.17270052526E+02  0.32386757436E+02  0.51100000000E-03 0.  1.
         12    1    3    3    0    0  0.97937688033E+01 -0.10492396078E+02 -0.21292387880E+02  0.25678280014E+02  0.00000000000E+00 0. -1.
</event>
<event>
 7    1  0.1891413E-013  0.7246157E+02  0.7816164E-02  0.1226708E+00
        -11   -1    0    0    0    0  0.00000000000E+00  0.00000000000E+00  0.45593999997E+02  0.45594000000E+02  0.51100000000E-03 0. -1.
         11   -1    0    0    0    0 -0.00000000000E+00 -0.00000000000E+00 -0.45593999997E+02  0.45594000000E+02  0.51100000000E-03 0.  1.
    9900012    2    1    2    0    0 -0.11700114155E+02 -0.13483423001E+02  0.56554074276E+01  0.72461574814E+02  0.70000005888E+02 0.  0.
        -12    1    1    2    0    0  0.11700114155E+02  0.13483423001E+02 -0.56554074276E+01  0.18726425186E+02  0.00000000000E+00 0.  1.
         11    1    3    3    0    0  0.52340762197E+01 -0.11945938143E+01  0.20413955423E+02  0.21108107081E+02  0.51100000000E-03 0. -1.
        -11    1    3    3    0    0 -0.28388020766E+02 -0.84642518364E+01 -0.22333587214E+02  0.37098684617E+02  0.51100000000E-03 0.  1.
         12    1    3    3    0    0  0.11453830392E+02 -0.38245773503E+01  0.75750392179E+01  0.14254783117E+02  0.00000000000E+00 0. -1.
</event>
<event>
 7    1  0.1891413E-013  0.7246156E+02  0.7816164E-02  0.1226708E+00
        -11   -1    0    0    0    0  0.00000000000E+00  0.00000000000E+00  0.45593999997E+02  0.45594000000E+02  0.51100000000E-03 0.  1.
         11   -1    0    0    0    0 -0.00000000000E+00 -0.00000000000E+00 -0.45593999997E+02  0.45594000000E+02  0.51100000000E-03 0. -1.
    9900012    2    1    2    0    0  0.16527403218E+02  0.59749924625E+01 -0.64671404774E+01  0.72461561524E+02  0.69999988575E+02 0.  0.
        -12    1    1    2    0    0 -0.16527403218E+02 -0.59749924625E+01  0.64671404774E+01  0.18726438476E+02  0.00000000000E+00 0.  1.
         11    1    3    3    0    0 -0.15510964203E+02  0.24527529348E+01  0.36685490290E+01  0.16126507982E+02  0.51100000000E-03 0. -1.
        -11    1    3    3    0    0 -0.15322398012E+01  0.64458219450E-02  0.14478532854E+02  0.14559385778E+02  0.51100000000E-03 0.  1.
         12    1    3    3    0    0  0.33570607222E+02  0.35157937058E+01 -0.24614222361E+02  0.41775667763E+02  0.00000000000E+00 0. -1.
</event>
<event>
 7    1  0.1891413E-013  0.7246157E+02  0.7816164E-02  0.1226708E+00
        -11   -1    0    0    0    0  0.00000000000E+00  0.00000000000E+00  0.45593999997E+02  0.45594000000E+02  0.51100000000E-03 0.  1.
         11   -1    0    0    0    0 -0.00000000000E+00 -0.00000000000E+00 -0.45593999997E+02  0.45594000000E+02  0.51100000000E-03 0. -1.
    9900012    2    1    2    0    0 -0.65967667805E+01  0.10956613243E+02 -0.13678973550E+02  0.72461574204E+02  0.70000005093E+02 0.  0.
        -12    1    1    2    0    0  0.65967667805E+01 -0.10956613243E+02  0.13678973550E+02  0.18726425796E+02  0.00000000000E+00 0.  1.
         11    1    3    3    0    0  0.29982229755E+01  0.81611595452E+01 -0.26456940077E+02  0.27848941535E+02  0.51100000000E-03 0. -1.
        -11    1    3    3    0    0 -0.78610367712E+01  0.14660969444E+02 -0.96126474526E+01  0.19213092293E+02  0.51100000000E-03 0.  1.
        -12    1    3    3    0    0 -0.17339529849E+01 -0.11865515746E+02  0.22390613980E+02  0.25399540376E+02  0.00000000000E+00 0.  1.
</event>
<event>
 7    1  0.1891413E-013  0.7246159E+02  0.7816164E-02  0.1226708E+00
        -11   -1    0    0    0    0  0.00000000000E+00  0.00000000000E+00  0.45593999997E+02  0.45594000000E+02  0.51100000000E-03 0.  1.
         11   -1    0    0    0    0 -0.00000000000E+00 -0.00000000000E+00 -0.45593999997E+02  0.45594000000E+02  0.51100000000E-03 0. -1.
    9900012    2    1    2    0    0 -0.26924762697E+01  0.18517004301E+02 -0.74139506365E+00  0.72461587012E+02  0.70000021778E+02 0.  0.
        -12    1    1    2    0    0  0.26924762697E+01 -0.18517004301E+02  0.74139506365E+00  0.18726412988E+02  0.00000000000E+00 0.  1.
         11    1    3    3    0    0 -0.34293566994E+02  0.14895633043E+02 -0.60614891530E+01  0.37877041489E+02  0.51100000000E-03 0.  1.
        -11    1    3    3    0    0  0.10541942036E+02 -0.39251946645E+01 -0.11224237058E+01  0.11304845433E+02  0.51100000000E-03 0. -1.
        -12    1    3    3    0    0  0.21059148689E+02  0.75465659223E+01  0.64425177952E+01  0.23279700090E+02  0.00000000000E+00 0.  1.
</event>
<event>
 7    1  0.1891413E-013  0.7246157E+02  0.7816164E-02  0.1226708E+00
        -11   -1    0    0    0    0  0.00000000000E+00  0.00000000000E+00  0.45593999997E+02  0.45594000000E+02  0.51100000000E-03 0.  1.
         11   -1    0    0    0    0 -0.00000000000E+00 -0.00000000000E+00 -0.45593999997E+02  0.45594000000E+02  0.51100000000E-03 0. -1.
    9900012    2    1    2    0    0  0.11342674626E+02  0.14775148783E+02 -0.19282176822E+01  0.72461566472E+02  0.69999995021E+02 0.  0.
        -12    1    1    2    0    0 -0.11342674626E+02 -0.14775148783E+02  0.19282176822E+01  0.18726433528E+02  0.00000000000E+00 0.  1.
         11    1    3    3    0    0  0.39677352217E+01  0.36900939729E+01  0.80565875537E+01  0.97091873805E+01  0.51100000000E-03 0. -1.
        -11    1    3    3    0    0  0.30477926842E+02 -0.82828791745E+01 -0.24536813286E+01  0.31678552119E+02  0.51100000000E-03 0.  1.
         12    1    3    3    0    0 -0.23102987439E+02  0.19367933985E+02 -0.75311239072E+01  0.31073826973E+02  0.00000000000E+00 0. -1.
</event>
<event>
 7    1  0.1891413E-013  0.7246159E+02  0.7816164E-02  0.1226708E+00
        -11   -1    0    0    0    0  0.00000000000E+00  0.00000000000E+00  0.45593999997E+02  0.45594000000E+02  0.51100000000E-03 0.  1.
         11   -1    0    0    0    0 -0.00000000000E+00 -0.00000000000E+00 -0.45593999997E+02  0.45594000000E+02  0.51100000000E-03 0. -1.
    9900012    2    1    2    0    0  0.10717422617E+02  0.14969469332E+02 -0.34249329425E+01  0.72461592835E+02  0.70000029364E+02 0.  0.
        -12    1    1    2    0    0 -0.10717422617E+02 -0.14969469332E+02  0.34249329425E+01  0.18726407165E+02  0.00000000000E+00 0.  1.
         11    1    3    3    0    0 -0.54724477957E+01  0.37292183999E+02 -0.78691364970E+01  0.38504259268E+02  0.51100000000E-03 0. -1.
        -11    1    3    3    0    0  0.31507595453E+01 -0.86541493309E+01 -0.72666472554E+01  0.11731400127E+02  0.51100000000E-03 0.  1.
        -12    1    3    3    0    0  0.13039110868E+02 -0.13668565336E+02  0.11710850810E+02  0.22225933440E+02  0.00000000000E+00 0.  1.
</event>
<event>
 7    1  0.1891413E-013  0.7246158E+02  0.7816164E-02  0.1226708E+00
        -11   -1    0    0    0    0  0.00000000000E+00  0.00000000000E+00  0.45593999997E+02  0.45594000000E+02  0.51100000000E-03 0. -1.
         11   -1    0    0    0    0 -0.00000000000E+00 -0.00000000000E+00 -0.45593999997E+02  0.45594000000E+02  0.51100000000E-03 0.  1.
    9900012    2    1    2    0    0  0.59101864704E+01 -0.12883619489E+02  0.12237684488E+02  0.72461578108E+02  0.70000010179E+02 0.  0.
        -12    1    1    2    0    0 -0.59101864704E+01  0.12883619489E+02 -0.12237684488E+02  0.18726421892E+02  0.00000000000E+00 0.  1.
         11    1    3    3    0    0  0.23964938357E+02 -0.86439358608E+01  0.10495870873E+02  0.27553569701E+02  0.51100000000E-03 0.  1.
        -11    1    3    3    0    0  0.99768668599E+01  0.11406060624E+01  0.11006238955E+02  0.14898864075E+02  0.51100000000E-03 0. -1.
        -12    1    3    3    0    0 -0.28031618746E+02 -0.53802896903E+01 -0.92644253401E+01  0.30009144332E+02  0.00000000000E+00 0.  1.
</event>
<event>
 7    1  0.1891413E-013  0.7246161E+02  0.7816164E-02  0.1226708E+00
        -11   -1    0    0    0    0  0.00000000000E+00  0.00000000000E+00  0.45593999997E+02  0.45594000000E+02  0.51100000000E-03 0.  1.
         11   -1    0    0    0    0 -0.00000000000E+00 -0.00000000000E+00 -0.45593999997E+02  0.45594000000E+02  0.51100000000E-03 0. -1.
    9900012    2    1    2    0    0  0.17403402690E+02  0.96662284951E+00 -0.68457997413E+01  0.72461607955E+02  0.70000049060E+02 0.  0.
        -12    1    1    2    0    0 -0.17403402690E+02 -0.96662284951E+00  0.68457997413E+01  0.18726392045E+02  0.00000000000E+00 0.  1.
         11    1    3    3    0    0 -0.45315620807E+01  0.92067967610E+00 -0.15527938633E+01  0.48778965754E+01  0.51100000000E-03 0. -1.
        -11    1    3    3    0    0  0.49212394756E+01  0.30434842496E+02  0.50765329159E+01  0.31245310407E+02  0.51100000000E-03 0.  1.
         12    1    3    3    0    0  0.17013725295E+02 -0.30388899322E+02 -0.10369538794E+02  0.36338400973E+02  0.00000000000E+00 0. -1.
</event>
<event>
 7    1  0.1891413E-013  0.7246188E+02  0.7816164E-02  0.1226707E+00
        -11   -1    0    0    0    0  0.00000000000E+00  0.00000000000E+00  0.45593999997E+02  0.45594000000E+02  0.51100000000E-03 0. -1.
         11   -1    0    0    0    0 -0.00000000000E+00 -0.00000000000E+00 -0.45593999997E+02  0.45594000000E+02  0.51100000000E-03 0.  1.
    9900012    2    1    2    0    0 -0.90596638608E+00 -0.16436745804E+02  0.89263742794E+01  0.72461880661E+02  0.70000404309E+02 0.  0.
        -12    1    1    2    0    0  0.90596638608E+00  0.16436745804E+02 -0.89263742794E+01  0.18726119339E+02  0.00000000000E+00 0.  1.
         11    1    3    3    0    0 -0.62458309351E+01 -0.65642698413E+01  0.15043869459E+02  0.17561835074E+02  0.51100000000E-03 0. -1.
        -11    1    3    3    0    0 -0.11621400248E+01  0.21182532997E+02  0.40191826952E+01  0.21591760081E+02  0.51100000000E-03 0.  1.
         12    1    3    3    0    0  0.65020045738E+01 -0.31055008960E+02 -0.10136677875E+02  0.33308285505E+02  0.00000000000E+00 0. -1.
</event>
<event>
 7    1  0.1891413E-013  0.7246142E+02  0.7816164E-02  0.1226708E+00
        -11   -1    0    0    0    0  0.00000000000E+00  0.00000000000E+00  0.45593999997E+02  0.45594000000E+02  0.51100000000E-03 0.  1.
         11   -1    0    0    0    0 -0.00000000000E+00 -0.00000000000E+00 -0.45593999997E+02  0.45594000000E+02  0.51100000000E-03 0. -1.
    9900012    2    1    2    0    0 -0.61205458324E+01  0.15162966200E+02  0.91273245574E+01  0.72461423195E+02  0.69999808375E+02 0.  0.
        -12    1    1    2    0    0  0.61205458324E+01 -0.15162966200E+02 -0.91273245574E+01  0.18726576805E+02  0.00000000000E+00 0.  1.
         11    1    3    3    0    0 -0.15315605700E+02 -0.11033854969E+02 -0.12695569892E+02  0.22748433542E+02  0.51100000000E-03 0. -1.
        -11    1    3    3    0    0 -0.95819369463E+01  0.83905035429E+00  0.14369502659E+02  0.17291620169E+02  0.51100000000E-03 0.  1.
         12    1    3    3    0    0  0.18776996814E+02  0.25357770814E+02  0.74533917903E+01  0.32421369484E+02  0.00000000000E+00 0. -1.
</event>
<event>
 7    1  0.1891413E-013  0.7246159E+02  0.7816164E-02  0.1226708E+00
        -11   -1    0    0    0    0  0.00000000000E+00  0.00000000000E+00  0.45593999997E+02  0.45594000000E+02  0.51100000000E-03 0. -1.
         11   -1    0    0    0    0 -0.00000000000E+00 -0.00000000000E+00 -0.45593999997E+02  0.45594000000E+02  0.51100000000E-03 0.  1.
    9900012    2    1    2    0    0 -0.10224483417E+02  0.35874319694E+01  0.15273131962E+02  0.72461593799E+02  0.70000030619E+02 0.  0.
        -12    1    1    2    0    0  0.10224483417E+02 -0.35874319694E+01 -0.15273131962E+02  0.18726406201E+02  0.00000000000E+00 0.  1.
         11    1    3    3    0    0  0.88132000428E+01 -0.10608151934E+02  0.56468891108E+00  0.13803052426E+02  0.51100000000E-03 0. -1.
        -11    1    3    3    0    0  0.29800582675E+01  0.29257765780E+02  0.12285007327E+02  0.31871915710E+02  0.51100000000E-03 0.  1.
        -12    1    3    3    0    0 -0.22017741728E+02 -0.15062181877E+02  0.24234357240E+01  0.26786625663E+02  0.00000000000E+00 0.  1.
</event>
<event>
 7    1  0.1891413E-013  0.7246163E+02  0.7816164E-02  0.1226708E+00
        -11   -1    0    0    0    0  0.00000000000E+00  0.00000000000E+00  0.45593999997E+02  0.45594000000E+02  0.51100000000E-03 0.  1.
         11   -1    0    0    0    0 -0.00000000000E+00 -0.00000000000E+00 -0.45593999997E+02  0.45594000000E+02  0.51100000000E-03 0. -1.
    9900012    2    1    2    0    0 -0.17302908690E+01 -0.14433072695E+02 -0.11805490860E+02  0.72461625328E+02  0.70000071692E+02 0.  0.
        -12    1    1    2    0    0  0.17302908690E+01  0.14433072695E+02  0.11805490860E+02  0.18726374672E+02  0.00000000000E+00 0.  1.
         11    1    3    3    0    0  0.10039656277E+02 -0.53281324207E+01 -0.42917209587E+01  0.12149179491E+02  0.51100000000E-03 0. -1.
        -11    1    3    3    0    0  0.12452415261E+02 -0.12294466387E+02  0.17918935523E+02  0.25046053583E+02  0.51100000000E-03 0.  1.
         12    1    3    3    0    0 -0.24222362407E+02  0.31895261122E+01 -0.25432705424E+02  0.35266392254E+02  0.00000000000E+00 0. -1.
</event>
<event>
 7    1  0.1891413E-013  0.7246157E+02  0.7816164E-02  0.1226708E+00
        -11   -1    0    0    0    0  0.00000000000E+00  0.00000000000E+00  0.45593999997E+02  0.45594000000E+02  0.51100000000E-03 0.  1.
         11   -1    0    0    0    0 -0.00000000000E+00 -0.00000000000E+00 -0.45593999997E+02  0.45594000000E+02  0.51100000000E-03 0. -1.
    9900012    2    1    2    0    0  0.38182552857E+01 -0.83878178222E+00 -0.18313829920E+02  0.72461574963E+02  0.70000006082E+02 0.  0.
        -12    1    1    2    0    0 -0.38182552857E+01  0.83878178222E+00  0.18313829920E+02  0.18726425037E+02  0.00000000000E+00 0.  1.
         11    1    3    3    0    0  0.73722316206E+01  0.89863928945E+01  0.65192613434E+01  0.13326883546E+02  0.51100000000E-03 0.  1.
        -11    1    3    3    0    0 -0.38373569231E+01  0.26338319416E+01 -0.39565488330E+02  0.39838301242E+02  0.51100000000E-03 0. -1.
         12    1    3    3    0    0  0.28338058823E+00 -0.12459006618E+02  0.14732397066E+02  0.19296390175E+02  0.00000000000E+00 0. -1.
</event>
<event>
 7    1  0.1891413E-013  0.7246154E+02  0.7816164E-02  0.1226708E+00
        -11   -1    0    0    0    0  0.00000000000E+00  0.00000000000E+00  0.45593999997E+02  0.45594000000E+02  0.51100000000E-03 0.  1.
         11   -1    0    0    0    0 -0.00000000000E+00 -0.00000000000E+00 -0.45593999997E+02  0.45594000000E+02  0.51100000000E-03 0. -1.
    9900012    2    1    2    0    0 -0.76247992785E+01  0.54625944861E+01 -0.16208105868E+02  0.72461542824E+02  0.69999964215E+02 0.  0.
        -12    1    1    2    0    0  0.76247992785E+01 -0.54625944861E+01  0.16208105868E+02  0.18726457176E+02  0.00000000000E+00 0.  1.
         11    1    3    3    0    0 -0.13638458625E+02 -0.10671008412E+01 -0.39700311437E+02  0.41991201297E+02  0.51100000000E-03 0. -1.
        -11    1    3    3    0    0 -0.13176493654E+01 -0.50406814196E+01  0.36577421128E+01  0.63658264702E+01  0.51100000000E-03 0.  1.
        -12    1    3    3    0    0  0.73313087115E+01  0.11570376747E+02  0.19834463457E+02  0.24104515057E+02  0.00000000000E+00 0.  1.
</event>
<event>
 7    1  0.1891413E-013  0.7246155E+02  0.7816164E-02  0.1226708E+00
        -11   -1    0    0    0    0  0.00000000000E+00  0.00000000000E+00  0.45593999997E+02  0.45594000000E+02  0.51100000000E-03 0. -1.
         11   -1    0    0    0    0 -0.00000000000E+00 -0.00000000000E+00 -0.45593999997E+02  0.45594000000E+02  0.51100000000E-03 0.  1.
    9900012    2    1    2    0    0 -0.10108058532E+01  0.18580852866E+02 -0.21000109765E+01  0.72461551650E+02  0.69999975712E+02 0.  0.
        -12    1    1    2    0    0  0.10108058532E+01 -0.18580852866E+02  0.21000109765E+01  0.18726448350E+02  0.00000000000E+00 0.  1.
         11    1    3    3    0    0  0.80432901590E+01 -0.81293064854E+01 -0.65613442305E+01  0.13184512842E+02  0.51100000000E-03 0. -1.
        -11    1    3    3    0    0  0.18391115531E+02 -0.15902963138E+01  0.70717036362E+01  0.19767932755E+02  0.51100000000E-03 0.  1.
         12    1    3    3    0    0 -0.27445211543E+02  0.28300455666E+02 -0.26103703822E+01  0.39509106052E+02  0.00000000000E+00 0. -1.
</event>
<event>
 7    1  0.1891413E-013  0.7246155E+02  0.7816164E-02  0.1226708E+00
        -11   -1    0    0    0    0  0.00000000000E+00  0.00000000000E+00  0.45593999997E+02  0.45594000000E+02  0.51100000000E-03 0. -1.
         11   -1    0    0    0    0 -0.00000000000E+00 -0.00000000000E+00 -0.45593999997E+02  0.45594000000E+02  0.51100000000E-03 0.  1.
    9900012    2    1    2    0    0  0.11647793375E+02 -0.12302434138E+02  0.79786607677E+01  0.72461548017E+02  0.69999970979E+02 0.  0.
        -12    1    1    2    0    0 -0.11647793375E+02  0.12302434138E+02 -0.79786607677E+01  0.18726451983E+02  0.00000000000E+00 0.  1.
         11    1    3    3    0    0  0.28837084625E+02  0.11061536192E+02 -0.34998309230E+01  0.31083498023E+02  0.51100000000E-03 0. -1.
        -11    1    3    3    0    0 -0.16455350448E+01 -0.14240301809E+01 -0.79259818949E+01  0.82192966122E+01  0.51100000000E-03 0.  1.
         12    1    3    3    0    0 -0.15543756205E+02 -0.21939940149E+02  0.19404473586E+02  0.33158753382E+02  0.00000000000E+00 0. -1.
</event>
<event>
 7    1  0.1891413E-013  0.7246160E+02  0.7816164E-02  0.1226708E+00
        -11   -1    0    0    0    0  0.00000000000E+00  0.00000000000E+00  0.45593999997E+02  0.45594000000E+02  0.51100000000E-03 0.  1.
         11   -1    0    0    0    0 -0.00000000000E+00 -0.00000000000E+00 -0.45593999997E+02  0.45594000000E+02  0.51100000000E-03 0. -1.
    9900012    2    1    2    0    0 -0.68864824964E+01  0.70660955015E+01 -0.15916176683E+02  0.72461600800E+02  0.70000039739E+02 0.  0.
        -12    1    1    2    0    0  0.68864824964E+01 -0.70660955015E+01  0.15916176683E+02  0.18726399200E+02  0.00000000000E+00 0.  1.
         11    1    3    3    0    0 -0.25970567836E+02  0.18183158257E+02 -0.16795532782E+02  0.35877396221E+02  0.51100000000E-03 0. -1.
        -11    1    3    3    0    0 -0.22564444714E+01 -0.82301670527E+01 -0.94219990074E+01  0.12712248303E+02  0.51100000000E-03 0.  1.
        -12    1    3    3    0    0  0.21340529811E+02 -0.28868957030E+01  0.10301355106E+02  0.23871956275E+02  0.00000000000E+00 0.  1.
</event>
<event>
 7    1  0.1891413E-013  0.7246163E+02  0.7816164E-02  0.1226708E+00
        -11   -1    0    0    0    0  0.00000000000E+00  0.00000000000E+00  0.45593999997E+02  0.45594000000E+02  0.51100000000E-03 0.  1.
         11   -1    0    0    0    0 -0.00000000000E+00 -0.00000000000E+00 -0.45593999997E+02  0.45594000000E+02  0.51100000000E-03 0. -1.
    9900012    2    1    2    0    0  0.57200803159E+01  0.14070153951E+02 -0.10953925798E+02  0.72461627115E+02  0.70000074020E+02 0.  0.
        -12    1    1    2    0    0 -0.57200803159E+01 -0.14070153951E+02  0.10953925798E+02  0.18726372885E+02  0.00000000000E+00 0.  1.
         11    1    3    3    0    0 -0.55085747201E+00  0.13153893448E+02 -0.21347592886E+02  0.25080830909E+02  0.51100000000E-03 0. -1.
        -11    1    3    3    0    0  0.11126875270E+02  0.80046838882E+01  0.26098580650E+02  0.29479115143E+02  0.51100000000E-03 0.  1.
         12    1    3    3    0    0 -0.48559374822E+01 -0.70884233848E+01 -0.15704913562E+02  0.17901681063E+02  0.00000000000E+00 0. -1.
</event>
<event>
 7    1  0.1891413E-013  0.7246160E+02  0.7816164E-02  0.1226708E+00
        -11   -1    0    0    0    0  0.00000000000E+00  0.00000000000E+00  0.45593999997E+02  0.45594000000E+02  0.51100000000E-03 0.  1.
         11   -1    0    0    0    0 -0.00000000000E+00 -0.00000000000E+00 -0.45593999997E+02  0.45594000000E+02  0.51100000000E-03 0. -1.
    9900012    2    1    2    0    0  0.89625402830E+00 -0.15875923992E+02 -0.98909036726E+01  0.72461595932E+02  0.70000033397E+02 0.  0.
        -12    1    1    2    0    0 -0.89625402830E+00  0.15875923992E+02  0.98909036726E+01  0.18726404068E+02  0.00000000000E+00 0.  1.
         11    1    3    3    0    0 -0.14317917866E+02  0.13152280596E+02 -0.20557192415E+02  0.28294582823E+02  0.51100000000E-03 0. -1.
        -11    1    3    3    0    0  0.21700470637E+01  0.47472057451E+01  0.55188083904E+01  0.75962038517E+01  0.51100000000E-03 0.  1.
        -12    1    3    3    0    0  0.13044124830E+02 -0.33775410333E+02  0.51474803522E+01  0.36570809257E+02  0.00000000000E+00 0.  1.
</event>
<event>
 7    1  0.1891413E-013  0.7246156E+02  0.7816164E-02  0.1226708E+00
        -11   -1    0    0    0    0  0.00000000000E+00  0.00000000000E+00  0.45593999997E+02  0.45594000000E+02  0.51100000000E-03 0.  1.
         11   -1    0    0    0    0 -0.00000000000E+00 -0.00000000000E+00 -0.45593999997E+02  0.45594000000E+02  0.51100000000E-03 0. -1.
    9900012    2    1    2    0    0  0.17884483985E+02 -0.42811064497E+01  0.35350836257E+01  0.72461562643E+02  0.69999990033E+02 0.  0.
        -12    1    1    2    0    0 -0.17884483985E+02  0.42811064497E+01 -0.35350836257E+01  0.18726437357E+02  0.00000000000E+00 0.  1.
         11    1    3    3    0    0 -0.10733055630E+02  0.45777017792E+01 -0.15787031817E+02  0.19631205021E+02  0.51100000000E-03 0. -1.
        -11    1    3    3    0    0  0.46709798276E+01  0.88805421884E+01  0.20693022337E+02  0.22997461943E+02  0.51100000000E-03 0.  1.
        -12    1    3    3    0    0  0.23946559788E+02 -0.17739350417E+02 -0.13709068947E+01  0.29832895679E+02  0.00000000000E+00 0.  1.
</event>
<event>
 7    1  0.1891413E-013  0.7246161E+02  0.7816164E-02  0.1226708E+00
        -11   -1    0    0    0    0  0.00000000000E+00  0.00000000000E+00  0.45593999997E+02  0.45594000000E+02  0.51100000000E-03 0. -1.
         11   -1    0    0    0    0 -0.00000000000E+00 -0.00000000000E+00 -0.45593999997E+02  0.45594000000E+02  0.51100000000E-03 0.  1.
    9900012    2    1    2    0    0  0.15194646224E+02 -0.19880914229E+01  0.10763272602E+02  0.72461606368E+02  0.70000046992E+02 0.  0.
        -12    1    1    2    0    0 -0.15194646224E+02  0.19880914229E+01 -0.10763272602E+02  0.18726393632E+02  0.00000000000E+00 0.  1.
         11    1    3    3    0    0 -0.71742889398E+01  0.20071355009E+01  0.20213999723E+02  0.21543091694E+02  0.51100000000E-03 0. -1.
        -11    1    3    3    0    0  0.26368390212E+02  0.85827462372E+01  0.81647002040E+01  0.28907055627E+02  0.51100000000E-03 0.  1.
        -12    1    3    3    0    0 -0.39994550482E+01 -0.12577973161E+02 -0.17615427325E+02  0.22011459047E+02  0.00000000000E+00 0.  1.
</event>
<event>
 7    1  0.1891413E-013  0.7246160E+02  0.7816164E-02  0.1226708E+00
        -11   -1    0    0    0    0  0.00000000000E+00  0.00000000000E+00  0.45593999997E+02  0.45594000000E+02  0.51100000000E-03 0.  1.
         11   -1    0    0    0    0 -0.00000000000E+00 -0.00000000000E+00 -0.45593999997E+02  0.45594000000E+02  0.51100000000E-03 0. -1.
    9900012    2    1    2    0    0  0.85782106429E+01 -0.15050207525E+01 -0.16577916569E+02  0.72461598769E+02  0.70000037094E+02 0.  0.
        -12    1    1    2    0    0 -0.85782106429E+01  0.15050207525E+01  0.16577916569E+02  0.18726401231E+02  0.00000000000E+00 0.  1.
         11    1    3    3    0    0  0.52987058690E+00  0.22523509063E+01 -0.12576584543E+01  0.26335437138E+01  0.51100000000E-03 0. -1.
        -11    1    3    3    0    0 -0.20732312673E+01  0.17519579684E+02  0.20441816139E+02  0.27001885259E+02  0.51100000000E-03 0.  1.
         12    1    3    3    0    0  0.10121571323E+02 -0.21276951343E+02 -0.35762074254E+02  0.42826169796E+02  0.00000000000E+00 0. -1.
</event>
<event>
 7    1  0.1891413E-013  0.7246156E+02  0.7816164E-02  0.1226708E+00
        -11   -1    0    0    0    0  0.00000000000E+00  0.00000000000E+00  0.45593999997E+02  0.45594000000E+02  0.51100000000E-03 0. -1.
         11   -1    0    0    0    0 -0.00000000000E+00 -0.00000000000E+00 -0.45593999997E+02  0.45594000000E+02  0.51100000000E-03 0.  1.
    9900012    2    1    2    0    0 -0.13833778627E+02 -0.41917577332E+00  0.12614688448E+02  0.72461561362E+02  0.69999988364E+02 0.  0.
        -12    1    1    2    0    0  0.13833778627E+02  0.41917577332E+00 -0.12614688448E+02  0.18726438638E+02  0.00000000000E+00 0.  1.
         11    1    3    3    0    0  0.55969654474E+01 -0.26480081420E+02 -0.27233291551E+01  0.27201787739E+02  0.51100000000E-03 0. -1.
        -11    1    3    3    0    0 -0.21788082427E+01 -0.29199994994E+01 -0.47631956994E+01  0.59968021450E+01  0.51100000000E-03 0.  1.
        -12    1    3    3    0    0 -0.17251935832E+02  0.28980905146E+02  0.20101213302E+02  0.39262971478E+02  0.00000000000E+00 0.  1.
</event>
<event>
 7    1  0.1891413E-013  0.7246156E+02  0.7816164E-02  0.1226708E+00
        -11   -1    0    0    0    0  0.00000000000E+00  0.00000000000E+00  0.45593999997E+02  0.45594000000E+02  0.51100000000E-03 0.  1.
         11   -1    0    0    0    0 -0.00000000000E+00 -0.00000000000E+00 -0.45593999997E+02  0.45594000000E+02  0.51100000000E-03 0. -1.
    9900012    2    1    2    0    0  0.23466801634E+01  0.18374963574E+02  0.27446994088E+01  0.72461559628E+02  0.69999986106E+02 0.  0.
        -12    1    1    2    0    0 -0.23466801634E+01 -0.18374963574E+02 -0.27446994088E+01  0.18726440372E+02  0.00000000000E+00 0.  1.
         11    1    3    3    0    0 -0.20808382259E+02 -0.67976565860E+01  0.19349590024E+02  0.29216494342E+02  0.51100000000E-03 0. -1.
        -11    1    3    3    0    0  0.10393087557E+02  0.14367166662E+01  0.17527716708E+01  0.10637322621E+02  0.51100000000E-03 0.  1.
        -12    1    3    3    0    0  0.12761974865E+02  0.23735903494E+02 -0.18357662286E+02  0.32607742666E+02  0.00000000000E+00 0.  1.
</event>
<event>
 7    1  0.1891413E-013  0.7246195E+02  0.7816164E-02  0.1226707E+00
        -11   -1    0    0    0    0  0.00000000000E+00  0.00000000000E+00  0.45593999997E+02  0.45594000000E+02  0.51100000000E-03 0.  1.
         11   -1    0    0    0    0 -0.00000000000E+00 -0.00000000000E+00 -0.45593999997E+02  0.45594000000E+02  0.51100000000E-03 0. -1.
    9900012    2    1    2    0    0 -0.19216311206E+01 -0.75216405815E+01 -0.17041046799E+02  0.72461948115E+02  0.70000492179E+02 0.  0.
        -12    1    1    2    0    0  0.19216311206E+01  0.75216405815E+01  0.17041046799E+02  0.18726051885E+02  0.00000000000E+00 0.  1.
         11    1    3    3    0    0 -0.19647099107E+02  0.16748042436E+02 -0.13292955546E+02  0.29038045667E+02  0.51100000000E-03 0. -1.
        -11    1    3    3    0    0 -0.46416507852E+01 -0.79858924377E+01 -0.11444095308E+02  0.14706689557E+02  0.51100000000E-03 0.  1.
        -12    1    3    3    0    0  0.22367118771E+02 -0.16283790580E+02  0.76960040546E+01  0.28717212891E+02  0.00000000000E+00 0.  1.
</event>
<event>
 7    1  0.1891413E-013  0.7246157E+02  0.7816164E-02  0.1226708E+00
        -11   -1    0    0    0    0  0.00000000000E+00  0.00000000000E+00  0.45593999997E+02  0.45594000000E+02  0.51100000000E-03 0.  1.
         11   -1    0    0    0    0 -0.00000000000E+00 -0.00000000000E+00 -0.45593999997E+02  0.45594000000E+02  0.51100000000E-03 0. -1.
    9900012    2    1    2    0    0  0.82617935232E+01  0.13054048569E+02 -0.10583662048E+02  0.72461566314E+02  0.69999994815E+02 0.  0.
        -12    1    1    2    0    0 -0.82617935232E+01 -0.13054048569E+02  0.10583662048E+02  0.18726433686E+02  0.00000000000E+00 0.  1.
         11    1    3    3    0    0  0.11700615535E+02  0.82377459149E+01 -0.35282238400E+00  0.14313956321E+02  0.51100000000E-03 0. -1.
        -11    1    3    3    0    0  0.15721902562E+02  0.13337983506E+02  0.14884297209E+02  0.25428769688E+02  0.51100000000E-03 0.  1.
         12    1    3    3    0    0 -0.19160724574E+02 -0.85216808518E+01 -0.25115136873E+02  0.32718840305E+02  0.00000000000E+00 0. -1.
</event>
<event>
 7    1  0.1891413E-013  0.7246156E+02  0.7816164E-02  0.1226708E+00
        -11   -1    0    0    0    0  0.00000000000E+00  0.00000000000E+00  0.45593999997E+02  0.45594000000E+02  0.51100000000E-03 0.  1.
         11   -1    0    0    0    0 -0.00000000000E+00 -0.00000000000E+00 -0.45593999997E+02  0.45594000000E+02  0.51100000000E-03 0. -1.
    9900012    2    1    2    0    0  0.17155718324E+02 -0.51989096729E+01  0.54159304788E+01  0.72461557841E+02  0.69999983777E+02 0.  0.
        -12    1    1    2    0    0 -0.17155718324E+02  0.51989096729E+01 -0.54159304788E+01  0.18726442159E+02  0.00000000000E+00 0.  1.
         11    1    3    3    0    0 -0.32484323784E+01  0.64773649309E+01 -0.10888971891E+02  0.13079689540E+02  0.51100000000E-03 0. -1.
        -11    1    3    3    0    0  0.20495027503E+02  0.14104425290E+02 -0.56575115657E+01  0.25514474372E+02  0.51100000000E-03 0.  1.
         12    1    3    3    0    0 -0.90876800310E-01 -0.25780699894E+02  0.21962413935E+02  0.33867393928E+02  0.00000000000E+00 0. -1.
</event>
<event>
 7    1  0.1891413E-013  0.7246125E+02  0.7816164E-02  0.1226709E+00
        -11   -1    0    0    0    0  0.00000000000E+00  0.00000000000E+00  0.45593999997E+02  0.45594000000E+02  0.51100000000E-03 0.  1.
         11   -1    0    0    0    0 -0.00000000000E+00 -0.00000000000E+00 -0.45593999997E+02  0.45594000000E+02  0.51100000000E-03 0. -1.
    9900012    2    1    2    0    0 -0.33080459211E+01  0.16383872118E+02 -0.84449209610E+01  0.72461251125E+02  0.69999584221E+02 0.  0.
        -12    1    1    2    0    0  0.33080459211E+01 -0.16383872118E+02  0.84449209610E+01  0.18726748875E+02  0.00000000000E+00 0.  1.
         11    1    3    3    0    0  0.48909973893E+01  0.32649391951E+02  0.15009465273E+02  0.36265530442E+02  0.51100000000E-03 0. -1.
        -11    1    3    3    0    0 -0.58254850774E+01 -0.13820377597E+02 -0.27937674670E+01  0.15255957860E+02  0.51100000000E-03 0.  1.
        -12    1    3    3    0    0 -0.23735582329E+01 -0.24451422354E+01 -0.20660618767E+02  0.20939762823E+02  0.00000000000E+00 0.  1.
</event>
<event>
 7    1  0.1891413E-013  0.7246160E+02  0.7816164E-02  0.1226708E+00
        -11   -1    0    0    0    0  0.00000000000E+00  0.00000000000E+00  0.45593999997E+02  0.45594000000E+02  0.51100000000E-03 0.  1.
         11   -1    0    0    0    0 -0.00000000000E+00 -0.00000000000E+00 -0.45593999997E+02  0.45594000000E+02  0.51100000000E-03 0. -1.
    9900012    2    1    2    0    0  0.87729225269E+01 -0.10855050575E+02 -0.12485268896E+02  0.72461595325E+02  0.70000032607E+02 0.  0.
        -12    1    1    2    0    0 -0.87729225269E+01  0.10855050575E+02  0.12485268896E+02  0.18726404675E+02  0.00000000000E+00 0.  1.
         11    1    3    3    0    0 -0.22874408547E+01 -0.46739117560E+00 -0.61703034693E+01  0.65972331579E+01  0.51100000000E-03 0. -1.
        -11    1    3    3    0    0 -0.20405456963E+02 -0.19523005276E+02 -0.14987161649E+02  0.31971009109E+02  0.51100000000E-03 0.  1.
         12    1    3    3    0    0  0.31465820344E+02  0.91353458762E+01  0.86721962230E+01  0.33893353058E+02  0.00000000000E+00 0. -1.
</event>
<event>
 7    1  0.1891413E-013  0.7246158E+02  0.7816164E-02  0.1226708E+00
        -11   -1    0    0    0    0  0.00000000000E+00  0.00000000000E+00  0.45593999997E+02  0.45594000000E+02  0.51100000000E-03 0. -1.
         11   -1    0    0    0    0 -0.00000000000E+00 -0.00000000000E+00 -0.45593999997E+02  0.45594000000E+02  0.51100000000E-03 0.  1.
    9900012    2    1    2    0    0 -0.13713952638E+01 -0.16893904634E+02  0.79620425312E+01  0.72461578558E+02  0.70000010765E+02 0.  0.
        -12    1    1    2    0    0  0.13713952638E+01  0.16893904634E+02 -0.79620425312E+01  0.18726421442E+02  0.00000000000E+00 0.  1.
         11    1    3    3    0    0 -0.22586766974E+02  0.14697990082E+02  0.14880893943E+01  0.26989023049E+02  0.51100000000E-03 0.  1.
        -11    1    3    3    0    0  0.96206410347E+01 -0.13076006953E+02  0.14921347984E+02  0.22049610375E+02  0.51100000000E-03 0. -1.
        -12    1    3    3    0    0  0.11594730676E+02 -0.18515887763E+02 -0.84473948469E+01  0.23422945135E+02  0.00000000000E+00 0.  1.
</event>
<event>
 7    1  0.1891413E-013  0.7246155E+02  0.7816164E-02  0.1226708E+00
        -11   -1    0    0    0    0  0.00000000000E+00  0.00000000000E+00  0.45593999997E+02  0.45594000000E+02  0.51100000000E-03 0. -1.
         11   -1    0    0    0    0 -0.00000000000E+00 -0.00000000000E+00 -0.45593999997E+02  0.45594000000E+02  0.51100000000E-03 0.  1.
    9900012    2    1    2    0    0 -0.38488997062E+01  0.65160293168E+01  0.17129139584E+02  0.72461545720E+02  0.69999967988E+02 0.  0.
        -12    1    1    2    0    0  0.38488997062E+01 -0.65160293168E+01 -0.17129139584E+02  0.18726454280E+02  0.00000000000E+00 0.  1.
         11    1    3    3    0    0  0.99293990656E+01 -0.24687577844E+02  0.19853434825E+02  0.33199824401E+02  0.51100000000E-03 0. -1.
        -11    1    3    3    0    0 -0.51766345409E+01  0.10065718277E+01 -0.56484671488E+01  0.77276072239E+01  0.51100000000E-03 0.  1.
        -12    1    3    3    0    0 -0.86016642309E+01  0.30197035333E+02  0.29241719075E+01  0.31534114096E+02  0.00000000000E+00 0.  1.
</event>
<event>
 7    1  0.1891413E-013  0.7246158E+02  0.7816164E-02  0.1226708E+00
        -11   -1    0    0    0    0  0.00000000000E+00  0.00000000000E+00  0.45593999997E+02  0.45594000000E+02  0.51100000000E-03 0.  1.
         11   -1    0    0    0    0 -0.00000000000E+00 -0.00000000000E+00 -0.45593999997E+02  0.45594000000E+02  0.51100000000E-03 0. -1.
    9900012    2    1    2    0    0 -0.69479206317E+00  0.87843980134E+01 -0.16523632239E+02  0.72461579978E+02  0.70000012615E+02 0.  0.
        -12    1    1    2    0    0  0.69479206317E+00 -0.87843980134E+01  0.16523632239E+02  0.18726420022E+02  0.00000000000E+00 0.  1.
         11    1    3    3    0    0  0.61040174121E+01 -0.10220405369E+02  0.10672550428E+02  0.15988090798E+02  0.51100000000E-03 0. -1.
        -11    1    3    3    0    0 -0.93817733620E+01 -0.12807530816E+02 -0.24003271531E+01  0.16056527885E+02  0.51100000000E-03 0.  1.
        -12    1    3    3    0    0  0.25829638867E+01  0.31812334198E+02 -0.24795855514E+02  0.40416961294E+02  0.00000000000E+00 0.  1.
</event>
<event>
 7    1  0.1891413E-013  0.7246163E+02  0.7816164E-02  0.1226708E+00
        -11   -1    0    0    0    0  0.00000000000E+00  0.00000000000E+00  0.45593999997E+02  0.45594000000E+02  0.51100000000E-03 0.  1.
         11   -1    0    0    0    0 -0.00000000000E+00 -0.00000000000E+00 -0.45593999997E+02  0.45594000000E+02  0.51100000000E-03 0. -1.
    9900012    2    1    2    0    0  0.71134510047E+01 -0.17227835294E+02 -0.18104042864E+01  0.72461626678E+02  0.70000073450E+02 0.  0.
        -12    1    1    2    0    0 -0.71134510047E+01  0.17227835294E+02  0.18104042864E+01  0.18726373322E+02  0.00000000000E+00 0.  1.
         11    1    3    3    0    0 -0.90075215299E+01 -0.19742881180E+02 -0.18561717513E+02  0.28556157982E+02  0.51100000000E-03 0. -1.
        -11    1    3    3    0    0 -0.76368367281E+01 -0.19468598493E+01 -0.66118857079E+01  0.10287301462E+02  0.51100000000E-03 0.  1.
        -12    1    3    3    0    0  0.23757809263E+02  0.44619057353E+01  0.23363198934E+02  0.33618167234E+02  0.00000000000E+00 0.  1.
</event>
<event>
 7    1  0.1891413E-013  0.7246156E+02  0.7816164E-02  0.1226708E+00
        -11   -1    0    0    0    0  0.00000000000E+00  0.00000000000E+00  0.45593999997E+02  0.45594000000E+02  0.51100000000E-03 0.  1.
         11   -1    0    0    0    0 -0.00000000000E+00 -0.00000000000E+00 -0.45593999997E+02  0.45594000000E+02  0.51100000000E-03 0. -1.
    9900012    2    1    2    0    0 -0.98017609218E+01  0.15866098748E+02  0.16946955212E+01  0.72461558812E+02  0.69999985043E+02 0.  0.
        -12    1    1    2    0    0  0.98017609218E+01 -0.15866098748E+02 -0.16946955212E+01  0.18726441188E+02  0.00000000000E+00 0.  1.
         11    1    3    3    0    0 -0.24918872654E+02  0.33733441564E+01  0.88893508326E+01  0.26671149650E+02  0.51100000000E-03 0. -1.
        -11    1    3    3    0    0  0.19114641702E+01  0.30084104342E+01 -0.22905573776E+02  0.23181232472E+02  0.51100000000E-03 0.  1.
        -12    1    3    3    0    0  0.13205647562E+02  0.94843441571E+01  0.15710918465E+02  0.22609176691E+02  0.00000000000E+00 0.  1.
</event>
<event>
 7    1  0.1891413E-013  0.7246153E+02  0.7816164E-02  0.1226708E+00
        -11   -1    0    0    0    0  0.00000000000E+00  0.00000000000E+00  0.45593999997E+02  0.45594000000E+02  0.51100000000E-03 0.  1.
         11   -1    0    0    0    0 -0.00000000000E+00 -0.00000000000E+00 -0.45593999997E+02  0.45594000000E+02  0.51100000000E-03 0. -1.
    9900012    2    1    2    0    0 -0.11331731534E+02 -0.13859768538E+02 -0.54935625924E+01  0.72461533343E+02  0.69999951865E+02 0.  0.
        -12    1    1    2    0    0  0.11331731534E+02  0.13859768538E+02  0.54935625924E+01  0.18726466657E+02  0.00000000000E+00 0.  1.
         11    1    3    3    0    0 -0.10256772377E+01  0.80139786765E+01 -0.42649911862E+01  0.91359738453E+01  0.51100000000E-03 0. -1.
        -11    1    3    3    0    0  0.20553973612E+02 -0.50776098459E+01  0.13628119228E+02  0.25178832120E+02  0.51100000000E-03 0.  1.
         12    1    3    3    0    0 -0.30860027909E+02 -0.16796137368E+02 -0.14856690634E+02  0.38146727378E+02  0.00000000000E+00 0. -1.
</event>
<event>
 7    1  0.1891413E-013  0.7246158E+02  0.7816164E-02  0.1226708E+00
        -11   -1    0    0    0    0  0.00000000000E+00  0.00000000000E+00  0.45593999997E+02  0.45594000000E+02  0.51100000000E-03 0.  1.
         11   -1    0    0    0    0 -0.00000000000E+00 -0.00000000000E+00 -0.45593999997E+02  0.45594000000E+02  0.51100000000E-03 0. -1.
    9900012    2    1    2    0    0  0.13264345564E+02 -0.79626663848E+01 -0.10551391566E+02  0.72461580610E+02  0.70000013438E+02 0.  0.
        -12    1    1    2    0    0 -0.13264345564E+02  0.79626663848E+01  0.10551391566E+02  0.18726419390E+02  0.00000000000E+00 0.  1.
         11    1    3    3    0    0  0.88900170377E+01 -0.23195129285E+01 -0.32313413565E+02  0.33594184610E+02  0.51100000000E-03 0. -1.
        -11    1    3    3    0    0  0.87411940338E+00 -0.65895636121E+01 -0.71304347482E+01  0.97483092528E+01  0.51100000000E-03 0.  1.
        -12    1    3    3    0    0  0.35002091231E+01  0.94641015580E+00  0.28892456747E+02  0.29119086747E+02  0.00000000000E+00 0.  1.
</event>
<event>
 7    1  0.1891413E-013  0.7246153E+02  0.7816164E-02  0.1226708E+00
        -11   -1    0    0    0    0  0.00000000000E+00  0.00000000000E+00  0.45593999997E+02  0.45594000000E+02  0.51100000000E-03 0. -1.
         11   -1    0    0    0    0 -0.00000000000E+00 -0.00000000000E+00 -0.45593999997E+02  0.45594000000E+02  0.51100000000E-03 0.  1.
    9900012    2    1    2    0    0 -0.10181406809E+02  0.13261690630E+02 -0.84348697186E+01  0.72461534499E+02  0.69999953371E+02 0.  0.
        -12    1    1    2    0    0  0.10181406809E+02 -0.13261690630E+02  0.84348697186E+01  0.18726465501E+02  0.00000000000E+00 0.  1.
         11    1    3    3    0    0  0.17316780200E+02  0.49853702835E+01  0.10240587384E+02  0.20726659730E+02  0.51100000000E-03 0. -1.
        -11    1    3    3    0    0 -0.30894744555E+01 -0.13509409372E+02 -0.12026661681E+02  0.18349103123E+02  0.51100000000E-03 0.  1.
        -12    1    3    3    0    0 -0.24408712553E+02  0.21785729718E+02 -0.66487954220E+01  0.33385771646E+02  0.00000000000E+00 0.  1.
</event>
<event>
 7    1  0.1891413E-013  0.7246152E+02  0.7816164E-02  0.1226708E+00
        -11   -1    0    0    0    0  0.00000000000E+00  0.00000000000E+00  0.45593999997E+02  0.45594000000E+02  0.51100000000E-03 0.  1.
         11   -1    0    0    0    0 -0.00000000000E+00 -0.00000000000E+00 -0.45593999997E+02  0.45594000000E+02  0.51100000000E-03 0. -1.
    9900012    2    1    2    0    0 -0.36047463583E+01 -0.11986175595E+02 -0.13929054709E+02  0.72461516967E+02  0.69999930532E+02 0.  0.
        -12    1    1    2    0    0  0.36047463583E+01  0.11986175595E+02  0.13929054709E+02  0.18726483033E+02  0.00000000000E+00 0.  1.
         11    1    3    3    0    0 -0.12300143124E+02 -0.19851396865E+02 -0.11269716876E+02  0.25930252546E+02  0.51100000000E-03 0. -1.
        -11    1    3    3    0    0  0.46422591732E+01 -0.81941653550E+01  0.17842163870E+02  0.20175176032E+02  0.51100000000E-03 0.  1.
        -12    1    3    3    0    0  0.40531375922E+01  0.16059386625E+02 -0.20501501703E+02  0.26356088390E+02  0.00000000000E+00 0.  1.
</event>
<event>
 7    1  0.1891413E-013  0.7246157E+02  0.7816164E-02  0.1226708E+00
        -11   -1    0    0    0    0  0.00000000000E+00  0.00000000000E+00  0.45593999997E+02  0.45594000000E+02  0.51100000000E-03 0. -1.
         11   -1    0    0    0    0 -0.00000000000E+00 -0.00000000000E+00 -0.45593999997E+02  0.45594000000E+02  0.51100000000E-03 0.  1.
    9900012    2    1    2    0    0 -0.11115196843E+01  0.70244945368E+01  0.17323399777E+02  0.72461570033E+02  0.69999999659E+02 0.  0.
        -12    1    1    2    0    0  0.11115196843E+01 -0.70244945368E+01 -0.17323399777E+02  0.18726429967E+02  0.00000000000E+00 0.  1.
         11    1    3    3    0    0 -0.29109194334E+01  0.88507811328E+00 -0.10980194914E+02  0.11393923636E+02  0.51100000000E-03 0.  1.
        -11    1    3    3    0    0 -0.23546239860E+02 -0.20295355746E+01  0.24717112200E+02  0.34197661645E+02  0.51100000000E-03 0. -1.
         12    1    3    3    0    0  0.25345639609E+02  0.81689519981E+01  0.35864824900E+01  0.26869984752E+02  0.00000000000E+00 0. -1.
</event>
<event>
 7    1  0.1891413E-013  0.7246156E+02  0.7816164E-02  0.1226708E+00
        -11   -1    0    0    0    0  0.00000000000E+00  0.00000000000E+00  0.45593999997E+02  0.45594000000E+02  0.51100000000E-03 0. -1.
         11   -1    0    0    0    0 -0.00000000000E+00 -0.00000000000E+00 -0.45593999997E+02  0.45594000000E+02  0.51100000000E-03 0.  1.
    9900012    2    1    2    0    0  0.37400823782E+01 -0.26561988392E+01  0.18155876228E+02  0.72461562803E+02  0.69999990241E+02 0.  0.
        -12    1    1    2    0    0 -0.37400823782E+01  0.26561988392E+01 -0.18155876228E+02  0.18726437197E+02  0.00000000000E+00 0.  1.
         11    1    3    3    0    0 -0.61157857846E+01  0.21815745611E+01  0.78474639328E+00  0.65404839646E+01  0.51100000000E-03 0. -1.
        -11    1    3    3    0    0 -0.17347303267E+02 -0.30275829687E+01 -0.15328841271E+02  0.23346703498E+02  0.51100000000E-03 0.  1.
        -12    1    3    3    0    0  0.27203171430E+02 -0.18101904317E+01  0.32699971106E+02  0.42574375340E+02  0.00000000000E+00 0.  1.
</event>
<event>
 7    1  0.1891413E-013  0.7246158E+02  0.7816164E-02  0.1226708E+00
        -11   -1    0    0    0    0  0.00000000000E+00  0.00000000000E+00  0.45593999997E+02  0.45594000000E+02  0.51100000000E-03 0.  1.
         11   -1    0    0    0    0 -0.00000000000E+00 -0.00000000000E+00 -0.45593999997E+02  0.45594000000E+02  0.51100000000E-03 0. -1.
    9900012    2    1    2    0    0  0.90588874616E+01  0.13941978293E+02 -0.86160635687E+01  0.72461581438E+02  0.70000014516E+02 0.  0.
        -12    1    1    2    0    0 -0.90588874616E+01 -0.13941978293E+02  0.86160635687E+01  0.18726418562E+02  0.00000000000E+00 0.  1.
         11    1    3    3    0    0 -0.60919988579E+01  0.29077790028E+02 -0.20485341282E+02  0.36087110312E+02  0.51100000000E-03 0. -1.
        -11    1    3    3    0    0  0.10397911752E+02  0.35736376389E+01 -0.36722697755E+01  0.11591937730E+02  0.51100000000E-03 0.  1.
        -12    1    3    3    0    0  0.47529745673E+01 -0.18709449374E+02  0.15541547489E+02  0.24782533395E+02  0.00000000000E+00 0.  1.
</event>
<event>
 7    1  0.1891413E-013  0.7246159E+02  0.7816164E-02  0.1226708E+00
        -11   -1    0    0    0    0  0.00000000000E+00  0.00000000000E+00  0.45593999997E+02  0.45594000000E+02  0.51100000000E-03 0.  1.
         11   -1    0    0    0    0 -0.00000000000E+00 -0.00000000000E+00 -0.45593999997E+02  0.45594000000E+02  0.51100000000E-03 0. -1.
    9900012    2    1    2    0    0  0.28596619185E+01  0.16286010706E+02  0.87901537245E+01  0.72461585140E+02  0.70000019340E+02 0.  0.
        -12    1    1    2    0    0 -0.28596619185E+01 -0.16286010706E+02 -0.87901537245E+01  0.18726414860E+02  0.00000000000E+00 0.  1.
         11    1    3    3    0    0  0.31700949222E+01  0.35209754832E+02  0.10748654318E+02  0.36950100231E+02  0.51100000000E-03 0. -1.
        -11    1    3    3    0    0  0.14556492030E+02 -0.95832647615E+01  0.19116190850E+01  0.17532390353E+02  0.51100000000E-03 0.  1.
        -12    1    3    3    0    0 -0.14866925034E+02 -0.93404793652E+01 -0.38701196786E+01  0.17979094556E+02  0.00000000000E+00 0.  1.
</event>
<event>
 7    1  0.1891413E-013  0.7246161E+02  0.7816164E-02  0.1226708E+00
        -11   -1    0    0    0    0  0.00000000000E+00  0.00000000000E+00  0.45593999997E+02  0.45594000000E+02  0.51100000000E-03 0.  1.
         11   -1    0    0    0    0 -0.00000000000E+00 -0.00000000000E+00 -0.45593999997E+02  0.45594000000E+02  0.51100000000E-03 0. -1.
    9900012    2    1    2    0    0  0.17359894597E+02 -0.53524118162E+01 -0.45456902944E+01  0.72461613458E+02  0.70000056229E+02 0.  0.
        -12    1    1    2    0    0 -0.17359894597E+02  0.53524118162E+01  0.45456902944E+01  0.18726386542E+02  0.00000000000E+00 0.  1.
         11    1    3    3    0    0  0.25590050753E+02 -0.15476143316E+02 -0.22919451385E+02  0.37678415061E+02  0.51100000000E-03 0. -1.
        -11    1    3    3    0    0  0.90765778936E-01  0.11604539145E+02 -0.28404088940E+01  0.11947447013E+02  0.51100000000E-03 0.  1.
        -12    1    3    3    0    0 -0.83209219349E+01 -0.14808076455E+01  0.21214169984E+02  0.22835751384E+02  0.00000000000E+00 0.  1.
</event>
<event>
 7    1  0.1891413E-013  0.7246161E+02  0.7816164E-02  0.1226708E+00
        -11   -1    0    0    0    0  0.00000000000E+00  0.00000000000E+00  0.45593999997E+02  0.45594000000E+02  0.51100000000E-03 0.  1.
         11   -1    0    0    0    0 -0.00000000000E+00 -0.00000000000E+00 -0.45593999997E+02  0.45594000000E+02  0.51100000000E-03 0. -1.
    9900012    2    1    2    0    0 -0.30166701850E+01 -0.13567477757E+02 -0.12549933243E+02  0.72461612839E+02  0.70000055422E+02 0.  0.
        -12    1    1    2    0    0  0.30166701850E+01  0.13567477757E+02  0.12549933243E+02  0.18726387161E+02  0.00000000000E+00 0.  1.
         11    1    3    3    0    0  0.26693641978E+02 -0.34576460325E+00  0.11034840494E+02  0.28886636707E+02  0.51100000000E-03 0.  1.
        -11    1    3    3    0    0 -0.42501071745E+01 -0.79634574711E+01 -0.89928887458E+00  0.90713166977E+01  0.51100000000E-03 0. -1.
        -12    1    3    3    0    0 -0.25460204989E+02 -0.52582556828E+01 -0.22685484863E+02  0.34503659434E+02  0.00000000000E+00 0.  1.
</event>
<event>
 7    1  0.1891413E-013  0.7246139E+02  0.7816164E-02  0.1226709E+00
        -11   -1    0    0    0    0  0.00000000000E+00  0.00000000000E+00  0.45593999997E+02  0.45594000000E+02  0.51100000000E-03 0.  1.
         11   -1    0    0    0    0 -0.00000000000E+00 -0.00000000000E+00 -0.45593999997E+02  0.45594000000E+02  0.51100000000E-03 0. -1.
    9900012    2    1    2    0    0  0.59539657297E+01  0.10216105037E+02 -0.14521278560E+02  0.72461386823E+02  0.69999760995E+02 0.  0.
        -12    1    1    2    0    0 -0.59539657297E+01 -0.10216105037E+02  0.14521278560E+02  0.18726613177E+02  0.00000000000E+00 0.  1.
         11    1    3    3    0    0 -0.16259366034E+02 -0.73545275253E+00 -0.24905258365E+02  0.29751970843E+02  0.51100000000E-03 0. -1.
        -11    1    3    3    0    0 -0.83689176423E+01 -0.12958891818E+01  0.26001830817E+01  0.88588409848E+01  0.51100000000E-03 0.  1.
        -12    1    3    3    0    0  0.30582249406E+02  0.12247446972E+02  0.77837967231E+01  0.33850574995E+02  0.00000000000E+00 0.  1.
</event>
<event>
 7    1  0.1891413E-013  0.7246163E+02  0.7816164E-02  0.1226708E+00
        -11   -1    0    0    0    0  0.00000000000E+00  0.00000000000E+00  0.45593999997E+02  0.45594000000E+02  0.51100000000E-03 0.  1.
         11   -1    0    0    0    0 -0.00000000000E+00 -0.00000000000E+00 -0.45593999997E+02  0.45594000000E+02  0.51100000000E-03 0. -1.
    9900012    2    1    2    0    0  0.86642196000E+01 -0.23110499770E+01 -0.16439808128E+02  0.72461629701E+02  0.70000077389E+02 0.  0.
        -12    1    1    2    0    0 -0.86642196000E+01  0.23110499770E+01  0.16439808128E+02  0.18726370299E+02  0.00000000000E+00 0.  1.
         11    1    3    3    0    0  0.24608123804E+02  0.11312604689E+02 -0.10414591407E+02  0.29017210349E+02  0.51100000000E-03 0. -1.
        -11    1    3    3    0    0 -0.14354380581E+02 -0.97479655379E+01  0.14428205705E+02  0.22566439553E+02  0.51100000000E-03 0.  1.
        -12    1    3    3    0    0 -0.15895236227E+01 -0.38756891280E+01 -0.20453422426E+02  0.20877979800E+02  0.00000000000E+00 0.  1.
</event>
<event>
 7    1  0.1891413E-013  0.7246160E+02  0.7816164E-02  0.1226708E+00
        -11   -1    0    0    0    0  0.00000000000E+00  0.00000000000E+00  0.45593999997E+02  0.45594000000E+02  0.51100000000E-03 0. -1.
         11   -1    0    0    0    0 -0.00000000000E+00 -0.00000000000E+00 -0.45593999997E+02  0.45594000000E+02  0.51100000000E-03 0.  1.
    9900012    2    1    2    0    0  0.68359667446E+01  0.11080018930E+02  0.13460340916E+02  0.72461600496E+02  0.70000039343E+02 0.  0.
        -12    1    1    2    0    0 -0.68359667446E+01 -0.11080018930E+02 -0.13460340916E+02  0.18726399504E+02  0.00000000000E+00 0.  1.
         11    1    3    3    0    0  0.67994114136E+01  0.38212296229E+02  0.90221918085E+01  0.39847352785E+02  0.51100000000E-03 0. -1.
        -11    1    3    3    0    0  0.69328978539E+01 -0.37803618234E+01  0.19947640130E+00  0.78991138278E+01  0.51100000000E-03 0.  1.
        -12    1    3    3    0    0 -0.68963425229E+01 -0.23351915475E+02  0.42386727060E+01  0.24715133883E+02  0.00000000000E+00 0.  1.
</event>
<event>
 7    1  0.1891413E-013  0.7246179E+02  0.7816164E-02  0.1226707E+00
        -11   -1    0    0    0    0  0.00000000000E+00  0.00000000000E+00  0.45593999997E+02  0.45594000000E+02  0.51100000000E-03 0.  1.
         11   -1    0    0    0    0 -0.00000000000E+00 -0.00000000000E+00 -0.45593999997E+02  0.45594000000E+02  0.51100000000E-03 0. -1.
    9900012    2    1    2    0    0  0.95512459306E+01  0.15068043331E+02  0.56919880133E+01  0.72461789593E+02  0.70000285677E+02 0.  0.
        -12    1    1    2    0    0 -0.95512459306E+01 -0.15068043331E+02 -0.56919880133E+01  0.18726210407E+02  0.00000000000E+00 0.  1.
         11    1    3    3    0    0 -0.43736425183E+00 -0.16689020062E+02 -0.42400635061E+01  0.17224773349E+02  0.51100000000E-03 0. -1.
        -11    1    3    3    0    0  0.54946417062E+01 -0.36662127065E+01  0.17527544243E+02  0.18730910564E+02  0.51100000000E-03 0.  1.
         12    1    3    3    0    0  0.44939684763E+01  0.35423276099E+02 -0.75954927235E+01  0.36506105681E+02  0.00000000000E+00 0. -1.
</event>
<event>
 7    1  0.1891413E-013  0.7246153E+02  0.7816164E-02  0.1226708E+00
        -11   -1    0    0    0    0  0.00000000000E+00  0.00000000000E+00  0.45593999997E+02  0.45594000000E+02  0.51100000000E-03 0.  1.
         11   -1    0    0    0    0 -0.00000000000E+00 -0.00000000000E+00 -0.45593999997E+02  0.45594000000E+02  0.51100000000E-03 0. -1.
    9900012    2    1    2    0    0  0.25884407061E+00 -0.11700620843E+02 -0.14618792186E+02  0.72461531744E+02  0.69999949781E+02 0.  0.
        -12    1    1    2    0    0 -0.25884407061E+00  0.11700620843E+02  0.14618792186E+02  0.18726468256E+02  0.00000000000E+00 0.  1.
         11    1    3    3    0    0 -0.10474383956E+01 -0.16858392519E+02  0.57598721452E+01  0.17845970215E+02  0.51100000000E-03 0. -1.
        -11    1    3    3    0    0 -0.19853490769E+02  0.61862211019E+01  0.51683020947E+01  0.21427593753E+02  0.51100000000E-03 0.  1.
         12    1    3    3    0    0  0.21159773235E+02 -0.10284494262E+01 -0.25546966426E+02  0.33187967776E+02  0.00000000000E+00 0. -1.
</event>
<event>
 7    1  0.1891413E-013  0.7246166E+02  0.7816164E-02  0.1226708E+00
        -11   -1    0    0    0    0  0.00000000000E+00  0.00000000000E+00  0.45593999997E+02  0.45594000000E+02  0.51100000000E-03 0.  1.
         11   -1    0    0    0    0 -0.00000000000E+00 -0.00000000000E+00 -0.45593999997E+02  0.45594000000E+02  0.51100000000E-03 0. -1.
    9900012    2    1    2    0    0  0.22911971488E+01  0.30217747494E+01 -0.18338347634E+02  0.72461662906E+02  0.70000120644E+02 0.  0.
        -12    1    1    2    0    0 -0.22911971488E+01 -0.30217747494E+01  0.18338347634E+02  0.18726337094E+02  0.00000000000E+00 0.  1.
         11    1    3    3    0    0 -0.12225055758E+02  0.11899332027E+02  0.67084551483E+01  0.18331651909E+02  0.51100000000E-03 0. -1.
        -11    1    3    3    0    0  0.16796507476E+01  0.15043230295E+02  0.26278883936E+01  0.15363131257E+02  0.51100000000E-03 0.  1.
         12    1    3    3    0    0  0.12836602160E+02 -0.23920787572E+02 -0.27674691176E+02  0.38766879740E+02  0.00000000000E+00 0. -1.
</event>
<event>
 7    1  0.1891413E-013  0.7246159E+02  0.7816164E-02  0.1226708E+00
        -11   -1    0    0    0    0  0.00000000000E+00  0.00000000000E+00  0.45593999997E+02  0.45594000000E+02  0.51100000000E-03 0. -1.
         11   -1    0    0    0    0 -0.00000000000E+00 -0.00000000000E+00 -0.45593999997E+02  0.45594000000E+02  0.51100000000E-03 0.  1.
    9900012    2    1    2    0    0  0.13072300475E+02  0.15936145363E+01  0.13313671954E+02  0.72461587959E+02  0.70000023012E+02 0.  0.
        -12    1    1    2    0    0 -0.13072300475E+02 -0.15936145363E+01 -0.13313671954E+02  0.18726412041E+02  0.00000000000E+00 0.  1.
         11    1    3    3    0    0 -0.18748938349E+02 -0.11851508800E+02  0.40541580811E+01  0.22548107417E+02  0.51100000000E-03 0. -1.
        -11    1    3    3    0    0 -0.19848804698E+00  0.16669789576E+02  0.52774482429E+01  0.17486358747E+02  0.51100000000E-03 0.  1.
         12    1    3    3    0    0  0.32019726872E+02 -0.32246662395E+01  0.39820656303E+01  0.32427121796E+02  0.00000000000E+00 0. -1.
</event>
<event>
 7    1  0.1891413E-013  0.7246159E+02  0.7816164E-02  0.1226708E+00
        -11   -1    0    0    0    0  0.00000000000E+00  0.00000000000E+00  0.45593999997E+02  0.45594000000E+02  0.51100000000E-03 0.  1.
         11   -1    0    0    0    0 -0.00000000000E+00 -0.00000000000E+00 -0.45593999997E+02  0.45594000000E+02  0.51100000000E-03 0. -1.
    9900012    2    1    2    0    0 -0.13483885394E+02 -0.12249941201E+02  0.43361306876E+01  0.72461594737E+02  0.70000031841E+02 0.  0.
        -12    1    1    2    0    0  0.13483885394E+02  0.12249941201E+02 -0.43361306876E+01  0.18726405263E+02  0.00000000000E+00 0.  1.
         11    1    3    3    0    0  0.71310931645E+01 -0.28073770884E+02 -0.17402908150E+02  0.33791275704E+02  0.51100000000E-03 0. -1.
        -11    1    3    3    0    0  0.12514613771E+01 -0.28757362796E+01  0.13942385266E+01  0.34321882317E+01  0.51100000000E-03 0.  1.
        -12    1    3    3    0    0 -0.21866439935E+02  0.18699565963E+02  0.20344800311E+02  0.35238130801E+02  0.00000000000E+00 0.  1.
</event>
<event>
 7    1  0.1891413E-013  0.7246155E+02  0.7816164E-02  0.1226708E+00
        -11   -1    0    0    0    0  0.00000000000E+00  0.00000000000E+00  0.45593999997E+02  0.45594000000E+02  0.51100000000E-03 0. -1.
         11   -1    0    0    0    0 -0.00000000000E+00 -0.00000000000E+00 -0.45593999997E+02  0.45594000000E+02  0.51100000000E-03 0.  1.
    9900012    2    1    2    0    0 -0.45068079191E+01 -0.13118695194E+02  0.12580472221E+02  0.72461554461E+02  0.69999979374E+02 0.  0.
        -12    1    1    2    0    0  0.45068079191E+01  0.13118695194E+02 -0.12580472221E+02  0.18726445539E+02  0.00000000000E+00 0.  1.
         11    1    3    3    0    0 -0.47727528977E+01 -0.31553351133E+01  0.16894410592E+02  0.17836939744E+02  0.51100000000E-03 0. -1.
        -11    1    3    3    0    0 -0.10249409136E+02 -0.16484497219E+02  0.19671244352E+02  0.27635970958E+02  0.51100000000E-03 0.  1.
        -12    1    3    3    0    0  0.10515354115E+02  0.65211371377E+01 -0.23985182723E+02  0.26988643760E+02  0.00000000000E+00 0.  1.
</event>
<event>
 7    1  0.1891413E-013  0.7246163E+02  0.7816164E-02  0.1226708E+00
        -11   -1    0    0    0    0  0.00000000000E+00  0.00000000000E+00  0.45593999997E+02  0.45594000000E+02  0.51100000000E-03 0.  1.
         11   -1    0    0    0    0 -0.00000000000E+00 -0.00000000000E+00 -0.45593999997E+02  0.45594000000E+02  0.51100000000E-03 0. -1.
    9900012    2    1    2    0    0  0.50668507407E+00  0.11891499520E+02  0.14457259111E+02  0.72461632717E+02  0.70000081317E+02 0.  0.
        -12    1    1    2    0    0 -0.50668507407E+00 -0.11891499520E+02 -0.14457259111E+02  0.18726367283E+02  0.00000000000E+00 0.  1.
         11    1    3    3    0    0  0.13870199130E+02  0.11361924082E+02 -0.16582317866E+02  0.24422305559E+02  0.51100000000E-03 0. -1.
        -11    1    3    3    0    0  0.26982822726E+01  0.12297400616E+02  0.18792247866E+01  0.12729425564E+02  0.51100000000E-03 0.  1.
        -12    1    3    3    0    0 -0.16061796329E+02 -0.11767825178E+02  0.29160352191E+02  0.35309901594E+02  0.00000000000E+00 0.  1.
</event>
<event>
 7    1  0.1891413E-013  0.7246157E+02  0.7816164E-02  0.1226708E+00
        -11   -1    0    0    0    0  0.00000000000E+00  0.00000000000E+00  0.45593999997E+02  0.45594000000E+02  0.51100000000E-03 0.  1.
         11   -1    0    0    0    0 -0.00000000000E+00 -0.00000000000E+00 -0.45593999997E+02  0.45594000000E+02  0.51100000000E-03 0. -1.
    9900012    2    1    2    0    0 -0.16101577635E+02  0.40364912707E+01  0.86674783512E+01  0.72461568277E+02  0.69999997372E+02 0.  0.
        -12    1    1    2    0    0  0.16101577635E+02 -0.40364912707E+01 -0.86674783512E+01  0.18726431723E+02  0.00000000000E+00 0.  1.
         11    1    3    3    0    0 -0.16380911214E+02  0.39675906314E+01 -0.62432875679E+00  0.16866114380E+02  0.51100000000E-03 0. -1.
        -11    1    3    3    0    0  0.12463998840E+02  0.21402557609E+02 -0.74521137990E+01  0.25864159364E+02  0.51100000000E-03 0.  1.
         12    1    3    3    0    0 -0.12184665261E+02 -0.21333656970E+02  0.16743920907E+02  0.29731294532E+02  0.00000000000E+00 0. -1.
</event>
<event>
 7    1  0.1891413E-013  0.7246154E+02  0.7816164E-02  0.1226708E+00
        -11   -1    0    0    0    0  0.00000000000E+00  0.00000000000E+00  0.45593999997E+02  0.45594000000E+02  0.51100000000E-03 0. -1.
         11   -1    0    0    0    0 -0.00000000000E+00 -0.00000000000E+00 -0.45593999997E+02  0.45594000000E+02  0.51100000000E-03 0.  1.
    9900012    2    1    2    0    0 -0.11978951161E+02 -0.97899364675E+01  0.10551887353E+02  0.72461536007E+02  0.69999955335E+02 0.  0.
        -12    1    1    2    0    0  0.11978951161E+02  0.97899364675E+01 -0.10551887353E+02  0.18726463993E+02  0.00000000000E+00 0.  1.
         11    1    3    3    0    0 -0.11169187804E+00  0.21160292097E+02  0.24406993558E+01  0.21300879097E+02  0.51100000000E-03 0. -1.
        -11    1    3    3    0    0 -0.80328308671E+00 -0.81811267190E+01 -0.14856659248E+02  0.16979293930E+02  0.51100000000E-03 0.  1.
         12    1    3    3    0    0 -0.11063976196E+02 -0.22769101845E+02  0.22967847245E+02  0.34181362980E+02  0.00000000000E+00 0. -1.
</event>
<event>
 7    1  0.1891413E-013  0.7246153E+02  0.7816164E-02  0.1226708E+00
        -11   -1    0    0    0    0  0.00000000000E+00  0.00000000000E+00  0.45593999997E+02  0.45594000000E+02  0.51100000000E-03 0. -1.
         11   -1    0    0    0    0 -0.00000000000E+00 -0.00000000000E+00 -0.45593999997E+02  0.45594000000E+02  0.51100000000E-03 0.  1.
    9900012    2    1    2    0    0 -0.18005467422E+02  0.35571691750E+01  0.37189270357E+01  0.72461528685E+02  0.69999945796E+02 0.  0.
        -12    1    1    2    0    0  0.18005467422E+02 -0.35571691750E+01 -0.37189270357E+01  0.18726471315E+02  0.00000000000E+00 0.  1.
         11    1    3    3    0    0 -0.13028621116E+02 -0.26270384091E+02  0.30744854471E+01  0.29484411296E+02  0.51100000000E-03 0. -1.
        -11    1    3    3    0    0  0.47385074940E+01 -0.43912504275E+01  0.33978582670E+01  0.72994502979E+01  0.51100000000E-03 0.  1.
         12    1    3    3    0    0 -0.97153538001E+01  0.34218803693E+02 -0.27534166784E+01  0.35677667091E+02  0.00000000000E+00 0. -1.
</event>
<event>
 7    1  0.1891413E-013  0.7246155E+02  0.7816164E-02  0.1226708E+00
        -11   -1    0    0    0    0  0.00000000000E+00  0.00000000000E+00  0.45593999997E+02  0.45594000000E+02  0.51100000000E-03 0.  1.
         11   -1    0    0    0    0 -0.00000000000E+00 -0.00000000000E+00 -0.45593999997E+02  0.45594000000E+02  0.51100000000E-03 0. -1.
    9900012    2    1    2    0    0  0.86131139968E+01  0.15522168473E+02 -0.59629390179E+01  0.72461545756E+02  0.69999968034E+02 0.  0.
        -12    1    1    2    0    0 -0.86131139968E+01 -0.15522168473E+02  0.59629390179E+01  0.18726454244E+02  0.00000000000E+00 0.  1.
         11    1    3    3    0    0 -0.46115469967E+00 -0.92933245664E+01  0.16040211571E+01  0.94420034573E+01  0.51100000000E-03 0. -1.
        -11    1    3    3    0    0 -0.21560943676E+02 -0.14641104035E+01  0.14601506744E+01  0.21659869615E+02  0.51100000000E-03 0.  1.
         12    1    3    3    0    0  0.30635212373E+02  0.26279603443E+02 -0.90271108494E+01  0.41359672684E+02  0.00000000000E+00 0. -1.
</event>
<event>
 7    1  0.1891413E-013  0.7246153E+02  0.7816164E-02  0.1226708E+00
        -11   -1    0    0    0    0  0.00000000000E+00  0.00000000000E+00  0.45593999997E+02  0.45594000000E+02  0.51100000000E-03 0. -1.
         11   -1    0    0    0    0 -0.00000000000E+00 -0.00000000000E+00 -0.45593999997E+02  0.45594000000E+02  0.51100000000E-03 0.  1.
    9900012    2    1    2    0    0  0.77302942748E+01 -0.75520527950E+01  0.15293454148E+02  0.72461529677E+02  0.69999947088E+02 0.  0.
        -12    1    1    2    0    0 -0.77302942748E+01  0.75520527950E+01 -0.15293454148E+02  0.18726470323E+02  0.00000000000E+00 0.  1.
         11    1    3    3    0    0  0.15240653684E+02  0.19047458431E+02 -0.34148537983E+01  0.24632182691E+02  0.51100000000E-03 0. -1.
        -11    1    3    3    0    0 -0.92997302695E+01 -0.14394992267E+01 -0.70647216279E+01  0.11767218577E+02  0.51100000000E-03 0.  1.
         12    1    3    3    0    0  0.17893708603E+01 -0.25160011999E+02  0.25773029574E+02  0.36062128408E+02  0.00000000000E+00 0. -1.
</event>
<event>
 7    1  0.1891413E-013  0.7246156E+02  0.7816164E-02  0.1226708E+00
        -11   -1    0    0    0    0  0.00000000000E+00  0.00000000000E+00  0.45593999997E+02  0.45594000000E+02  0.51100000000E-03 0.  1.
         11   -1    0    0    0    0 -0.00000000000E+00 -0.00000000000E+00 -0.45593999997E+02  0.45594000000E+02  0.51100000000E-03 0. -1.
    9900012    2    1    2    0    0 -0.13968808057E+02 -0.11970408360E+02 -0.35016241816E+01  0.72461557552E+02  0.69999983401E+02 0.  0.
        -12    1    1    2    0    0  0.13968808057E+02  0.11970408360E+02  0.35016241816E+01  0.18726442448E+02  0.00000000000E+00 0.  1.
         11    1    3    3    0    0 -0.13915679852E+02 -0.12348245463E+02  0.97148715622E+00  0.18629790640E+02  0.51100000000E-03 0. -1.
        -11    1    3    3    0    0 -0.15957364517E+02 -0.96736773398E+00  0.19385179999E+02  0.25126847922E+02  0.51100000000E-03 0.  1.
         12    1    3    3    0    0  0.15904236311E+02  0.13452048370E+01 -0.23858291337E+02  0.28704918990E+02  0.00000000000E+00 0. -1.
</event>
<event>
 7    1  0.1891413E-013  0.7246165E+02  0.7816164E-02  0.1226708E+00
        -11   -1    0    0    0    0  0.00000000000E+00  0.00000000000E+00  0.45593999997E+02  0.45594000000E+02  0.51100000000E-03 0. -1.
         11   -1    0    0    0    0 -0.00000000000E+00 -0.00000000000E+00 -0.45593999997E+02  0.45594000000E+02  0.51100000000E-03 0.  1.
    9900012    2    1    2    0    0 -0.17555082588E+02  0.63771685893E+01 -0.13516548501E+01  0.72461650257E+02  0.70000104166E+02 0.  0.
        -12    1    1    2    0    0  0.17555082588E+02 -0.63771685893E+01  0.13516548501E+01  0.18726349743E+02  0.00000000000E+00 0.  1.
         11    1    3    3    0    0  0.11198291722E+02 -0.72462530797E+00 -0.13934706638E+02  0.17891418856E+02  0.51100000000E-03 0.  1.
        -11    1    3    3    0    0 -0.20405874356E+02 -0.40947824737E+00 -0.14642920451E+02  0.25119365045E+02  0.51100000000E-03 0. -1.
        -12    1    3    3    0    0 -0.83474999538E+01  0.75112721447E+01  0.27225972239E+02  0.29450866355E+02  0.00000000000E+00 0.  1.
</event>
<event>
 7    1  0.1891413E-013  0.7246158E+02  0.7816164E-02  0.1226708E+00
        -11   -1    0    0    0    0  0.00000000000E+00  0.00000000000E+00  0.45593999997E+02  0.45594000000E+02  0.51100000000E-03 0.  1.
         11   -1    0    0    0    0 -0.00000000000E+00 -0.00000000000E+00 -0.45593999997E+02  0.45594000000E+02  0.51100000000E-03 0. -1.
    9900012    2    1    2    0    0 -0.96934184004E+01 -0.10582456009E+02 -0.12030292073E+02  0.72461583823E+02  0.70000017623E+02 0.  0.
        -12    1    1    2    0    0  0.96934184004E+01  0.10582456009E+02  0.12030292073E+02  0.18726416177E+02  0.00000000000E+00 0.  1.
         11    1    3    3    0    0  0.11572500990E+02  0.56414593587E+01 -0.17054286492E+02  0.21368142897E+02  0.51100000000E-03 0. -1.
        -11    1    3    3    0    0 -0.36609621526E-01  0.38642865340E+01  0.18507108919E+02  0.18906272278E+02  0.51100000000E-03 0.  1.
        -12    1    3    3    0    0 -0.21229309769E+02 -0.20088201902E+02 -0.13483114500E+02  0.32187168647E+02  0.00000000000E+00 0.  1.
</event>
<event>
 7    1  0.1891413E-013  0.7246219E+02  0.7816164E-02  0.1226706E+00
        -11   -1    0    0    0    0  0.00000000000E+00  0.00000000000E+00  0.45593999997E+02  0.45594000000E+02  0.51100000000E-03 0. -1.
         11   -1    0    0    0    0 -0.00000000000E+00 -0.00000000000E+00 -0.45593999997E+02  0.45594000000E+02  0.51100000000E-03 0.  1.
    9900012    2    1    2    0    0  0.41952300101E+01 -0.16303601340E+02  0.82005192140E+01  0.72462191957E+02  0.70000809826E+02 0.  0.
        -12    1    1    2    0    0 -0.41952300101E+01  0.16303601340E+02 -0.82005192140E+01  0.18725808043E+02  0.00000000000E+00 0.  1.
         11    1    3    3    0    0 -0.53813568178E+01  0.12549919017E+02  0.51719573852E+01  0.14601664699E+02  0.51100000000E-03 0. -1.
        -11    1    3    3    0    0 -0.84626938613E+01 -0.34292303442E+02 -0.77396821229E+01  0.36159119768E+02  0.51100000000E-03 0.  1.
         12    1    3    3    0    0  0.18039280689E+02  0.54387830852E+01  0.10768243952E+02  0.21701407490E+02  0.00000000000E+00 0. -1.
</event>
<event>
 7    1  0.1891413E-013  0.7246147E+02  0.7816164E-02  0.1226708E+00
        -11   -1    0    0    0    0  0.00000000000E+00  0.00000000000E+00  0.45593999997E+02  0.45594000000E+02  0.51100000000E-03 0.  1.
         11   -1    0    0    0    0 -0.00000000000E+00 -0.00000000000E+00 -0.45593999997E+02  0.45594000000E+02  0.51100000000E-03 0. -1.
    9900012    2    1    2    0    0 -0.29217120894E+01  0.14346178506E+02 -0.11676200824E+02  0.72461470558E+02  0.69999870075E+02 0.  0.
        -12    1    1    2    0    0  0.29217120894E+01 -0.14346178506E+02  0.11676200824E+02  0.18726529442E+02  0.00000000000E+00 0.  1.
         11    1    3    3    0    0 -0.15960076086E+02  0.20497725065E+02 -0.38179931565E+01  0.26257529083E+02  0.51100000000E-03 0. -1.
        -11    1    3    3    0    0 -0.13078218344E+02 -0.26603103264E+01  0.78935919736E+01  0.15505671239E+02  0.51100000000E-03 0.  1.
         12    1    3    3    0    0  0.26116582340E+02 -0.34912362333E+01 -0.15751799641E+02  0.30698270236E+02  0.00000000000E+00 0. -1.
</event>
<event>
 7    1  0.1891413E-013  0.7246156E+02  0.7816164E-02  0.1226708E+00
        -11   -1    0    0    0    0  0.00000000000E+00  0.00000000000E+00  0.45593999997E+02  0.45594000000E+02  0.51100000000E-03 0.  1.
         11   -1    0    0    0    0 -0.00000000000E+00 -0.00000000000E+00 -0.45593999997E+02  0.45594000000E+02  0.51100000000E-03 0. -1.
    9900012    2    1    2    0    0 -0.11014431019E+02 -0.11419306675E+02 -0.99479253209E+01  0.72461562170E+02  0.69999989417E+02 0.  0.
        -12    1    1    2    0    0  0.11014431019E+02  0.11419306675E+02  0.99479253209E+01  0.18726437830E+02  0.00000000000E+00 0.  1.
         11    1    3    3    0    0  0.36741521484E+01 -0.16761496833E+02  0.77996423494E+01  0.18848914853E+02  0.51100000000E-03 0.  1.
        -11    1    3    3    0    0  0.17540205451E+02 -0.16286273110E+01 -0.61031820425E+01  0.18642962894E+02  0.51100000000E-03 0. -1.
         12    1    3    3    0    0 -0.32228788618E+02  0.69708174695E+01 -0.11644385628E+02  0.34969684423E+02  0.00000000000E+00 0. -1.
</event>
<event>
 7    1  0.1891413E-013  0.7246223E+02  0.7816164E-02  0.1226706E+00
        -11   -1    0    0    0    0  0.00000000000E+00  0.00000000000E+00  0.45593999997E+02  0.45594000000E+02  0.51100000000E-03 0.  1.
         11   -1    0    0    0    0 -0.00000000000E+00 -0.00000000000E+00 -0.45593999997E+02  0.45594000000E+02  0.51100000000E-03 0. -1.
    9900012    2    1    2    0    0 -0.70709081247E+01 -0.80456522321E+01 -0.15359828788E+02  0.72462226265E+02  0.70000854519E+02 0.  0.
        -12    1    1    2    0    0  0.70709081247E+01  0.80456522321E+01  0.15359828788E+02  0.18725773735E+02  0.00000000000E+00 0.  1.
         11    1    3    3    0    0  0.18720521097E+02  0.81061400598E+00  0.10065369479E+02  0.21270323651E+02  0.51100000000E-03 0. -1.
        -11    1    3    3    0    0  0.71982420900E+01 -0.82948104394E+01 -0.96513068333E+01  0.14620748724E+02  0.51100000000E-03 0.  1.
        -12    1    3    3    0    0 -0.32989671312E+02 -0.56145579868E+00 -0.15773891434E+02  0.36571153890E+02  0.00000000000E+00 0.  1.
</event>
<event>
 7    1  0.1891413E-013  0.7246158E+02  0.7816164E-02  0.1226708E+00
        -11   -1    0    0    0    0  0.00000000000E+00  0.00000000000E+00  0.45593999997E+02  0.45594000000E+02  0.51100000000E-03 0.  1.
         11   -1    0    0    0    0 -0.00000000000E+00 -0.00000000000E+00 -0.45593999997E+02  0.45594000000E+02  0.51100000000E-03 0. -1.
    9900012    2    1    2    0    0 -0.72093870304E+01  0.11031735840E+02 -0.13304299078E+02  0.72461579334E+02  0.70000011776E+02 0.  0.
        -12    1    1    2    0    0  0.72093870304E+01 -0.11031735840E+02  0.13304299078E+02  0.18726420666E+02  0.00000000000E+00 0.  1.
         11    1    3    3    0    0  0.20502730904E+02  0.96732498571E+01 -0.27760582138E+02  0.35841088965E+02  0.51100000000E-03 0.  1.
        -11    1    3    3    0    0 -0.86112673178E+01  0.80990812485E+01  0.10851433900E+02  0.16046889413E+02  0.51100000000E-03 0. -1.
        -12    1    3    3    0    0 -0.19100850617E+02 -0.67405952657E+01  0.36048491599E+01  0.20573600956E+02  0.00000000000E+00 0.  1.
</event>
<event>
 7    1  0.1891413E-013  0.7246159E+02  0.7816164E-02  0.1226708E+00
        -11   -1    0    0    0    0  0.00000000000E+00  0.00000000000E+00  0.45593999997E+02  0.45594000000E+02  0.51100000000E-03 0.  1.
         11   -1    0    0    0    0 -0.00000000000E+00 -0.00000000000E+00 -0.45593999997E+02  0.45594000000E+02  0.51100000000E-03 0. -1.
    9900012    2    1    2    0    0 -0.34782104485E+01  0.16526523348E+02 -0.80904059221E+01  0.72461585771E+02  0.70000020161E+02 0.  0.
        -12    1    1    2    0    0  0.34782104485E+01 -0.16526523348E+02  0.80904059221E+01  0.18726414229E+02  0.00000000000E+00 0.  1.
         11    1    3    3    0    0 -0.30425464386E+01 -0.10628021979E+02 -0.23368169611E+02  0.25851175819E+02  0.51100000000E-03 0. -1.
        -11    1    3    3    0    0 -0.12065125813E+02  0.43527866516E+01  0.16602558728E+02  0.20979965898E+02  0.51100000000E-03 0.  1.
        -12    1    3    3    0    0  0.11629461803E+02  0.22801758675E+02 -0.13247950390E+01  0.25630444054E+02  0.00000000000E+00 0.  1.
</event>
<event>
 7    1  0.1891413E-013  0.7246157E+02  0.7816164E-02  0.1226708E+00
        -11   -1    0    0    0    0  0.00000000000E+00  0.00000000000E+00  0.45593999997E+02  0.45594000000E+02  0.51100000000E-03 0.  1.
         11   -1    0    0    0    0 -0.00000000000E+00 -0.00000000000E+00 -0.45593999997E+02  0.45594000000E+02  0.51100000000E-03 0. -1.
    9900012    2    1    2    0    0 -0.18598488252E+02  0.16006447618E+01  0.14877655301E+01  0.72461567473E+02  0.69999996325E+02 0.  0.
        -12    1    1    2    0    0  0.18598488252E+02 -0.16006447618E+01 -0.14877655301E+01  0.18726432527E+02  0.00000000000E+00 0.  1.
         11    1    3    3    0    0 -0.39232747201E+01 -0.10267446262E+02 -0.14744332617E+02  0.18390429083E+02  0.51100000000E-03 0. -1.
        -11    1    3    3    0    0  0.13110036710E+02  0.15981427309E+02 -0.17104087332E+01  0.20741373621E+02  0.51100000000E-03 0.  1.
        -12    1    3    3    0    0 -0.27785250242E+02 -0.41133362855E+01  0.17942506881E+02  0.33329764769E+02  0.00000000000E+00 0.  1.
</event>
<event>
 7    1  0.1891413E-013  0.7246171E+02  0.7816164E-02  0.1226708E+00
        -11   -1    0    0    0    0  0.00000000000E+00  0.00000000000E+00  0.45593999997E+02  0.45594000000E+02  0.51100000000E-03 0. -1.
         11   -1    0    0    0    0 -0.00000000000E+00 -0.00000000000E+00 -0.45593999997E+02  0.45594000000E+02  0.51100000000E-03 0.  1.
    9900012    2    1    2    0    0 -0.39060444703E+01 -0.14985143675E+02 -0.10529120021E+02  0.72461706112E+02  0.70000176927E+02 0.  0.
        -12    1    1    2    0    0  0.39060444703E+01  0.14985143675E+02  0.10529120021E+02  0.18726293888E+02  0.00000000000E+00 0.  1.
         11    1    3    3    0    0 -0.96911783196E+01 -0.60823376830E+01 -0.17491941143E+02  0.20901717014E+02  0.51100000000E-03 0. -1.
        -11    1    3    3    0    0 -0.17232655922E+01 -0.28567255504E+02 -0.19850211949E+01  0.28687942427E+02  0.51100000000E-03 0.  1.
         12    1    3    3    0    0  0.75083994415E+01  0.19664449511E+02  0.89478423171E+01  0.22872046670E+02  0.00000000000E+00 0. -1.
</event>
<event>
 7    1  0.1891413E-013  0.7246158E+02  0.7816164E-02  0.1226708E+00
        -11   -1    0    0    0    0  0.00000000000E+00  0.00000000000E+00  0.45593999997E+02  0.45594000000E+02  0.51100000000E-03 0.  1.
         11   -1    0    0    0    0 -0.00000000000E+00 -0.00000000000E+00 -0.45593999997E+02  0.45594000000E+02  0.51100000000E-03 0. -1.
    9900012    2    1    2    0    0  0.15690744362E+01 -0.17504544026E+02 -0.64658880750E+01  0.72461581102E+02  0.70000014079E+02 0.  0.
        -12    1    1    2    0    0 -0.15690744362E+01  0.17504544026E+02  0.64658880750E+01  0.18726418898E+02  0.00000000000E+00 0.  1.
         11    1    3    3    0    0  0.16147287583E+02  0.93873796043E+01 -0.21213016635E+02  0.28263932266E+02  0.51100000000E-03 0. -1.
        -11    1    3    3    0    0  0.58542903773E+01 -0.17049555639E+02  0.18853635787E+01  0.18124973363E+02  0.51100000000E-03 0.  1.
        -12    1    3    3    0    0 -0.20432503524E+02 -0.98423679913E+01  0.12861764981E+02  0.26072675474E+02  0.00000000000E+00 0.  1.
</event>
<event>
 7    1  0.1891413E-013  0.7246158E+02  0.7816164E-02  0.1226708E+00
        -11   -1    0    0    0    0  0.00000000000E+00  0.00000000000E+00  0.45593999997E+02  0.45594000000E+02  0.51100000000E-03 0.  1.
         11   -1    0    0    0    0 -0.00000000000E+00 -0.00000000000E+00 -0.45593999997E+02  0.45594000000E+02  0.51100000000E-03 0. -1.
    9900012    2    1    2    0    0  0.53245768131E+01 -0.53706002017E+01 -0.17131384068E+02  0.72461580565E+02  0.70000013379E+02 0.  0.
        -12    1    1    2    0    0 -0.53245768131E+01  0.53706002017E+01  0.17131384068E+02  0.18726419435E+02  0.00000000000E+00 0.  1.
         11    1    3    3    0    0 -0.65695392154E+01  0.34548336465E+01 -0.26834260979E+02  0.27841915946E+02  0.51100000000E-03 0. -1.
        -11    1    3    3    0    0 -0.12714571728E+02  0.59138760851E+01  0.73658932066E+01  0.15839528010E+02  0.51100000000E-03 0.  1.
         12    1    3    3    0    0  0.24608687756E+02 -0.14739309933E+02  0.23369837035E+01  0.28780136609E+02  0.00000000000E+00 0. -1.
</event>
<event>
 7    1  0.1891413E-013  0.7246159E+02  0.7816164E-02  0.1226708E+00
        -11   -1    0    0    0    0  0.00000000000E+00  0.00000000000E+00  0.45593999997E+02  0.45594000000E+02  0.51100000000E-03 0.  1.
         11   -1    0    0    0    0 -0.00000000000E+00 -0.00000000000E+00 -0.45593999997E+02  0.45594000000E+02  0.51100000000E-03 0. -1.
    9900012    2    1    2    0    0 -0.14985876328E+01 -0.17858713324E+01 -0.18580722282E+02  0.72461592394E+02  0.70000028788E+02 0.  0.
        -12    1    1    2    0    0  0.14985876328E+01  0.17858713324E+01  0.18580722282E+02  0.18726407606E+02  0.00000000000E+00 0.  1.
         11    1    3    3    0    0 -0.22624113814E+02 -0.57621485636E+01 -0.14789422607E+02  0.27636568225E+02  0.51100000000E-03 0. -1.
        -11    1    3    3    0    0 -0.68329581478E+01 -0.58205209820E+01  0.88593917966E+01  0.12611764540E+02  0.51100000000E-03 0.  1.
         12    1    3    3    0    0  0.27958484329E+02  0.97967982133E+01 -0.12650691472E+02  0.32213259629E+02  0.00000000000E+00 0. -1.
</event>
<event>
 7    1  0.1891413E-013  0.7246148E+02  0.7816164E-02  0.1226708E+00
        -11   -1    0    0    0    0  0.00000000000E+00  0.00000000000E+00  0.45593999997E+02  0.45594000000E+02  0.51100000000E-03 0.  1.
         11   -1    0    0    0    0 -0.00000000000E+00 -0.00000000000E+00 -0.45593999997E+02  0.45594000000E+02  0.51100000000E-03 0. -1.
    9900012    2    1    2    0    0 -0.16873515488E+02  0.20906809473E+01  0.78483165162E+01  0.72461480199E+02  0.69999882633E+02 0.  0.
        -12    1    1    2    0    0  0.16873515488E+02 -0.20906809473E+01 -0.78483165162E+01  0.18726519801E+02  0.00000000000E+00 0.  1.
         11    1    3    3    0    0  0.30463463067E+01 -0.61886420426E+01 -0.23681216687E+01  0.72929772145E+01  0.51100000000E-03 0. -1.
        -11    1    3    3    0    0 -0.15417001590E+02 -0.24581506513E+02  0.13178508488E+02  0.31868597187E+02  0.51100000000E-03 0.  1.
         12    1    3    3    0    0 -0.45028602047E+01  0.32860829503E+02 -0.29620703026E+01  0.33299905797E+02  0.00000000000E+00 0. -1.
</event>
<event>
 7    1  0.1891413E-013  0.7246166E+02  0.7816164E-02  0.1226708E+00
        -11   -1    0    0    0    0  0.00000000000E+00  0.00000000000E+00  0.45593999997E+02  0.45594000000E+02  0.51100000000E-03 0. -1.
         11   -1    0    0    0    0 -0.00000000000E+00 -0.00000000000E+00 -0.45593999997E+02  0.45594000000E+02  0.51100000000E-03 0.  1.
    9900012    2    1    2    0    0  0.17151632848E+02 -0.15003768871E+01  0.73652031796E+01  0.72461658712E+02  0.70000115180E+02 0.  0.
        -12    1    1    2    0    0 -0.17151632848E+02  0.15003768871E+01 -0.73652031796E+01  0.18726341288E+02  0.00000000000E+00 0.  1.
         11    1    3    3    0    0  0.44957253351E+01  0.78924370116E+01  0.93086533757E+01  0.13005888520E+02  0.51100000000E-03 0. -1.
        -11    1    3    3    0    0  0.32752686234E+02 -0.15513610323E+02 -0.89142921750E+01  0.37321242826E+02  0.51100000000E-03 0.  1.
         12    1    3    3    0    0 -0.20096778721E+02  0.61207964248E+01  0.69708419789E+01  0.22134527366E+02  0.00000000000E+00 0. -1.
</event>
<event>
 7    1  0.1891413E-013  0.7246165E+02  0.7816164E-02  0.1226708E+00
        -11   -1    0    0    0    0  0.00000000000E+00  0.00000000000E+00  0.45593999997E+02  0.45594000000E+02  0.51100000000E-03 0.  1.
         11   -1    0    0    0    0 -0.00000000000E+00 -0.00000000000E+00 -0.45593999997E+02  0.45594000000E+02  0.51100000000E-03 0. -1.
    9900012    2    1    2    0    0  0.79890274904E+01  0.79722155499E+01 -0.14943074582E+02  0.72461648006E+02  0.70000101234E+02 0.  0.
        -12    1    1    2    0    0 -0.79890274904E+01 -0.79722155499E+01  0.14943074582E+02  0.18726351994E+02  0.00000000000E+00 0.  1.
         11    1    3    3    0    0 -0.17539124277E+02  0.25332595744E+02 -0.11700488931E+02  0.32958500103E+02  0.51100000000E-03 0.  1.
        -11    1    3    3    0    0  0.41388656844E+01  0.43988163435E+01 -0.64342933328E+01  0.88249603586E+01  0.51100000000E-03 0. -1.
        -12    1    3    3    0    0  0.21389286083E+02 -0.21759196538E+02  0.31917076813E+01  0.30678187545E+02  0.00000000000E+00 0.  1.
</event>
<event>
 7    1  0.1891413E-013  0.7246155E+02  0.7816164E-02  0.1226708E+00
        -11   -1    0    0    0    0  0.00000000000E+00  0.00000000000E+00  0.45593999997E+02  0.45594000000E+02  0.51100000000E-03 0. -1.
         11   -1    0    0    0    0 -0.00000000000E+00 -0.00000000000E+00 -0.45593999997E+02  0.45594000000E+02  0.51100000000E-03 0.  1.
    9900012    2    1    2    0    0 -0.43410491566E+01  0.52742037646E+00  0.18208706017E+02  0.72461551996E+02  0.69999976163E+02 0.  0.
        -12    1    1    2    0    0  0.43410491566E+01 -0.52742037646E+00 -0.18208706017E+02  0.18726448004E+02  0.00000000000E+00 0.  1.
         11    1    3    3    0    0  0.56939433032E+01  0.27471186531E+01 -0.13241561033E+02  0.14673329209E+02  0.51100000000E-03 0. -1.
        -11    1    3    3    0    0  0.10038902809E+01  0.12001998454E+02 -0.79763779247E+01  0.14445704124E+02  0.51100000000E-03 0.  1.
         12    1    3    3    0    0 -0.11038882741E+02 -0.14221696731E+02  0.39426644975E+02  0.43342518663E+02  0.00000000000E+00 0. -1.
</event>
<event>
 7    1  0.1891413E-013  0.7246149E+02  0.7816164E-02  0.1226708E+00
        -11   -1    0    0    0    0  0.00000000000E+00  0.00000000000E+00  0.45593999997E+02  0.45594000000E+02  0.51100000000E-03 0. -1.
         11   -1    0    0    0    0 -0.00000000000E+00 -0.00000000000E+00 -0.45593999997E+02  0.45594000000E+02  0.51100000000E-03 0.  1.
    9900012    2    1    2    0    0  0.89419032738E+01  0.15545342507E+02 -0.53913571620E+01  0.72461493656E+02  0.69999900164E+02 0.  0.
        -12    1    1    2    0    0 -0.89419032738E+01 -0.15545342507E+02  0.53913571620E+01  0.18726506344E+02  0.00000000000E+00 0.  1.
         11    1    3    3    0    0 -0.11819189828E+02 -0.12398999397E+02  0.48850680511E+01  0.17812701209E+02  0.51100000000E-03 0. -1.
        -11    1    3    3    0    0  0.13417572295E+02 -0.48067244260E+01  0.80894952297E+01  0.16388281769E+02  0.51100000000E-03 0.  1.
        -12    1    3    3    0    0  0.73435208067E+01  0.32751066330E+02 -0.18365920443E+02  0.38260510677E+02  0.00000000000E+00 0.  1.
</event>
<event>
 7    1  0.1891413E-013  0.7246155E+02  0.7816164E-02  0.1226708E+00
        -11   -1    0    0    0    0  0.00000000000E+00  0.00000000000E+00  0.45593999997E+02  0.45594000000E+02  0.51100000000E-03 0.  1.
         11   -1    0    0    0    0 -0.00000000000E+00 -0.00000000000E+00 -0.45593999997E+02  0.45594000000E+02  0.51100000000E-03 0. -1.
    9900012    2    1    2    0    0  0.10872167696E+02  0.14611758687E+01 -0.15176990830E+02  0.72461545023E+02  0.69999967079E+02 0.  0.
        -12    1    1    2    0    0 -0.10872167696E+02 -0.14611758687E+01  0.15176990830E+02  0.18726454977E+02  0.00000000000E+00 0.  1.
         11    1    3    3    0    0 -0.15241566174E+02  0.29428328103E+01 -0.28785190067E+02  0.32704017671E+02  0.51100000000E-03 0. -1.
        -11    1    3    3    0    0  0.57480520440E+01 -0.10704691500E+02 -0.22376713985E+01  0.12354662924E+02  0.51100000000E-03 0.  1.
        -12    1    3    3    0    0  0.20365681826E+02  0.92230345583E+01  0.15845870635E+02  0.27402864428E+02  0.00000000000E+00 0.  1.
</event>
<event>
 7    1  0.1891413E-013  0.7246163E+02  0.7816164E-02  0.1226708E+00
        -11   -1    0    0    0    0  0.00000000000E+00  0.00000000000E+00  0.45593999997E+02  0.45594000000E+02  0.51100000000E-03 0.  1.
         11   -1    0    0    0    0 -0.00000000000E+00 -0.00000000000E+00 -0.45593999997E+02  0.45594000000E+02  0.51100000000E-03 0. -1.
    9900012    2    1    2    0    0  0.74074068061E+01  0.22647853106E+01 -0.17049285796E+02  0.72461626239E+02  0.70000072878E+02 0.  0.
        -12    1    1    2    0    0 -0.74074068061E+01 -0.22647853106E+01  0.17049285796E+02  0.18726373761E+02  0.00000000000E+00 0.  1.
         11    1    3    3    0    0 -0.26237004686E+01 -0.13744458619E+02 -0.22813264949E+02  0.26762641962E+02  0.51100000000E-03 0. -1.
        -11    1    3    3    0    0 -0.10506433187E+02 -0.21556455706E+01  0.13470131602E+02  0.17218489823E+02  0.51100000000E-03 0.  1.
         12    1    3    3    0    0  0.20537540462E+02  0.18164889501E+02 -0.77061524482E+01  0.28480494454E+02  0.00000000000E+00 0. -1.
</event>
<event>
 7    1  0.1891413E-013  0.7246159E+02  0.7816164E-02  0.1226708E+00
        -11   -1    0    0    0    0  0.00000000000E+00  0.00000000000E+00  0.45593999997E+02  0.45594000000E+02  0.51100000000E-03 0.  1.
         11   -1    0    0    0    0 -0.00000000000E+00 -0.00000000000E+00 -0.45593999997E+02  0.45594000000E+02  0.51100000000E-03 0. -1.
    9900012    2    1    2    0    0 -0.36765014626E+00  0.18402913848E+02 -0.34461706153E+01  0.72461588261E+02  0.70000023404E+02 0.  0.
        -12    1    1    2    0    0  0.36765014626E+00 -0.18402913848E+02  0.34461706153E+01  0.18726411739E+02  0.00000000000E+00 0.  1.
         11    1    3    3    0    0 -0.49104434602E+01 -0.17871535762E+01 -0.16442281837E+02  0.17252681100E+02  0.51100000000E-03 0. -1.
        -11    1    3    3    0    0  0.19201755001E+02 -0.45393396139E+00 -0.94198704727E+01  0.21392695275E+02  0.51100000000E-03 0.  1.
         12    1    3    3    0    0 -0.14658961687E+02  0.20644001386E+02  0.22415981695E+02  0.33816211885E+02  0.00000000000E+00 0. -1.
</event>
<event>
 7    1  0.1891413E-013  0.7246154E+02  0.7816164E-02  0.1226708E+00
        -11   -1    0    0    0    0  0.00000000000E+00  0.00000000000E+00  0.45593999997E+02  0.45594000000E+02  0.51100000000E-03 0. -1.
         11   -1    0    0    0    0 -0.00000000000E+00 -0.00000000000E+00 -0.45593999997E+02  0.45594000000E+02  0.51100000000E-03 0.  1.
    9900012    2    1    2    0    0  0.91727858518E+01  0.15732983843E+02 -0.43604496794E+01  0.72461540049E+02  0.69999960600E+02 0.  0.
        -12    1    1    2    0    0 -0.91727858518E+01 -0.15732983843E+02  0.43604496794E+01  0.18726459951E+02  0.00000000000E+00 0.  1.
         11    1    3    3    0    0  0.28442975226E+02  0.22465665352E+02 -0.44081521970E+01  0.36512200228E+02  0.51100000000E-03 0. -1.
        -11    1    3    3    0    0  0.50522077912E+00  0.38849596184E+01 -0.10457374840E+02  0.11167132492E+02  0.51100000000E-03 0.  1.
        -12    1    3    3    0    0 -0.19775410153E+02 -0.10617641127E+02  0.10505077358E+02  0.24782207330E+02  0.00000000000E+00 0.  1.
</event>
<event>
 7    1  0.1891413E-013  0.7246146E+02  0.7816164E-02  0.1226708E+00
        -11   -1    0    0    0    0  0.00000000000E+00  0.00000000000E+00  0.45593999997E+02  0.45594000000E+02  0.51100000000E-03 0.  1.
         11   -1    0    0    0    0 -0.00000000000E+00 -0.00000000000E+00 -0.45593999997E+02  0.45594000000E+02  0.51100000000E-03 0. -1.
    9900012    2    1    2    0    0  0.18467832635E+02 -0.34946879870E+00 -0.30822850090E+01  0.72461455963E+02  0.69999851063E+02 0.  0.
        -12    1    1    2    0    0 -0.18467832635E+02  0.34946879870E+00  0.30822850090E+01  0.18726544037E+02  0.00000000000E+00 0.  1.
         11    1    3    3    0    0 -0.86151661636E+01  0.58975538009E+01 -0.90840229149E+01  0.13839136586E+02  0.51100000000E-03 0. -1.
        -11    1    3    3    0    0 -0.77121530376E+01  0.15235372100E+02  0.46913860232E+01  0.17708838770E+02  0.51100000000E-03 0.  1.
        -12    1    3    3    0    0  0.34795151836E+02 -0.21482394700E+02  0.13103518827E+01  0.40913480607E+02  0.00000000000E+00 0.  1.
</event>
<event>
 7    1  0.1891413E-013  0.7246155E+02  0.7816164E-02  0.1226708E+00
        -11   -1    0    0    0    0  0.00000000000E+00  0.00000000000E+00  0.45593999997E+02  0.45594000000E+02  0.51100000000E-03 0.  1.
         11   -1    0    0    0    0 -0.00000000000E+00 -0.00000000000E+00 -0.45593999997E+02  0.45594000000E+02  0.51100000000E-03 0. -1.
    9900012    2    1    2    0    0  0.13994949384E+02 -0.21249104682E+01 -0.12259930450E+02  0.72461554865E+02  0.69999979901E+02 0.  0.
        -12    1    1    2    0    0 -0.13994949384E+02  0.21249104682E+01  0.12259930450E+02  0.18726445135E+02  0.00000000000E+00 0.  1.
         11    1    3    3    0    0  0.10214096033E+02  0.10207077219E+02 -0.92245374678E+01  0.17134884735E+02  0.51100000000E-03 0. -1.
        -11    1    3    3    0    0  0.10673679068E+02 -0.14461627881E+02 -0.25801447548E+02  0.31444885143E+02  0.51100000000E-03 0.  1.
        -12    1    3    3    0    0 -0.68928257168E+01  0.21296401945E+01  0.22766054565E+02  0.23881784988E+02  0.00000000000E+00 0.  1.
</event>
<event>
 7    1  0.1891413E-013  0.7246158E+02  0.7816164E-02  0.1226708E+00
        -11   -1    0    0    0    0  0.00000000000E+00  0.00000000000E+00  0.45593999997E+02  0.45594000000E+02  0.51100000000E-03 0.  1.
         11   -1    0    0    0    0 -0.00000000000E+00 -0.00000000000E+00 -0.45593999997E+02  0.45594000000E+02  0.51100000000E-03 0. -1.
    9900012    2    1    2    0    0 -0.75368399952E+01  0.87189110043E+01 -0.14759932458E+02  0.72461575558E+02  0.70000006857E+02 0.  0.
        -12    1    1    2    0    0  0.75368399952E+01 -0.87189110043E+01  0.14759932458E+02  0.18726424442E+02  0.00000000000E+00 0.  1.
         11    1    3    3    0    0  0.12150818183E+02  0.18902371864E+02  0.32207762636E+01  0.22700560447E+02  0.51100000000E-03 0. -1.
        -11    1    3    3    0    0 -0.48211903971E+01  0.23728905618E+01  0.12495559838E+02  0.13601966857E+02  0.51100000000E-03 0.  1.
        -12    1    3    3    0    0 -0.14866467781E+02 -0.12556351422E+02 -0.30476268560E+02  0.36159048254E+02  0.00000000000E+00 0.  1.
</event>
<event>
 7    1  0.1891413E-013  0.7246157E+02  0.7816164E-02  0.1226708E+00
        -11   -1    0    0    0    0  0.00000000000E+00  0.00000000000E+00  0.45593999997E+02  0.45594000000E+02  0.51100000000E-03 0. -1.
         11   -1    0    0    0    0 -0.00000000000E+00 -0.00000000000E+00 -0.45593999997E+02  0.45594000000E+02  0.51100000000E-03 0.  1.
    9900012    2    1    2    0    0 -0.72668680092E+01  0.16811084889E+02 -0.39063117651E+01  0.72461569016E+02  0.69999998335E+02 0.  0.
        -12    1    1    2    0    0  0.72668680092E+01 -0.16811084889E+02  0.39063117651E+01  0.18726430984E+02  0.00000000000E+00 0.  1.
         11    1    3    3    0    0 -0.75488213681E+00  0.12533685391E+02  0.40460294047E+01  0.13192174602E+02  0.51100000000E-03 0. -1.
        -11    1    3    3    0    0  0.11391612362E+02 -0.21877026132E+02  0.47590237151E+01  0.25120139561E+02  0.51100000000E-03 0.  1.
         12    1    3    3    0    0 -0.17903598234E+02  0.26154425630E+02 -0.12711364885E+02  0.34149254853E+02  0.00000000000E+00 0. -1.
</event>
<event>
 7    1  0.1891413E-013  0.7246163E+02  0.7816164E-02  0.1226708E+00
        -11   -1    0    0    0    0  0.00000000000E+00  0.00000000000E+00  0.45593999997E+02  0.45594000000E+02  0.51100000000E-03 0.  1.
         11   -1    0    0    0    0 -0.00000000000E+00 -0.00000000000E+00 -0.45593999997E+02  0.45594000000E+02  0.51100000000E-03 0. -1.
    9900012    2    1    2    0    0  0.88052866834E+01 -0.19054392611E+01 -0.16416851545E+02  0.72461633908E+02  0.70000082869E+02 0.  0.
        -12    1    1    2    0    0 -0.88052866834E+01  0.19054392611E+01  0.16416851545E+02  0.18726366092E+02  0.00000000000E+00 0.  1.
         11    1    3    3    0    0  0.22279576660E+02 -0.11400400646E+02 -0.26677600360E+02  0.36579270527E+02  0.51100000000E-03 0. -1.
        -11    1    3    3    0    0 -0.74099493005E+01  0.60755219128E+01 -0.10363607056E+02  0.14114661407E+02  0.51100000000E-03 0.  1.
        -12    1    3    3    0    0 -0.60643406765E+01  0.34194394722E+01  0.20624355871E+02  0.21767701975E+02  0.00000000000E+00 0.  1.
</event>
<event>
 7    1  0.1891413E-013  0.7246137E+02  0.7816164E-02  0.1226709E+00
        -11   -1    0    0    0    0  0.00000000000E+00  0.00000000000E+00  0.45593999997E+02  0.45594000000E+02  0.51100000000E-03 0.  1.
         11   -1    0    0    0    0 -0.00000000000E+00 -0.00000000000E+00 -0.45593999997E+02  0.45594000000E+02  0.51100000000E-03 0. -1.
    9900012    2    1    2    0    0 -0.16684035529E+02 -0.54913241986E+01 -0.64942240346E+01  0.72461371131E+02  0.69999740552E+02 0.  0.
        -12    1    1    2    0    0  0.16684035529E+02  0.54913241986E+01  0.64942240346E+01  0.18726628869E+02  0.00000000000E+00 0.  1.
         11    1    3    3    0    0 -0.17454847011E+01  0.68511018915E+01 -0.10062044004E+02  0.12297521855E+02  0.51100000000E-03 0. -1.
        -11    1    3    3    0    0 -0.36273742902E+02 -0.23609728084E+01  0.42586424393E+01  0.36599107263E+02  0.51100000000E-03 0.  1.
         12    1    3    3    0    0  0.21335192074E+02 -0.99814532818E+01 -0.69082246995E+00  0.23564742013E+02  0.00000000000E+00 0. -1.
</event>
<event>
 7    1  0.1891413E-013  0.7246150E+02  0.7816164E-02  0.1226708E+00
        -11   -1    0    0    0    0  0.00000000000E+00  0.00000000000E+00  0.45593999997E+02  0.45594000000E+02  0.51100000000E-03 0.  1.
         11   -1    0    0    0    0 -0.00000000000E+00 -0.00000000000E+00 -0.45593999997E+02  0.45594000000E+02  0.51100000000E-03 0. -1.
    9900012    2    1    2    0    0  0.16218776543E+02  0.14618853840E+01 -0.92464021078E+01  0.72461500771E+02  0.69999909433E+02 0.  0.
        -12    1    1    2    0    0 -0.16218776543E+02 -0.14618853840E+01  0.92464021078E+01  0.18726499229E+02  0.00000000000E+00 0.  1.
         11    1    3    3    0    0  0.10854436214E+02  0.10867838222E+02  0.53014144471E+01  0.16249113469E+02  0.51100000000E-03 0. -1.
        -11    1    3    3    0    0 -0.13267598841E+02  0.15604584931E+02  0.25579036747E+01  0.20641587180E+02  0.51100000000E-03 0.  1.
        -12    1    3    3    0    0  0.18631939170E+02 -0.25010537769E+02 -0.17105720230E+02  0.35570800121E+02  0.00000000000E+00 0.  1.
</event>
<event>
 7    1  0.1891413E-013  0.7246155E+02  0.7816164E-02  0.1226708E+00
        -11   -1    0    0    0    0  0.00000000000E+00  0.00000000000E+00  0.45593999997E+02  0.45594000000E+02  0.51100000000E-03 0.  1.
         11   -1    0    0    0    0 -0.00000000000E+00 -0.00000000000E+00 -0.45593999997E+02  0.45594000000E+02  0.51100000000E-03 0. -1.
    9900012    2    1    2    0    0 -0.20899610936E+01  0.17780320434E+02 -0.54929128541E+01  0.72461552827E+02  0.69999977246E+02 0.  0.
        -12    1    1    2    0    0  0.20899610936E+01 -0.17780320434E+02  0.54929128541E+01  0.18726447173E+02  0.00000000000E+00 0.  1.
         11    1    3    3    0    0 -0.91924635670E+00 -0.47291461808E+01  0.60522861776E+01  0.77356322108E+01  0.51100000000E-03 0. -1.
        -11    1    3    3    0    0  0.14676618847E+02 -0.85596938298E+01  0.13572042568E+02  0.21745616546E+02  0.51100000000E-03 0.  1.
         12    1    3    3    0    0 -0.15847333583E+02  0.31069160444E+02 -0.25117241600E+02  0.42980304071E+02  0.00000000000E+00 0. -1.
</event>
<event>
 7    1  0.1891413E-013  0.7246156E+02  0.7816164E-02  0.1226708E+00
        -11   -1    0    0    0    0  0.00000000000E+00  0.00000000000E+00  0.45593999997E+02  0.45594000000E+02  0.51100000000E-03 0. -1.
         11   -1    0    0    0    0 -0.00000000000E+00 -0.00000000000E+00 -0.45593999997E+02  0.45594000000E+02  0.51100000000E-03 0.  1.
    9900012    2    1    2    0    0  0.13427618367E+02  0.13427290441E+01  0.12983670859E+02  0.72461559728E+02  0.69999986235E+02 0.  0.
        -12    1    1    2    0    0 -0.13427618367E+02 -0.13427290441E+01 -0.12983670859E+02  0.18726440272E+02  0.00000000000E+00 0.  1.
         11    1    3    3    0    0 -0.18414437893E+02 -0.12871540900E+02 -0.31091670773E+01  0.22681159764E+02  0.51100000000E-03 0.  1.
        -11    1    3    3    0    0 -0.53255276861E+01  0.45557635454E+01  0.78134256974E+01  0.10495991997E+02  0.51100000000E-03 0. -1.
        -12    1    3    3    0    0  0.37167583947E+02  0.96585063983E+01  0.82794122386E+01  0.39284407967E+02  0.00000000000E+00 0.  1.
</event>
<event>
 7    1  0.1891413E-013  0.7246157E+02  0.7816164E-02  0.1226708E+00
        -11   -1    0    0    0    0  0.00000000000E+00  0.00000000000E+00  0.45593999997E+02  0.45594000000E+02  0.51100000000E-03 0. -1.
         11   -1    0    0    0    0 -0.00000000000E+00 -0.00000000000E+00 -0.45593999997E+02  0.45594000000E+02  0.51100000000E-03 0.  1.
    9900012    2    1    2    0    0  0.59588593643E+01  0.14043349345E+02  0.10860729401E+02  0.72461571914E+02  0.70000002110E+02 0.  0.
        -12    1    1    2    0    0 -0.59588593643E+01 -0.14043349345E+02 -0.10860729401E+02  0.18726428086E+02  0.00000000000E+00 0.  1.
         11    1    3    3    0    0 -0.19487416541E-02  0.29231516156E+02 -0.89528213267E+01  0.30571793381E+02  0.51100000000E-03 0. -1.
        -11    1    3    3    0    0 -0.80970366224E+01  0.41308409697E+01 -0.22544424730E+01  0.93652741714E+01  0.51100000000E-03 0.  1.
        -12    1    3    3    0    0  0.14057844728E+02 -0.19319007781E+02  0.22067993200E+02  0.32524504361E+02  0.00000000000E+00 0.  1.
</event>
<event>
 7    1  0.1891413E-013  0.7246159E+02  0.7816164E-02  0.1226708E+00
        -11   -1    0    0    0    0  0.00000000000E+00  0.00000000000E+00  0.45593999997E+02  0.45594000000E+02  0.51100000000E-03 0.  1.
         11   -1    0    0    0    0 -0.00000000000E+00 -0.00000000000E+00 -0.45593999997E+02  0.45594000000E+02  0.51100000000E-03 0. -1.
    9900012    2    1    2    0    0  0.10176120193E+02 -0.13609482446E+02  0.78680892952E+01  0.72461594478E+02  0.70000031503E+02 0.  0.
        -12    1    1    2    0    0 -0.10176120193E+02  0.13609482446E+02 -0.78680892952E+01  0.18726405522E+02  0.00000000000E+00 0.  1.
         11    1    3    3    0    0 -0.17738625532E+02 -0.21670785474E+01  0.15017644713E+02  0.23342765864E+02  0.51100000000E-03 0. -1.
        -11    1    3    3    0    0 -0.16346452549E+01  0.19499306652E+00  0.11947816550E+02  0.12060696828E+02  0.51100000000E-03 0.  1.
         12    1    3    3    0    0  0.29549390980E+02 -0.11637396965E+02 -0.19097371968E+02  0.37058131786E+02  0.00000000000E+00 0. -1.
</event>
<event>
 7    1  0.1891413E-013  0.7246160E+02  0.7816164E-02  0.1226708E+00
        -11   -1    0    0    0    0  0.00000000000E+00  0.00000000000E+00  0.45593999997E+02  0.45594000000E+02  0.51100000000E-03 0. -1.
         11   -1    0    0    0    0 -0.00000000000E+00 -0.00000000000E+00 -0.45593999997E+02  0.45594000000E+02  0.51100000000E-03 0.  1.
    9900012    2    1    2    0    0  0.79461972202E+01  0.46967661170E+01  0.16293444481E+02  0.72461601647E+02  0.70000040843E+02 0.  0.
        -12    1    1    2    0    0 -0.79461972202E+01 -0.46967661170E+01 -0.16293444481E+02  0.18726398353E+02  0.00000000000E+00 0.  1.
         11    1    3    3    0    0 -0.42430142887E+01  0.76892735340E+01  0.30442967750E+02  0.31684418623E+02  0.51100000000E-03 0. -1.
        -11    1    3    3    0    0  0.45606259250E+00 -0.63386161423E+01  0.11068244380E+02  0.12762918224E+02  0.51100000000E-03 0.  1.
        -12    1    3    3    0    0  0.11733148916E+02  0.33461087253E+01 -0.25217767649E+02  0.28014264800E+02  0.00000000000E+00 0.  1.
</event>
<event>
 7    1  0.1891413E-013  0.7246148E+02  0.7816164E-02  0.1226708E+00
        -11   -1    0    0    0    0  0.00000000000E+00  0.00000000000E+00  0.45593999997E+02  0.45594000000E+02  0.51100000000E-03 0. -1.
         11   -1    0    0    0    0 -0.00000000000E+00 -0.00000000000E+00 -0.45593999997E+02  0.45594000000E+02  0.51100000000E-03 0.  1.
    9900012    2    1    2    0    0  0.17646531423E+02  0.18393819942E+00  0.62648621674E+01  0.72461483973E+02  0.69999887551E+02 0.  0.
        -12    1    1    2    0    0 -0.17646531423E+02 -0.18393819942E+00 -0.62648621674E+01  0.18726516027E+02  0.00000000000E+00 0.  1.
         11    1    3    3    0    0  0.40660447838E+01  0.73312445123E+01 -0.23564503080E+01  0.87081987000E+01  0.51100000000E-03 0. -1.
        -11    1    3    3    0    0 -0.74013746379E+01  0.13153782051E+02 -0.18519627990E+02  0.23890980514E+02  0.51100000000E-03 0.  1.
         12    1    3    3    0    0  0.20981861277E+02 -0.20301088364E+02  0.27140940465E+02  0.39862304759E+02  0.00000000000E+00 0. -1.
</event>
<event>
 7    1  0.1891413E-013  0.7246157E+02  0.7816164E-02  0.1226708E+00
        -11   -1    0    0    0    0  0.00000000000E+00  0.00000000000E+00  0.45593999997E+02  0.45594000000E+02  0.51100000000E-03 0.  1.
         11   -1    0    0    0    0 -0.00000000000E+00 -0.00000000000E+00 -0.45593999997E+02  0.45594000000E+02  0.51100000000E-03 0. -1.
    9900012    2    1    2    0    0  0.14326107244E+02  0.11576154547E+02 -0.33814988100E+01  0.72461568491E+02  0.69999997651E+02 0.  0.
        -12    1    1    2    0    0 -0.14326107244E+02 -0.11576154547E+02  0.33814988100E+01  0.18726431509E+02  0.00000000000E+00 0.  1.
         11    1    3    3    0    0  0.23269714800E+02  0.28703170228E+01  0.62071711625E+00  0.23454288236E+02  0.51100000000E-03 0. -1.
        -11    1    3    3    0    0  0.14505651013E+02 -0.80304221963E+01 -0.10298309964E+02  0.19518114160E+02  0.51100000000E-03 0.  1.
        -12    1    3    3    0    0 -0.23449258569E+02  0.16736259720E+02  0.62960940378E+01  0.29489166095E+02  0.00000000000E+00 0.  1.
</event>
<event>
 7    1  0.1891413E-013  0.7246169E+02  0.7816164E-02  0.1226708E+00
        -11   -1    0    0    0    0  0.00000000000E+00  0.00000000000E+00  0.45593999997E+02  0.45594000000E+02  0.51100000000E-03 0.  1.
         11   -1    0    0    0    0 -0.00000000000E+00 -0.00000000000E+00 -0.45593999997E+02  0.45594000000E+02  0.51100000000E-03 0. -1.
    9900012    2    1    2    0    0 -0.76587610642E+01  0.13861176273E+02 -0.99942993340E+01  0.72461685684E+02  0.70000150316E+02 0.  0.
        -12    1    1    2    0    0  0.76587610642E+01 -0.13861176273E+02  0.99942993340E+01  0.18726314316E+02  0.00000000000E+00 0.  1.
         11    1    3    3    0    0 -0.18207950644E+02  0.11865627125E+02 -0.54458259643E+01  0.22404901125E+02  0.51100000000E-03 0. -1.
        -11    1    3    3    0    0  0.70812517302E+01 -0.19246009507E+02 -0.15690086484E+02  0.25821150674E+02  0.51100000000E-03 0.  1.
         12    1    3    3    0    0  0.34679378493E+01  0.21241558654E+02  0.11141613115E+02  0.24235633885E+02  0.00000000000E+00 0. -1.
</event>
<event>
 7    1  0.1891413E-013  0.7246164E+02  0.7816164E-02  0.1226708E+00
        -11   -1    0    0    0    0  0.00000000000E+00  0.00000000000E+00  0.45593999997E+02  0.45594000000E+02  0.51100000000E-03 0. -1.
         11   -1    0    0    0    0 -0.00000000000E+00 -0.00000000000E+00 -0.45593999997E+02  0.45594000000E+02  0.51100000000E-03 0.  1.
    9900012    2    1    2    0    0 -0.14906637826E+02 -0.94177378279E+01  0.63067263087E+01  0.72461643339E+02  0.70000095154E+02 0.  0.
        -12    1    1    2    0    0  0.14906637826E+02  0.94177378279E+01 -0.63067263087E+01  0.18726356661E+02  0.00000000000E+00 0.  1.
         11    1    3    3    0    0  0.95218628448E+01 -0.44158397042E+01 -0.27194296933E+01  0.10842546308E+02  0.51100000000E-03 0. -1.
        -11    1    3    3    0    0 -0.68091219065E+01 -0.28954311408E+02 -0.22239063898E+01  0.29827203190E+02  0.51100000000E-03 0.  1.
         12    1    3    3    0    0 -0.17619378764E+02  0.23952413284E+02  0.11250062392E+02  0.31791893841E+02  0.00000000000E+00 0. -1.
</event>
<event>
 7    1  0.1891413E-013  0.7246156E+02  0.7816164E-02  0.1226708E+00
        -11   -1    0    0    0    0  0.00000000000E+00  0.00000000000E+00  0.45593999997E+02  0.45594000000E+02  0.51100000000E-03 0.  1.
         11   -1    0    0    0    0 -0.00000000000E+00 -0.00000000000E+00 -0.45593999997E+02  0.45594000000E+02  0.51100000000E-03 0. -1.
    9900012    2    1    2    0    0 -0.24355544085E+01  0.81453762940E+01 -0.16685337410E+02  0.72461559742E+02  0.69999986253E+02 0.  0.
        -12    1    1    2    0    0  0.24355544085E+01 -0.81453762940E+01  0.16685337410E+02  0.18726440258E+02  0.00000000000E+00 0.  1.
         11    1    3    3    0    0 -0.14565760086E+02 -0.21761265598E+02 -0.59995969425E+01  0.26864646117E+02  0.51100000000E-03 0. -1.
        -11    1    3    3    0    0  0.29907590187E+01 -0.58845491514E+01  0.13663394339E+01  0.67408784244E+01  0.51100000000E-03 0.  1.
        -12    1    3    3    0    0  0.91394466584E+01  0.35791191043E+02 -0.12052079902E+02  0.38856035200E+02  0.00000000000E+00 0.  1.
</event>
<event>
 7    1  0.1893479E-013  0.7246149E+02  0.7816164E-02  0.1226708E+00
        -11   -1    0    0    0    0  0.00000000000E+00  0.00000000000E+00  0.45593999997E+02  0.45594000000E+02  0.51100000000E-03 0. -1.
         11   -1    0    0    0    0 -0.00000000000E+00 -0.00000000000E+00 -0.45593999997E+02  0.45594000000E+02  0.51100000000E-03 0.  1.
    9900012    2    1    2    0    0  0.79331815799E+01  0.90140111398E-01  0.16962859163E+02  0.72461492418E+02  0.69999898552E+02 0.  0.
        -12    1    1    2    0    0 -0.79331815799E+01 -0.90140111398E-01 -0.16962859163E+02  0.18726507582E+02  0.00000000000E+00 0.  1.
         11    1    3    3    0    0 -0.32138539343E+01 -0.84064036049E+01  0.53126053248E+01  0.10450849452E+02  0.51100000000E-03 0. -1.
        -11    1    3    3    0    0  0.89709024720E+01 -0.18997225775E+02 -0.13262605281E+02  0.24844886343E+02  0.51100000000E-03 0.  1.
         12    1    3    3    0    0  0.21761330422E+01  0.27493769491E+02  0.24912859119E+02  0.37165756623E+02  0.00000000000E+00 0. -1.
</event>
<event>
 7    1  0.1891413E-013  0.7246157E+02  0.7816164E-02  0.1226708E+00
        -11   -1    0    0    0    0  0.00000000000E+00  0.00000000000E+00  0.45593999997E+02  0.45594000000E+02  0.51100000000E-03 0.  1.
         11   -1    0    0    0    0 -0.00000000000E+00 -0.00000000000E+00 -0.45593999997E+02  0.45594000000E+02  0.51100000000E-03 0. -1.
    9900012    2    1    2    0    0 -0.16360507970E+01  0.32054935871E+01 -0.18377360697E+02  0.72461568479E+02  0.69999997635E+02 0.  0.
        -12    1    1    2    0    0  0.16360507970E+01 -0.32054935871E+01  0.18377360697E+02  0.18726431521E+02  0.00000000000E+00 0.  1.
         11    1    3    3    0    0  0.15316389200E+02 -0.19143569131E+01 -0.23876132984E+01  0.15619130515E+02  0.51100000000E-03 0. -1.
        -11    1    3    3    0    0  0.13589924129E+02 -0.67274019721E+01 -0.18577729191E+02  0.23980742218E+02  0.51100000000E-03 0.  1.
        -12    1    3    3    0    0 -0.30542364126E+02  0.11847252472E+02  0.25879817929E+01  0.32861695746E+02  0.00000000000E+00 0.  1.
</event>
<event>
 7    1  0.1891413E-013  0.7246154E+02  0.7816164E-02  0.1226708E+00
        -11   -1    0    0    0    0  0.00000000000E+00  0.00000000000E+00  0.45593999997E+02  0.45594000000E+02  0.51100000000E-03 0.  1.
         11   -1    0    0    0    0 -0.00000000000E+00 -0.00000000000E+00 -0.45593999997E+02  0.45594000000E+02  0.51100000000E-03 0. -1.
    9900012    2    1    2    0    0 -0.11968839138E+02  0.11324743368E+02 -0.88981721173E+01  0.72461537716E+02  0.69999957560E+02 0.  0.
        -12    1    1    2    0    0  0.11968839138E+02 -0.11324743368E+02  0.88981721173E+01  0.18726462284E+02  0.00000000000E+00 0.  1.
         11    1    3    3    0    0  0.23933087811E+02 -0.88510864312E+01  0.41328703713E+00  0.25520682390E+02  0.51100000000E-03 0. -1.
        -11    1    3    3    0    0  0.10210684100E+01  0.16665123901E+01  0.32307702695E+01  0.37759397558E+01  0.51100000000E-03 0.  1.
        -12    1    3    3    0    0 -0.36922995359E+02  0.18509317409E+02 -0.12542229424E+02  0.43164915570E+02  0.00000000000E+00 0.  1.
</event>
<event>
 7    1  0.1891413E-013  0.7246200E+02  0.7816164E-02  0.1226707E+00
        -11   -1    0    0    0    0  0.00000000000E+00  0.00000000000E+00  0.45593999997E+02  0.45594000000E+02  0.51100000000E-03 0.  1.
         11   -1    0    0    0    0 -0.00000000000E+00 -0.00000000000E+00 -0.45593999997E+02  0.45594000000E+02  0.51100000000E-03 0. -1.
    9900012    2    1    2    0    0 -0.17637292943E+02 -0.16762592117E+01  0.60645798707E+01  0.72461999992E+02  0.70000559759E+02 0.  0.
        -12    1    1    2    0    0  0.17637292943E+02  0.16762592117E+01 -0.60645798707E+01  0.18726000008E+02  0.00000000000E+00 0.  1.
         11    1    3    3    0    0  0.19121491691E+01  0.72809180361E+01  0.66962298522E+01  0.10075096843E+02  0.51100000000E-03 0. -1.
        -11    1    3    3    0    0  0.10797445001E+02  0.18494862310E+02 -0.13605891689E+01  0.21459169452E+02  0.51100000000E-03 0.  1.
         12    1    3    3    0    0 -0.30346887113E+02 -0.27452039558E+02  0.72893918748E+00  0.40927733698E+02  0.00000000000E+00 0. -1.
</event>
<event>
 7    1  0.1891413E-013  0.7246162E+02  0.7816164E-02  0.1226708E+00
        -11   -1    0    0    0    0  0.00000000000E+00  0.00000000000E+00  0.45593999997E+02  0.45594000000E+02  0.51100000000E-03 0.  1.
         11   -1    0    0    0    0 -0.00000000000E+00 -0.00000000000E+00 -0.45593999997E+02  0.45594000000E+02  0.51100000000E-03 0. -1.
    9900012    2    1    2    0    0  0.82178952909E+01  0.16207725774E+02 -0.45225225012E+01  0.72461617874E+02  0.70000061981E+02 0.  0.
        -12    1    1    2    0    0 -0.82178952909E+01 -0.16207725774E+02  0.45225225012E+01  0.18726382126E+02  0.00000000000E+00 0.  1.
         11    1    3    3    0    0  0.67709312169E+01 -0.80235160634E+01  0.14050256665E+01  0.10592281008E+02  0.51100000000E-03 0. -1.
        -11    1    3    3    0    0  0.18978120718E+01  0.71834411815E+01  0.25256534578E+02  0.26326717551E+02  0.51100000000E-03 0.  1.
         12    1    3    3    0    0 -0.45084799784E+00  0.17047800656E+02 -0.31184082745E+02  0.35542619315E+02  0.00000000000E+00 0. -1.
</event>
<event>
 7    1  0.1891413E-013  0.7246169E+02  0.7816164E-02  0.1226708E+00
        -11   -1    0    0    0    0  0.00000000000E+00  0.00000000000E+00  0.45593999997E+02  0.45594000000E+02  0.51100000000E-03 0.  1.
         11   -1    0    0    0    0 -0.00000000000E+00 -0.00000000000E+00 -0.45593999997E+02  0.45594000000E+02  0.51100000000E-03 0. -1.
    9900012    2    1    2    0    0 -0.16163049196E+02 -0.66259810144E+01 -0.67473707867E+01  0.72461687062E+02  0.70000152112E+02 0.  0.
        -12    1    1    2    0    0  0.16163049196E+02  0.66259810144E+01  0.67473707867E+01  0.18726312938E+02  0.00000000000E+00 0.  1.
         11    1    3    3    0    0 -0.80602273005E+01  0.61049107418E+01  0.25369769044E+02  0.27310481155E+02  0.51100000000E-03 0. -1.
        -11    1    3    3    0    0 -0.82925695888E+01 -0.67494711017E+01  0.16843824704E+01  0.10824011045E+02  0.51100000000E-03 0.  1.
         12    1    3    3    0    0  0.18974769348E+00 -0.59814206545E+01 -0.33801522301E+02  0.34327194862E+02  0.00000000000E+00 0. -1.
</event>
<event>
 7    1  0.1891413E-013  0.7246156E+02  0.7816164E-02  0.1226708E+00
        -11   -1    0    0    0    0  0.00000000000E+00  0.00000000000E+00  0.45593999997E+02  0.45594000000E+02  0.51100000000E-03 0. -1.
         11   -1    0    0    0    0 -0.00000000000E+00 -0.00000000000E+00 -0.45593999997E+02  0.45594000000E+02  0.51100000000E-03 0.  1.
    9900012    2    1    2    0    0 -0.53729889182E+01 -0.15675459083E+02  0.87229820987E+01  0.72461562964E+02  0.69999990451E+02 0.  0.
        -12    1    1    2    0    0  0.53729889182E+01  0.15675459083E+02 -0.87229820987E+01  0.18726437036E+02  0.00000000000E+00 0.  1.
         11    1    3    3    0    0  0.20983801348E+01  0.12823708541E+02  0.48162638603E+01  0.13858105851E+02  0.51100000000E-03 0. -1.
        -11    1    3    3    0    0 -0.17948260529E+02  0.84480204832E+01 -0.11377526793E+01  0.19869665008E+02  0.51100000000E-03 0.  1.
        -12    1    3    3    0    0  0.10476891476E+02 -0.36947188107E+02  0.50444709176E+01  0.38733792105E+02  0.00000000000E+00 0.  1.
</event>
<event>
 7    1  0.1891413E-013  0.7246160E+02  0.7816164E-02  0.1226708E+00
        -11   -1    0    0    0    0  0.00000000000E+00  0.00000000000E+00  0.45593999997E+02  0.45594000000E+02  0.51100000000E-03 0. -1.
         11   -1    0    0    0    0 -0.00000000000E+00 -0.00000000000E+00 -0.45593999997E+02  0.45594000000E+02  0.51100000000E-03 0.  1.
    9900012    2    1    2    0    0 -0.14454707612E+02  0.97143923187E+01  0.68825910673E+01  0.72461600184E+02  0.70000038936E+02 0.  0.
        -12    1    1    2    0    0  0.14454707612E+02 -0.97143923187E+01 -0.68825910673E+01  0.18726399816E+02  0.00000000000E+00 0.  1.
         11    1    3    3    0    0  0.37696427360E+01 -0.13142788632E+02  0.88197009240E+01  0.16270532383E+02  0.51100000000E-03 0. -1.
        -11    1    3    3    0    0  0.14133546687E+02  0.17912839102E+02 -0.48541678027E+01  0.23327878000E+02  0.51100000000E-03 0.  1.
        -12    1    3    3    0    0 -0.32357897035E+02  0.49443418481E+01  0.29170579459E+01  0.32863189801E+02  0.00000000000E+00 0.  1.
</event>
<event>
 7    1  0.1891413E-013  0.7246156E+02  0.7816164E-02  0.1226708E+00
        -11   -1    0    0    0    0  0.00000000000E+00  0.00000000000E+00  0.45593999997E+02  0.45594000000E+02  0.51100000000E-03 0. -1.
         11   -1    0    0    0    0 -0.00000000000E+00 -0.00000000000E+00 -0.45593999997E+02  0.45594000000E+02  0.51100000000E-03 0.  1.
    9900012    2    1    2    0    0  0.14756689212E+02 -0.95615558798E+01 -0.64417763625E+01  0.72461555862E+02  0.69999981199E+02 0.  0.
        -12    1    1    2    0    0 -0.14756689212E+02  0.95615558798E+01  0.64417763625E+01  0.18726444138E+02  0.00000000000E+00 0.  1.
         11    1    3    3    0    0  0.13781669810E+02 -0.67062521841E+01  0.16354516553E+02  0.22413800505E+02  0.51100000000E-03 0. -1.
        -11    1    3    3    0    0  0.13298476835E+02 -0.18243313978E+02 -0.19952606207E+02  0.30129296138E+02  0.51100000000E-03 0.  1.
        -12    1    3    3    0    0 -0.12323457434E+02  0.15388010283E+02 -0.28436867081E+01  0.19918459219E+02  0.00000000000E+00 0.  1.
</event>
<event>
 7    1  0.1891413E-013  0.7246159E+02  0.7816164E-02  0.1226708E+00
        -11   -1    0    0    0    0  0.00000000000E+00  0.00000000000E+00  0.45593999997E+02  0.45594000000E+02  0.51100000000E-03 0. -1.
         11   -1    0    0    0    0 -0.00000000000E+00 -0.00000000000E+00 -0.45593999997E+02  0.45594000000E+02  0.51100000000E-03 0.  1.
    9900012    2    1    2    0    0 -0.15558956504E+02  0.86634443846E+01  0.57915588090E+01  0.72461586848E+02  0.70000021564E+02 0.  0.
        -12    1    1    2    0    0  0.15558956504E+02 -0.86634443846E+01 -0.57915588090E+01  0.18726413152E+02  0.00000000000E+00 0.  1.
         11    1    3    3    0    0  0.14206088809E+02  0.14740019228E+02 -0.38955756328E+01  0.20838825204E+02  0.51100000000E-03 0. -1.
        -11    1    3    3    0    0 -0.19508922966E+02  0.10836769148E+02 -0.93255935808E+01  0.24186780207E+02  0.51100000000E-03 0.  1.
        -12    1    3    3    0    0 -0.10256122347E+02 -0.16913343992E+02  0.19012728023E+02  0.27435981437E+02  0.00000000000E+00 0.  1.
</event>
<event>
 7    1  0.1891413E-013  0.7246159E+02  0.7816164E-02  0.1226708E+00
        -11   -1    0    0    0    0  0.00000000000E+00  0.00000000000E+00  0.45593999997E+02  0.45594000000E+02  0.51100000000E-03 0.  1.
         11   -1    0    0    0    0 -0.00000000000E+00 -0.00000000000E+00 -0.45593999997E+02  0.45594000000E+02  0.51100000000E-03 0. -1.
    9900012    2    1    2    0    0 -0.16254980387E+01 -0.78417443746E+01 -0.16927587556E+02  0.72461590329E+02  0.70000026098E+02 0.  0.
        -12    1    1    2    0    0  0.16254980387E+01  0.78417443746E+01  0.16927587556E+02  0.18726409671E+02  0.00000000000E+00 0.  1.
         11    1    3    3    0    0  0.13767531333E+02 -0.36566311490E+01 -0.69160695082E+01  0.15835020937E+02  0.51100000000E-03 0. -1.
        -11    1    3    3    0    0  0.15833071238E+02 -0.12007065483E+02  0.58856623328E+01  0.20724304276E+02  0.51100000000E-03 0.  1.
         12    1    3    3    0    0 -0.31226100610E+02  0.78219522578E+01 -0.15897180381E+02  0.35902265116E+02  0.00000000000E+00 0. -1.
</event>
<event>
 7    1  0.1891413E-013  0.7246156E+02  0.7816164E-02  0.1226708E+00
        -11   -1    0    0    0    0  0.00000000000E+00  0.00000000000E+00  0.45593999997E+02  0.45594000000E+02  0.51100000000E-03 0.  1.
         11   -1    0    0    0    0 -0.00000000000E+00 -0.00000000000E+00 -0.45593999997E+02  0.45594000000E+02  0.51100000000E-03 0. -1.
    9900012    2    1    2    0    0  0.16801502142E+02 -0.41919857761E+01 -0.71285660898E+01  0.72461556839E+02  0.69999982471E+02 0.  0.
        -12    1    1    2    0    0 -0.16801502142E+02  0.41919857761E+01  0.71285660898E+01  0.18726443161E+02  0.00000000000E+00 0.  1.
         11    1    3    3    0    0 -0.10087043989E+02 -0.18465392097E+02 -0.19742126468E+02  0.28852568681E+02  0.51100000000E-03 0. -1.
        -11    1    3    3    0    0 -0.55575206175E+01 -0.34303329279E+00  0.43754547070E+01  0.70815472468E+01  0.51100000000E-03 0.  1.
         12    1    3    3    0    0  0.32446066749E+02  0.14616439614E+02  0.82381056713E+01  0.36527440911E+02  0.00000000000E+00 0. -1.
</event>
<event>
 7    1  0.1891413E-013  0.7246141E+02  0.7816164E-02  0.1226708E+00
        -11   -1    0    0    0    0  0.00000000000E+00  0.00000000000E+00  0.45593999997E+02  0.45594000000E+02  0.51100000000E-03 0. -1.
         11   -1    0    0    0    0 -0.00000000000E+00 -0.00000000000E+00 -0.45593999997E+02  0.45594000000E+02  0.51100000000E-03 0.  1.
    9900012    2    1    2    0    0  0.12536206962E+02  0.86152287078E+01  0.10922745165E+02  0.72461414283E+02  0.69999796766E+02 0.  0.
        -12    1    1    2    0    0 -0.12536206962E+02 -0.86152287078E+01 -0.10922745165E+02  0.18726585717E+02  0.00000000000E+00 0.  1.
         11    1    3    3    0    0  0.14059092302E+02  0.30544745652E+02  0.24380586980E+02  0.41533752359E+02  0.51100000000E-03 0. -1.
        -11    1    3    3    0    0  0.12848972772E+01 -0.18689180678E+01 -0.10153567846E+02  0.10403785659E+02  0.51100000000E-03 0.  1.
        -12    1    3    3    0    0 -0.28077826173E+01 -0.20060598876E+02 -0.33042739685E+01  0.20523876265E+02  0.00000000000E+00 0.  1.
</event>
<event>
 7    1  0.1891413E-013  0.7246156E+02  0.7816164E-02  0.1226708E+00
        -11   -1    0    0    0    0  0.00000000000E+00  0.00000000000E+00  0.45593999997E+02  0.45594000000E+02  0.51100000000E-03 0. -1.
         11   -1    0    0    0    0 -0.00000000000E+00 -0.00000000000E+00 -0.45593999997E+02  0.45594000000E+02  0.51100000000E-03 0.  1.
    9900012    2    1    2    0    0 -0.12276670143E+01 -0.11574927876E+01  0.18650267250E+02  0.72461563491E+02  0.69999991137E+02 0.  0.
        -12    1    1    2    0    0  0.12276670143E+01  0.11574927876E+01 -0.18650267250E+02  0.18726436509E+02  0.00000000000E+00 0.  1.
         11    1    3    3    0    0  0.25025795522E+02  0.62363299155E+01 -0.14410356617E+02  0.29543876361E+02  0.51100000000E-03 0.  1.
        -11    1    3    3    0    0 -0.71226001231E+01 -0.16240533363E+01  0.74508260915E+01  0.10434739645E+02  0.51100000000E-03 0. -1.
        -12    1    3    3    0    0 -0.19130862414E+02 -0.57697693668E+01  0.25609797775E+02  0.32482947485E+02  0.00000000000E+00 0.  1.
</event>
<event>
 7    1  0.1891413E-013  0.7246160E+02  0.7816164E-02  0.1226708E+00
        -11   -1    0    0    0    0  0.00000000000E+00  0.00000000000E+00  0.45593999997E+02  0.45594000000E+02  0.51100000000E-03 0.  1.
         11   -1    0    0    0    0 -0.00000000000E+00 -0.00000000000E+00 -0.45593999997E+02  0.45594000000E+02  0.51100000000E-03 0. -1.
    9900012    2    1    2    0    0  0.93052797558E+01 -0.14678785580E+01 -0.16184409026E+02  0.72461601673E+02  0.70000040876E+02 0.  0.
        -12    1    1    2    0    0 -0.93052797558E+01  0.14678785580E+01  0.16184409026E+02  0.18726398327E+02  0.00000000000E+00 0.  1.
         11    1    3    3    0    0  0.23752674873E+00  0.17731635462E+02 -0.72248847332E+01  0.19148531922E+02  0.51100000000E-03 0. -1.
        -11    1    3    3    0    0  0.33773840628E+01 -0.51625962978E+00 -0.26706216771E+02  0.26923879022E+02  0.51100000000E-03 0.  1.
        -12    1    3    3    0    0  0.56903689443E+01 -0.18683254390E+02  0.17746692479E+02  0.26389190728E+02  0.00000000000E+00 0.  1.
</event>
<event>
 7    1  0.1891413E-013  0.7246157E+02  0.7816164E-02  0.1226708E+00
        -11   -1    0    0    0    0  0.00000000000E+00  0.00000000000E+00  0.45593999997E+02  0.45594000000E+02  0.51100000000E-03 0.  1.
         11   -1    0    0    0    0 -0.00000000000E+00 -0.00000000000E+00 -0.45593999997E+02  0.45594000000E+02  0.51100000000E-03 0. -1.
    9900012    2    1    2    0    0 -0.81621897033E-01  0.18700385787E+02 -0.98392890631E+00  0.72461569299E+02  0.69999998703E+02 0.  0.
        -12    1    1    2    0    0  0.81621897033E-01 -0.18700385787E+02  0.98392890631E+00  0.18726430701E+02  0.00000000000E+00 0.  1.
         11    1    3    3    0    0  0.11322316714E+02  0.15725158233E+02 -0.54865289316E+01  0.20138953727E+02  0.51100000000E-03 0. -1.
        -11    1    3    3    0    0 -0.93879216774E+01  0.25642387423E+02  0.97026503249E+01  0.28979415622E+02  0.51100000000E-03 0.  1.
        -12    1    3    3    0    0 -0.20160169339E+01 -0.22667159869E+02 -0.52000502997E+01  0.23343199950E+02  0.00000000000E+00 0.  1.
</event>
<event>
 7    1  0.1891413E-013  0.7246155E+02  0.7816164E-02  0.1226708E+00
        -11   -1    0    0    0    0  0.00000000000E+00  0.00000000000E+00  0.45593999997E+02  0.45594000000E+02  0.51100000000E-03 0. -1.
         11   -1    0    0    0    0 -0.00000000000E+00 -0.00000000000E+00 -0.45593999997E+02  0.45594000000E+02  0.51100000000E-03 0.  1.
    9900012    2    1    2    0    0  0.60905097315E+01 -0.13301170577E+02  0.11690356219E+02  0.72461551431E+02  0.69999975426E+02 0.  0.
        -12    1    1    2    0    0 -0.60905097315E+01  0.13301170577E+02 -0.11690356219E+02  0.18726448569E+02  0.00000000000E+00 0.  1.
         11    1    3    3    0    0 -0.23194240310E+01  0.25630972971E+01  0.39293542116E+01  0.52334520511E+01  0.51100000000E-03 0. -1.
        -11    1    3    3    0    0 -0.18390114569E+02 -0.16257391039E+02 -0.17698218110E+02  0.30260964985E+02  0.51100000000E-03 0.  1.
         12    1    3    3    0    0  0.26800048331E+02  0.39312316501E+00  0.25459220117E+02  0.36967134395E+02  0.00000000000E+00 0. -1.
</event>
<event>
 7    1  0.1891413E-013  0.7246160E+02  0.7816164E-02  0.1226708E+00
        -11   -1    0    0    0    0  0.00000000000E+00  0.00000000000E+00  0.45593999997E+02  0.45594000000E+02  0.51100000000E-03 0.  1.
         11   -1    0    0    0    0 -0.00000000000E+00 -0.00000000000E+00 -0.45593999997E+02  0.45594000000E+02  0.51100000000E-03 0. -1.
    9900012    2    1    2    0    0 -0.10999819181E+02  0.11867719946E+02 -0.94254657462E+01  0.72461596093E+02  0.70000033608E+02 0.  0.
        -12    1    1    2    0    0  0.10999819181E+02 -0.11867719946E+02  0.94254657462E+01  0.18726403907E+02  0.00000000000E+00 0.  1.
         11    1    3    3    0    0  0.82551697078E+01  0.17912348228E+02  0.12614515436E+02  0.23412091873E+02  0.51100000000E-03 0. -1.
        -11    1    3    3    0    0 -0.12913678954E+02  0.70423213356E+01  0.72120703707E+01  0.16382043621E+02  0.51100000000E-03 0.  1.
        -12    1    3    3    0    0 -0.63413099354E+01 -0.13086949617E+02 -0.29252051553E+02  0.32667460599E+02  0.00000000000E+00 0.  1.
</event>
<event>
 7    1  0.1891413E-013  0.7246149E+02  0.7816164E-02  0.1226708E+00
        -11   -1    0    0    0    0  0.00000000000E+00  0.00000000000E+00  0.45593999997E+02  0.45594000000E+02  0.51100000000E-03 0. -1.
         11   -1    0    0    0    0 -0.00000000000E+00 -0.00000000000E+00 -0.45593999997E+02  0.45594000000E+02  0.51100000000E-03 0.  1.
    9900012    2    1    2    0    0  0.71412257775E+01  0.14749037591E+02  0.90637200492E+01  0.72461488403E+02  0.69999893321E+02 0.  0.
        -12    1    1    2    0    0 -0.71412257775E+01 -0.14749037591E+02 -0.90637200492E+01  0.18726511597E+02  0.00000000000E+00 0.  1.
         11    1    3    3    0    0 -0.77112562872E+01  0.16496939971E+02  0.67779840414E+01  0.19430737759E+02  0.51100000000E-03 0. -1.
        -11    1    3    3    0    0  0.16412039177E+02  0.13605331308E+02 -0.17750327173E+02  0.27740479177E+02  0.51100000000E-03 0.  1.
         12    1    3    3    0    0 -0.15595571125E+01 -0.15353233688E+02  0.20036063181E+02  0.25290271467E+02  0.00000000000E+00 0. -1.
</event>
<event>
 7    1  0.1891413E-013  0.7246096E+02  0.7816164E-02  0.1226710E+00
        -11   -1    0    0    0    0  0.00000000000E+00  0.00000000000E+00  0.45593999997E+02  0.45594000000E+02  0.51100000000E-03 0.  1.
         11   -1    0    0    0    0 -0.00000000000E+00 -0.00000000000E+00 -0.45593999997E+02  0.45594000000E+02  0.51100000000E-03 0. -1.
    9900012    2    1    2    0    0  0.13821297406E+01  0.51454014150E+01 -0.17953182015E+02  0.72460955845E+02  0.69999199561E+02 0.  0.
        -12    1    1    2    0    0 -0.13821297406E+01 -0.51454014150E+01  0.17953182015E+02  0.18727044155E+02  0.00000000000E+00 0.  1.
         11    1    3    3    0    0  0.10904181321E+02  0.15178386539E+02 -0.14092128824E+02  0.23406680312E+02  0.51100000000E-03 0. -1.
        -11    1    3    3    0    0 -0.84280377014E+01  0.13430024535E+02  0.12699776203E+02  0.20314568525E+02  0.51100000000E-03 0.  1.
         12    1    3    3    0    0 -0.10940138791E+01 -0.23463009659E+02 -0.16560829394E+02  0.28739707007E+02  0.00000000000E+00 0. -1.
</event>
<event>
 7    1  0.1891413E-013  0.7246187E+02  0.7816164E-02  0.1226707E+00
        -11   -1    0    0    0    0  0.00000000000E+00  0.00000000000E+00  0.45593999997E+02  0.45594000000E+02  0.51100000000E-03 0.  1.
         11   -1    0    0    0    0 -0.00000000000E+00 -0.00000000000E+00 -0.45593999997E+02  0.45594000000E+02  0.51100000000E-03 0. -1.
    9900012    2    1    2    0    0  0.52348569754E+01 -0.14640540569E+02 -0.10436407647E+02  0.72461874926E+02  0.70000396838E+02 0.  0.
        -12    1    1    2    0    0 -0.52348569754E+01  0.14640540569E+02  0.10436407647E+02  0.18726125074E+02  0.00000000000E+00 0.  1.
         11    1    3    3    0    0 -0.26729151918E+02  0.10148366522E+01 -0.69869377393E+01  0.27645881337E+02  0.51100000000E-03 0. -1.
        -11    1    3    3    0    0 -0.47867176666E+01 -0.15597170618E+01 -0.20327445518E+01  0.54293124801E+01  0.51100000000E-03 0.  1.
        -12    1    3    3    0    0  0.36750726560E+02 -0.14095660160E+02 -0.14167253555E+01  0.39386681109E+02  0.00000000000E+00 0.  1.
</event>
<event>
 7    1  0.1891413E-013  0.7246156E+02  0.7816164E-02  0.1226708E+00
        -11   -1    0    0    0    0  0.00000000000E+00  0.00000000000E+00  0.45593999997E+02  0.45594000000E+02  0.51100000000E-03 0.  1.
         11   -1    0    0    0    0 -0.00000000000E+00 -0.00000000000E+00 -0.45593999997E+02  0.45594000000E+02  0.51100000000E-03 0. -1.
    9900012    2    1    2    0    0  0.10907974947E+02  0.28971441621E+01 -0.14943299845E+02  0.72461559548E+02  0.69999986001E+02 0.  0.
        -12    1    1    2    0    0 -0.10907974947E+02 -0.28971441621E+01  0.14943299845E+02  0.18726440452E+02  0.00000000000E+00 0.  1.
         11    1    3    3    0    0 -0.12976456683E+02  0.43445744534E+01 -0.15618238445E+02  0.20765190286E+02  0.51100000000E-03 0.  1.
        -11    1    3    3    0    0  0.15710071479E+02 -0.17386722352E+00  0.23019224421E+02  0.27869719569E+02  0.51100000000E-03 0. -1.
         12    1    3    3    0    0  0.81743601510E+01 -0.12735630678E+01 -0.22344285821E+02  0.23826649693E+02  0.00000000000E+00 0. -1.
</event>
<event>
 7    1  0.1891413E-013  0.7246157E+02  0.7816164E-02  0.1226708E+00
        -11   -1    0    0    0    0  0.00000000000E+00  0.00000000000E+00  0.45593999997E+02  0.45594000000E+02  0.51100000000E-03 0.  1.
         11   -1    0    0    0    0 -0.00000000000E+00 -0.00000000000E+00 -0.45593999997E+02  0.45594000000E+02  0.51100000000E-03 0. -1.
    9900012    2    1    2    0    0 -0.10032465813E+01  0.15941187917E+02  0.97750368576E+01  0.72461566238E+02  0.69999994715E+02 0.  0.
        -12    1    1    2    0    0  0.10032465813E+01 -0.15941187917E+02 -0.97750368576E+01  0.18726433762E+02  0.00000000000E+00 0.  1.
         11    1    3    3    0    0 -0.71794782222E+01 -0.23347746953E+00 -0.10381105604E+02  0.12624055334E+02  0.51100000000E-03 0. -1.
        -11    1    3    3    0    0 -0.70864845580E+01  0.27586081057E+02 -0.52778995196E+01  0.28966642109E+02  0.51100000000E-03 0.  1.
         12    1    3    3    0    0  0.13262716199E+02 -0.11411415671E+02  0.25434041981E+02  0.30870868794E+02  0.00000000000E+00 0. -1.
</event>
<event>
 7    1  0.1891413E-013  0.7246164E+02  0.7816164E-02  0.1226708E+00
        -11   -1    0    0    0    0  0.00000000000E+00  0.00000000000E+00  0.45593999997E+02  0.45594000000E+02  0.51100000000E-03 0. -1.
         11   -1    0    0    0    0 -0.00000000000E+00 -0.00000000000E+00 -0.45593999997E+02  0.45594000000E+02  0.51100000000E-03 0.  1.
    9900012    2    1    2    0    0  0.13058224889E+01 -0.18663533156E+02  0.80244524406E+00  0.72461639953E+02  0.70000090743E+02 0.  0.
        -12    1    1    2    0    0 -0.13058224889E+01  0.18663533156E+02 -0.80244524406E+00  0.18726360047E+02  0.00000000000E+00 0.  1.
         11    1    3    3    0    0 -0.89432497300E-01 -0.19767232828E+02 -0.14363679765E+00  0.19767956992E+02  0.51100000000E-03 0. -1.
        -11    1    3    3    0    0 -0.90057492011E+01 -0.12955134000E+02 -0.19956568321E+02  0.25440197229E+02  0.51100000000E-03 0.  1.
         12    1    3    3    0    0  0.10401004187E+02  0.14058833672E+02  0.20902650363E+02  0.27253485732E+02  0.00000000000E+00 0. -1.
</event>
<event>
 7    1  0.1891413E-013  0.7246158E+02  0.7816164E-02  0.1226708E+00
        -11   -1    0    0    0    0  0.00000000000E+00  0.00000000000E+00  0.45593999997E+02  0.45594000000E+02  0.51100000000E-03 0.  1.
         11   -1    0    0    0    0 -0.00000000000E+00 -0.00000000000E+00 -0.45593999997E+02  0.45594000000E+02  0.51100000000E-03 0. -1.
    9900012    2    1    2    0    0  0.11855894936E+02 -0.13591543229E+02  0.50384977812E+01  0.72461581443E+02  0.70000014524E+02 0.  0.
        -12    1    1    2    0    0 -0.11855894936E+02  0.13591543229E+02 -0.50384977812E+01  0.18726418557E+02  0.00000000000E+00 0.  1.
         11    1    3    3    0    0  0.68195523047E+01  0.94809555164E+01  0.38467822092E+00  0.11685152491E+02  0.51100000000E-03 0.  1.
        -11    1    3    3    0    0 -0.11007058031E+02  0.40916061315E+01 -0.18312544813E+02  0.21754214880E+02  0.51100000000E-03 0. -1.
        -12    1    3    3    0    0  0.16043400663E+02 -0.27164104877E+02  0.22966364373E+02  0.39022214072E+02  0.00000000000E+00 0.  1.
</event>
<event>
 7    1  0.1891413E-013  0.7246155E+02  0.7816164E-02  0.1226708E+00
        -11   -1    0    0    0    0  0.00000000000E+00  0.00000000000E+00  0.45593999997E+02  0.45594000000E+02  0.51100000000E-03 0. -1.
         11   -1    0    0    0    0 -0.00000000000E+00 -0.00000000000E+00 -0.45593999997E+02  0.45594000000E+02  0.51100000000E-03 0.  1.
    9900012    2    1    2    0    0 -0.12080400831E+02 -0.34273529841E+01  0.13892336107E+02  0.72461552520E+02  0.69999976845E+02 0.  0.
        -12    1    1    2    0    0  0.12080400831E+02  0.34273529841E+01 -0.13892336107E+02  0.18726447480E+02  0.00000000000E+00 0.  1.
         11    1    3    3    0    0  0.57771646366E+01  0.75861044833E+01  0.14784450842E+02  0.17592742805E+02  0.51100000000E-03 0. -1.
        -11    1    3    3    0    0 -0.15263483889E+01 -0.14777552955E+02  0.21970216711E+02  0.26521618227E+02  0.51100000000E-03 0.  1.
         12    1    3    3    0    0 -0.16331217079E+02  0.37640954881E+01 -0.22862331446E+02  0.28347191488E+02  0.00000000000E+00 0. -1.
</event>
<event>
 7    1  0.2140976E-013  0.7246159E+02  0.7816164E-02  0.1226708E+00
        -11   -1    0    0    0    0  0.00000000000E+00  0.00000000000E+00  0.45593999997E+02  0.45594000000E+02  0.51100000000E-03 0. -1.
         11   -1    0    0    0    0 -0.00000000000E+00 -0.00000000000E+00 -0.45593999997E+02  0.45594000000E+02  0.51100000000E-03 0.  1.
    9900012    2    1    2    0    0  0.29424541446E+01  0.11485285011E+01  0.18458098914E+02  0.72461586312E+02  0.70000020866E+02 0.  0.
        -12    1    1    2    0    0 -0.29424541446E+01 -0.11485285011E+01 -0.18458098914E+02  0.18726413688E+02  0.00000000000E+00 0.  1.
         11    1    3    3    0    0  0.27925015483E+00 -0.11212573497E+02  0.26455923545E+02  0.28735268851E+02  0.51100000000E-03 0. -1.
        -11    1    3    3    0    0 -0.97848708614E+01 -0.10269232679E+02 -0.10685317365E+02  0.17758852582E+02  0.51100000000E-03 0.  1.
         12    1    3    3    0    0  0.12448074851E+02  0.22630334676E+02  0.26874927339E+01  0.25967464879E+02  0.00000000000E+00 0. -1.
</event>
<event>
 7    1  0.1891413E-013  0.7246159E+02  0.7816164E-02  0.1226708E+00
        -11   -1    0    0    0    0  0.00000000000E+00  0.00000000000E+00  0.45593999997E+02  0.45594000000E+02  0.51100000000E-03 0. -1.
         11   -1    0    0    0    0 -0.00000000000E+00 -0.00000000000E+00 -0.45593999997E+02  0.45594000000E+02  0.51100000000E-03 0.  1.
    9900012    2    1    2    0    0 -0.27967984505E+00 -0.52446697157E+01  0.17974807683E+02  0.72461588371E+02  0.70000023548E+02 0.  0.
        -12    1    1    2    0    0  0.27967984505E+00  0.52446697157E+01 -0.17974807683E+02  0.18726411629E+02  0.00000000000E+00 0.  1.
         11    1    3    3    0    0  0.10964922960E+02  0.73307918528E+01  0.13186506408E+02  0.18650844384E+02  0.51100000000E-03 0. -1.
        -11    1    3    3    0    0 -0.28957759350E+01 -0.31321655229E+02 -0.35606389250E+01  0.31656117172E+02  0.51100000000E-03 0.  1.
         12    1    3    3    0    0 -0.83488268701E+01  0.18746193661E+02  0.83489402000E+01  0.22154626816E+02  0.00000000000E+00 0. -1.
</event>
<event>
 7    1  0.1891413E-013  0.7246151E+02  0.7816164E-02  0.1226708E+00
        -11   -1    0    0    0    0  0.00000000000E+00  0.00000000000E+00  0.45593999997E+02  0.45594000000E+02  0.51100000000E-03 0.  1.
         11   -1    0    0    0    0 -0.00000000000E+00 -0.00000000000E+00 -0.45593999997E+02  0.45594000000E+02  0.51100000000E-03 0. -1.
    9900012    2    1    2    0    0 -0.16826496212E+02  0.81268881942E+01  0.12264079787E+01  0.72461511727E+02  0.69999923705E+02 0.  0.
        -12    1    1    2    0    0  0.16826496212E+02 -0.81268881942E+01 -0.12264079787E+01  0.18726488273E+02  0.00000000000E+00 0.  1.
         11    1    3    3    0    0 -0.30924400266E+01  0.40149904789E+01 -0.16469163766E+02  0.17231270681E+02  0.51100000000E-03 0. -1.
        -11    1    3    3    0    0  0.91577878037E+01  0.21133391729E+02  0.32687713677E+01  0.23263064930E+02  0.51100000000E-03 0.  1.
        -12    1    3    3    0    0 -0.22891843989E+02 -0.17021494014E+02  0.14426800377E+02  0.31967176116E+02  0.00000000000E+00 0.  1.
</event>
<event>
 7    1  0.1891413E-013  0.7246158E+02  0.7816164E-02  0.1226708E+00
        -11   -1    0    0    0    0  0.00000000000E+00  0.00000000000E+00  0.45593999997E+02  0.45594000000E+02  0.51100000000E-03 0.  1.
         11   -1    0    0    0    0 -0.00000000000E+00 -0.00000000000E+00 -0.45593999997E+02  0.45594000000E+02  0.51100000000E-03 0. -1.
    9900012    2    1    2    0    0  0.13307841758E+02 -0.92919219183E+01 -0.93402481103E+01  0.72461582832E+02  0.70000016332E+02 0.  0.
        -12    1    1    2    0    0 -0.13307841758E+02  0.92919219183E+01  0.93402481103E+01  0.18726417168E+02  0.00000000000E+00 0.  1.
         11    1    3    3    0    0 -0.76236056715E+01 -0.52624523053E+00  0.91131940404E+01  0.11893132613E+02  0.51100000000E-03 0. -1.
        -11    1    3    3    0    0  0.63382050681E+00 -0.64438606436E+01  0.17807563382E+02  0.18948202614E+02  0.51100000000E-03 0.  1.
         12    1    3    3    0    0  0.20297626923E+02 -0.23218160441E+01 -0.36261005533E+02  0.41620247605E+02  0.00000000000E+00 0. -1.
</event>
<event>
 7    1  0.1891413E-013  0.7246156E+02  0.7816164E-02  0.1226708E+00
        -11   -1    0    0    0    0  0.00000000000E+00  0.00000000000E+00  0.45593999997E+02  0.45594000000E+02  0.51100000000E-03 0.  1.
         11   -1    0    0    0    0 -0.00000000000E+00 -0.00000000000E+00 -0.45593999997E+02  0.45594000000E+02  0.51100000000E-03 0. -1.
    9900012    2    1    2    0    0 -0.18706396592E+02 -0.54583047266E+00 -0.67259546410E+00  0.72461559094E+02  0.69999985409E+02 0.  0.
        -12    1    1    2    0    0  0.18706396592E+02  0.54583047266E+00  0.67259546410E+00  0.18726440906E+02  0.00000000000E+00 0.  1.
         11    1    3    3    0    0 -0.17802004098E+02  0.21135523748E+01 -0.49980500640E+01  0.18610721594E+02  0.51100000000E-03 0. -1.
        -11    1    3    3    0    0 -0.17335979623E+01  0.18183310262E+02  0.20498774614E+02  0.27456108517E+02  0.51100000000E-03 0.  1.
         12    1    3    3    0    0  0.82920546899E+00 -0.20842693109E+02 -0.16173320014E+02  0.26394728982E+02  0.00000000000E+00 0. -1.
</event>
<event>
 7    1  0.1891413E-013  0.7246154E+02  0.7816164E-02  0.1226708E+00
        -11   -1    0    0    0    0  0.00000000000E+00  0.00000000000E+00  0.45593999997E+02  0.45594000000E+02  0.51100000000E-03 0. -1.
         11   -1    0    0    0    0 -0.00000000000E+00 -0.00000000000E+00 -0.45593999997E+02  0.45594000000E+02  0.51100000000E-03 0.  1.
    9900012    2    1    2    0    0  0.14959035622E+02 -0.89227909164E+01 -0.68768791434E+01  0.72461537140E+02  0.69999956811E+02 0.  0.
        -12    1    1    2    0    0 -0.14959035622E+02  0.89227909164E+01  0.68768791434E+01  0.18726462860E+02  0.00000000000E+00 0.  1.
         11    1    3    3    0    0 -0.90693783830E+01 -0.82069605896E+01  0.18007627433E+02  0.21768841779E+02  0.51100000000E-03 0. -1.
        -11    1    3    3    0    0  0.10909687695E+02 -0.27662002059E+01  0.89283302415E+01  0.14366218373E+02  0.51100000000E-03 0.  1.
        -12    1    3    3    0    0  0.13118726310E+02  0.20503698791E+01 -0.33812836818E+02  0.36326476988E+02  0.00000000000E+00 0.  1.
</event>
<event>
 7    1  0.1891413E-013  0.7246168E+02  0.7816164E-02  0.1226708E+00
        -11   -1    0    0    0    0  0.00000000000E+00  0.00000000000E+00  0.45593999997E+02  0.45594000000E+02  0.51100000000E-03 0.  1.
         11   -1    0    0    0    0 -0.00000000000E+00 -0.00000000000E+00 -0.45593999997E+02  0.45594000000E+02  0.51100000000E-03 0. -1.
    9900012    2    1    2    0    0 -0.13424171301E+02 -0.12945037282E+02 -0.17007735926E+01  0.72461681724E+02  0.70000145158E+02 0.  0.
        -12    1    1    2    0    0  0.13424171301E+02  0.12945037282E+02  0.17007735926E+01  0.18726318276E+02  0.00000000000E+00 0.  1.
         11    1    3    3    0    0 -0.26258870733E+02 -0.15615767494E+02 -0.19639945865E+02  0.36319525884E+02  0.51100000000E-03 0. -1.
        -11    1    3    3    0    0  0.58052280842E+01 -0.12890809948E+02  0.99632337025E+01  0.17295654954E+02  0.51100000000E-03 0.  1.
        -12    1    3    3    0    0  0.70294713479E+01  0.15561540159E+02  0.79759385704E+01  0.18846500886E+02  0.00000000000E+00 0.  1.
</event>
<event>
 7    1  0.1891413E-013  0.7246156E+02  0.7816164E-02  0.1226708E+00
        -11   -1    0    0    0    0  0.00000000000E+00  0.00000000000E+00  0.45593999997E+02  0.45594000000E+02  0.51100000000E-03 0.  1.
         11   -1    0    0    0    0 -0.00000000000E+00 -0.00000000000E+00 -0.45593999997E+02  0.45594000000E+02  0.51100000000E-03 0. -1.
    9900012    2    1    2    0    0  0.18574382770E+02 -0.44172616023E+00 -0.23402352503E+01  0.72461560982E+02  0.69999987868E+02 0.  0.
        -12    1    1    2    0    0 -0.18574382770E+02  0.44172616023E+00  0.23402352503E+01  0.18726439018E+02  0.00000000000E+00 0.  1.
         11    1    3    3    0    0  0.48681978617E+01  0.93012096151E+01 -0.81587998302E+01  0.13295783755E+02  0.51100000000E-03 0. -1.
        -11    1    3    3    0    0  0.15845958074E+02  0.11170492324E+02  0.24361031260E+02  0.31134131277E+02  0.51100000000E-03 0.  1.
         12    1    3    3    0    0 -0.21397731659E+01 -0.20913428099E+02 -0.18542466680E+02  0.28031645950E+02  0.00000000000E+00 0. -1.
</event>
<event>
 7    1  0.1891413E-013  0.7246154E+02  0.7816164E-02  0.1226708E+00
        -11   -1    0    0    0    0  0.00000000000E+00  0.00000000000E+00  0.45593999997E+02  0.45594000000E+02  0.51100000000E-03 0.  1.
         11   -1    0    0    0    0 -0.00000000000E+00 -0.00000000000E+00 -0.45593999997E+02  0.45594000000E+02  0.51100000000E-03 0. -1.
    9900012    2    1    2    0    0 -0.97619385003E+01 -0.10827776196E+02  0.11753476366E+02  0.72461537779E+02  0.69999957642E+02 0.  0.
        -12    1    1    2    0    0  0.97619385003E+01  0.10827776196E+02 -0.11753476366E+02  0.18726462221E+02  0.00000000000E+00 0.  1.
         11    1    3    3    0    0  0.67819427351E+01  0.15569160780E+02 -0.13548104315E+02  0.21724286995E+02  0.51100000000E-03 0. -1.
        -11    1    3    3    0    0 -0.15374275316E+02  0.20170470050E+01  0.79759910338E+01  0.17437122852E+02  0.51100000000E-03 0.  1.
        -12    1    3    3    0    0 -0.11696059192E+01 -0.28413983981E+02  0.17325589647E+02  0.33300127932E+02  0.00000000000E+00 0.  1.
</event>
<event>
 7    1  0.1891413E-013  0.7246171E+02  0.7816164E-02  0.1226708E+00
        -11   -1    0    0    0    0  0.00000000000E+00  0.00000000000E+00  0.45593999997E+02  0.45594000000E+02  0.51100000000E-03 0. -1.
         11   -1    0    0    0    0 -0.00000000000E+00 -0.00000000000E+00 -0.45593999997E+02  0.45594000000E+02  0.51100000000E-03 0.  1.
    9900012    2    1    2    0    0 -0.12179766046E+02 -0.13890268291E+02  0.30639433083E+01  0.72461708250E+02  0.70000179712E+02 0.  0.
        -12    1    1    2    0    0  0.12179766046E+02  0.13890268291E+02 -0.30639433083E+01  0.18726291750E+02  0.00000000000E+00 0.  1.
         11    1    3    3    0    0 -0.12436407740E+02 -0.14508741623E+02 -0.60538696912E+01  0.20045377509E+02  0.51100000000E-03 0.  1.
        -11    1    3    3    0    0  0.91287055067E+01  0.24342656899E+02  0.73932512521E+01  0.27028843362E+02  0.51100000000E-03 0. -1.
         12    1    3    3    0    0 -0.88720638119E+01 -0.23724183567E+02  0.17245617474E+01  0.25387487379E+02  0.00000000000E+00 0. -1.
</event>
<event>
 7    1  0.1891413E-013  0.7246155E+02  0.7816164E-02  0.1226708E+00
        -11   -1    0    0    0    0  0.00000000000E+00  0.00000000000E+00  0.45593999997E+02  0.45594000000E+02  0.51100000000E-03 0.  1.
         11   -1    0    0    0    0 -0.00000000000E+00 -0.00000000000E+00 -0.45593999997E+02  0.45594000000E+02  0.51100000000E-03 0. -1.
    9900012    2    1    2    0    0  0.37853424169E+01  0.46551380012E+01 -0.17739239642E+02  0.72461554793E+02  0.69999979806E+02 0.  0.
        -12    1    1    2    0    0 -0.37853424169E+01 -0.46551380012E+01  0.17739239642E+02  0.18726445207E+02  0.00000000000E+00 0.  1.
         11    1    3    3    0    0 -0.40473080119E+01 -0.66767905411E+01  0.17895852349E+02  0.19524901168E+02  0.51100000000E-03 0.  1.
        -11    1    3    3    0    0  0.10930151392E+02 -0.36703327341E+01  0.25367831902E+01  0.11805711374E+02  0.51100000000E-03 0. -1.
         12    1    3    3    0    0 -0.30975009634E+01  0.15002261276E+02 -0.38171875181E+02  0.41130942251E+02  0.00000000000E+00 0. -1.
</event>
<event>
 7    1  0.1891413E-013  0.7246161E+02  0.7816164E-02  0.1226708E+00
        -11   -1    0    0    0    0  0.00000000000E+00  0.00000000000E+00  0.45593999997E+02  0.45594000000E+02  0.51100000000E-03 0.  1.
         11   -1    0    0    0    0 -0.00000000000E+00 -0.00000000000E+00 -0.45593999997E+02  0.45594000000E+02  0.51100000000E-03 0. -1.
    9900012    2    1    2    0    0  0.13745266332E+02 -0.74995716156E+01 -0.10271397033E+02  0.72461614391E+02  0.70000057445E+02 0.  0.
        -12    1    1    2    0    0 -0.13745266332E+02  0.74995716156E+01  0.10271397033E+02  0.18726385609E+02  0.00000000000E+00 0.  1.
         11    1    3    3    0    0  0.28640698259E+01 -0.58633156988E+01  0.11064898938E+02  0.12845752439E+02  0.51100000000E-03 0. -1.
        -11    1    3    3    0    0 -0.10689757638E+02 -0.74101828710E+01  0.13172664490E+02  0.18512180276E+02  0.51100000000E-03 0.  1.
         12    1    3    3    0    0  0.21570954144E+02  0.57739269542E+01 -0.34508960462E+02  0.41103681676E+02  0.00000000000E+00 0. -1.
</event>
<event>
 7    1  0.1891413E-013  0.7246157E+02  0.7816164E-02  0.1226708E+00
        -11   -1    0    0    0    0  0.00000000000E+00  0.00000000000E+00  0.45593999997E+02  0.45594000000E+02  0.51100000000E-03 0. -1.
         11   -1    0    0    0    0 -0.00000000000E+00 -0.00000000000E+00 -0.45593999997E+02  0.45594000000E+02  0.51100000000E-03 0.  1.
    9900012    2    1    2    0    0  0.97338304125E+01  0.15033872253E+02  0.54694003973E+01  0.72461571880E+02  0.70000002066E+02 0.  0.
        -12    1    1    2    0    0 -0.97338304125E+01 -0.15033872253E+02 -0.54694003973E+01  0.18726428120E+02  0.00000000000E+00 0.  1.
         11    1    3    3    0    0 -0.79940644430E+01 -0.48382832399E+01  0.48689436569E+01  0.10536634359E+02  0.51100000000E-03 0. -1.
        -11    1    3    3    0    0 -0.19149267035E+02  0.10829785735E+01  0.62065575237E+01  0.20159082993E+02  0.51100000000E-03 0.  1.
         12    1    3    3    0    0  0.36877161891E+02  0.18789176919E+02 -0.56061007833E+01  0.41765854527E+02  0.00000000000E+00 0. -1.
</event>
<event>
 7    1  0.1891413E-013  0.7246163E+02  0.7816164E-02  0.1226708E+00
        -11   -1    0    0    0    0  0.00000000000E+00  0.00000000000E+00  0.45593999997E+02  0.45594000000E+02  0.51100000000E-03 0.  1.
         11   -1    0    0    0    0 -0.00000000000E+00 -0.00000000000E+00 -0.45593999997E+02  0.45594000000E+02  0.51100000000E-03 0. -1.
    9900012    2    1    2    0    0  0.69812806877E+01 -0.73487773728E+01 -0.15745928565E+02  0.72461626211E+02  0.70000072842E+02 0.  0.
        -12    1    1    2    0    0 -0.69812806877E+01  0.73487773728E+01  0.15745928565E+02  0.18726373789E+02  0.00000000000E+00 0.  1.
         11    1    3    3    0    0 -0.20637025441E+02 -0.11184516323E+02 -0.32360818119E+00  0.23475198550E+02  0.51100000000E-03 0. -1.
        -11    1    3    3    0    0  0.38329067147E+00 -0.12880066669E+02  0.12441295103E+01  0.12945689925E+02  0.51100000000E-03 0.  1.
         12    1    3    3    0    0  0.27235015457E+02  0.16715805619E+02 -0.16666449894E+02  0.36040737736E+02  0.00000000000E+00 0. -1.
</event>
<event>
 7    1  0.1891413E-013  0.7246159E+02  0.7816164E-02  0.1226708E+00
        -11   -1    0    0    0    0  0.00000000000E+00  0.00000000000E+00  0.45593999997E+02  0.45594000000E+02  0.51100000000E-03 0. -1.
         11   -1    0    0    0    0 -0.00000000000E+00 -0.00000000000E+00 -0.45593999997E+02  0.45594000000E+02  0.51100000000E-03 0.  1.
    9900012    2    1    2    0    0 -0.16230160958E+02 -0.93347989624E+01  0.34915907185E+00  0.72461587945E+02  0.70000022993E+02 0.  0.
        -12    1    1    2    0    0  0.16230160958E+02  0.93347989624E+01 -0.34915907185E+00  0.18726412055E+02  0.00000000000E+00 0.  1.
         11    1    3    3    0    0 -0.23992086090E+02  0.17560686620E+02  0.97071892735E+00  0.29747944551E+02  0.51100000000E-03 0. -1.
        -11    1    3    3    0    0 -0.79496682583E+01 -0.12375010324E+02 -0.11539532765E+02  0.18694890282E+02  0.51100000000E-03 0.  1.
        -12    1    3    3    0    0  0.15711593390E+02 -0.14520475258E+02  0.10917972910E+02  0.24018753112E+02  0.00000000000E+00 0.  1.
</event>
<event>
 7    1  0.1891413E-013  0.7246157E+02  0.7816164E-02  0.1226708E+00
        -11   -1    0    0    0    0  0.00000000000E+00  0.00000000000E+00  0.45593999997E+02  0.45594000000E+02  0.51100000000E-03 0. -1.
         11   -1    0    0    0    0 -0.00000000000E+00 -0.00000000000E+00 -0.45593999997E+02  0.45594000000E+02  0.51100000000E-03 0.  1.
    9900012    2    1    2    0    0 -0.64856402051E+01 -0.17565107485E+02  0.28747866572E+00  0.72461570179E+02  0.69999999850E+02 0.  0.
        -12    1    1    2    0    0  0.64856402051E+01  0.17565107485E+02 -0.28747866572E+00  0.18726429821E+02  0.00000000000E+00 0.  1.
         11    1    3    3    0    0 -0.14532979529E+02 -0.30816581433E+02  0.30835745729E+01  0.34210782184E+02  0.51100000000E-03 0. -1.
        -11    1    3    3    0    0 -0.12935988936E+02  0.50137348831E+00 -0.43272727426E+01  0.13649779295E+02  0.51100000000E-03 0.  1.
        -12    1    3    3    0    0  0.20983328260E+02  0.12750100459E+02  0.15311768354E+01  0.24601008701E+02  0.00000000000E+00 0.  1.
</event>
<event>
 7    1  0.1891413E-013  0.7246162E+02  0.7816164E-02  0.1226708E+00
        -11   -1    0    0    0    0  0.00000000000E+00  0.00000000000E+00  0.45593999997E+02  0.45594000000E+02  0.51100000000E-03 0. -1.
         11   -1    0    0    0    0 -0.00000000000E+00 -0.00000000000E+00 -0.45593999997E+02  0.45594000000E+02  0.51100000000E-03 0.  1.
    9900012    2    1    2    0    0  0.11584033113E+02  0.14509261169E+02  0.24431283076E+01  0.72461618642E+02  0.70000062982E+02 0.  0.
        -12    1    1    2    0    0 -0.11584033113E+02 -0.14509261169E+02 -0.24431283076E+01  0.18726381358E+02  0.00000000000E+00 0.  1.
         11    1    3    3    0    0 -0.78531348343E+01 -0.11368002817E+02  0.21673964072E+02  0.25703383700E+02  0.51100000000E-03 0. -1.
        -11    1    3    3    0    0  0.79214230941E+01  0.87324584014E+00  0.55560322107E+01  0.97149882306E+01  0.51100000000E-03 0.  1.
        -12    1    3    3    0    0  0.11515744853E+02  0.25004018146E+02 -0.24786867975E+02  0.37043246712E+02  0.00000000000E+00 0.  1.
</event>
<event>
 7    1  0.1891413E-013  0.7246162E+02  0.7816164E-02  0.1226708E+00
        -11   -1    0    0    0    0  0.00000000000E+00  0.00000000000E+00  0.45593999997E+02  0.45594000000E+02  0.51100000000E-03 0.  1.
         11   -1    0    0    0    0 -0.00000000000E+00 -0.00000000000E+00 -0.45593999997E+02  0.45594000000E+02  0.51100000000E-03 0. -1.
    9900012    2    1    2    0    0 -0.13155469025E+02  0.94901357040E+01 -0.93567242253E+01  0.72461619432E+02  0.70000064011E+02 0.  0.
        -12    1    1    2    0    0  0.13155469025E+02 -0.94901357040E+01  0.93567242253E+01  0.18726380568E+02  0.00000000000E+00 0.  1.
         11    1    3    3    0    0 -0.31781121643E+02  0.48606841404E+01 -0.23084613452E+02  0.39579860051E+02  0.51100000000E-03 0. -1.
        -11    1    3    3    0    0  0.51729174096E+01  0.11999039650E+02  0.12833776852E+01  0.13129473927E+02  0.51100000000E-03 0.  1.
        -12    1    3    3    0    0  0.13452735209E+02 -0.73695880862E+01  0.12444511542E+02  0.19752285454E+02  0.00000000000E+00 0.  1.
</event>
<event>
 7    1  0.1891413E-013  0.7246154E+02  0.7816164E-02  0.1226708E+00
        -11   -1    0    0    0    0  0.00000000000E+00  0.00000000000E+00  0.45593999997E+02  0.45594000000E+02  0.51100000000E-03 0. -1.
         11   -1    0    0    0    0 -0.00000000000E+00 -0.00000000000E+00 -0.45593999997E+02  0.45594000000E+02  0.51100000000E-03 0.  1.
    9900012    2    1    2    0    0 -0.57878023211E+01  0.17435811988E+02  0.36296347238E+01  0.72461536276E+02  0.69999955684E+02 0.  0.
        -12    1    1    2    0    0  0.57878023211E+01 -0.17435811988E+02 -0.36296347238E+01  0.18726463724E+02  0.00000000000E+00 0.  1.
         11    1    3    3    0    0 -0.18874522133E+01 -0.12480645452E+02 -0.11587825384E+02  0.17134955038E+02  0.51100000000E-03 0. -1.
        -11    1    3    3    0    0  0.39365012957E+01  0.21756910714E+02 -0.12493026398E+02  0.25395568808E+02  0.51100000000E-03 0.  1.
         12    1    3    3    0    0 -0.78368514035E+01  0.81595467265E+01  0.27710486505E+02  0.29931012430E+02  0.00000000000E+00 0. -1.
</event>
<event>
 7    1  0.1891413E-013  0.7246153E+02  0.7816164E-02  0.1226708E+00
        -11   -1    0    0    0    0  0.00000000000E+00  0.00000000000E+00  0.45593999997E+02  0.45594000000E+02  0.51100000000E-03 0.  1.
         11   -1    0    0    0    0 -0.00000000000E+00 -0.00000000000E+00 -0.45593999997E+02  0.45594000000E+02  0.51100000000E-03 0. -1.
    9900012    2    1    2    0    0 -0.10201897933E+02 -0.12260994529E+02 -0.98117264046E+01  0.72461529876E+02  0.69999947347E+02 0.  0.
        -12    1    1    2    0    0  0.10201897933E+02  0.12260994529E+02  0.98117264046E+01  0.18726470124E+02  0.00000000000E+00 0.  1.
         11    1    3    3    0    0 -0.12647273769E+02 -0.24360752011E+02 -0.15604200227E+02  0.31573578151E+02  0.51100000000E-03 0. -1.
        -11    1    3    3    0    0 -0.71198661357E+01 -0.84866857320E+01  0.12991878945E+02  0.17073524747E+02  0.51100000000E-03 0.  1.
        -12    1    3    3    0    0  0.95652419713E+01  0.20586443214E+02 -0.71994051227E+01  0.23814426978E+02  0.00000000000E+00 0.  1.
</event>
<event>
 7    1  0.1891413E-013  0.7246156E+02  0.7816164E-02  0.1226708E+00
        -11   -1    0    0    0    0  0.00000000000E+00  0.00000000000E+00  0.45593999997E+02  0.45594000000E+02  0.51100000000E-03 0. -1.
         11   -1    0    0    0    0 -0.00000000000E+00 -0.00000000000E+00 -0.45593999997E+02  0.45594000000E+02  0.51100000000E-03 0.  1.
    9900012    2    1    2    0    0 -0.16798303205E+01  0.94707691440E+01 -0.16067424461E+02  0.72461563423E+02  0.69999991048E+02 0.  0.
        -12    1    1    2    0    0  0.16798303205E+01 -0.94707691440E+01  0.16067424461E+02  0.18726436577E+02  0.00000000000E+00 0.  1.
         11    1    3    3    0    0 -0.73842877181E+01 -0.16603048763E+02  0.10481913166E+02  0.20977593694E+02  0.51100000000E-03 0. -1.
        -11    1    3    3    0    0  0.62690673492E+01 -0.75515173529E+01 -0.99661273192E+01  0.13987505631E+02  0.51100000000E-03 0.  1.
        -12    1    3    3    0    0 -0.56460995164E+00  0.33625335260E+02 -0.16583210308E+02  0.37496464098E+02  0.00000000000E+00 0.  1.
</event>
<event>
 7    1  0.1891413E-013  0.7246163E+02  0.7816164E-02  0.1226708E+00
        -11   -1    0    0    0    0  0.00000000000E+00  0.00000000000E+00  0.45593999997E+02  0.45594000000E+02  0.51100000000E-03 0.  1.
         11   -1    0    0    0    0 -0.00000000000E+00 -0.00000000000E+00 -0.45593999997E+02  0.45594000000E+02  0.51100000000E-03 0. -1.
    9900012    2    1    2    0    0 -0.14207569065E+01 -0.18545531807E+02  0.21728943624E+01  0.72461634360E+02  0.70000083457E+02 0.  0.
        -12    1    1    2    0    0  0.14207569065E+01  0.18545531807E+02 -0.21728943624E+01  0.18726365640E+02  0.00000000000E+00 0.  1.
         11    1    3    3    0    0 -0.23976722056E+02  0.73958313032E+01  0.10390442424E+02  0.27157739509E+02  0.51100000000E-03 0. -1.
        -11    1    3    3    0    0 -0.49629284205E+01 -0.12305793479E+02  0.80750620882E+00  0.13293429889E+02  0.51100000000E-03 0.  1.
         12    1    3    3    0    0  0.27518893570E+02 -0.13635569631E+02 -0.90250542706E+01  0.32010464962E+02  0.00000000000E+00 0. -1.
</event>
<event>
 7    1  0.1891413E-013  0.7246159E+02  0.7816164E-02  0.1226708E+00
        -11   -1    0    0    0    0  0.00000000000E+00  0.00000000000E+00  0.45593999997E+02  0.45594000000E+02  0.51100000000E-03 0.  1.
         11   -1    0    0    0    0 -0.00000000000E+00 -0.00000000000E+00 -0.45593999997E+02  0.45594000000E+02  0.51100000000E-03 0. -1.
    9900012    2    1    2    0    0  0.62737764997E+01  0.84983780890E+01 -0.15462722419E+02  0.72461588536E+02  0.70000023763E+02 0.  0.
        -12    1    1    2    0    0 -0.62737764997E+01 -0.84983780890E+01  0.15462722419E+02  0.18726411464E+02  0.00000000000E+00 0.  1.
         11    1    3    3    0    0  0.98203818032E+01 -0.88601509242E+01  0.55073828030E+01  0.14327366777E+02  0.51100000000E-03 0. -1.
        -11    1    3    3    0    0  0.14948857388E+02  0.80384037655E+01  0.10866653207E+02  0.20153620630E+02  0.51100000000E-03 0.  1.
         12    1    3    3    0    0 -0.18495462692E+02  0.93201252478E+01 -0.31836758429E+02  0.37980601129E+02  0.00000000000E+00 0. -1.
</event>
<event>
 7    1  0.1891413E-013  0.7246158E+02  0.7816164E-02  0.1226708E+00
        -11   -1    0    0    0    0  0.00000000000E+00  0.00000000000E+00  0.45593999997E+02  0.45594000000E+02  0.51100000000E-03 0.  1.
         11   -1    0    0    0    0 -0.00000000000E+00 -0.00000000000E+00 -0.45593999997E+02  0.45594000000E+02  0.51100000000E-03 0. -1.
    9900012    2    1    2    0    0 -0.29541192229E+01  0.11310928410E+02 -0.14629243347E+02  0.72461583290E+02  0.70000016929E+02 0.  0.
        -12    1    1    2    0    0  0.29541192229E+01 -0.11310928410E+02  0.14629243347E+02  0.18726416710E+02  0.00000000000E+00 0.  1.
         11    1    3    3    0    0  0.98212940809E+01 -0.14295665107E+01  0.20086297943E+00  0.99268234612E+01  0.51100000000E-03 0. -1.
        -11    1    3    3    0    0 -0.89909571423E+01  0.27564971402E+02  0.12214716761E+02  0.31462108393E+02  0.51100000000E-03 0.  1.
         12    1    3    3    0    0 -0.37844561614E+01 -0.14824476481E+02 -0.27044823088E+02  0.31072651435E+02  0.00000000000E+00 0. -1.
</event>
<event>
 7    1  0.1891413E-013  0.7246162E+02  0.7816164E-02  0.1226708E+00
        -11   -1    0    0    0    0  0.00000000000E+00  0.00000000000E+00  0.45593999997E+02  0.45594000000E+02  0.51100000000E-03 0.  1.
         11   -1    0    0    0    0 -0.00000000000E+00 -0.00000000000E+00 -0.45593999997E+02  0.45594000000E+02  0.51100000000E-03 0. -1.
    9900012    2    1    2    0    0  0.55540269077E+01 -0.33876507433E+01 -0.17560005515E+02  0.72461623251E+02  0.70000068986E+02 0.  0.
        -12    1    1    2    0    0 -0.55540269077E+01  0.33876507433E+01  0.17560005515E+02  0.18726376749E+02  0.00000000000E+00 0.  1.
         11    1    3    3    0    0  0.27219685084E+02 -0.16067725889E+02 -0.51606484378E+01  0.32026791346E+02  0.51100000000E-03 0. -1.
        -11    1    3    3    0    0 -0.17103645779E+01  0.31003891956E+01 -0.17387335548E+02  0.17744215899E+02  0.51100000000E-03 0.  1.
        -12    1    3    3    0    0 -0.19955293599E+02  0.95796859501E+01  0.49879784705E+01  0.22690616006E+02  0.00000000000E+00 0.  1.
</event>
<event>
 7    1  0.1891413E-013  0.7246157E+02  0.7816164E-02  0.1226708E+00
        -11   -1    0    0    0    0  0.00000000000E+00  0.00000000000E+00  0.45593999997E+02  0.45594000000E+02  0.51100000000E-03 0.  1.
         11   -1    0    0    0    0 -0.00000000000E+00 -0.00000000000E+00 -0.45593999997E+02  0.45594000000E+02  0.51100000000E-03 0. -1.
    9900012    2    1    2    0    0 -0.68195065292E+01  0.29663695131E+01 -0.17186449682E+02  0.72461572950E+02  0.70000003459E+02 0.  0.
        -12    1    1    2    0    0  0.68195065292E+01 -0.29663695131E+01  0.17186449682E+02  0.18726427050E+02  0.00000000000E+00 0.  1.
         11    1    3    3    0    0 -0.27552579626E+02  0.48759911944E+01 -0.24188035397E+02  0.36986227042E+02  0.51100000000E-03 0. -1.
        -11    1    3    3    0    0 -0.37194815451E+01 -0.72660222835E+01 -0.27458431783E+01  0.86121587195E+01  0.51100000000E-03 0.  1.
        -12    1    3    3    0    0  0.24452554641E+02  0.53564006023E+01  0.97474288935E+01  0.26863187189E+02  0.00000000000E+00 0.  1.
</event>
<event>
 7    1  0.1891413E-013  0.7246157E+02  0.7816164E-02  0.1226708E+00
        -11   -1    0    0    0    0  0.00000000000E+00  0.00000000000E+00  0.45593999997E+02  0.45594000000E+02  0.51100000000E-03 0.  1.
         11   -1    0    0    0    0 -0.00000000000E+00 -0.00000000000E+00 -0.45593999997E+02  0.45594000000E+02  0.51100000000E-03 0. -1.
    9900012    2    1    2    0    0 -0.91994817417E+01 -0.16035093095E+02 -0.29873878345E+01  0.72461570523E+02  0.70000000297E+02 0.  0.
        -12    1    1    2    0    0  0.91994817417E+01  0.16035093095E+02  0.29873878345E+01  0.18726429477E+02  0.00000000000E+00 0.  1.
         11    1    3    3    0    0  0.51409984791E+01 -0.29130007360E+01 -0.20936422350E+01  0.62688736404E+01  0.51100000000E-03 0. -1.
        -11    1    3    3    0    0  0.18246104037E+02 -0.13755023883E+02  0.17487680766E+02  0.28773946086E+02  0.51100000000E-03 0.  1.
         12    1    3    3    0    0 -0.32586584258E+02  0.63293152372E+00 -0.18381426365E+02  0.37418750796E+02  0.00000000000E+00 0. -1.
</event>
<event>
 7    1  0.1891413E-013  0.7246156E+02  0.7816164E-02  0.1226708E+00
        -11   -1    0    0    0    0  0.00000000000E+00  0.00000000000E+00  0.45593999997E+02  0.45594000000E+02  0.51100000000E-03 0. -1.
         11   -1    0    0    0    0 -0.00000000000E+00 -0.00000000000E+00 -0.45593999997E+02  0.45594000000E+02  0.51100000000E-03 0.  1.
    9900012    2    1    2    0    0  0.28469380429E+01 -0.20956559005E+01  0.18389747095E+02  0.72461558051E+02  0.69999984051E+02 0.  0.
        -12    1    1    2    0    0 -0.28469380429E+01  0.20956559005E+01 -0.18389747095E+02  0.18726441949E+02  0.00000000000E+00 0.  1.
         11    1    3    3    0    0 -0.16664003942E+02 -0.20874107664E+02  0.22282546072E+02  0.34784037400E+02  0.51100000000E-03 0. -1.
        -11    1    3    3    0    0  0.90791093594E+01 -0.35214720801E+01 -0.81429705656E+01  0.12694052240E+02  0.51100000000E-03 0.  1.
        -12    1    3    3    0    0  0.10431832625E+02  0.22299923843E+02  0.42501715881E+01  0.24983468411E+02  0.00000000000E+00 0.  1.
</event>
<event>
 7    1  0.1891413E-013  0.7246157E+02  0.7816164E-02  0.1226708E+00
        -11   -1    0    0    0    0  0.00000000000E+00  0.00000000000E+00  0.45593999997E+02  0.45594000000E+02  0.51100000000E-03 0. -1.
         11   -1    0    0    0    0 -0.00000000000E+00 -0.00000000000E+00 -0.45593999997E+02  0.45594000000E+02  0.51100000000E-03 0.  1.
    9900012    2    1    2    0    0  0.14621618915E+02 -0.12298650947E+01  0.11635073252E+02  0.72461568481E+02  0.69999997638E+02 0.  0.
        -12    1    1    2    0    0 -0.14621618915E+02  0.12298650947E+01 -0.11635073252E+02  0.18726431519E+02  0.00000000000E+00 0.  1.
         11    1    3    3    0    0 -0.16506021477E+02 -0.92309477655E+01  0.25557600528E+02  0.31793868696E+02  0.51100000000E-03 0. -1.
        -11    1    3    3    0    0 -0.10803918315E+01 -0.14158980354E+01 -0.59035905262E+01  0.61663923909E+01  0.51100000000E-03 0.  1.
        -12    1    3    3    0    0  0.32208032223E+02  0.94169807063E+01 -0.80189367505E+01  0.34501307394E+02  0.00000000000E+00 0.  1.
</event>
<event>
 7    1  0.1891413E-013  0.7246151E+02  0.7816164E-02  0.1226708E+00
        -11   -1    0    0    0    0  0.00000000000E+00  0.00000000000E+00  0.45593999997E+02  0.45594000000E+02  0.51100000000E-03 0.  1.
         11   -1    0    0    0    0 -0.00000000000E+00 -0.00000000000E+00 -0.45593999997E+02  0.45594000000E+02  0.51100000000E-03 0. -1.
    9900012    2    1    2    0    0  0.12400905487E+02 -0.13537068158E+02  0.36941752727E+01  0.72461505343E+02  0.69999915388E+02 0.  0.
        -12    1    1    2    0    0 -0.12400905487E+02  0.13537068158E+02 -0.36941752727E+01  0.18726494657E+02  0.00000000000E+00 0.  1.
         11    1    3    3    0    0  0.10954105313E+02  0.15602580141E+01  0.19262755014E+02  0.22214422326E+02  0.51100000000E-03 0. -1.
        -11    1    3    3    0    0  0.18171123165E+02 -0.11142806108E+02  0.64923715362E+01  0.22282341292E+02  0.51100000000E-03 0.  1.
         12    1    3    3    0    0 -0.16724322992E+02 -0.39545200644E+01 -0.22060951277E+02  0.27964741725E+02  0.00000000000E+00 0. -1.
</event>
<event>
 7    1  0.1891413E-013  0.7246157E+02  0.7816164E-02  0.1226708E+00
        -11   -1    0    0    0    0  0.00000000000E+00  0.00000000000E+00  0.45593999997E+02  0.45594000000E+02  0.51100000000E-03 0. -1.
         11   -1    0    0    0    0 -0.00000000000E+00 -0.00000000000E+00 -0.45593999997E+02  0.45594000000E+02  0.51100000000E-03 0.  1.
    9900012    2    1    2    0    0 -0.17032870163E+02 -0.65137927697E+00  0.77547599871E+01  0.72461567788E+02  0.69999996735E+02 0.  0.
        -12    1    1    2    0    0  0.17032870163E+02  0.65137927697E+00 -0.77547599871E+01  0.18726432212E+02  0.00000000000E+00 0.  1.
         11    1    3    3    0    0  0.67041728920E+01  0.30547801044E+01  0.82516161880E+01  0.11061952162E+02  0.51100000000E-03 0. -1.
        -11    1    3    3    0    0 -0.67337734773E+01  0.21738002012E+02 -0.15282493655E+02  0.27412388610E+02  0.51100000000E-03 0.  1.
         12    1    3    3    0    0 -0.17003269577E+02 -0.25444161393E+02  0.14785637454E+02  0.33987227016E+02  0.00000000000E+00 0. -1.
</event>
<event>
 7    1  0.1891413E-013  0.7246157E+02  0.7816164E-02  0.1226708E+00
        -11   -1    0    0    0    0  0.00000000000E+00  0.00000000000E+00  0.45593999997E+02  0.45594000000E+02  0.51100000000E-03 0.  1.
         11   -1    0    0    0    0 -0.00000000000E+00 -0.00000000000E+00 -0.45593999997E+02  0.45594000000E+02  0.51100000000E-03 0. -1.
    9900012    2    1    2    0    0  0.22592259387E+00 -0.18058400512E+02  0.49519908096E+01  0.72461572603E+02  0.70000003008E+02 0.  0.
        -12    1    1    2    0    0 -0.22592259387E+00  0.18058400512E+02 -0.49519908096E+01  0.18726427397E+02  0.00000000000E+00 0.  1.
         11    1    3    3    0    0 -0.54371788338E+01  0.77577829723E+01 -0.64616103741E+01  0.11467280375E+02  0.51100000000E-03 0. -1.
        -11    1    3    3    0    0 -0.23451150200E+02 -0.55004216044E+01  0.14990273586E+01  0.24134170108E+02  0.51100000000E-03 0.  1.
         12    1    3    3    0    0  0.29114251627E+02 -0.20315761880E+02  0.99145738251E+01  0.36860122120E+02  0.00000000000E+00 0. -1.
</event>
<event>
 7    1  0.1891413E-013  0.7246159E+02  0.7816164E-02  0.1226708E+00
        -11   -1    0    0    0    0  0.00000000000E+00  0.00000000000E+00  0.45593999997E+02  0.45594000000E+02  0.51100000000E-03 0.  1.
         11   -1    0    0    0    0 -0.00000000000E+00 -0.00000000000E+00 -0.45593999997E+02  0.45594000000E+02  0.51100000000E-03 0. -1.
    9900012    2    1    2    0    0 -0.15046447273E+02  0.80638416080E+01 -0.76978727026E+01  0.72461591878E+02  0.70000028117E+02 0.  0.
        -12    1    1    2    0    0  0.15046447273E+02 -0.80638416080E+01  0.76978727026E+01  0.18726408122E+02  0.00000000000E+00 0.  1.
         11    1    3    3    0    0  0.85684500123E+01  0.13439524123E+02 -0.20811424262E+02  0.26213632414E+02  0.51100000000E-03 0. -1.
        -11    1    3    3    0    0  0.74400806167E+01 -0.87553265040E+01 -0.18042992407E+01  0.11630392847E+02  0.51100000000E-03 0.  1.
        -12    1    3    3    0    0 -0.31054977902E+02  0.33796439895E+01  0.14917850800E+02  0.34617566617E+02  0.00000000000E+00 0.  1.
</event>
<event>
 7    1  0.1891413E-013  0.7246153E+02  0.7816164E-02  0.1226708E+00
        -11   -1    0    0    0    0  0.00000000000E+00  0.00000000000E+00  0.45593999997E+02  0.45594000000E+02  0.51100000000E-03 0.  1.
         11   -1    0    0    0    0 -0.00000000000E+00 -0.00000000000E+00 -0.45593999997E+02  0.45594000000E+02  0.51100000000E-03 0. -1.
    9900012    2    1    2    0    0  0.13764885291E+02  0.11658664757E+02  0.50283165093E+01  0.72461534827E+02  0.69999953797E+02 0.  0.
        -12    1    1    2    0    0 -0.13764885291E+02 -0.11658664757E+02 -0.50283165093E+01  0.18726465173E+02  0.00000000000E+00 0.  1.
         11    1    3    3    0    0 -0.46649897738E+01 -0.88684398695E+01  0.20072329906E+02  0.22434566709E+02  0.51100000000E-03 0. -1.
        -11    1    3    3    0    0 -0.12174503302E+02  0.34432448748E+01 -0.44334927607E+01  0.13406353876E+02  0.51100000000E-03 0.  1.
         12    1    3    3    0    0  0.30604378367E+02  0.17083859751E+02 -0.10610520636E+02  0.36620614241E+02  0.00000000000E+00 0. -1.
</event>
<event>
 7    1  0.1891413E-013  0.7246159E+02  0.7816164E-02  0.1226708E+00
        -11   -1    0    0    0    0  0.00000000000E+00  0.00000000000E+00  0.45593999997E+02  0.45594000000E+02  0.51100000000E-03 0. -1.
         11   -1    0    0    0    0 -0.00000000000E+00 -0.00000000000E+00 -0.45593999997E+02  0.45594000000E+02  0.51100000000E-03 0.  1.
    9900012    2    1    2    0    0  0.13395431350E+02 -0.12942889861E+02  0.19294116734E+01  0.72461585276E+02  0.70000019516E+02 0.  0.
        -12    1    1    2    0    0 -0.13395431350E+02  0.12942889861E+02 -0.19294116734E+01  0.18726414724E+02  0.00000000000E+00 0.  1.
         11    1    3    3    0    0  0.27454510178E+02 -0.24059067507E+01  0.71871488136E+01  0.28481461071E+02  0.51100000000E-03 0. -1.
        -11    1    3    3    0    0  0.13981200261E+02 -0.46992583095E+01 -0.41269873196E+01  0.15316298966E+02  0.51100000000E-03 0.  1.
         12    1    3    3    0    0 -0.28040279089E+02 -0.58377248007E+01 -0.11307498206E+01  0.28663825240E+02  0.00000000000E+00 0. -1.
</event>
<event>
 7    1  0.1891413E-013  0.7246157E+02  0.7816164E-02  0.1226708E+00
        -11   -1    0    0    0    0  0.00000000000E+00  0.00000000000E+00  0.45593999997E+02  0.45594000000E+02  0.51100000000E-03 0. -1.
         11   -1    0    0    0    0 -0.00000000000E+00 -0.00000000000E+00 -0.45593999997E+02  0.45594000000E+02  0.51100000000E-03 0.  1.
    9900012    2    1    2    0    0 -0.71744369430E+01  0.16403618956E+02 -0.54888831802E+01  0.72461572181E+02  0.70000002458E+02 0.  0.
        -12    1    1    2    0    0  0.71744369430E+01 -0.16403618956E+02  0.54888831802E+01  0.18726427819E+02  0.00000000000E+00 0.  1.
         11    1    3    3    0    0  0.33823010773E+01  0.73549028984E+00  0.11076691959E+02  0.11604913251E+02  0.51100000000E-03 0. -1.
        -11    1    3    3    0    0 -0.17954027756E+02 -0.13707475942E+02  0.56578941734E+01  0.23286343124E+02  0.51100000000E-03 0.  1.
        -12    1    3    3    0    0  0.73972897359E+01  0.29375604608E+02 -0.22223469312E+02  0.37570315806E+02  0.00000000000E+00 0.  1.
</event>
<event>
 7    1  0.1891413E-013  0.7246157E+02  0.7816164E-02  0.1226708E+00
        -11   -1    0    0    0    0  0.00000000000E+00  0.00000000000E+00  0.45593999997E+02  0.45594000000E+02  0.51100000000E-03 0. -1.
         11   -1    0    0    0    0 -0.00000000000E+00 -0.00000000000E+00 -0.45593999997E+02  0.45594000000E+02  0.51100000000E-03 0.  1.
    9900012    2    1    2    0    0 -0.14329788745E+02  0.11742563693E+02  0.27292255170E+01  0.72461566290E+02  0.69999994784E+02 0.  0.
        -12    1    1    2    0    0  0.14329788745E+02 -0.11742563693E+02 -0.27292255170E+01  0.18726433710E+02  0.00000000000E+00 0.  1.
         11    1    3    3    0    0 -0.10948923490E+01 -0.20803053470E+01  0.61050055313E+01  0.65419838269E+01  0.51100000000E-03 0. -1.
        -11    1    3    3    0    0  0.23393919014E+02 -0.24453599740E+01 -0.95151829712E+01  0.25373094795E+02  0.51100000000E-03 0.  1.
         12    1    3    3    0    0 -0.36628815410E+02  0.16268229014E+02  0.61394029570E+01  0.40546487669E+02  0.00000000000E+00 0. -1.
</event>
<event>
 7    1  0.1891413E-013  0.7246157E+02  0.7816164E-02  0.1226708E+00
        -11   -1    0    0    0    0  0.00000000000E+00  0.00000000000E+00  0.45593999997E+02  0.45594000000E+02  0.51100000000E-03 0. -1.
         11   -1    0    0    0    0 -0.00000000000E+00 -0.00000000000E+00 -0.45593999997E+02  0.45594000000E+02  0.51100000000E-03 0.  1.
    9900012    2    1    2    0    0  0.18660913478E+02  0.12824536473E+01  0.89718292976E+00  0.72461566373E+02  0.69999994891E+02 0.  0.
        -12    1    1    2    0    0 -0.18660913478E+02 -0.12824536473E+01 -0.89718292976E+00  0.18726433627E+02  0.00000000000E+00 0.  1.
         11    1    3    3    0    0 -0.83771817735E+00  0.10803235891E+02  0.86124058647E+01  0.13841431014E+02  0.51100000000E-03 0. -1.
        -11    1    3    3    0    0  0.17999066399E+02 -0.17311441424E+01  0.21646778760E+02  0.28205430014E+02  0.51100000000E-03 0.  1.
        -12    1    3    3    0    0  0.14995652561E+01 -0.77896381013E+01 -0.29362001695E+02  0.30414705346E+02  0.00000000000E+00 0.  1.
</event>
<event>
 7    1  0.1891413E-013  0.7246155E+02  0.7816164E-02  0.1226708E+00
        -11   -1    0    0    0    0  0.00000000000E+00  0.00000000000E+00  0.45593999997E+02  0.45594000000E+02  0.51100000000E-03 0.  1.
         11   -1    0    0    0    0 -0.00000000000E+00 -0.00000000000E+00 -0.45593999997E+02  0.45594000000E+02  0.51100000000E-03 0. -1.
    9900012    2    1    2    0    0 -0.10422355293E+02  0.35743053795E+00 -0.15553989198E+02  0.72461552755E+02  0.69999977152E+02 0.  0.
        -12    1    1    2    0    0  0.10422355293E+02 -0.35743053795E+00  0.15553989198E+02  0.18726447245E+02  0.00000000000E+00 0.  1.
         11    1    3    3    0    0  0.11067711634E+02 -0.17652607327E+02  0.82970424899E+01  0.22426540095E+02  0.51100000000E-03 0. -1.
        -11    1    3    3    0    0  0.92556345026E+01  0.39389331214E+01 -0.39941723042E+01  0.10822909814E+02  0.51100000000E-03 0.  1.
        -12    1    3    3    0    0 -0.30745701429E+02  0.14071104744E+02 -0.19856859384E+02  0.39212102847E+02  0.00000000000E+00 0.  1.
</event>
<event>
 7    1  0.1891413E-013  0.7246184E+02  0.7816164E-02  0.1226707E+00
        -11   -1    0    0    0    0  0.00000000000E+00  0.00000000000E+00  0.45593999997E+02  0.45594000000E+02  0.51100000000E-03 0. -1.
         11   -1    0    0    0    0 -0.00000000000E+00 -0.00000000000E+00 -0.45593999997E+02  0.45594000000E+02  0.51100000000E-03 0.  1.
    9900012    2    1    2    0    0 -0.22515008646E+01 -0.18589801963E+02  0.13808076018E+00  0.72461840237E+02  0.70000351650E+02 0.  0.
        -12    1    1    2    0    0  0.22515008646E+01  0.18589801963E+02 -0.13808076018E+00  0.18726159763E+02  0.00000000000E+00 0.  1.
         11    1    3    3    0    0  0.11911232065E+02 -0.72039466274E+01 -0.51115885103E+01  0.14829114393E+02  0.51100000000E-03 0. -1.
        -11    1    3    3    0    0 -0.25906883488E+02 -0.93158158170E+01  0.23253825121E+02  0.36037361438E+02  0.51100000000E-03 0.  1.
         12    1    3    3    0    0  0.11744150558E+02 -0.20700395186E+01 -0.18004155851E+02  0.21595364406E+02  0.00000000000E+00 0. -1.
</event>
<event>
 7    1  0.1891413E-013  0.7246161E+02  0.7816164E-02  0.1226708E+00
        -11   -1    0    0    0    0  0.00000000000E+00  0.00000000000E+00  0.45593999997E+02  0.45594000000E+02  0.51100000000E-03 0.  1.
         11   -1    0    0    0    0 -0.00000000000E+00 -0.00000000000E+00 -0.45593999997E+02  0.45594000000E+02  0.51100000000E-03 0. -1.
    9900012    2    1    2    0    0 -0.17608208189E+02 -0.35795032868E+01 -0.52740852598E+01  0.72461606467E+02  0.70000047122E+02 0.  0.
        -12    1    1    2    0    0  0.17608208189E+02  0.35795032868E+01  0.52740852598E+01  0.18726393533E+02  0.00000000000E+00 0.  1.
         11    1    3    3    0    0 -0.39460440513E+02 -0.17119763524E+01  0.45269221727E+01  0.39756134787E+02  0.51100000000E-03 0. -1.
        -11    1    3    3    0    0 -0.54008836299E+00 -0.59758206749E+01  0.28694630206E+01  0.66510109357E+01  0.51100000000E-03 0.  1.
        -12    1    3    3    0    0  0.22392320687E+02  0.41082937405E+01 -0.12670470453E+02  0.26054460745E+02  0.00000000000E+00 0.  1.
</event>
<event>
 7    1  0.1891413E-013  0.7246142E+02  0.7816164E-02  0.1226708E+00
        -11   -1    0    0    0    0  0.00000000000E+00  0.00000000000E+00  0.45593999997E+02  0.45594000000E+02  0.51100000000E-03 0. -1.
         11   -1    0    0    0    0 -0.00000000000E+00 -0.00000000000E+00 -0.45593999997E+02  0.45594000000E+02  0.51100000000E-03 0.  1.
    9900012    2    1    2    0    0 -0.98135665271E+01  0.15392309673E+02  0.41779828776E+01  0.72461419266E+02  0.69999803258E+02 0.  0.
        -12    1    1    2    0    0  0.98135665271E+01 -0.15392309673E+02 -0.41779828776E+01  0.18726580734E+02  0.00000000000E+00 0.  1.
         11    1    3    3    0    0  0.10399540273E+02 -0.10145441320E+02  0.94471466147E+00  0.14559289252E+02  0.51100000000E-03 0. -1.
        -11    1    3    3    0    0  0.71107355260E+00 -0.19944068907E+01  0.19550485411E+02  0.19664810310E+02  0.51100000000E-03 0.  1.
        -12    1    3    3    0    0 -0.20924180353E+02  0.27532157884E+02 -0.16317217195E+02  0.38237319704E+02  0.00000000000E+00 0.  1.
</event>
<event>
 7    1  0.1891413E-013  0.7246158E+02  0.7816164E-02  0.1226708E+00
        -11   -1    0    0    0    0  0.00000000000E+00  0.00000000000E+00  0.45593999997E+02  0.45594000000E+02  0.51100000000E-03 0.  1.
         11   -1    0    0    0    0 -0.00000000000E+00 -0.00000000000E+00 -0.45593999997E+02  0.45594000000E+02  0.51100000000E-03 0. -1.
    9900012    2    1    2    0    0 -0.52052727070E+01 -0.51394097518E+01 -0.17238631758E+02  0.72461579588E+02  0.70000012107E+02 0.  0.
        -12    1    1    2    0    0  0.52052727070E+01  0.51394097518E+01  0.17238631758E+02  0.18726420412E+02  0.00000000000E+00 0.  1.
         11    1    3    3    0    0  0.15031426058E+02 -0.10861255806E+02 -0.11865813559E+02  0.22016089088E+02  0.51100000000E-03 0. -1.
        -11    1    3    3    0    0  0.14620502854E+02  0.96773888301E+00 -0.42143175923E+01  0.15246510922E+02  0.51100000000E-03 0.  1.
        -12    1    3    3    0    0 -0.34857201619E+02  0.47541071714E+01 -0.11585006060E+01  0.35198979579E+02  0.00000000000E+00 0.  1.
</event>
<event>
 7    1  0.1891413E-013  0.7246159E+02  0.7816164E-02  0.1226708E+00
        -11   -1    0    0    0    0  0.00000000000E+00  0.00000000000E+00  0.45593999997E+02  0.45594000000E+02  0.51100000000E-03 0.  1.
         11   -1    0    0    0    0 -0.00000000000E+00 -0.00000000000E+00 -0.45593999997E+02  0.45594000000E+02  0.51100000000E-03 0. -1.
    9900012    2    1    2    0    0 -0.11542630225E+02 -0.57601951001E+01  0.13574465354E+02  0.72461594318E+02  0.70000031296E+02 0.  0.
        -12    1    1    2    0    0  0.11542630225E+02  0.57601951001E+01 -0.13574465354E+02  0.18726405682E+02  0.00000000000E+00 0.  1.
         11    1    3    3    0    0 -0.21175318860E+02 -0.79211104674E+01 -0.51239288905E+01  0.23181733486E+02  0.51100000000E-03 0. -1.
        -11    1    3    3    0    0 -0.42177546052E+01  0.10272625239E+02 -0.10931008100E+02  0.15582144318E+02  0.51100000000E-03 0.  1.
        -12    1    3    3    0    0  0.13850443240E+02 -0.81117098714E+01  0.29629402345E+02  0.33697716514E+02  0.00000000000E+00 0.  1.
</event>
<event>
 7    1  0.1891413E-013  0.7246160E+02  0.7816164E-02  0.1226708E+00
        -11   -1    0    0    0    0  0.00000000000E+00  0.00000000000E+00  0.45593999997E+02  0.45594000000E+02  0.51100000000E-03 0. -1.
         11   -1    0    0    0    0 -0.00000000000E+00 -0.00000000000E+00 -0.45593999997E+02  0.45594000000E+02  0.51100000000E-03 0.  1.
    9900012    2    1    2    0    0 -0.17472076749E+02 -0.44348573634E+01  0.50731453164E+01  0.72461595402E+02  0.70000032707E+02 0.  0.
        -12    1    1    2    0    0  0.17472076749E+02  0.44348573634E+01 -0.50731453164E+01  0.18726404598E+02  0.00000000000E+00 0.  1.
         11    1    3    3    0    0 -0.75024653946E+01  0.12018099948E+02 -0.66990300868E+01  0.15671589509E+02  0.51100000000E-03 0. -1.
        -11    1    3    3    0    0 -0.17130077112E+02  0.12598997124E+02 -0.58636411718E+01  0.22058027075E+02  0.51100000000E-03 0.  1.
         12    1    3    3    0    0  0.71604657570E+01 -0.29051954435E+02  0.17635816575E+02  0.34731978818E+02  0.00000000000E+00 0. -1.
</event>
<event>
 7    1  0.1891413E-013  0.7246156E+02  0.7816164E-02  0.1226708E+00
        -11   -1    0    0    0    0  0.00000000000E+00  0.00000000000E+00  0.45593999997E+02  0.45594000000E+02  0.51100000000E-03 0.  1.
         11   -1    0    0    0    0 -0.00000000000E+00 -0.00000000000E+00 -0.45593999997E+02  0.45594000000E+02  0.51100000000E-03 0. -1.
    9900012    2    1    2    0    0  0.98028565452E+01  0.23040370828E+01 -0.15788439785E+02  0.72461563762E+02  0.69999991491E+02 0.  0.
        -12    1    1    2    0    0 -0.98028565452E+01 -0.23040370828E+01  0.15788439785E+02  0.18726436238E+02  0.00000000000E+00 0.  1.
         11    1    3    3    0    0  0.17604814287E+02  0.11283579408E+02 -0.15929717021E+02  0.26286965115E+02  0.51100000000E-03 0. -1.
        -11    1    3    3    0    0 -0.71550809826E+01  0.12247481240E+02 -0.14574484505E+02  0.20337442795E+02  0.51100000000E-03 0.  1.
         12    1    3    3    0    0 -0.64687675935E+00 -0.21227023564E+02  0.14715761741E+02  0.25837155853E+02  0.00000000000E+00 0. -1.
</event>
<event>
 7    1  0.1891413E-013  0.7246158E+02  0.7816164E-02  0.1226708E+00
        -11   -1    0    0    0    0  0.00000000000E+00  0.00000000000E+00  0.45593999997E+02  0.45594000000E+02  0.51100000000E-03 0. -1.
         11   -1    0    0    0    0 -0.00000000000E+00 -0.00000000000E+00 -0.45593999997E+02  0.45594000000E+02  0.51100000000E-03 0.  1.
    9900012    2    1    2    0    0 -0.31793208190E+01 -0.18352655366E+02 -0.19366845262E+01  0.72461580513E+02  0.70000013312E+02 0.  0.
        -12    1    1    2    0    0  0.31793208190E+01  0.18352655366E+02  0.19366845262E+01  0.18726419487E+02  0.00000000000E+00 0.  1.
         11    1    3    3    0    0  0.18194012317E+02  0.12233951423E+01  0.10308104631E+02  0.20946975944E+02  0.51100000000E-03 0. -1.
        -11    1    3    3    0    0  0.55245567279E+01  0.74121711962E+01  0.40255001606E+01  0.10082939090E+02  0.51100000000E-03 0.  1.
        -12    1    3    3    0    0 -0.26897889864E+02 -0.26988221704E+02 -0.16270289318E+02  0.41431665479E+02  0.00000000000E+00 0.  1.
</event>
<event>
 7    1  0.1891413E-013  0.7246165E+02  0.7816164E-02  0.1226708E+00
        -11   -1    0    0    0    0  0.00000000000E+00  0.00000000000E+00  0.45593999997E+02  0.45594000000E+02  0.51100000000E-03 0.  1.
         11   -1    0    0    0    0 -0.00000000000E+00 -0.00000000000E+00 -0.45593999997E+02  0.45594000000E+02  0.51100000000E-03 0. -1.
    9900012    2    1    2    0    0  0.14471296834E+02  0.38671081689E+01 -0.11238476468E+02  0.72461646619E+02  0.70000099426E+02 0.  0.
        -12    1    1    2    0    0 -0.14471296834E+02 -0.38671081689E+01  0.11238476468E+02  0.18726353381E+02  0.00000000000E+00 0.  1.
         11    1    3    3    0    0  0.15907424304E+02  0.31923666154E+02 -0.10188926585E+02  0.37094215640E+02  0.51100000000E-03 0. -1.
        -11    1    3    3    0    0  0.45122543156E+01 -0.36614373614E+01  0.69078164453E+01  0.90268760301E+01  0.51100000000E-03 0.  1.
        -12    1    3    3    0    0 -0.59483817854E+01 -0.24395120624E+02 -0.79573663285E+01  0.26340554949E+02  0.00000000000E+00 0.  1.
</event>
<event>
 7    1  0.1891413E-013  0.7246140E+02  0.7816164E-02  0.1226708E+00
        -11   -1    0    0    0    0  0.00000000000E+00  0.00000000000E+00  0.45593999997E+02  0.45594000000E+02  0.51100000000E-03 0.  1.
         11   -1    0    0    0    0 -0.00000000000E+00 -0.00000000000E+00 -0.45593999997E+02  0.45594000000E+02  0.51100000000E-03 0. -1.
    9900012    2    1    2    0    0 -0.62138129032E+01  0.14790020509E+02 -0.96607076254E+01  0.72461402625E+02  0.69999781579E+02 0.  0.
        -12    1    1    2    0    0  0.62138129032E+01 -0.14790020509E+02  0.96607076254E+01  0.18726597375E+02  0.00000000000E+00 0.  1.
         11    1    3    3    0    0 -0.57639185194E+01 -0.38490050867E+01  0.11900619896E+02  0.13771795490E+02  0.51100000000E-03 0. -1.
        -11    1    3    3    0    0 -0.16902619222E+02  0.31301168945E+01  0.99833499964E+01  0.19878718413E+02  0.51100000000E-03 0.  1.
         12    1    3    3    0    0  0.16452724838E+02  0.15508908701E+02 -0.31544677518E+02  0.38810888722E+02  0.00000000000E+00 0. -1.
</event>
<event>
 7    1  0.1891413E-013  0.7246160E+02  0.7816164E-02  0.1226708E+00
        -11   -1    0    0    0    0  0.00000000000E+00  0.00000000000E+00  0.45593999997E+02  0.45594000000E+02  0.51100000000E-03 0. -1.
         11   -1    0    0    0    0 -0.00000000000E+00 -0.00000000000E+00 -0.45593999997E+02  0.45594000000E+02  0.51100000000E-03 0.  1.
    9900012    2    1    2    0    0 -0.18236543443E+02  0.29852081396E+01 -0.30323340344E+01  0.72461600611E+02  0.70000039493E+02 0.  0.
        -12    1    1    2    0    0  0.18236543443E+02 -0.29852081396E+01  0.30323340344E+01  0.18726399389E+02  0.00000000000E+00 0.  1.
         11    1    3    3    0    0 -0.25554316561E+02  0.29311896828E+02  0.66562814604E+01  0.39452711868E+02  0.51100000000E-03 0. -1.
        -11    1    3    3    0    0 -0.86873586921E+00  0.11975505005E+01 -0.32631778785E+01  0.35828981760E+01  0.51100000000E-03 0.  1.
        -12    1    3    3    0    0  0.81865089879E+01 -0.27524239189E+02 -0.64254376163E+01  0.29425990568E+02  0.00000000000E+00 0.  1.
</event>
<event>
 7    1  0.1891413E-013  0.7246162E+02  0.7816164E-02  0.1226708E+00
        -11   -1    0    0    0    0  0.00000000000E+00  0.00000000000E+00  0.45593999997E+02  0.45594000000E+02  0.51100000000E-03 0.  1.
         11   -1    0    0    0    0 -0.00000000000E+00 -0.00000000000E+00 -0.45593999997E+02  0.45594000000E+02  0.51100000000E-03 0. -1.
    9900012    2    1    2    0    0  0.99087015344E+01  0.10998232439E+02 -0.11468816090E+02  0.72461622203E+02  0.70000067621E+02 0.  0.
        -12    1    1    2    0    0 -0.99087015344E+01 -0.10998232439E+02  0.11468816090E+02  0.18726377797E+02  0.00000000000E+00 0.  1.
         11    1    3    3    0    0 -0.14030629772E+02  0.61149493997E+01  0.23924647761E+01  0.15491128620E+02  0.51100000000E-03 0. -1.
        -11    1    3    3    0    0 -0.72304096900E+01 -0.14742900607E+02  0.26009232263E+01  0.16625184043E+02  0.51100000000E-03 0.  1.
         12    1    3    3    0    0  0.31169740996E+02  0.19626183646E+02 -0.16462204093E+02  0.40345309540E+02  0.00000000000E+00 0. -1.
</event>
<event>
 7    1  0.1891413E-013  0.7246156E+02  0.7816164E-02  0.1226708E+00
        -11   -1    0    0    0    0  0.00000000000E+00  0.00000000000E+00  0.45593999997E+02  0.45594000000E+02  0.51100000000E-03 0. -1.
         11   -1    0    0    0    0 -0.00000000000E+00 -0.00000000000E+00 -0.45593999997E+02  0.45594000000E+02  0.51100000000E-03 0.  1.
    9900012    2    1    2    0    0  0.11380683689E+02 -0.43234015757E+01  0.14229120303E+02  0.72461558079E+02  0.69999984088E+02 0.  0.
        -12    1    1    2    0    0 -0.11380683689E+02  0.43234015757E+01 -0.14229120303E+02  0.18726441921E+02  0.00000000000E+00 0.  1.
         11    1    3    3    0    0 -0.28197185781E+01 -0.14562482442E+02  0.65502787225E+01  0.16214896217E+02  0.51100000000E-03 0. -1.
        -11    1    3    3    0    0 -0.11405330742E+02 -0.14898326502E+02  0.79140525951E+01  0.20363544157E+02  0.51100000000E-03 0.  1.
         12    1    3    3    0    0  0.25605733009E+02  0.25137407367E+02 -0.23521101486E+00  0.35883117706E+02  0.00000000000E+00 0. -1.
</event>
<event>
 7    1  0.1891413E-013  0.7246172E+02  0.7816164E-02  0.1226708E+00
        -11   -1    0    0    0    0  0.00000000000E+00  0.00000000000E+00  0.45593999997E+02  0.45594000000E+02  0.51100000000E-03 0.  1.
         11   -1    0    0    0    0 -0.00000000000E+00 -0.00000000000E+00 -0.45593999997E+02  0.45594000000E+02  0.51100000000E-03 0. -1.
    9900012    2    1    2    0    0 -0.38450323451E+01 -0.77312519167E+01  0.16616773890E+02  0.72461716214E+02  0.70000190087E+02 0.  0.
        -12    1    1    2    0    0  0.38450323451E+01  0.77312519167E+01 -0.16616773890E+02  0.18726283786E+02  0.00000000000E+00 0.  1.
         11    1    3    3    0    0 -0.10303100528E+02  0.24874068799E+02  0.12269327823E+01  0.26951410787E+02  0.51100000000E-03 0. -1.
        -11    1    3    3    0    0  0.10087920768E+02 -0.73409364620E+01 -0.43829154482E+01  0.13223669750E+02  0.51100000000E-03 0.  1.
        -12    1    3    3    0    0 -0.36298525853E+01 -0.25264384254E+02  0.19772756555E+02  0.32286635677E+02  0.00000000000E+00 0.  1.
</event>
<event>
 7    1  0.1891413E-013  0.7246154E+02  0.7816164E-02  0.1226708E+00
        -11   -1    0    0    0    0  0.00000000000E+00  0.00000000000E+00  0.45593999997E+02  0.45594000000E+02  0.51100000000E-03 0.  1.
         11   -1    0    0    0    0 -0.00000000000E+00 -0.00000000000E+00 -0.45593999997E+02  0.45594000000E+02  0.51100000000E-03 0. -1.
    9900012    2    1    2    0    0 -0.32126110574E+01 -0.15602230879E+02  0.98452928579E+01  0.72461540920E+02  0.69999961735E+02 0.  0.
        -12    1    1    2    0    0  0.32126110574E+01  0.15602230879E+02 -0.98452928579E+01  0.18726459080E+02  0.00000000000E+00 0.  1.
         11    1    3    3    0    0  0.17012890375E+02  0.11487556622E+02  0.51774937553E+00  0.20534616157E+02  0.51100000000E-03 0. -1.
        -11    1    3    3    0    0  0.63746059117E+01 -0.15334142013E+00  0.12402284654E+02  0.13945457290E+02  0.51100000000E-03 0.  1.
        -12    1    3    3    0    0 -0.26600107344E+02 -0.26936446081E+02 -0.30747411715E+01  0.37981467473E+02  0.00000000000E+00 0.  1.
</event>
<event>
 7    1  0.1891413E-013  0.7246163E+02  0.7816164E-02  0.1226708E+00
        -11   -1    0    0    0    0  0.00000000000E+00  0.00000000000E+00  0.45593999997E+02  0.45594000000E+02  0.51100000000E-03 0.  1.
         11   -1    0    0    0    0 -0.00000000000E+00 -0.00000000000E+00 -0.45593999997E+02  0.45594000000E+02  0.51100000000E-03 0. -1.
    9900012    2    1    2    0    0  0.95415435228E+01 -0.15687403974E+02 -0.36798176609E+01  0.72461634783E+02  0.70000084008E+02 0.  0.
        -12    1    1    2    0    0 -0.95415435228E+01  0.15687403974E+02  0.36798176609E+01  0.18726365217E+02  0.00000000000E+00 0.  1.
         11    1    3    3    0    0  0.12789103512E+02 -0.40401840423E+02  0.80698542124E+00  0.42385387859E+02  0.51100000000E-03 0. -1.
        -11    1    3    3    0    0  0.55286438732E+01  0.33619071795E+01 -0.23806140253E+01  0.68946099497E+01  0.51100000000E-03 0.  1.
        -12    1    3    3    0    0 -0.87762038625E+01  0.21352529270E+02 -0.21061890568E+01  0.23181636974E+02  0.00000000000E+00 0.  1.
</event>
<event>
 7    1  0.1891413E-013  0.7246153E+02  0.7816164E-02  0.1226708E+00
        -11   -1    0    0    0    0  0.00000000000E+00  0.00000000000E+00  0.45593999997E+02  0.45594000000E+02  0.51100000000E-03 0. -1.
         11   -1    0    0    0    0 -0.00000000000E+00 -0.00000000000E+00 -0.45593999997E+02  0.45594000000E+02  0.51100000000E-03 0.  1.
    9900012    2    1    2    0    0  0.98971018421E+01 -0.13870658894E+02 -0.77674309200E+01  0.72461527131E+02  0.69999943771E+02 0.  0.
        -12    1    1    2    0    0 -0.98971018421E+01  0.13870658894E+02  0.77674309200E+01  0.18726472869E+02  0.00000000000E+00 0.  1.
         11    1    3    3    0    0  0.12600183070E+02 -0.17672366626E+02 -0.10455731467E+02  0.24091481406E+02  0.51100000000E-03 0. -1.
        -11    1    3    3    0    0  0.52638491150E+01  0.14808004650E+01 -0.21820162460E+02  0.22494896478E+02  0.51100000000E-03 0.  1.
         12    1    3    3    0    0 -0.79669303425E+01  0.23209072669E+01  0.24508463007E+02  0.25875149247E+02  0.00000000000E+00 0. -1.
</event>
<event>
 7    1  0.1891413E-013  0.7246153E+02  0.7816164E-02  0.1226708E+00
        -11   -1    0    0    0    0  0.00000000000E+00  0.00000000000E+00  0.45593999997E+02  0.45594000000E+02  0.51100000000E-03 0.  1.
         11   -1    0    0    0    0 -0.00000000000E+00 -0.00000000000E+00 -0.45593999997E+02  0.45594000000E+02  0.51100000000E-03 0. -1.
    9900012    2    1    2    0    0  0.17685244711E+02 -0.29479754517E+01 -0.54057609262E+01  0.72461529672E+02  0.69999947082E+02 0.  0.
        -12    1    1    2    0    0 -0.17685244711E+02  0.29479754517E+01  0.54057609262E+01  0.18726470328E+02  0.00000000000E+00 0.  1.
         11    1    3    3    0    0  0.54906285052E+01  0.34860054660E+01  0.35833328946E+01  0.74255983184E+01  0.51100000000E-03 0. -1.
        -11    1    3    3    0    0  0.91209191403E+00  0.42868382613E+01  0.26197140900E+02  0.26561232757E+02  0.51100000000E-03 0.  1.
         12    1    3    3    0    0  0.11282524292E+02 -0.10720819179E+02 -0.35186234721E+02  0.38474698597E+02  0.00000000000E+00 0. -1.
</event>
<event>
 7    1  0.1891413E-013  0.7246159E+02  0.7816164E-02  0.1226708E+00
        -11   -1    0    0    0    0  0.00000000000E+00  0.00000000000E+00  0.45593999997E+02  0.45594000000E+02  0.51100000000E-03 0.  1.
         11   -1    0    0    0    0 -0.00000000000E+00 -0.00000000000E+00 -0.45593999997E+02  0.45594000000E+02  0.51100000000E-03 0. -1.
    9900012    2    1    2    0    0  0.60082769792E-01  0.64553937731E+01 -0.17578476126E+02  0.72461587059E+02  0.70000021840E+02 0.  0.
        -12    1    1    2    0    0 -0.60082769792E-01 -0.64553937731E+01  0.17578476126E+02  0.18726412941E+02  0.00000000000E+00 0.  1.
         11    1    3    3    0    0  0.15155808770E+02 -0.43661236969E+01 -0.29873846308E+02  0.33781774215E+02  0.51100000000E-03 0. -1.
        -11    1    3    3    0    0  0.76265889028E+01 -0.24697482464E+00  0.10979633865E+02  0.13370797094E+02  0.51100000000E-03 0.  1.
        -12    1    3    3    0    0 -0.22722314903E+02  0.11068492295E+02  0.13157363175E+01  0.25309015751E+02  0.00000000000E+00 0.  1.
</event>
<event>
 7    1  0.1891413E-013  0.7246156E+02  0.7816164E-02  0.1226708E+00
        -11   -1    0    0    0    0  0.00000000000E+00  0.00000000000E+00  0.45593999997E+02  0.45594000000E+02  0.51100000000E-03 0.  1.
         11   -1    0    0    0    0 -0.00000000000E+00 -0.00000000000E+00 -0.45593999997E+02  0.45594000000E+02  0.51100000000E-03 0. -1.
    9900012    2    1    2    0    0 -0.86447769438E+01  0.98869974115E+01 -0.13348956944E+02  0.72461560463E+02  0.69999987193E+02 0.  0.
        -12    1    1    2    0    0  0.86447769438E+01 -0.98869974115E+01  0.13348956944E+02  0.18726439537E+02  0.00000000000E+00 0.  1.
         11    1    3    3    0    0  0.42289133938E+01  0.80756368350E+01  0.96040785768E+01  0.13241523491E+02  0.51100000000E-03 0. -1.
        -11    1    3    3    0    0 -0.32332323271E+01  0.22934591982E+02  0.41508733093E+01  0.23530385678E+02  0.51100000000E-03 0.  1.
         12    1    3    3    0    0 -0.96404580105E+01 -0.21123231406E+02 -0.27103908830E+02  0.35689651295E+02  0.00000000000E+00 0. -1.
</event>
<event>
 7    1  0.1891413E-013  0.7246182E+02  0.7816164E-02  0.1226707E+00
        -11   -1    0    0    0    0  0.00000000000E+00  0.00000000000E+00  0.45593999997E+02  0.45594000000E+02  0.51100000000E-03 0.  1.
         11   -1    0    0    0    0 -0.00000000000E+00 -0.00000000000E+00 -0.45593999997E+02  0.45594000000E+02  0.51100000000E-03 0. -1.
    9900012    2    1    2    0    0  0.11410218262E+02  0.14766891149E+02 -0.15541844543E+01  0.72461824621E+02  0.70000331307E+02 0.  0.
        -12    1    1    2    0    0 -0.11410218262E+02 -0.14766891149E+02  0.15541844543E+01  0.18726175379E+02  0.00000000000E+00 0.  1.
         11    1    3    3    0    0 -0.33831052521E+01 -0.36909310337E+01  0.53764827336E+01  0.73467639058E+01  0.51100000000E-03 0. -1.
        -11    1    3    3    0    0 -0.17100540167E+01  0.35486655138E+02  0.88712897535E+01  0.36618666822E+02  0.51100000000E-03 0.  1.
         12    1    3    3    0    0  0.16503377531E+02 -0.17028832955E+02 -0.15801956941E+02  0.28496393893E+02  0.00000000000E+00 0. -1.
</event>
<event>
 7    1  0.1891413E-013  0.7246157E+02  0.7816164E-02  0.1226708E+00
        -11   -1    0    0    0    0  0.00000000000E+00  0.00000000000E+00  0.45593999997E+02  0.45594000000E+02  0.51100000000E-03 0.  1.
         11   -1    0    0    0    0 -0.00000000000E+00 -0.00000000000E+00 -0.45593999997E+02  0.45594000000E+02  0.51100000000E-03 0. -1.
    9900012    2    1    2    0    0  0.18448121566E+02  0.11272214266E+01 -0.30125078969E+01  0.72461574252E+02  0.70000005156E+02 0.  0.
        -12    1    1    2    0    0 -0.18448121566E+02 -0.11272214266E+01  0.30125078969E+01  0.18726425748E+02  0.00000000000E+00 0.  1.
         11    1    3    3    0    0  0.19873495616E+02 -0.22167324994E+02 -0.94309464592E+01  0.31229615380E+02  0.51100000000E-03 0. -1.
        -11    1    3    3    0    0  0.68385429417E+01 -0.94518446028E+00  0.13062382485E+02  0.14774467153E+02  0.51100000000E-03 0.  1.
         12    1    3    3    0    0 -0.82639169922E+01  0.24239730881E+02 -0.66439439224E+01  0.26457491719E+02  0.00000000000E+00 0. -1.
</event>
<event>
 7    1  0.1891413E-013  0.7246151E+02  0.7816164E-02  0.1226708E+00
        -11   -1    0    0    0    0  0.00000000000E+00  0.00000000000E+00  0.45593999997E+02  0.45594000000E+02  0.51100000000E-03 0.  1.
         11   -1    0    0    0    0 -0.00000000000E+00 -0.00000000000E+00 -0.45593999997E+02  0.45594000000E+02  0.51100000000E-03 0. -1.
    9900012    2    1    2    0    0  0.11002716328E+02  0.33770506632E+01 -0.14772170519E+02  0.72461514488E+02  0.69999927302E+02 0.  0.
        -12    1    1    2    0    0 -0.11002716328E+02 -0.33770506632E+01  0.14772170519E+02  0.18726485512E+02  0.00000000000E+00 0.  1.
         11    1    3    3    0    0 -0.42848475629E+01  0.92151122913E+01 -0.58887578106E-01  0.10162759526E+02  0.51100000000E-03 0. -1.
        -11    1    3    3    0    0 -0.92267357497E+01  0.67102748660E+01  0.16888655427E+02  0.20381048151E+02  0.51100000000E-03 0.  1.
         12    1    3    3    0    0  0.24514299641E+02 -0.12548336494E+02 -0.31601938368E+02  0.41917706810E+02  0.00000000000E+00 0. -1.
</event>
<event>
 7    1  0.1891413E-013  0.7246163E+02  0.7816164E-02  0.1226708E+00
        -11   -1    0    0    0    0  0.00000000000E+00  0.00000000000E+00  0.45593999997E+02  0.45594000000E+02  0.51100000000E-03 0. -1.
         11   -1    0    0    0    0 -0.00000000000E+00 -0.00000000000E+00 -0.45593999997E+02  0.45594000000E+02  0.51100000000E-03 0.  1.
    9900012    2    1    2    0    0 -0.35540826982E+01 -0.13998286123E+02  0.11920293290E+02  0.72461630615E+02  0.70000078579E+02 0.  0.
        -12    1    1    2    0    0  0.35540826982E+01  0.13998286123E+02 -0.11920293290E+02  0.18726369385E+02  0.00000000000E+00 0.  1.
         11    1    3    3    0    0 -0.18026499083E+02  0.13448326683E+02  0.40487635615E+01  0.22851797443E+02  0.51100000000E-03 0. -1.
        -11    1    3    3    0    0 -0.38989644057E+01  0.53377497449E+01 -0.65980787785E+01  0.93396006127E+01  0.51100000000E-03 0.  1.
         12    1    3    3    0    0  0.18371380790E+02 -0.32784362551E+02  0.14469608507E+02  0.40270232559E+02  0.00000000000E+00 0. -1.
</event>
<event>
 7    1  0.1891413E-013  0.7246156E+02  0.7816164E-02  0.1226708E+00
        -11   -1    0    0    0    0  0.00000000000E+00  0.00000000000E+00  0.45593999997E+02  0.45594000000E+02  0.51100000000E-03 0.  1.
         11   -1    0    0    0    0 -0.00000000000E+00 -0.00000000000E+00 -0.45593999997E+02  0.45594000000E+02  0.51100000000E-03 0. -1.
    9900012    2    1    2    0    0 -0.39882706557E+01  0.10662983766E+02 -0.14868559400E+02  0.72461559221E+02  0.69999985575E+02 0.  0.
        -12    1    1    2    0    0  0.39882706557E+01 -0.10662983766E+02  0.14868559400E+02  0.18726440779E+02  0.00000000000E+00 0.  1.
         11    1    3    3    0    0 -0.23449799987E+02 -0.16315241003E+02 -0.73695934576E+01  0.29502391706E+02  0.51100000000E-03 0. -1.
        -11    1    3    3    0    0 -0.65520842754E+01  0.59146804676E+01 -0.14680080709E+01  0.89480892566E+01  0.51100000000E-03 0.  1.
        -12    1    3    3    0    0  0.26013613606E+02  0.21063544302E+02 -0.60309578717E+01  0.34011078258E+02  0.00000000000E+00 0.  1.
</event>
<event>
 7    1  0.1891413E-013  0.7246157E+02  0.7816164E-02  0.1226708E+00
        -11   -1    0    0    0    0  0.00000000000E+00  0.00000000000E+00  0.45593999997E+02  0.45594000000E+02  0.51100000000E-03 0. -1.
         11   -1    0    0    0    0 -0.00000000000E+00 -0.00000000000E+00 -0.45593999997E+02  0.45594000000E+02  0.51100000000E-03 0.  1.
    9900012    2    1    2    0    0  0.20705814592E+01  0.14630904648E+02  0.11503418529E+02  0.72461566376E+02  0.69999994896E+02 0.  0.
        -12    1    1    2    0    0 -0.20705814592E+01 -0.14630904648E+02 -0.11503418529E+02  0.18726433624E+02  0.00000000000E+00 0.  1.
         11    1    3    3    0    0  0.16391877368E+02  0.12016427893E+02  0.31308140446E+02  0.37326771108E+02  0.51100000000E-03 0. -1.
        -11    1    3    3    0    0  0.89004091672E+00 -0.41346615270E+01  0.41772841372E+01  0.59445186349E+01  0.51100000000E-03 0.  1.
         12    1    3    3    0    0 -0.15211336825E+02  0.67491382821E+01 -0.23982006054E+02  0.29190276633E+02  0.00000000000E+00 0. -1.
</event>
<event>
 7    1  0.1891413E-013  0.7246156E+02  0.7816164E-02  0.1226708E+00
        -11   -1    0    0    0    0  0.00000000000E+00  0.00000000000E+00  0.45593999997E+02  0.45594000000E+02  0.51100000000E-03 0.  1.
         11   -1    0    0    0    0 -0.00000000000E+00 -0.00000000000E+00 -0.45593999997E+02  0.45594000000E+02  0.51100000000E-03 0. -1.
    9900012    2    1    2    0    0  0.93245881195E+01 -0.11856920458E+02  0.11097067156E+02  0.72461563985E+02  0.69999991781E+02 0.  0.
        -12    1    1    2    0    0 -0.93245881195E+01  0.11856920458E+02 -0.11097067156E+02  0.18726436015E+02  0.00000000000E+00 0.  1.
         11    1    3    3    0    0  0.14544268799E+02 -0.15225260482E+02 -0.71695226854E+01  0.22242894763E+02  0.51100000000E-03 0. -1.
        -11    1    3    3    0    0  0.45567906260E+01  0.40350895227E+01 -0.14655511009E+02  0.15869161650E+02  0.51100000000E-03 0.  1.
        -12    1    3    3    0    0 -0.97764713050E+01 -0.66674949872E+00  0.32922100850E+02  0.34349507572E+02  0.00000000000E+00 0.  1.
</event>
<event>
 7    1  0.1891413E-013  0.7246176E+02  0.7816164E-02  0.1226708E+00
        -11   -1    0    0    0    0  0.00000000000E+00  0.00000000000E+00  0.45593999997E+02  0.45594000000E+02  0.51100000000E-03 0.  1.
         11   -1    0    0    0    0 -0.00000000000E+00 -0.00000000000E+00 -0.45593999997E+02  0.45594000000E+02  0.51100000000E-03 0. -1.
    9900012    2    1    2    0    0  0.14337951176E+02  0.10351491191E+02 -0.61596998897E+01  0.72461758612E+02  0.70000245318E+02 0.  0.
        -12    1    1    2    0    0 -0.14337951176E+02 -0.10351491191E+02  0.61596998897E+01  0.18726241388E+02  0.00000000000E+00 0.  1.
         11    1    3    3    0    0  0.25506329619E+02 -0.15872314783E+02 -0.60656926761E+00  0.30047814459E+02  0.51100000000E-03 0. -1.
        -11    1    3    3    0    0  0.15942142322E+01  0.21306568485E+02 -0.14722753835E+02  0.25947463466E+02  0.51100000000E-03 0.  1.
        -12    1    3    3    0    0 -0.12762592676E+02  0.49172374895E+01  0.91696232125E+01  0.16466480686E+02  0.00000000000E+00 0.  1.
</event>
<event>
 7    1  0.1891413E-013  0.7246146E+02  0.7816164E-02  0.1226708E+00
        -11   -1    0    0    0    0  0.00000000000E+00  0.00000000000E+00  0.45593999997E+02  0.45594000000E+02  0.51100000000E-03 0.  1.
         11   -1    0    0    0    0 -0.00000000000E+00 -0.00000000000E+00 -0.45593999997E+02  0.45594000000E+02  0.51100000000E-03 0. -1.
    9900012    2    1    2    0    0  0.49967955420E+01 -0.15385205958E+02 -0.94345460913E+01  0.72461463000E+02  0.69999860230E+02 0.  0.
        -12    1    1    2    0    0 -0.49967955420E+01  0.15385205958E+02  0.94345460913E+01  0.18726537000E+02  0.00000000000E+00 0.  1.
         11    1    3    3    0    0 -0.17433163877E+02 -0.77589873213E+00 -0.30135996001E+01  0.17708726787E+02  0.51100000000E-03 0. -1.
        -11    1    3    3    0    0 -0.11263690639E+01  0.64166348668E+01 -0.19512379048E+02  0.20571214029E+02  0.51100000000E-03 0.  1.
        -12    1    3    3    0    0  0.23556328482E+02 -0.21025942092E+02  0.13091432557E+02  0.34181522184E+02  0.00000000000E+00 0.  1.
</event>
<event>
 7    1  0.1891413E-013  0.7246162E+02  0.7816164E-02  0.1226708E+00
        -11   -1    0    0    0    0  0.00000000000E+00  0.00000000000E+00  0.45593999997E+02  0.45594000000E+02  0.51100000000E-03 0.  1.
         11   -1    0    0    0    0 -0.00000000000E+00 -0.00000000000E+00 -0.45593999997E+02  0.45594000000E+02  0.51100000000E-03 0. -1.
    9900012    2    1    2    0    0  0.11572249373E+02  0.13707624788E+02 -0.53722690125E+01  0.72461622688E+02  0.70000068253E+02 0.  0.
        -12    1    1    2    0    0 -0.11572249373E+02 -0.13707624788E+02  0.53722690125E+01  0.18726377312E+02  0.00000000000E+00 0.  1.
         11    1    3    3    0    0  0.45198296442E+01  0.23396196870E+02 -0.12656558760E+01  0.23862371488E+02  0.51100000000E-03 0. -1.
        -11    1    3    3    0    0 -0.17732281136E+02  0.63329909352E+01 -0.29961467453E+01  0.19066133957E+02  0.51100000000E-03 0.  1.
         12    1    3    3    0    0  0.24784700865E+02 -0.16021563017E+02 -0.11104663912E+01  0.29533117243E+02  0.00000000000E+00 0. -1.
</event>
<event>
 7    1  0.1891413E-013  0.7246156E+02  0.7816164E-02  0.1226708E+00
        -11   -1    0    0    0    0  0.00000000000E+00  0.00000000000E+00  0.45593999997E+02  0.45594000000E+02  0.51100000000E-03 0.  1.
         11   -1    0    0    0    0 -0.00000000000E+00 -0.00000000000E+00 -0.45593999997E+02  0.45594000000E+02  0.51100000000E-03 0. -1.
    9900012    2    1    2    0    0  0.95532537098E+01 -0.39558468581E+01 -0.15613017912E+02  0.72461555887E+02  0.69999981231E+02 0.  0.
        -12    1    1    2    0    0 -0.95532537098E+01  0.39558468581E+01  0.15613017912E+02  0.18726444113E+02  0.00000000000E+00 0.  1.
         11    1    3    3    0    0 -0.21659407553E+02  0.64361762097E+01 -0.18431248957E+02  0.29159307916E+02  0.51100000000E-03 0. -1.
        -11    1    3    3    0    0  0.71248814840E+01  0.90672028358E+01 -0.27126014397E+01  0.11846362744E+02  0.51100000000E-03 0.  1.
        -12    1    3    3    0    0  0.24087779779E+02 -0.19459225904E+02  0.55308324848E+01  0.31455885227E+02  0.00000000000E+00 0.  1.
</event>
<event>
 7    1  0.1891413E-013  0.7246146E+02  0.7816164E-02  0.1226708E+00
        -11   -1    0    0    0    0  0.00000000000E+00  0.00000000000E+00  0.45593999997E+02  0.45594000000E+02  0.51100000000E-03 0. -1.
         11   -1    0    0    0    0 -0.00000000000E+00 -0.00000000000E+00 -0.45593999997E+02  0.45594000000E+02  0.51100000000E-03 0.  1.
    9900012    2    1    2    0    0 -0.62096984901E+01  0.14933802806E+02  0.94395234893E+01  0.72461456665E+02  0.69999851977E+02 0.  0.
        -12    1    1    2    0    0  0.62096984901E+01 -0.14933802806E+02 -0.94395234893E+01  0.18726543335E+02  0.00000000000E+00 0.  1.
         11    1    3    3    0    0 -0.11412217387E+02  0.16956881200E+01  0.24187941005E+02  0.26798704339E+02  0.51100000000E-03 0. -1.
        -11    1    3    3    0    0  0.78316943612E+01 -0.94734359189E+01  0.69684654009E+01  0.14129435055E+02  0.51100000000E-03 0.  1.
         12    1    3    3    0    0 -0.26291754641E+01  0.22711550604E+02 -0.21716882917E+02  0.31533317271E+02  0.00000000000E+00 0. -1.
</event>
<event>
 7    1  0.1891413E-013  0.7246149E+02  0.7816164E-02  0.1226708E+00
        -11   -1    0    0    0    0  0.00000000000E+00  0.00000000000E+00  0.45593999997E+02  0.45594000000E+02  0.51100000000E-03 0. -1.
         11   -1    0    0    0    0 -0.00000000000E+00 -0.00000000000E+00 -0.45593999997E+02  0.45594000000E+02  0.51100000000E-03 0.  1.
    9900012    2    1    2    0    0  0.51413638887E+01 -0.10631303310E+02  0.14533541892E+02  0.72461492781E+02  0.69999899024E+02 0.  0.
        -12    1    1    2    0    0 -0.51413638887E+01  0.10631303310E+02 -0.14533541892E+02  0.18726507219E+02  0.00000000000E+00 0.  1.
         11    1    3    3    0    0  0.10410116637E+02 -0.16503387546E+02  0.35521652676E+02  0.40528016705E+02  0.51100000000E-03 0. -1.
        -11    1    3    3    0    0 -0.21712480353E+01  0.13785521438E+02 -0.71151765682E+01  0.15664630772E+02  0.51100000000E-03 0.  1.
        -12    1    3    3    0    0 -0.30975047130E+01 -0.79134372015E+01 -0.13872934216E+02  0.16268845305E+02  0.00000000000E+00 0.  1.
</event>
<event>
 7    1  0.1891413E-013  0.7246158E+02  0.7816164E-02  0.1226708E+00
        -11   -1    0    0    0    0  0.00000000000E+00  0.00000000000E+00  0.45593999997E+02  0.45594000000E+02  0.51100000000E-03 0.  1.
         11   -1    0    0    0    0 -0.00000000000E+00 -0.00000000000E+00 -0.45593999997E+02  0.45594000000E+02  0.51100000000E-03 0. -1.
    9900012    2    1    2    0    0 -0.62087718303E+01  0.16442829723E+02  0.64624416698E+01  0.72461584185E+02  0.70000018096E+02 0.  0.
        -12    1    1    2    0    0  0.62087718303E+01 -0.16442829723E+02 -0.64624416698E+01  0.18726415815E+02  0.00000000000E+00 0.  1.
         11    1    3    3    0    0 -0.51660324809E+01  0.18546561240E+02  0.39289978115E+01  0.19649423642E+02  0.51100000000E-03 0. -1.
        -11    1    3    3    0    0 -0.24003304126E+02  0.45511584604E+01 -0.92961382403E+01  0.26139813288E+02  0.51100000000E-03 0.  1.
        -12    1    3    3    0    0  0.22960564777E+02 -0.66548899773E+01  0.11829582099E+02  0.26672347255E+02  0.00000000000E+00 0.  1.
</event>
<event>
 7    1  0.1891413E-013  0.7246158E+02  0.7816164E-02  0.1226708E+00
        -11   -1    0    0    0    0  0.00000000000E+00  0.00000000000E+00  0.45593999997E+02  0.45594000000E+02  0.51100000000E-03 0.  1.
         11   -1    0    0    0    0 -0.00000000000E+00 -0.00000000000E+00 -0.45593999997E+02  0.45594000000E+02  0.51100000000E-03 0. -1.
    9900012    2    1    2    0    0 -0.14396592062E+02  0.11699729298E+02  0.25560088142E+01  0.72461582572E+02  0.70000015993E+02 0.  0.
        -12    1    1    2    0    0  0.14396592062E+02 -0.11699729298E+02 -0.25560088142E+01  0.18726417428E+02  0.00000000000E+00 0.  1.
         11    1    3    3    0    0 -0.10767883015E+02  0.23721594606E+02 -0.10205037691E+02  0.27978637383E+02  0.51100000000E-03 0. -1.
        -11    1    3    3    0    0 -0.52185896327E+01  0.19606725335E+01 -0.13546070704E+02  0.14648342784E+02  0.51100000000E-03 0.  1.
        -12    1    3    3    0    0  0.15898805855E+01 -0.13982537842E+02  0.26307117209E+02  0.29834602404E+02  0.00000000000E+00 0.  1.
</event>
<event>
 7    1  0.1891413E-013  0.7246162E+02  0.7816164E-02  0.1226708E+00
        -11   -1    0    0    0    0  0.00000000000E+00  0.00000000000E+00  0.45593999997E+02  0.45594000000E+02  0.51100000000E-03 0.  1.
         11   -1    0    0    0    0 -0.00000000000E+00 -0.00000000000E+00 -0.45593999997E+02  0.45594000000E+02  0.51100000000E-03 0. -1.
    9900012    2    1    2    0    0  0.10478392486E+02  0.25641352827E+01  0.15307051988E+02  0.72461619159E+02  0.70000063655E+02 0.  0.
        -12    1    1    2    0    0 -0.10478392486E+02 -0.25641352827E+01 -0.15307051988E+02  0.18726380841E+02  0.00000000000E+00 0.  1.
         11    1    3    3    0    0  0.20800364665E+02  0.52021328674E+01 -0.37117040960E+01  0.21759919672E+02  0.51100000000E-03 0. -1.
        -11    1    3    3    0    0 -0.75516444964E+01  0.12255833907E+02 -0.10299594262E+02  0.17700690427E+02  0.51100000000E-03 0.  1.
         12    1    3    3    0    0 -0.27703276827E+01 -0.14893831492E+02  0.29318350346E+02  0.33001009060E+02  0.00000000000E+00 0. -1.
</event>
<event>
 7    1  0.1891413E-013  0.7246172E+02  0.7816164E-02  0.1226708E+00
        -11   -1    0    0    0    0  0.00000000000E+00  0.00000000000E+00  0.45593999997E+02  0.45594000000E+02  0.51100000000E-03 0.  1.
         11   -1    0    0    0    0 -0.00000000000E+00 -0.00000000000E+00 -0.45593999997E+02  0.45594000000E+02  0.51100000000E-03 0. -1.
    9900012    2    1    2    0    0  0.66044753836E+01  0.77366212648E+01 -0.15722572897E+02  0.72461716274E+02  0.70000190166E+02 0.  0.
        -12    1    1    2    0    0 -0.66044753836E+01 -0.77366212648E+01  0.15722572897E+02  0.18726283726E+02  0.00000000000E+00 0.  1.
         11    1    3    3    0    0  0.99939210159E+01 -0.10877998190E+02 -0.11401091765E+02  0.18659962368E+02  0.51100000000E-03 0. -1.
        -11    1    3    3    0    0 -0.24497276096E+02 -0.41718388556E+00  0.23345823314E+01  0.24611803133E+02  0.51100000000E-03 0.  1.
         12    1    3    3    0    0  0.21107830464E+02  0.19031803341E+02 -0.66560634633E+01  0.29189950773E+02  0.00000000000E+00 0. -1.
</event>
<event>
 7    1  0.1891413E-013  0.7246164E+02  0.7816164E-02  0.1226708E+00
        -11   -1    0    0    0    0  0.00000000000E+00  0.00000000000E+00  0.45593999997E+02  0.45594000000E+02  0.51100000000E-03 0.  1.
         11   -1    0    0    0    0 -0.00000000000E+00 -0.00000000000E+00 -0.45593999997E+02  0.45594000000E+02  0.51100000000E-03 0. -1.
    9900012    2    1    2    0    0  0.29313473433E+01 -0.54418502545E+01 -0.17676823035E+02  0.72461638793E+02  0.70000089233E+02 0.  0.
        -12    1    1    2    0    0 -0.29313473433E+01  0.54418502545E+01  0.17676823035E+02  0.18726361207E+02  0.00000000000E+00 0.  1.
         11    1    3    3    0    0 -0.37310055580E+01  0.14120080244E+02  0.27826045115E+01  0.14867412576E+02  0.51100000000E-03 0. -1.
        -11    1    3    3    0    0  0.63730030516E+01  0.16116709009E+02 -0.11523739974E+02  0.20812497698E+02  0.51100000000E-03 0.  1.
        -12    1    3    3    0    0  0.28934984966E+00 -0.35678639508E+02 -0.89356875720E+01  0.36781728519E+02  0.00000000000E+00 0.  1.
</event>
<event>
 7    1  0.1891413E-013  0.7246165E+02  0.7816164E-02  0.1226708E+00
        -11   -1    0    0    0    0  0.00000000000E+00  0.00000000000E+00  0.45593999997E+02  0.45594000000E+02  0.51100000000E-03 0. -1.
         11   -1    0    0    0    0 -0.00000000000E+00 -0.00000000000E+00 -0.45593999997E+02  0.45594000000E+02  0.51100000000E-03 0.  1.
    9900012    2    1    2    0    0  0.18630578468E+02  0.18705851141E+01  0.28028587205E+00  0.72461652174E+02  0.70000106664E+02 0.  0.
        -12    1    1    2    0    0 -0.18630578468E+02 -0.18705851141E+01 -0.28028587205E+00  0.18726347826E+02  0.00000000000E+00 0.  1.
         11    1    3    3    0    0 -0.64456715449E+01 -0.70865161242E+00  0.15037751547E+02  0.16376288976E+02  0.51100000000E-03 0. -1.
        -11    1    3    3    0    0  0.16512603212E+02 -0.16949110433E+02  0.79238154182E+01  0.24954463736E+02  0.51100000000E-03 0.  1.
         12    1    3    3    0    0  0.85636468010E+01  0.19528347159E+02 -0.22681281093E+02  0.31130899462E+02  0.00000000000E+00 0. -1.
</event>
<event>
 7    1  0.1891413E-013  0.7246162E+02  0.7816164E-02  0.1226708E+00
        -11   -1    0    0    0    0  0.00000000000E+00  0.00000000000E+00  0.45593999997E+02  0.45594000000E+02  0.51100000000E-03 0.  1.
         11   -1    0    0    0    0 -0.00000000000E+00 -0.00000000000E+00 -0.45593999997E+02  0.45594000000E+02  0.51100000000E-03 0. -1.
    9900012    2    1    2    0    0 -0.73784287726E+01 -0.63961720709E+01 -0.15978892049E+02  0.72461622362E+02  0.70000067828E+02 0.  0.
        -12    1    1    2    0    0  0.73784287726E+01  0.63961720709E+01  0.15978892049E+02  0.18726377638E+02  0.00000000000E+00 0.  1.
         11    1    3    3    0    0 -0.13894916359E+02 -0.14215232254E+02  0.67021821754E+01  0.20977625577E+02  0.51100000000E-03 0. -1.
        -11    1    3    3    0    0 -0.70136950729E+01 -0.30529113240E+01  0.11114166330E+02  0.13492104343E+02  0.51100000000E-03 0.  1.
        -12    1    3    3    0    0  0.13530182660E+02  0.10871971507E+02 -0.33795240554E+02  0.37991892443E+02  0.00000000000E+00 0.  1.
</event>
<event>
 7    1  0.1891413E-013  0.7246151E+02  0.7816164E-02  0.1226708E+00
        -11   -1    0    0    0    0  0.00000000000E+00  0.00000000000E+00  0.45593999997E+02  0.45594000000E+02  0.51100000000E-03 0.  1.
         11   -1    0    0    0    0 -0.00000000000E+00 -0.00000000000E+00 -0.45593999997E+02  0.45594000000E+02  0.51100000000E-03 0. -1.
    9900012    2    1    2    0    0  0.21226976229E+01 -0.17106816248E+02 -0.73165786349E+01  0.72461512602E+02  0.69999924845E+02 0.  0.
        -12    1    1    2    0    0 -0.21226976229E+01  0.17106816248E+02  0.73165786349E+01  0.18726487398E+02  0.00000000000E+00 0.  1.
         11    1    3    3    0    0  0.17645073880E+02 -0.67039125850E+01 -0.11299433525E+02  0.21999278952E+02  0.51100000000E-03 0. -1.
        -11    1    3    3    0    0 -0.18367465750E+02  0.11969187464E+02 -0.98192051578E+01  0.24021699290E+02  0.51100000000E-03 0.  1.
         12    1    3    3    0    0  0.28450894926E+01 -0.22372091127E+02  0.13802060048E+02  0.26440534359E+02  0.00000000000E+00 0. -1.
</event>
<event>
 7    1  0.1891413E-013  0.7246160E+02  0.7816164E-02  0.1226708E+00
        -11   -1    0    0    0    0  0.00000000000E+00  0.00000000000E+00  0.45593999997E+02  0.45594000000E+02  0.51100000000E-03 0. -1.
         11   -1    0    0    0    0 -0.00000000000E+00 -0.00000000000E+00 -0.45593999997E+02  0.45594000000E+02  0.51100000000E-03 0.  1.
    9900012    2    1    2    0    0  0.57118134031E-01  0.12154459155E+02  0.14245843523E+02  0.72461596247E+02  0.70000033808E+02 0.  0.
        -12    1    1    2    0    0 -0.57118134031E-01 -0.12154459155E+02 -0.14245843523E+02  0.18726403753E+02  0.00000000000E+00 0.  1.
         11    1    3    3    0    0  0.28233299980E+02 -0.16399938563E+01 -0.44812494228E+01  0.28633728438E+02  0.51100000000E-03 0. -1.
        -11    1    3    3    0    0 -0.60333045848E+01  0.13488404387E+02  0.15559001617E+02  0.21457407781E+02  0.51100000000E-03 0.  1.
        -12    1    3    3    0    0 -0.22142877261E+02  0.30604862417E+00  0.31680913292E+01  0.22370460027E+02  0.00000000000E+00 0.  1.
</event>
<event>
 7    1  0.1891413E-013  0.7246159E+02  0.7816164E-02  0.1226708E+00
        -11   -1    0    0    0    0  0.00000000000E+00  0.00000000000E+00  0.45593999997E+02  0.45594000000E+02  0.51100000000E-03 0.  1.
         11   -1    0    0    0    0 -0.00000000000E+00 -0.00000000000E+00 -0.45593999997E+02  0.45594000000E+02  0.51100000000E-03 0. -1.
    9900012    2    1    2    0    0 -0.14837448260E+02  0.88029968286E+01 -0.72825734138E+01  0.72461588182E+02  0.70000023302E+02 0.  0.
        -12    1    1    2    0    0  0.14837448260E+02 -0.88029968286E+01  0.72825734138E+01  0.18726411818E+02  0.00000000000E+00 0.  1.
         11    1    3    3    0    0  0.16334989499E+02 -0.33865198264E+01 -0.21477424887E+02  0.27195223450E+02  0.51100000000E-03 0. -1.
        -11    1    3    3    0    0  0.41287453828E+00  0.55478260851E+01  0.11625716934E+02  0.12888216872E+02  0.51100000000E-03 0.  1.
        -12    1    3    3    0    0 -0.31585312298E+02  0.66416905699E+01  0.25691345396E+01  0.32378147860E+02  0.00000000000E+00 0.  1.
</event>
<event>
 7    1  0.1891413E-013  0.7246130E+02  0.7816164E-02  0.1226709E+00
        -11   -1    0    0    0    0  0.00000000000E+00  0.00000000000E+00  0.45593999997E+02  0.45594000000E+02  0.51100000000E-03 0.  1.
         11   -1    0    0    0    0 -0.00000000000E+00 -0.00000000000E+00 -0.45593999997E+02  0.45594000000E+02  0.51100000000E-03 0. -1.
    9900012    2    1    2    0    0 -0.53355604570E+01  0.17809415392E+02  0.22462776923E+01  0.72461301266E+02  0.69999649540E+02 0.  0.
        -12    1    1    2    0    0  0.53355604570E+01 -0.17809415392E+02 -0.22462776923E+01  0.18726698734E+02  0.00000000000E+00 0.  1.
         11    1    3    3    0    0 -0.25722835012E+02  0.17346373177E+02  0.20273069812E+02  0.37061546963E+02  0.51100000000E-03 0. -1.
        -11    1    3    3    0    0 -0.44445954378E+01 -0.28608428965E+01 -0.19613090704E+01  0.56378705390E+01  0.51100000000E-03 0.  1.
        -12    1    3    3    0    0  0.24831869993E+02  0.33238851114E+01 -0.16065483049E+02  0.29761883764E+02  0.00000000000E+00 0.  1.
</event>
<event>
 7    1  0.1891413E-013  0.7246158E+02  0.7816164E-02  0.1226708E+00
        -11   -1    0    0    0    0  0.00000000000E+00  0.00000000000E+00  0.45593999997E+02  0.45594000000E+02  0.51100000000E-03 0.  1.
         11   -1    0    0    0    0 -0.00000000000E+00 -0.00000000000E+00 -0.45593999997E+02  0.45594000000E+02  0.51100000000E-03 0. -1.
    9900012    2    1    2    0    0 -0.23261542631E+01  0.13194434667E+02 -0.13083379994E+02  0.72461576639E+02  0.70000008265E+02 0.  0.
        -12    1    1    2    0    0  0.23261542631E+01 -0.13194434667E+02  0.13083379994E+02  0.18726423361E+02  0.00000000000E+00 0.  1.
         11    1    3    3    0    0  0.19058664134E+02  0.16195524385E+02 -0.12348144231E+02  0.27892729427E+02  0.51100000000E-03 0. -1.
        -11    1    3    3    0    0 -0.14376866319E+02  0.14815227649E+02  0.96501394720E+01  0.22788384048E+02  0.51100000000E-03 0.  1.
        -12    1    3    3    0    0 -0.70079520781E+01 -0.17816317367E+02 -0.10385375235E+02  0.21780463163E+02  0.00000000000E+00 0.  1.
</event>
<event>
 7    1  0.1891413E-013  0.7246160E+02  0.7816164E-02  0.1226708E+00
        -11   -1    0    0    0    0  0.00000000000E+00  0.00000000000E+00  0.45593999997E+02  0.45594000000E+02  0.51100000000E-03 0.  1.
         11   -1    0    0    0    0 -0.00000000000E+00 -0.00000000000E+00 -0.45593999997E+02  0.45594000000E+02  0.51100000000E-03 0. -1.
    9900012    2    1    2    0    0  0.16374720513E+02  0.74835209434E+01 -0.51520494994E+01  0.72461596938E+02  0.70000034708E+02 0.  0.
        -12    1    1    2    0    0 -0.16374720513E+02 -0.74835209434E+01  0.51520494994E+01  0.18726403062E+02  0.00000000000E+00 0.  1.
         11    1    3    3    0    0 -0.17798705717E+02  0.21029722146E+02 -0.50884212620E+01  0.28016694486E+02  0.51100000000E-03 0. -1.
        -11    1    3    3    0    0  0.80759557599E+01  0.64975647342E+01  0.43553007985E+01  0.11243133648E+02  0.51100000000E-03 0.  1.
        -12    1    3    3    0    0  0.26097470470E+02 -0.20043765937E+02 -0.44189290359E+01  0.33201768804E+02  0.00000000000E+00 0.  1.
</event>
<event>
 7    1  0.1891413E-013  0.7246187E+02  0.7816164E-02  0.1226707E+00
        -11   -1    0    0    0    0  0.00000000000E+00  0.00000000000E+00  0.45593999997E+02  0.45594000000E+02  0.51100000000E-03 0.  1.
         11   -1    0    0    0    0 -0.00000000000E+00 -0.00000000000E+00 -0.45593999997E+02  0.45594000000E+02  0.51100000000E-03 0. -1.
    9900012    2    1    2    0    0  0.10643906859E+02 -0.56477701656E+01 -0.14334505372E+02  0.72461865714E+02  0.70000384837E+02 0.  0.
        -12    1    1    2    0    0 -0.10643906859E+02  0.56477701656E+01  0.14334505372E+02  0.18726134286E+02  0.00000000000E+00 0.  1.
         11    1    3    3    0    0  0.46753708231E+01 -0.20009119627E+01  0.10700531876E+02  0.11847536609E+02  0.51100000000E-03 0. -1.
        -11    1    3    3    0    0 -0.13271930014E+02  0.15859221859E+02  0.35910481944E+01  0.20989394266E+02  0.51100000000E-03 0.  1.
         12    1    3    3    0    0  0.19240466049E+02 -0.19506080062E+02 -0.28626085442E+02  0.39624934838E+02  0.00000000000E+00 0. -1.
</event>
<event>
 7    1  0.1891413E-013  0.7246159E+02  0.7816164E-02  0.1226708E+00
        -11   -1    0    0    0    0  0.00000000000E+00  0.00000000000E+00  0.45593999997E+02  0.45594000000E+02  0.51100000000E-03 0. -1.
         11   -1    0    0    0    0 -0.00000000000E+00 -0.00000000000E+00 -0.45593999997E+02  0.45594000000E+02  0.51100000000E-03 0.  1.
    9900012    2    1    2    0    0  0.17355256357E+02 -0.60616765292E+01  0.35678388244E+01  0.72461592992E+02  0.70000029567E+02 0.  0.
        -12    1    1    2    0    0 -0.17355256357E+02  0.60616765292E+01 -0.35678388244E+01  0.18726407008E+02  0.00000000000E+00 0.  1.
         11    1    3    3    0    0  0.66186369751E+01  0.10734582572E+02 -0.14140432354E+02  0.18947016805E+02  0.51100000000E-03 0. -1.
        -11    1    3    3    0    0 -0.42769185376E+01 -0.15675425306E+02 -0.12006714995E+02  0.20203271912E+02  0.51100000000E-03 0.  1.
         12    1    3    3    0    0  0.15013537920E+02 -0.11208337946E+01  0.29714986173E+02  0.33311304275E+02  0.00000000000E+00 0. -1.
</event>
<event>
 7    1  0.1891413E-013  0.7246155E+02  0.7816164E-02  0.1226708E+00
        -11   -1    0    0    0    0  0.00000000000E+00  0.00000000000E+00  0.45593999997E+02  0.45594000000E+02  0.51100000000E-03 0. -1.
         11   -1    0    0    0    0 -0.00000000000E+00 -0.00000000000E+00 -0.45593999997E+02  0.45594000000E+02  0.51100000000E-03 0.  1.
    9900012    2    1    2    0    0 -0.10990489383E+02 -0.15091354066E+02 -0.14629386317E+01  0.72461547750E+02  0.69999970632E+02 0.  0.
        -12    1    1    2    0    0  0.10990489383E+02  0.15091354066E+02  0.14629386317E+01  0.18726452250E+02  0.00000000000E+00 0.  1.
         11    1    3    3    0    0 -0.24245642049E+02  0.28535099546E+01 -0.14195467412E+02  0.28240130537E+02  0.51100000000E-03 0. -1.
        -11    1    3    3    0    0 -0.48200705392E+01  0.85955115089E+01  0.55755818577E+01  0.11322676866E+02  0.51100000000E-03 0.  1.
         12    1    3    3    0    0  0.18075223206E+02 -0.26540375529E+02  0.71569469222E+01  0.32898740347E+02  0.00000000000E+00 0. -1.
</event>
<event>
 7    1  0.1891413E-013  0.7246164E+02  0.7816164E-02  0.1226708E+00
        -11   -1    0    0    0    0  0.00000000000E+00  0.00000000000E+00  0.45593999997E+02  0.45594000000E+02  0.51100000000E-03 0.  1.
         11   -1    0    0    0    0 -0.00000000000E+00 -0.00000000000E+00 -0.45593999997E+02  0.45594000000E+02  0.51100000000E-03 0. -1.
    9900012    2    1    2    0    0 -0.78794240887E+01 -0.13871415358E+02 -0.98068815604E+01  0.72461643869E+02  0.70000095845E+02 0.  0.
        -12    1    1    2    0    0  0.78794240887E+01  0.13871415358E+02  0.98068815604E+01  0.18726356131E+02  0.00000000000E+00 0.  1.
         11    1    3    3    0    0 -0.21061749371E+02 -0.22396062333E+02 -0.83877995392E+01  0.31867476774E+02  0.51100000000E-03 0. -1.
        -11    1    3    3    0    0 -0.10693505551E+02 -0.10041923887E+01 -0.87595343668E+01  0.13859614205E+02  0.51100000000E-03 0.  1.
        -12    1    3    3    0    0  0.23875830833E+02  0.95288393640E+01  0.73404523456E+01  0.26734552890E+02  0.00000000000E+00 0.  1.
</event>
<event>
 7    1  0.1891413E-013  0.7246159E+02  0.7816164E-02  0.1226708E+00
        -11   -1    0    0    0    0  0.00000000000E+00  0.00000000000E+00  0.45593999997E+02  0.45594000000E+02  0.51100000000E-03 0. -1.
         11   -1    0    0    0    0 -0.00000000000E+00 -0.00000000000E+00 -0.45593999997E+02  0.45594000000E+02  0.51100000000E-03 0.  1.
    9900012    2    1    2    0    0  0.11995255966E+02  0.71303099448E+01  0.12488027064E+02  0.72461593363E+02  0.70000030051E+02 0.  0.
        -12    1    1    2    0    0 -0.11995255966E+02 -0.71303099448E+01 -0.12488027064E+02  0.18726406637E+02  0.00000000000E+00 0.  1.
         11    1    3    3    0    0  0.44427402868E+01 -0.13444494252E+02 -0.61243972882E+01  0.15427268370E+02  0.51100000000E-03 0. -1.
        -11    1    3    3    0    0  0.26380664444E+02  0.59872483229E+00  0.76326426880E+01  0.27469167490E+02  0.51100000000E-03 0.  1.
        -12    1    3    3    0    0 -0.18828148765E+02  0.19976079365E+02  0.10979781664E+02  0.29565157502E+02  0.00000000000E+00 0.  1.
</event>
<event>
 7    1  0.1891413E-013  0.7246159E+02  0.7816164E-02  0.1226708E+00
        -11   -1    0    0    0    0  0.00000000000E+00  0.00000000000E+00  0.45593999997E+02  0.45594000000E+02  0.51100000000E-03 0.  1.
         11   -1    0    0    0    0 -0.00000000000E+00 -0.00000000000E+00 -0.45593999997E+02  0.45594000000E+02  0.51100000000E-03 0. -1.
    9900012    2    1    2    0    0  0.72503660490E+00  0.54475094736E+01 -0.17901884870E+02  0.72461587652E+02  0.70000022611E+02 0.  0.
        -12    1    1    2    0    0 -0.72503660490E+00 -0.54475094736E+01  0.17901884870E+02  0.18726412348E+02  0.00000000000E+00 0.  1.
         11    1    3    3    0    0  0.18656145784E+01 -0.77236954317E+01 -0.22729859660E+02  0.24078673329E+02  0.51100000000E-03 0. -1.
        -11    1    3    3    0    0  0.13734379399E+01  0.74584316564E+01 -0.20730095279E+02  0.22073771428E+02  0.51100000000E-03 0.  1.
        -12    1    3    3    0    0 -0.25140159134E+01  0.57127732489E+01  0.25558070068E+02  0.26309142894E+02  0.00000000000E+00 0.  1.
</event>
<event>
 7    1  0.1891413E-013  0.7246159E+02  0.7816164E-02  0.1226708E+00
        -11   -1    0    0    0    0  0.00000000000E+00  0.00000000000E+00  0.45593999997E+02  0.45594000000E+02  0.51100000000E-03 0. -1.
         11   -1    0    0    0    0 -0.00000000000E+00 -0.00000000000E+00 -0.45593999997E+02  0.45594000000E+02  0.51100000000E-03 0.  1.
    9900012    2    1    2    0    0  0.64722695252E+01 -0.35629175429E+01  0.17207375880E+02  0.72461589802E+02  0.70000025412E+02 0.  0.
        -12    1    1    2    0    0 -0.64722695252E+01  0.35629175429E+01 -0.17207375880E+02  0.18726410198E+02  0.00000000000E+00 0.  1.
         11    1    3    3    0    0  0.84729968773E+01  0.15579384342E+01  0.24352088485E+02  0.25831048413E+02  0.51100000000E-03 0. -1.
        -11    1    3    3    0    0 -0.19779571357E+02 -0.13582365173E+02  0.34995306200E+01  0.24247861794E+02  0.51100000000E-03 0.  1.
        -12    1    3    3    0    0  0.17778844005E+02  0.84615091961E+01 -0.10644243225E+02  0.22382679595E+02  0.00000000000E+00 0.  1.
</event>
<event>
 7    1  0.1891413E-013  0.7246156E+02  0.7816164E-02  0.1226708E+00
        -11   -1    0    0    0    0  0.00000000000E+00  0.00000000000E+00  0.45593999997E+02  0.45594000000E+02  0.51100000000E-03 0. -1.
         11   -1    0    0    0    0 -0.00000000000E+00 -0.00000000000E+00 -0.45593999997E+02  0.45594000000E+02  0.51100000000E-03 0.  1.
    9900012    2    1    2    0    0 -0.16860476810E+02 -0.53779665893E+01 -0.61221940438E+01  0.72461562463E+02  0.69999989799E+02 0.  0.
        -12    1    1    2    0    0  0.16860476810E+02  0.53779665893E+01  0.61221940438E+01  0.18726437537E+02  0.00000000000E+00 0.  1.
         11    1    3    3    0    0 -0.96992906917E+01  0.54295673579E+01  0.58509351614E+01  0.12561444349E+02  0.51100000000E-03 0. -1.
        -11    1    3    3    0    0 -0.49171753729E+01  0.12205794009E+02  0.17841927824E+02  0.22169673199E+02  0.51100000000E-03 0.  1.
        -12    1    3    3    0    0 -0.22440107456E+01 -0.23013327956E+02 -0.29815057029E+02  0.37730444915E+02  0.00000000000E+00 0.  1.
</event>
<event>
 7    1  0.1891413E-013  0.7246158E+02  0.7816164E-02  0.1226708E+00
        -11   -1    0    0    0    0  0.00000000000E+00  0.00000000000E+00  0.45593999997E+02  0.45594000000E+02  0.51100000000E-03 0. -1.
         11   -1    0    0    0    0 -0.00000000000E+00 -0.00000000000E+00 -0.45593999997E+02  0.45594000000E+02  0.51100000000E-03 0.  1.
    9900012    2    1    2    0    0 -0.61802970968E+01 -0.32876687366E+01  0.17368768595E+02  0.72461575877E+02  0.70000007273E+02 0.  0.
        -12    1    1    2    0    0  0.61802970968E+01  0.32876687366E+01 -0.17368768595E+02  0.18726424123E+02  0.00000000000E+00 0.  1.
         11    1    3    3    0    0  0.28682620060E+01 -0.14886520016E+02  0.15473499357E+02  0.21662515729E+02  0.51100000000E-03 0. -1.
        -11    1    3    3    0    0  0.16319020810E+02 -0.64668017090E+01  0.76167780187E+01  0.19134922843E+02  0.51100000000E-03 0.  1.
        -12    1    3    3    0    0 -0.25367579913E+02  0.18065652989E+02 -0.57215087804E+01  0.31664137305E+02  0.00000000000E+00 0.  1.
</event>
<event>
 7    1  0.1891413E-013  0.7246156E+02  0.7816164E-02  0.1226708E+00
        -11   -1    0    0    0    0  0.00000000000E+00  0.00000000000E+00  0.45593999997E+02  0.45594000000E+02  0.51100000000E-03 0. -1.
         11   -1    0    0    0    0 -0.00000000000E+00 -0.00000000000E+00 -0.45593999997E+02  0.45594000000E+02  0.51100000000E-03 0.  1.
    9900012    2    1    2    0    0 -0.12498893022E+02 -0.11276070158E+02 -0.82041084119E+01  0.72461562009E+02  0.69999989207E+02 0.  0.
        -12    1    1    2    0    0  0.12498893022E+02  0.11276070158E+02  0.82041084119E+01  0.18726437991E+02  0.00000000000E+00 0.  1.
         11    1    3    3    0    0  0.55277359155E+01 -0.12427198980E+02  0.35054825037E+01  0.14045623755E+02  0.51100000000E-03 0. -1.
        -11    1    3    3    0    0  0.81296283781E+01  0.20049396370E+02 -0.14471751498E+02  0.26028844463E+02  0.51100000000E-03 0.  1.
         12    1    3    3    0    0 -0.26156257316E+02 -0.18898267549E+02  0.27621605824E+01  0.32387093791E+02  0.00000000000E+00 0. -1.
</event>
<event>
 7    1  0.1891413E-013  0.7246157E+02  0.7816164E-02  0.1226708E+00
        -11   -1    0    0    0    0  0.00000000000E+00  0.00000000000E+00  0.45593999997E+02  0.45594000000E+02  0.51100000000E-03 0.  1.
         11   -1    0    0    0    0 -0.00000000000E+00 -0.00000000000E+00 -0.45593999997E+02  0.45594000000E+02  0.51100000000E-03 0. -1.
    9900012    2    1    2    0    0  0.77635572267E+01  0.15586815715E+00 -0.17040605090E+02  0.72461565809E+02  0.69999994157E+02 0.  0.
        -12    1    1    2    0    0 -0.77635572267E+01 -0.15586815715E+00  0.17040605090E+02  0.18726434191E+02  0.00000000000E+00 0.  1.
         11    1    3    3    0    0  0.42963651952E+01  0.62495202029E+01  0.48649865288E+01  0.90101804001E+01  0.51100000000E-03 0. -1.
        -11    1    3    3    0    0 -0.18448533464E+02  0.18808769625E+02 -0.86757058450E+01  0.27737809466E+02  0.51100000000E-03 0.  1.
         12    1    3    3    0    0  0.21915725496E+02 -0.24902421670E+02 -0.13229885774E+02  0.35713575943E+02  0.00000000000E+00 0. -1.
</event>
<event>
 7    1  0.1891413E-013  0.7246156E+02  0.7816164E-02  0.1226708E+00
        -11   -1    0    0    0    0  0.00000000000E+00  0.00000000000E+00  0.45593999997E+02  0.45594000000E+02  0.51100000000E-03 0.  1.
         11   -1    0    0    0    0 -0.00000000000E+00 -0.00000000000E+00 -0.45593999997E+02  0.45594000000E+02  0.51100000000E-03 0. -1.
    9900012    2    1    2    0    0 -0.10141487159E+02 -0.31821920908E+01 -0.15417630666E+02  0.72461562975E+02  0.69999990466E+02 0.  0.
        -12    1    1    2    0    0  0.10141487159E+02  0.31821920908E+01  0.15417630666E+02  0.18726437025E+02  0.00000000000E+00 0.  1.
         11    1    3    3    0    0  0.89001920827E+01  0.35371907935E+01 -0.23315737717E+02  0.25206125512E+02  0.51100000000E-03 0. -1.
        -11    1    3    3    0    0  0.13263544100E+02  0.11095327282E+01  0.31518646760E+01  0.13677971932E+02  0.51100000000E-03 0.  1.
        -12    1    3    3    0    0 -0.32305223341E+02 -0.78289156126E+01  0.47462423746E+01  0.33577465531E+02  0.00000000000E+00 0.  1.
</event>
<event>
 7    1  0.1891413E-013  0.7246157E+02  0.7816164E-02  0.1226708E+00
        -11   -1    0    0    0    0  0.00000000000E+00  0.00000000000E+00  0.45593999997E+02  0.45594000000E+02  0.51100000000E-03 0. -1.
         11   -1    0    0    0    0 -0.00000000000E+00 -0.00000000000E+00 -0.45593999997E+02  0.45594000000E+02  0.51100000000E-03 0.  1.
    9900012    2    1    2    0    0  0.11630821107E+02  0.13759650215E+02 -0.51063705664E+01  0.72461574980E+02  0.70000006105E+02 0.  0.
        -12    1    1    2    0    0 -0.11630821107E+02 -0.13759650215E+02  0.51063705664E+01  0.18726425020E+02  0.00000000000E+00 0.  1.
         11    1    3    3    0    0  0.32097128568E+02  0.46015621176E+01 -0.35175871337E+01  0.32615540096E+02  0.51100000000E-03 0. -1.
        -11    1    3    3    0    0  0.81889827742E+00 -0.10683698647E+02 -0.36748337499E+00  0.10721336459E+02  0.51100000000E-03 0.  1.
        -12    1    3    3    0    0 -0.21285205739E+02  0.19841786745E+02 -0.12213000577E+01  0.29124698426E+02  0.00000000000E+00 0.  1.
</event>
<event>
 7    1  0.1891413E-013  0.7246157E+02  0.7816164E-02  0.1226708E+00
        -11   -1    0    0    0    0  0.00000000000E+00  0.00000000000E+00  0.45593999997E+02  0.45594000000E+02  0.51100000000E-03 0. -1.
         11   -1    0    0    0    0 -0.00000000000E+00 -0.00000000000E+00 -0.45593999997E+02  0.45594000000E+02  0.51100000000E-03 0.  1.
    9900012    2    1    2    0    0 -0.71973161441E+01  0.45785218345E+01  0.16670782615E+02  0.72461569083E+02  0.69999998422E+02 0.  0.
        -12    1    1    2    0    0  0.71973161441E+01 -0.45785218345E+01 -0.16670782615E+02  0.18726430917E+02  0.00000000000E+00 0.  1.
         11    1    3    3    0    0  0.52164167816E+01  0.11064124197E+02  0.27373681277E+02  0.29982399424E+02  0.51100000000E-03 0. -1.
        -11    1    3    3    0    0  0.31319506937E+01  0.11161874672E+02  0.65462494935E+01  0.13313524854E+02  0.51100000000E-03 0.  1.
        -12    1    3    3    0    0 -0.15545683619E+02 -0.17647477034E+02 -0.17249148155E+02  0.29165644806E+02  0.00000000000E+00 0.  1.
</event>
<event>
 7    1  0.1891413E-013  0.7246151E+02  0.7816164E-02  0.1226708E+00
        -11   -1    0    0    0    0  0.00000000000E+00  0.00000000000E+00  0.45593999997E+02  0.45594000000E+02  0.51100000000E-03 0.  1.
         11   -1    0    0    0    0 -0.00000000000E+00 -0.00000000000E+00 -0.45593999997E+02  0.45594000000E+02  0.51100000000E-03 0. -1.
    9900012    2    1    2    0    0 -0.18364066831E+01 -0.18611519532E+02 -0.95933311721E+00  0.72461511572E+02  0.69999923503E+02 0.  0.
        -12    1    1    2    0    0  0.18364066831E+01  0.18611519532E+02  0.95933311721E+00  0.18726488428E+02  0.00000000000E+00 0.  1.
         11    1    3    3    0    0 -0.10767761159E+02 -0.14313073066E+01 -0.53788267730E+01  0.12121266381E+02  0.51100000000E-03 0. -1.
        -11    1    3    3    0    0 -0.93028116078E+01  0.14968088176E+02 -0.10464804768E+02  0.20496294947E+02  0.51100000000E-03 0.  1.
         12    1    3    3    0    0  0.18234166083E+02 -0.32148300402E+02  0.14884298423E+02  0.39843950244E+02  0.00000000000E+00 0. -1.
</event>
<event>
 7    1  0.1891413E-013  0.7246157E+02  0.7816164E-02  0.1226708E+00
        -11   -1    0    0    0    0  0.00000000000E+00  0.00000000000E+00  0.45593999997E+02  0.45594000000E+02  0.51100000000E-03 0.  1.
         11   -1    0    0    0    0 -0.00000000000E+00 -0.00000000000E+00 -0.45593999997E+02  0.45594000000E+02  0.51100000000E-03 0. -1.
    9900012    2    1    2    0    0 -0.14197508043E+01 -0.16196432591E+02 -0.92918888433E+01  0.72461566295E+02  0.69999994791E+02 0.  0.
        -12    1    1    2    0    0  0.14197508043E+01  0.16196432591E+02  0.92918888433E+01  0.18726433705E+02  0.00000000000E+00 0.  1.
         11    1    3    3    0    0 -0.27148921996E+02 -0.49817749557E+01 -0.13763334090E+02  0.30843336603E+02  0.51100000000E-03 0. -1.
        -11    1    3    3    0    0  0.14286188588E+02 -0.38112994310E+01 -0.12841914910E+02  0.19584074309E+02  0.51100000000E-03 0.  1.
        -12    1    3    3    0    0  0.11442982604E+02 -0.74033582042E+01  0.17313360157E+02  0.22034155384E+02  0.00000000000E+00 0.  1.
</event>
<event>
 7    1  0.1891413E-013  0.7246157E+02  0.7816164E-02  0.1226708E+00
        -11   -1    0    0    0    0  0.00000000000E+00  0.00000000000E+00  0.45593999997E+02  0.45594000000E+02  0.51100000000E-03 0.  1.
         11   -1    0    0    0    0 -0.00000000000E+00 -0.00000000000E+00 -0.45593999997E+02  0.45594000000E+02  0.51100000000E-03 0. -1.
    9900012    2    1    2    0    0  0.10375841706E+02  0.21212480483E+00 -0.15587687306E+02  0.72461572589E+02  0.70000002989E+02 0.  0.
        -12    1    1    2    0    0 -0.10375841706E+02 -0.21212480483E+00  0.15587687306E+02  0.18726427411E+02  0.00000000000E+00 0.  1.
         11    1    3    3    0    0  0.11758189777E+02 -0.39267479436E+01  0.36682173459E+01  0.12927884398E+02  0.51100000000E-03 0. -1.
        -11    1    3    3    0    0  0.28968226729E+00  0.33386993192E+01  0.19977440749E+02  0.20256578390E+02  0.51100000000E-03 0.  1.
         12    1    3    3    0    0 -0.16720303379E+01  0.80017342920E+00 -0.39233345400E+02  0.39277109800E+02  0.00000000000E+00 0. -1.
</event>
<event>
 7    1  0.1891413E-013  0.7246158E+02  0.7816164E-02  0.1226708E+00
        -11   -1    0    0    0    0  0.00000000000E+00  0.00000000000E+00  0.45593999997E+02  0.45594000000E+02  0.51100000000E-03 0. -1.
         11   -1    0    0    0    0 -0.00000000000E+00 -0.00000000000E+00 -0.45593999997E+02  0.45594000000E+02  0.51100000000E-03 0.  1.
    9900012    2    1    2    0    0 -0.89051222716E+01  0.13686313661E+02  0.91685626195E+01  0.72461576829E+02  0.70000008512E+02 0.  0.
        -12    1    1    2    0    0  0.89051222716E+01 -0.13686313661E+02 -0.91685626195E+01  0.18726423171E+02  0.00000000000E+00 0.  1.
         11    1    3    3    0    0  0.18741008599E+02 -0.23317189198E+01 -0.18943379655E+01  0.18980274840E+02  0.51100000000E-03 0. -1.
        -11    1    3    3    0    0 -0.82256877031E+01  0.52413768800E+01 -0.15835583492E+02  0.18598378278E+02  0.51100000000E-03 0.  1.
         12    1    3    3    0    0 -0.19420443167E+02  0.10776655700E+02  0.26898484077E+02  0.34882923710E+02  0.00000000000E+00 0. -1.
</event>
<event>
 7    1  0.1891413E-013  0.7246153E+02  0.7816164E-02  0.1226708E+00
        -11   -1    0    0    0    0  0.00000000000E+00  0.00000000000E+00  0.45593999997E+02  0.45594000000E+02  0.51100000000E-03 0. -1.
         11   -1    0    0    0    0 -0.00000000000E+00 -0.00000000000E+00 -0.45593999997E+02  0.45594000000E+02  0.51100000000E-03 0.  1.
    9900012    2    1    2    0    0  0.12200524089E+02 -0.13609965163E+02 -0.40739193982E+01  0.72461527854E+02  0.69999944713E+02 0.  0.
        -12    1    1    2    0    0 -0.12200524089E+02  0.13609965163E+02  0.40739193982E+01  0.18726472146E+02  0.00000000000E+00 0.  1.
         11    1    3    3    0    0 -0.11244893475E+02  0.54813339081E+00  0.18891082989E+02  0.21991386864E+02  0.51100000000E-03 0. -1.
        -11    1    3    3    0    0 -0.50480721883E+01 -0.32437467359E+01 -0.18727092011E+02  0.19664915488E+02  0.51100000000E-03 0.  1.
        -12    1    3    3    0    0  0.28493489752E+02 -0.10914351818E+02 -0.42379103763E+01  0.30805225502E+02  0.00000000000E+00 0.  1.
</event>
<event>
 7    1  0.1891413E-013  0.7246157E+02  0.7816164E-02  0.1226708E+00
        -11   -1    0    0    0    0  0.00000000000E+00  0.00000000000E+00  0.45593999997E+02  0.45594000000E+02  0.51100000000E-03 0.  1.
         11   -1    0    0    0    0 -0.00000000000E+00 -0.00000000000E+00 -0.45593999997E+02  0.45594000000E+02  0.51100000000E-03 0. -1.
    9900012    2    1    2    0    0 -0.16321077039E+02  0.83342891168E+01 -0.38524516873E+01  0.72461566415E+02  0.69999994947E+02 0.  0.
        -12    1    1    2    0    0  0.16321077039E+02 -0.83342891168E+01  0.38524516873E+01  0.18726433585E+02  0.00000000000E+00 0.  1.
         11    1    3    3    0    0  0.11308318845E+02 -0.93142474455E+01  0.69574941696E+01  0.16218508130E+02  0.51100000000E-03 0. -1.
        -11    1    3    3    0    0 -0.24182925066E+00 -0.81364421925E+01  0.10284665039E+02  0.13116192594E+02  0.51100000000E-03 0.  1.
         12    1    3    3    0    0 -0.27387566634E+02  0.25784978755E+02 -0.21094610896E+02  0.43126865691E+02  0.00000000000E+00 0. -1.
</event>
<event>
 7    1  0.1891413E-013  0.7246157E+02  0.7816164E-02  0.1226708E+00
        -11   -1    0    0    0    0  0.00000000000E+00  0.00000000000E+00  0.45593999997E+02  0.45594000000E+02  0.51100000000E-03 0.  1.
         11   -1    0    0    0    0 -0.00000000000E+00 -0.00000000000E+00 -0.45593999997E+02  0.45594000000E+02  0.51100000000E-03 0. -1.
    9900012    2    1    2    0    0  0.64809077281E+01  0.17046214995E+02  0.42548116009E+01  0.72461573955E+02  0.70000004769E+02 0.  0.
        -12    1    1    2    0    0 -0.64809077281E+01 -0.17046214995E+02 -0.42548116009E+01  0.18726426045E+02  0.00000000000E+00 0.  1.
         11    1    3    3    0    0  0.16876610011E+02  0.11822783609E+02 -0.13348717338E+02  0.24551709361E+02  0.51100000000E-03 0. -1.
        -11    1    3    3    0    0 -0.56314811484E+01  0.73631580123E+01 -0.13497081652E+02  0.16373786649E+02  0.51100000000E-03 0.  1.
        -12    1    3    3    0    0 -0.47642211343E+01 -0.21397266257E+01  0.31100610591E+02  0.31536077945E+02  0.00000000000E+00 0.  1.
</event>
<event>
 7    1  0.1891413E-013  0.7246159E+02  0.7816164E-02  0.1226708E+00
        -11   -1    0    0    0    0  0.00000000000E+00  0.00000000000E+00  0.45593999997E+02  0.45594000000E+02  0.51100000000E-03 0.  1.
         11   -1    0    0    0    0 -0.00000000000E+00 -0.00000000000E+00 -0.45593999997E+02  0.45594000000E+02  0.51100000000E-03 0. -1.
    9900012    2    1    2    0    0  0.11384483911E+02 -0.14607901709E+02 -0.27714773408E+01  0.72461592098E+02  0.70000028403E+02 0.  0.
        -12    1    1    2    0    0 -0.11384483911E+02  0.14607901709E+02  0.27714773408E+01  0.18726407902E+02  0.00000000000E+00 0.  1.
         11    1    3    3    0    0  0.17436630010E+02 -0.15107483267E+02  0.99615459454E+01  0.25129753573E+02  0.51100000000E-03 0. -1.
        -11    1    3    3    0    0 -0.14176803883E+02 -0.10117968417E+02 -0.24133176901E+02  0.29761809099E+02  0.51100000000E-03 0.  1.
         12    1    3    3    0    0  0.81246577835E+01  0.10617549975E+02  0.11400153615E+02  0.17570029426E+02  0.00000000000E+00 0. -1.
</event>
<event>
 7    1  0.1891413E-013  0.7246159E+02  0.7816164E-02  0.1226708E+00
        -11   -1    0    0    0    0  0.00000000000E+00  0.00000000000E+00  0.45593999997E+02  0.45594000000E+02  0.51100000000E-03 0.  1.
         11   -1    0    0    0    0 -0.00000000000E+00 -0.00000000000E+00 -0.45593999997E+02  0.45594000000E+02  0.51100000000E-03 0. -1.
    9900012    2    1    2    0    0 -0.17951199472E+02  0.40526607722E+01  0.34653531995E+01  0.72461593655E+02  0.70000030431E+02 0.  0.
        -12    1    1    2    0    0  0.17951199472E+02 -0.40526607722E+01 -0.34653531995E+01  0.18726406345E+02  0.00000000000E+00 0.  1.
         11    1    3    3    0    0  0.32228159419E+01  0.13594237259E+01  0.73221793782E-01  0.34985621553E+01  0.51100000000E-03 0. -1.
        -11    1    3    3    0    0 -0.41480910389E+01  0.10924799396E+02  0.32339305182E+02  0.34385877349E+02  0.51100000000E-03 0.  1.
         12    1    3    3    0    0 -0.17025924375E+02 -0.82315623495E+01 -0.28947173777E+02  0.34577154151E+02  0.00000000000E+00 0. -1.
</event>
<event>
 7    1  0.1891413E-013  0.7246155E+02  0.7816164E-02  0.1226708E+00
        -11   -1    0    0    0    0  0.00000000000E+00  0.00000000000E+00  0.45593999997E+02  0.45594000000E+02  0.51100000000E-03 0. -1.
         11   -1    0    0    0    0 -0.00000000000E+00 -0.00000000000E+00 -0.45593999997E+02  0.45594000000E+02  0.51100000000E-03 0.  1.
    9900012    2    1    2    0    0 -0.91653053936E+01 -0.90575571387E+01  0.13588154520E+02  0.72461545249E+02  0.69999967374E+02 0.  0.
        -12    1    1    2    0    0  0.91653053936E+01  0.90575571387E+01 -0.13588154520E+02  0.18726454751E+02  0.00000000000E+00 0.  1.
         11    1    3    3    0    0  0.71811296578E+01  0.37145051628E+00  0.11574968314E+01  0.72832958079E+01  0.51100000000E-03 0. -1.
        -11    1    3    3    0    0  0.25328376588E+01  0.22252669516E+02 -0.70361256698E+01  0.23475596519E+02  0.51100000000E-03 0.  1.
         12    1    3    3    0    0 -0.18879272710E+02 -0.31681677171E+02  0.19466783358E+02  0.41702652923E+02  0.00000000000E+00 0. -1.
</event>
<event>
 7    1  0.1891413E-013  0.7246160E+02  0.7816164E-02  0.1226708E+00
        -11   -1    0    0    0    0  0.00000000000E+00  0.00000000000E+00  0.45593999997E+02  0.45594000000E+02  0.51100000000E-03 0.  1.
         11   -1    0    0    0    0 -0.00000000000E+00 -0.00000000000E+00 -0.45593999997E+02  0.45594000000E+02  0.51100000000E-03 0. -1.
    9900012    2    1    2    0    0 -0.14281871253E+02  0.70999397715E-01  0.12112032710E+02  0.72461595546E+02  0.70000032895E+02 0.  0.
        -12    1    1    2    0    0  0.14281871253E+02 -0.70999397715E-01 -0.12112032710E+02  0.18726404454E+02  0.00000000000E+00 0.  1.
         11    1    3    3    0    0 -0.60284140778E+01 -0.13208649584E+02 -0.16680110005E+02  0.22114164469E+02  0.51100000000E-03 0. -1.
        -11    1    3    3    0    0 -0.30479222437E+01 -0.13587728830E+02  0.91919751818E+01  0.16685580983E+02  0.51100000000E-03 0.  1.
         12    1    3    3    0    0 -0.52055349317E+01  0.26867377811E+02  0.19600167533E+02  0.33661850093E+02  0.00000000000E+00 0. -1.
</event>
<event>
 7    1  0.1891413E-013  0.7246167E+02  0.7816164E-02  0.1226708E+00
        -11   -1    0    0    0    0  0.00000000000E+00  0.00000000000E+00  0.45593999997E+02  0.45594000000E+02  0.51100000000E-03 0. -1.
         11   -1    0    0    0    0 -0.00000000000E+00 -0.00000000000E+00 -0.45593999997E+02  0.45594000000E+02  0.51100000000E-03 0.  1.
    9900012    2    1    2    0    0 -0.17658560049E+02  0.58456357053E+01 -0.21631310699E+01  0.72461672655E+02  0.70000133344E+02 0.  0.
        -12    1    1    2    0    0  0.17658560049E+02 -0.58456357053E+01  0.21631310699E+01  0.18726327345E+02  0.00000000000E+00 0.  1.
         11    1    3    3    0    0  0.13089794405E+02  0.11800524426E+01 -0.28150831249E+00  0.13145892459E+02  0.51100000000E-03 0. -1.
        -11    1    3    3    0    0  0.32050937712E+01 -0.17652140679E+02 -0.48237265034E+01  0.18577917921E+02  0.51100000000E-03 0.  1.
        -12    1    3    3    0    0 -0.33953448225E+02  0.22317723942E+02  0.29421037461E+01  0.40737862276E+02  0.00000000000E+00 0.  1.
</event>
<event>
 7    1  0.1891413E-013  0.7246146E+02  0.7816164E-02  0.1226708E+00
        -11   -1    0    0    0    0  0.00000000000E+00  0.00000000000E+00  0.45593999997E+02  0.45594000000E+02  0.51100000000E-03 0. -1.
         11   -1    0    0    0    0 -0.00000000000E+00 -0.00000000000E+00 -0.45593999997E+02  0.45594000000E+02  0.51100000000E-03 0.  1.
    9900012    2    1    2    0    0  0.14252891469E+02  0.49954234464E+01  0.11071767774E+02  0.72461462352E+02  0.69999859385E+02 0.  0.
        -12    1    1    2    0    0 -0.14252891469E+02 -0.49954234464E+01 -0.11071767774E+02  0.18726537648E+02  0.00000000000E+00 0.  1.
         11    1    3    3    0    0  0.59246820237E+01  0.31565600570E+02  0.18495496216E+02  0.37061737372E+02  0.51100000000E-03 0. -1.
        -11    1    3    3    0    0  0.49803518459E+01  0.16970218542E+01  0.16657781774E+01  0.55189314980E+01  0.51100000000E-03 0.  1.
        -12    1    3    3    0    0  0.33478575990E+01 -0.28267198978E+02 -0.90895066193E+01  0.29880793483E+02  0.00000000000E+00 0.  1.
</event>
<event>
 7    1  0.1891413E-013  0.7246154E+02  0.7816164E-02  0.1226708E+00
        -11   -1    0    0    0    0  0.00000000000E+00  0.00000000000E+00  0.45593999997E+02  0.45594000000E+02  0.51100000000E-03 0.  1.
         11   -1    0    0    0    0 -0.00000000000E+00 -0.00000000000E+00 -0.45593999997E+02  0.45594000000E+02  0.51100000000E-03 0. -1.
    9900012    2    1    2    0    0  0.75689494529E+01  0.32139327543E+01 -0.16824441612E+02  0.72461542911E+02  0.69999964328E+02 0.  0.
        -12    1    1    2    0    0 -0.75689494529E+01 -0.32139327543E+01  0.16824441612E+02  0.18726457089E+02  0.00000000000E+00 0.  1.
         11    1    3    3    0    0 -0.19728430534E+01 -0.62971605756E+00 -0.16065254471E+01  0.26209876573E+01  0.51100000000E-03 0. -1.
        -11    1    3    3    0    0 -0.16672800881E+02 -0.22037081861E+02  0.45945112913E+01  0.28012939875E+02  0.51100000000E-03 0.  1.
         12    1    3    3    0    0  0.26214593387E+02  0.25880730673E+02 -0.19812427456E+02  0.41827615379E+02  0.00000000000E+00 0. -1.
</event>
<event>
 7    1  0.1891413E-013  0.7246157E+02  0.7816164E-02  0.1226708E+00
        -11   -1    0    0    0    0  0.00000000000E+00  0.00000000000E+00  0.45593999997E+02  0.45594000000E+02  0.51100000000E-03 0. -1.
         11   -1    0    0    0    0 -0.00000000000E+00 -0.00000000000E+00 -0.45593999997E+02  0.45594000000E+02  0.51100000000E-03 0.  1.
    9900012    2    1    2    0    0 -0.31272879982E+01 -0.18152037486E+02  0.33768105343E+01  0.72461568292E+02  0.69999997391E+02 0.  0.
        -12    1    1    2    0    0  0.31272879982E+01  0.18152037486E+02 -0.33768105343E+01  0.18726431708E+02  0.00000000000E+00 0.  1.
         11    1    3    3    0    0  0.16036914179E+02  0.16421279190E+02  0.77838307140E+01  0.24236935604E+02  0.51100000000E-03 0. -1.
        -11    1    3    3    0    0 -0.59743441335E+01  0.37707258176E+01 -0.29307649713E+01  0.76485648716E+01  0.51100000000E-03 0.  1.
         12    1    3    3    0    0 -0.13189858044E+02 -0.38344042494E+02 -0.14762552084E+01  0.40576067816E+02  0.00000000000E+00 0. -1.
</event>
<event>
 7    1  0.1891413E-013  0.7246159E+02  0.7816164E-02  0.1226708E+00
        -11   -1    0    0    0    0  0.00000000000E+00  0.00000000000E+00  0.45593999997E+02  0.45594000000E+02  0.51100000000E-03 0.  1.
         11   -1    0    0    0    0 -0.00000000000E+00 -0.00000000000E+00 -0.45593999997E+02  0.45594000000E+02  0.51100000000E-03 0. -1.
    9900012    2    1    2    0    0  0.19879570230E+00  0.71309030079E+01 -0.17314418977E+02  0.72461590789E+02  0.70000026698E+02 0.  0.
        -12    1    1    2    0    0 -0.19879570230E+00 -0.71309030079E+01  0.17314418977E+02  0.18726409211E+02  0.00000000000E+00 0.  1.
         11    1    3    3    0    0  0.34226539861E+01  0.19308505764E+01  0.12403997042E+02  0.13011605863E+02  0.51100000000E-03 0. -1.
        -11    1    3    3    0    0 -0.48092143809E+01 -0.22424565447E+02 -0.80534256363E+01  0.24307351628E+02  0.51100000000E-03 0.  1.
         12    1    3    3    0    0  0.15853560970E+01  0.27624617878E+02 -0.21664990382E+02  0.35142633298E+02  0.00000000000E+00 0. -1.
</event>
<event>
 7    1  0.1891413E-013  0.7246157E+02  0.7816164E-02  0.1226708E+00
        -11   -1    0    0    0    0  0.00000000000E+00  0.00000000000E+00  0.45593999997E+02  0.45594000000E+02  0.51100000000E-03 0.  1.
         11   -1    0    0    0    0 -0.00000000000E+00 -0.00000000000E+00 -0.45593999997E+02  0.45594000000E+02  0.51100000000E-03 0. -1.
    9900012    2    1    2    0    0  0.25749630947E+01  0.88112506362E+01 -0.16322085747E+02  0.72461573329E+02  0.70000003953E+02 0.  0.
        -12    1    1    2    0    0 -0.25749630947E+01 -0.88112506362E+01  0.16322085747E+02  0.18726426671E+02  0.00000000000E+00 0.  1.
         11    1    3    3    0    0  0.81178312264E+01 -0.14434944604E+02 -0.29326671981E+02  0.33679674869E+02  0.51100000000E-03 0. -1.
        -11    1    3    3    0    0  0.24851009816E+00 -0.47886082858E+01  0.85609028438E+01  0.98123179904E+01  0.51100000000E-03 0.  1.
        -12    1    3    3    0    0 -0.57913782298E+01  0.28034803526E+02  0.44436833898E+01  0.28969580470E+02  0.00000000000E+00 0.  1.
</event>
<event>
 7    1  0.1891413E-013  0.7246155E+02  0.7816164E-02  0.1226708E+00
        -11   -1    0    0    0    0  0.00000000000E+00  0.00000000000E+00  0.45593999997E+02  0.45594000000E+02  0.51100000000E-03 0.  1.
         11   -1    0    0    0    0 -0.00000000000E+00 -0.00000000000E+00 -0.45593999997E+02  0.45594000000E+02  0.51100000000E-03 0. -1.
    9900012    2    1    2    0    0  0.35950056042E+01  0.31819769930E+01 -0.18100575584E+02  0.72461551342E+02  0.69999975311E+02 0.  0.
        -12    1    1    2    0    0 -0.35950056042E+01 -0.31819769930E+01  0.18100575584E+02  0.18726448658E+02  0.00000000000E+00 0.  1.
         11    1    3    3    0    0 -0.20128719918E+02 -0.19969927708E+02 -0.54777145609E+01  0.28878516847E+02  0.51100000000E-03 0.  1.
        -11    1    3    3    0    0  0.14777824647E+02 -0.18565982862E+01 -0.68925367032E+01  0.16411524029E+02  0.51100000000E-03 0. -1.
        -12    1    3    3    0    0  0.89459008754E+01  0.25008502987E+02 -0.57303243200E+01  0.27171510465E+02  0.00000000000E+00 0.  1.
</event>
<event>
 7    1  0.1891413E-013  0.7246158E+02  0.7816164E-02  0.1226708E+00
        -11   -1    0    0    0    0  0.00000000000E+00  0.00000000000E+00  0.45593999997E+02  0.45594000000E+02  0.51100000000E-03 0.  1.
         11   -1    0    0    0    0 -0.00000000000E+00 -0.00000000000E+00 -0.45593999997E+02  0.45594000000E+02  0.51100000000E-03 0. -1.
    9900012    2    1    2    0    0  0.13957970614E+02  0.10467847698E+02 -0.68028066738E+01  0.72461575949E+02  0.70000007366E+02 0.  0.
        -12    1    1    2    0    0 -0.13957970614E+02 -0.10467847698E+02  0.68028066738E+01  0.18726424051E+02  0.00000000000E+00 0.  1.
         11    1    3    3    0    0 -0.16326074066E+02  0.10441017771E+02 -0.21834011155E+02  0.29193827941E+02  0.51100000000E-03 0. -1.
        -11    1    3    3    0    0  0.55653170701E+00 -0.76029326937E+01  0.93356157799E+01  0.12052719002E+02  0.51100000000E-03 0.  1.
        -12    1    3    3    0    0  0.29727512973E+02  0.76297626208E+01  0.56955887011E+01  0.31215029006E+02  0.00000000000E+00 0.  1.
</event>
<event>
 7    1  0.1891413E-013  0.7246160E+02  0.7816164E-02  0.1226708E+00
        -11   -1    0    0    0    0  0.00000000000E+00  0.00000000000E+00  0.45593999997E+02  0.45594000000E+02  0.51100000000E-03 0. -1.
         11   -1    0    0    0    0 -0.00000000000E+00 -0.00000000000E+00 -0.45593999997E+02  0.45594000000E+02  0.51100000000E-03 0.  1.
    9900012    2    1    2    0    0  0.15700548177E+02  0.34051035392E+01  0.96216393023E+01  0.72461604563E+02  0.70000044642E+02 0.  0.
        -12    1    1    2    0    0 -0.15700548177E+02 -0.34051035392E+01 -0.96216393023E+01  0.18726395437E+02  0.00000000000E+00 0.  1.
         11    1    3    3    0    0  0.26630380329E+02 -0.18607769226E+02 -0.69249610733E+01  0.33217184079E+02  0.51100000000E-03 0.  1.
        -11    1    3    3    0    0 -0.66254708662E+01  0.29825379787E+01  0.18265703367E+02  0.19657780057E+02  0.51100000000E-03 0. -1.
        -12    1    3    3    0    0 -0.43043612851E+01  0.19030334786E+02 -0.17191029917E+01  0.19586640428E+02  0.00000000000E+00 0.  1.
</event>
<event>
 7    1  0.1891413E-013  0.7246154E+02  0.7816164E-02  0.1226708E+00
        -11   -1    0    0    0    0  0.00000000000E+00  0.00000000000E+00  0.45593999997E+02  0.45594000000E+02  0.51100000000E-03 0. -1.
         11   -1    0    0    0    0 -0.00000000000E+00 -0.00000000000E+00 -0.45593999997E+02  0.45594000000E+02  0.51100000000E-03 0.  1.
    9900012    2    1    2    0    0 -0.12078585716E+02  0.89796797755E+01  0.11142412891E+02  0.72461541531E+02  0.69999962530E+02 0.  0.
        -12    1    1    2    0    0  0.12078585716E+02 -0.89796797755E+01 -0.11142412891E+02  0.18726458469E+02  0.00000000000E+00 0.  1.
         11    1    3    3    0    0 -0.17602997433E+02  0.20731051117E+02 -0.95038472845E+00  0.27212960707E+02  0.51100000000E-03 0. -1.
        -11    1    3    3    0    0  0.87894761614E+00 -0.74935704578E+01 -0.15343340239E+02  0.17098076999E+02  0.51100000000E-03 0.  1.
         12    1    3    3    0    0  0.46454641007E+01 -0.42578008833E+01  0.27436137858E+02  0.28150503825E+02  0.00000000000E+00 0. -1.
</event>
<event>
 7    1  0.1891413E-013  0.7246157E+02  0.7816164E-02  0.1226708E+00
        -11   -1    0    0    0    0  0.00000000000E+00  0.00000000000E+00  0.45593999997E+02  0.45594000000E+02  0.51100000000E-03 0. -1.
         11   -1    0    0    0    0 -0.00000000000E+00 -0.00000000000E+00 -0.45593999997E+02  0.45594000000E+02  0.51100000000E-03 0.  1.
    9900012    2    1    2    0    0  0.18705646188E+02  0.53842753386E+00 -0.69856631652E+00  0.72461572193E+02  0.70000002474E+02 0.  0.
        -12    1    1    2    0    0 -0.18705646188E+02 -0.53842753386E+00  0.69856631652E+00  0.18726427807E+02  0.00000000000E+00 0.  1.
         11    1    3    3    0    0 -0.64361380047E+01 -0.72446485363E+00 -0.30258274827E+01  0.71487309333E+01  0.51100000000E-03 0. -1.
        -11    1    3    3    0    0  0.18804074964E+02 -0.28856178984E+02 -0.52360286753E-01  0.34442343745E+02  0.51100000000E-03 0.  1.
         12    1    3    3    0    0  0.63377092283E+01  0.30119071371E+02  0.23796214529E+01  0.30870497515E+02  0.00000000000E+00 0. -1.
</event>
<event>
 7    1  0.1891413E-013  0.7246158E+02  0.7816164E-02  0.1226708E+00
        -11   -1    0    0    0    0  0.00000000000E+00  0.00000000000E+00  0.45593999997E+02  0.45594000000E+02  0.51100000000E-03 0. -1.
         11   -1    0    0    0    0 -0.00000000000E+00 -0.00000000000E+00 -0.45593999997E+02  0.45594000000E+02  0.51100000000E-03 0.  1.
    9900012    2    1    2    0    0 -0.64853144898E+01  0.11207092737E+02  0.13528505308E+02  0.72461583164E+02  0.70000016765E+02 0.  0.
        -12    1    1    2    0    0  0.64853144898E+01 -0.11207092737E+02 -0.13528505308E+02  0.18726416836E+02  0.00000000000E+00 0.  1.
         11    1    3    3    0    0  0.22899706962E+02 -0.12307730042E+02  0.14724456035E+02  0.29877858081E+02  0.51100000000E-03 0. -1.
        -11    1    3    3    0    0 -0.45096372730E+01  0.15406326502E+01  0.69318392511E+01  0.84119422823E+01  0.51100000000E-03 0.  1.
        -12    1    3    3    0    0 -0.24875384178E+02  0.21974190129E+02 -0.81277899781E+01  0.34171782801E+02  0.00000000000E+00 0.  1.
</event>
<event>
 7    1  0.1891413E-013  0.7246153E+02  0.7816164E-02  0.1226708E+00
        -11   -1    0    0    0    0  0.00000000000E+00  0.00000000000E+00  0.45593999997E+02  0.45594000000E+02  0.51100000000E-03 0. -1.
         11   -1    0    0    0    0 -0.00000000000E+00 -0.00000000000E+00 -0.45593999997E+02  0.45594000000E+02  0.51100000000E-03 0.  1.
    9900012    2    1    2    0    0 -0.12950593075E+01  0.17990515192E+02  0.50343609106E+01  0.72461531960E+02  0.69999950063E+02 0.  0.
        -12    1    1    2    0    0  0.12950593075E+01 -0.17990515192E+02 -0.50343609106E+01  0.18726468040E+02  0.00000000000E+00 0.  1.
         11    1    3    3    0    0  0.22718291755E+02  0.11311506806E+02 -0.59059241773E+01  0.26056686419E+02  0.51100000000E-03 0. -1.
        -11    1    3    3    0    0 -0.16442454183E+02  0.22296111862E+02  0.57967901980E+01  0.28303245053E+02  0.51100000000E-03 0.  1.
         12    1    3    3    0    0 -0.75708968800E+01 -0.15617103476E+02  0.51434948899E+01  0.18101600488E+02  0.00000000000E+00 0. -1.
</event>
<event>
 7    1  0.1891413E-013  0.7246165E+02  0.7816164E-02  0.1226708E+00
        -11   -1    0    0    0    0  0.00000000000E+00  0.00000000000E+00  0.45593999997E+02  0.45594000000E+02  0.51100000000E-03 0.  1.
         11   -1    0    0    0    0 -0.00000000000E+00 -0.00000000000E+00 -0.45593999997E+02  0.45594000000E+02  0.51100000000E-03 0. -1.
    9900012    2    1    2    0    0  0.15264128922E+02 -0.10186893881E+02 -0.37295917640E+01  0.72461647087E+02  0.70000100037E+02 0.  0.
        -12    1    1    2    0    0 -0.15264128922E+02  0.10186893881E+02  0.37295917640E+01  0.18726352913E+02  0.00000000000E+00 0.  1.
         11    1    3    3    0    0  0.20752702042E+02 -0.12399426875E+02 -0.65241812127E+01  0.25039675909E+02  0.51100000000E-03 0. -1.
        -11    1    3    3    0    0  0.12677093648E+02 -0.15604137801E+02 -0.51722646860E+01  0.20759338672E+02  0.51100000000E-03 0.  1.
        -12    1    3    3    0    0 -0.18165666769E+02  0.17816670794E+02  0.79668541347E+01  0.26662632506E+02  0.00000000000E+00 0.  1.
</event>
<event>
 7    1  0.1891413E-013  0.7246149E+02  0.7816164E-02  0.1226708E+00
        -11   -1    0    0    0    0  0.00000000000E+00  0.00000000000E+00  0.45593999997E+02  0.45594000000E+02  0.51100000000E-03 0. -1.
         11   -1    0    0    0    0 -0.00000000000E+00 -0.00000000000E+00 -0.45593999997E+02  0.45594000000E+02  0.51100000000E-03 0.  1.
    9900012    2    1    2    0    0  0.17684913065E+02  0.31611255702E+01  0.52852089528E+01  0.72461486745E+02  0.69999891162E+02 0.  0.
        -12    1    1    2    0    0 -0.17684913065E+02 -0.31611255702E+01 -0.52852089528E+01  0.18726513255E+02  0.00000000000E+00 0.  1.
         11    1    3    3    0    0 -0.15096325600E+02  0.15345248316E+02  0.11852553840E+02  0.24573537094E+02  0.51100000000E-03 0. -1.
        -11    1    3    3    0    0  0.15109668307E+02  0.60183953751E+01  0.85307159196E+01  0.18365627503E+02  0.51100000000E-03 0.  1.
        -12    1    3    3    0    0  0.17671570359E+02 -0.18202518121E+02 -0.15098060807E+02  0.29522322148E+02  0.00000000000E+00 0.  1.
</event>
<event>
 7    1  0.1891413E-013  0.7246161E+02  0.7816164E-02  0.1226708E+00
        -11   -1    0    0    0    0  0.00000000000E+00  0.00000000000E+00  0.45593999997E+02  0.45594000000E+02  0.51100000000E-03 0.  1.
         11   -1    0    0    0    0 -0.00000000000E+00 -0.00000000000E+00 -0.45593999997E+02  0.45594000000E+02  0.51100000000E-03 0. -1.
    9900012    2    1    2    0    0 -0.13882489851E+02 -0.12410083600E+02 -0.19859761267E+01  0.72461606845E+02  0.70000047614E+02 0.  0.
        -12    1    1    2    0    0  0.13882489851E+02  0.12410083600E+02  0.19859761267E+01  0.18726393155E+02  0.00000000000E+00 0.  1.
         11    1    3    3    0    0  0.46737409726E-01 -0.73077740576E+01  0.35162301103E+00  0.73163778651E+01  0.51100000000E-03 0. -1.
        -11    1    3    3    0    0 -0.37848745818E+02  0.12372362849E+01 -0.10132651210E+02  0.39201134351E+02  0.51100000000E-03 0.  1.
         12    1    3    3    0    0  0.23919518557E+02 -0.63395458271E+01  0.77950520726E+01  0.25944094629E+02  0.00000000000E+00 0. -1.
</event>
<event>
 7    1  0.1891413E-013  0.7246156E+02  0.7816164E-02  0.1226708E+00
        -11   -1    0    0    0    0  0.00000000000E+00  0.00000000000E+00  0.45593999997E+02  0.45594000000E+02  0.51100000000E-03 0. -1.
         11   -1    0    0    0    0 -0.00000000000E+00 -0.00000000000E+00 -0.45593999997E+02  0.45594000000E+02  0.51100000000E-03 0.  1.
    9900012    2    1    2    0    0 -0.13642051011E+02 -0.12822562484E+02  0.39469200145E+00  0.72461562907E+02  0.69999990376E+02 0.  0.
        -12    1    1    2    0    0  0.13642051011E+02  0.12822562484E+02 -0.39469200145E+00  0.18726437093E+02  0.00000000000E+00 0.  1.
         11    1    3    3    0    0 -0.23970959012E+00 -0.24093049585E+02  0.26618803624E+02  0.35903944152E+02  0.51100000000E-03 0. -1.
        -11    1    3    3    0    0 -0.25760965892E+01  0.44580275808E+01  0.20365460681E+01  0.55369489519E+01  0.51100000000E-03 0.  1.
        -12    1    3    3    0    0 -0.10826244832E+02  0.68124595210E+01 -0.28260657691E+02  0.31020669803E+02  0.00000000000E+00 0.  1.
</event>
<event>
 7    1  0.1891413E-013  0.7246151E+02  0.7816164E-02  0.1226708E+00
        -11   -1    0    0    0    0  0.00000000000E+00  0.00000000000E+00  0.45593999997E+02  0.45594000000E+02  0.51100000000E-03 0.  1.
         11   -1    0    0    0    0 -0.00000000000E+00 -0.00000000000E+00 -0.45593999997E+02  0.45594000000E+02  0.51100000000E-03 0. -1.
    9900012    2    1    2    0    0  0.10781207899E+02  0.15300888148E+02 -0.57441612850E+00  0.72461506048E+02  0.69999916307E+02 0.  0.
        -12    1    1    2    0    0 -0.10781207899E+02 -0.15300888148E+02  0.57441612850E+00  0.18726493952E+02  0.00000000000E+00 0.  1.
         11    1    3    3    0    0 -0.59500678084E+01  0.26211992489E+02 -0.81796616957E+01  0.28095884447E+02  0.51100000000E-03 0. -1.
        -11    1    3    3    0    0 -0.85007416822E+01  0.82797733331E+01  0.36714135141E+01  0.12421615557E+02  0.51100000000E-03 0.  1.
        -12    1    3    3    0    0  0.25232017389E+02 -0.19190877674E+02  0.39338320531E+01  0.31944006043E+02  0.00000000000E+00 0.  1.
</event>
<event>
 7    1  0.1891413E-013  0.7246157E+02  0.7816164E-02  0.1226708E+00
        -11   -1    0    0    0    0  0.00000000000E+00  0.00000000000E+00  0.45593999997E+02  0.45594000000E+02  0.51100000000E-03 0.  1.
         11   -1    0    0    0    0 -0.00000000000E+00 -0.00000000000E+00 -0.45593999997E+02  0.45594000000E+02  0.51100000000E-03 0. -1.
    9900012    2    1    2    0    0  0.10438703391E+02 -0.15526685066E+02 -0.79667529218E+00  0.72461570304E+02  0.70000000012E+02 0.  0.
        -12    1    1    2    0    0 -0.10438703391E+02  0.15526685066E+02  0.79667529218E+00  0.18726429696E+02  0.00000000000E+00 0.  1.
         11    1    3    3    0    0 -0.62278738829E+00 -0.10251792596E+02 -0.15356907547E+02  0.18474894457E+02  0.51100000000E-03 0. -1.
        -11    1    3    3    0    0 -0.93811758950E+01 -0.23045109949E+02  0.62581952937E+01  0.25656355204E+02  0.51100000000E-03 0.  1.
         12    1    3    3    0    0  0.20442666675E+02  0.17770217479E+02  0.83020369607E+01  0.28330320643E+02  0.00000000000E+00 0. -1.
</event>
<event>
 7    1  0.1891413E-013  0.7246154E+02  0.7816164E-02  0.1226708E+00
        -11   -1    0    0    0    0  0.00000000000E+00  0.00000000000E+00  0.45593999997E+02  0.45594000000E+02  0.51100000000E-03 0. -1.
         11   -1    0    0    0    0 -0.00000000000E+00 -0.00000000000E+00 -0.45593999997E+02  0.45594000000E+02  0.51100000000E-03 0.  1.
    9900012    2    1    2    0    0  0.31717748987E+01 -0.10700663817E+02  0.15037153913E+02  0.72461538510E+02  0.69999958595E+02 0.  0.
        -12    1    1    2    0    0 -0.31717748987E+01  0.10700663817E+02 -0.15037153913E+02  0.18726461490E+02  0.00000000000E+00 0.  1.
         11    1    3    3    0    0  0.98747300929E+01 -0.96592975906E+01 -0.43926284510E+01  0.14495085696E+02  0.51100000000E-03 0.  1.
        -11    1    3    3    0    0 -0.28408288067E+02  0.81093609195E+01  0.40127749339E+01  0.29814340984E+02  0.51100000000E-03 0. -1.
         12    1    3    3    0    0  0.21705332872E+02 -0.91507271460E+01  0.15417007430E+02  0.28152111830E+02  0.00000000000E+00 0. -1.
</event>
<event>
 7    1  0.1891413E-013  0.7246155E+02  0.7816164E-02  0.1226708E+00
        -11   -1    0    0    0    0  0.00000000000E+00  0.00000000000E+00  0.45593999997E+02  0.45594000000E+02  0.51100000000E-03 0. -1.
         11   -1    0    0    0    0 -0.00000000000E+00 -0.00000000000E+00 -0.45593999997E+02  0.45594000000E+02  0.51100000000E-03 0.  1.
    9900012    2    1    2    0    0 -0.11298645184E+02  0.45499829960E+01  0.14223859300E+02  0.72461550747E+02  0.69999974536E+02 0.  0.
        -12    1    1    2    0    0  0.11298645184E+02 -0.45499829960E+01 -0.14223859300E+02  0.18726449253E+02  0.00000000000E+00 0.  1.
         11    1    3    3    0    0 -0.12976014735E+02  0.80621384729E+01 -0.19932641464E+02  0.25113447217E+02  0.51100000000E-03 0. -1.
        -11    1    3    3    0    0  0.11840575170E+02 -0.11431260518E+02  0.82402482637E+01  0.18405831388E+02  0.51100000000E-03 0.  1.
         12    1    3    3    0    0 -0.10163205619E+02  0.79191050407E+01  0.25916252500E+02  0.28942272142E+02  0.00000000000E+00 0. -1.
</event>
<event>
 7    1  0.1891413E-013  0.7246159E+02  0.7816164E-02  0.1226708E+00
        -11   -1    0    0    0    0  0.00000000000E+00  0.00000000000E+00  0.45593999997E+02  0.45594000000E+02  0.51100000000E-03 0.  1.
         11   -1    0    0    0    0 -0.00000000000E+00 -0.00000000000E+00 -0.45593999997E+02  0.45594000000E+02  0.51100000000E-03 0. -1.
    9900012    2    1    2    0    0 -0.12487521169E+02 -0.64789634137E+01 -0.12359748181E+02  0.72461587451E+02  0.70000022349E+02 0.  0.
        -12    1    1    2    0    0  0.12487521169E+02  0.64789634137E+01  0.12359748181E+02  0.18726412549E+02  0.00000000000E+00 0.  1.
         11    1    3    3    0    0 -0.16974931253E+02  0.14873970525E+01 -0.15657126814E+02  0.23141008218E+02  0.51100000000E-03 0. -1.
        -11    1    3    3    0    0  0.20251672731E+01 -0.20005198446E+02 -0.16506007127E+02  0.26014563976E+02  0.51100000000E-03 0.  1.
        -12    1    3    3    0    0  0.24622428106E+01  0.12038837979E+02  0.19803385760E+02  0.23306015256E+02  0.00000000000E+00 0.  1.
</event>
<event>
 7    1  0.1891413E-013  0.7246157E+02  0.7816164E-02  0.1226708E+00
        -11   -1    0    0    0    0  0.00000000000E+00  0.00000000000E+00  0.45593999997E+02  0.45594000000E+02  0.51100000000E-03 0.  1.
         11   -1    0    0    0    0 -0.00000000000E+00 -0.00000000000E+00 -0.45593999997E+02  0.45594000000E+02  0.51100000000E-03 0. -1.
    9900012    2    1    2    0    0 -0.64191374231E+00 -0.53026661792E+01 -0.17948502305E+02  0.72461573303E+02  0.70000003919E+02 0.  0.
        -12    1    1    2    0    0  0.64191374231E+00  0.53026661792E+01  0.17948502305E+02  0.18726426697E+02  0.00000000000E+00 0.  1.
         11    1    3    3    0    0  0.13096824822E+01  0.37096477568E+01  0.46004492541E+01  0.60531717541E+01  0.51100000000E-03 0. -1.
        -11    1    3    3    0    0 -0.18665109035E+02 -0.22000455101E+02  0.73522512783E+01  0.29773510359E+02  0.51100000000E-03 0.  1.
         12    1    3    3    0    0  0.16713512811E+02  0.12988141165E+02 -0.29901202837E+02  0.36634891190E+02  0.00000000000E+00 0. -1.
</event>
<event>
 7    1  0.1891413E-013  0.7246157E+02  0.7816164E-02  0.1226708E+00
        -11   -1    0    0    0    0  0.00000000000E+00  0.00000000000E+00  0.45593999997E+02  0.45594000000E+02  0.51100000000E-03 0.  1.
         11   -1    0    0    0    0 -0.00000000000E+00 -0.00000000000E+00 -0.45593999997E+02  0.45594000000E+02  0.51100000000E-03 0. -1.
    9900012    2    1    2    0    0  0.68724264001E+01  0.17316327932E+02  0.18956907436E+01  0.72461572122E+02  0.70000002381E+02 0.  0.
        -12    1    1    2    0    0 -0.68724264001E+01 -0.17316327932E+02 -0.18956907436E+01  0.18726427878E+02  0.00000000000E+00 0.  1.
         11    1    3    3    0    0  0.43078419942E+01  0.15179468741E+02 -0.19870963687E+02  0.25373785134E+02  0.51100000000E-03 0. -1.
        -11    1    3    3    0    0 -0.15828861107E+02 -0.32518113627E+01 -0.22992147537E+01  0.16322178465E+02  0.51100000000E-03 0.  1.
        -12    1    3    3    0    0  0.18393445513E+02  0.53886705540E+01  0.24065869185E+02  0.30765608523E+02  0.00000000000E+00 0.  1.
</event>
<event>
 7    1  0.1891413E-013  0.7246156E+02  0.7816164E-02  0.1226708E+00
        -11   -1    0    0    0    0  0.00000000000E+00  0.00000000000E+00  0.45593999997E+02  0.45594000000E+02  0.51100000000E-03 0.  1.
         11   -1    0    0    0    0 -0.00000000000E+00 -0.00000000000E+00 -0.45593999997E+02  0.45594000000E+02  0.51100000000E-03 0. -1.
    9900012    2    1    2    0    0 -0.94317570888E+01 -0.86437378371E+01  0.13675060723E+02  0.72461560634E+02  0.69999987415E+02 0.  0.
        -12    1    1    2    0    0  0.94317570888E+01  0.86437378371E+01 -0.13675060723E+02  0.18726439366E+02  0.00000000000E+00 0.  1.
         11    1    3    3    0    0  0.15127009243E+01  0.10358096371E+02 -0.58446276424E+01  0.11989082411E+02  0.51100000000E-03 0. -1.
        -11    1    3    3    0    0 -0.67130632294E+01  0.18255891836E+02  0.95690711370E+01  0.21677405918E+02  0.51100000000E-03 0.  1.
        -12    1    3    3    0    0 -0.42313947838E+01 -0.37257726045E+02  0.99506172281E+01  0.38795072304E+02  0.00000000000E+00 0.  1.
</event>
<event>
 7    1  0.1891413E-013  0.7246160E+02  0.7816164E-02  0.1226708E+00
        -11   -1    0    0    0    0  0.00000000000E+00  0.00000000000E+00  0.45593999997E+02  0.45594000000E+02  0.51100000000E-03 0.  1.
         11   -1    0    0    0    0 -0.00000000000E+00 -0.00000000000E+00 -0.45593999997E+02  0.45594000000E+02  0.51100000000E-03 0. -1.
    9900012    2    1    2    0    0 -0.13883853198E+02  0.45633661827E+01 -0.11708648220E+02  0.72461597952E+02  0.70000036029E+02 0.  0.
        -12    1    1    2    0    0  0.13883853198E+02 -0.45633661827E+01  0.11708648220E+02  0.18726402048E+02  0.00000000000E+00 0.  1.
         11    1    3    3    0    0 -0.41589216491E+01 -0.92346370205E+01 -0.13489875283E+02  0.16868665792E+02  0.51100000000E-03 0. -1.
        -11    1    3    3    0    0  0.15563515812E+02 -0.24555939506E+01 -0.14493989907E+02  0.21408612980E+02  0.51100000000E-03 0.  1.
        -12    1    3    3    0    0 -0.25288447360E+02  0.16253597154E+02  0.16275216970E+02  0.34184319179E+02  0.00000000000E+00 0.  1.
</event>
<event>
 7    1  0.1891413E-013  0.7246149E+02  0.7816164E-02  0.1226708E+00
        -11   -1    0    0    0    0  0.00000000000E+00  0.00000000000E+00  0.45593999997E+02  0.45594000000E+02  0.51100000000E-03 0. -1.
         11   -1    0    0    0    0 -0.00000000000E+00 -0.00000000000E+00 -0.45593999997E+02  0.45594000000E+02  0.51100000000E-03 0.  1.
    9900012    2    1    2    0    0 -0.35110446483E+01  0.16583782353E+01  0.18319514045E+02  0.72461488106E+02  0.69999892934E+02 0.  0.
        -12    1    1    2    0    0  0.35110446483E+01 -0.16583782353E+01 -0.18319514045E+02  0.18726511894E+02  0.00000000000E+00 0.  1.
         11    1    3    3    0    0  0.13984856836E+02 -0.12685498059E+02  0.21873576563E+02  0.28895526188E+02  0.51100000000E-03 0. -1.
        -11    1    3    3    0    0  0.73842310072E+01 -0.65957356346E+01 -0.48416369087E+01  0.11021435675E+02  0.51100000000E-03 0.  1.
        -12    1    3    3    0    0 -0.24880132492E+02  0.20939611929E+02  0.12875743900E+01  0.32544526242E+02  0.00000000000E+00 0.  1.
</event>
<event>
 7    1  0.1891413E-013  0.7246165E+02  0.7816164E-02  0.1226708E+00
        -11   -1    0    0    0    0  0.00000000000E+00  0.00000000000E+00  0.45593999997E+02  0.45594000000E+02  0.51100000000E-03 0.  1.
         11   -1    0    0    0    0 -0.00000000000E+00 -0.00000000000E+00 -0.45593999997E+02  0.45594000000E+02  0.51100000000E-03 0. -1.
    9900012    2    1    2    0    0 -0.62890800888E+00 -0.15053962870E+02 -0.11120195657E+02  0.72461652923E+02  0.70000107639E+02 0.  0.
        -12    1    1    2    0    0  0.62890800888E+00  0.15053962870E+02  0.11120195657E+02  0.18726347077E+02  0.00000000000E+00 0.  1.
         11    1    3    3    0    0 -0.41792423152E+01  0.11550310526E+02 -0.17636834189E+02  0.21492641998E+02  0.51100000000E-03 0. -1.
        -11    1    3    3    0    0  0.60310865685E+01  0.11092458358E+02  0.33229879732E+01  0.13055990462E+02  0.51100000000E-03 0.  1.
         12    1    3    3    0    0 -0.24807522622E+01 -0.37696731754E+02  0.31936505589E+01  0.37913020463E+02  0.00000000000E+00 0. -1.
</event>
<event>
 7    1  0.1891413E-013  0.7246155E+02  0.7816164E-02  0.1226708E+00
        -11   -1    0    0    0    0  0.00000000000E+00  0.00000000000E+00  0.45593999997E+02  0.45594000000E+02  0.51100000000E-03 0.  1.
         11   -1    0    0    0    0 -0.00000000000E+00 -0.00000000000E+00 -0.45593999997E+02  0.45594000000E+02  0.51100000000E-03 0. -1.
    9900012    2    1    2    0    0  0.16789720024E+02  0.61536023457E+01  0.55604346377E+01  0.72461549358E+02  0.69999972726E+02 0.  0.
        -12    1    1    2    0    0 -0.16789720024E+02 -0.61536023457E+01 -0.55604346377E+01  0.18726450642E+02  0.00000000000E+00 0.  1.
         11    1    3    3    0    0  0.86005022012E+01 -0.19191162761E+02 -0.65708094020E+01  0.22032814225E+02  0.51100000000E-03 0. -1.
        -11    1    3    3    0    0 -0.13243819481E+02  0.17899218903E+02 -0.39560576373E+01  0.22614844330E+02  0.51100000000E-03 0.  1.
        -12    1    3    3    0    0  0.21433037304E+02  0.74455462033E+01  0.16087301677E+02  0.27813890802E+02  0.00000000000E+00 0.  1.
</event>
<event>
 7    1  0.1891413E-013  0.7246158E+02  0.7816164E-02  0.1226708E+00
        -11   -1    0    0    0    0  0.00000000000E+00  0.00000000000E+00  0.45593999997E+02  0.45594000000E+02  0.51100000000E-03 0. -1.
         11   -1    0    0    0    0 -0.00000000000E+00 -0.00000000000E+00 -0.45593999997E+02  0.45594000000E+02  0.51100000000E-03 0.  1.
    9900012    2    1    2    0    0 -0.93899002042E+01  0.54036174880E+01  0.15274466169E+02  0.72461584845E+02  0.70000018955E+02 0.  0.
        -12    1    1    2    0    0  0.93899002042E+01 -0.54036174880E+01 -0.15274466169E+02  0.18726415155E+02  0.00000000000E+00 0.  1.
         11    1    3    3    0    0 -0.22362693615E+01 -0.10278209373E+02  0.16042657575E+02  0.19183569817E+02  0.51100000000E-03 0. -1.
        -11    1    3    3    0    0  0.30437323182E+01  0.13345699285E+02 -0.24095551652E+02  0.27712228447E+02  0.51100000000E-03 0.  1.
         12    1    3    3    0    0 -0.10197363161E+02  0.23361275763E+01  0.23327360246E+02  0.25565786582E+02  0.00000000000E+00 0. -1.
</event>
<event>
 7    1  0.1891413E-013  0.7246161E+02  0.7816164E-02  0.1226708E+00
        -11   -1    0    0    0    0  0.00000000000E+00  0.00000000000E+00  0.45593999997E+02  0.45594000000E+02  0.51100000000E-03 0.  1.
         11   -1    0    0    0    0 -0.00000000000E+00 -0.00000000000E+00 -0.45593999997E+02  0.45594000000E+02  0.51100000000E-03 0. -1.
    9900012    2    1    2    0    0 -0.62164278051E+01  0.16457894684E+02 -0.64164839790E+01  0.72461613837E+02  0.70000056722E+02 0.  0.
        -12    1    1    2    0    0  0.62164278051E+01 -0.16457894684E+02  0.64164839790E+01  0.18726386163E+02  0.00000000000E+00 0.  1.
         11    1    3    3    0    0 -0.10793998933E+01 -0.48067629388E+01 -0.96036577439E+01  0.10793531230E+02  0.51100000000E-03 0. -1.
        -11    1    3    3    0    0 -0.20136057170E+02 -0.30958589230E+01 -0.17099224937E+02  0.26597530610E+02  0.51100000000E-03 0.  1.
        -12    1    3    3    0    0  0.14999029259E+02  0.24360516546E+02  0.20286398702E+02  0.35070551997E+02  0.00000000000E+00 0.  1.
</event>
<event>
 7    1  0.1891413E-013  0.7246154E+02  0.7816164E-02  0.1226708E+00
        -11   -1    0    0    0    0  0.00000000000E+00  0.00000000000E+00  0.45593999997E+02  0.45594000000E+02  0.51100000000E-03 0.  1.
         11   -1    0    0    0    0 -0.00000000000E+00 -0.00000000000E+00 -0.45593999997E+02  0.45594000000E+02  0.51100000000E-03 0. -1.
    9900012    2    1    2    0    0 -0.45448347770E+01 -0.16989599615E+02 -0.64326051405E+01  0.72461536716E+02  0.69999956258E+02 0.  0.
        -12    1    1    2    0    0  0.45448347770E+01  0.16989599615E+02  0.64326051405E+01  0.18726463284E+02  0.00000000000E+00 0.  1.
         11    1    3    3    0    0 -0.15716994859E+02 -0.11125572890E+02 -0.15342275137E+02  0.24620879476E+02  0.51100000000E-03 0. -1.
        -11    1    3    3    0    0 -0.15365100024E+02  0.25923022943E+01 -0.54461445352E+01  0.16506569010E+02  0.51100000000E-03 0.  1.
        -12    1    3    3    0    0  0.26537260105E+02 -0.84563290190E+01  0.14355814532E+02  0.31334088231E+02  0.00000000000E+00 0.  1.
</event>
<event>
 7    1  0.1891413E-013  0.7246156E+02  0.7816164E-02  0.1226708E+00
        -11   -1    0    0    0    0  0.00000000000E+00  0.00000000000E+00  0.45593999997E+02  0.45594000000E+02  0.51100000000E-03 0. -1.
         11   -1    0    0    0    0 -0.00000000000E+00 -0.00000000000E+00 -0.45593999997E+02  0.45594000000E+02  0.51100000000E-03 0.  1.
    9900012    2    1    2    0    0  0.16277886955E+02  0.65369190610E+01  0.65558052546E+01  0.72461561549E+02  0.69999988608E+02 0.  0.
        -12    1    1    2    0    0 -0.16277886955E+02 -0.65369190610E+01 -0.65558052546E+01  0.18726438451E+02  0.00000000000E+00 0.  1.
         11    1    3    3    0    0 -0.20790490080E+01 -0.78735414262E+00  0.17470655053E+02  0.17611534844E+02  0.51100000000E-03 0. -1.
        -11    1    3    3    0    0 -0.23563091827E+00  0.15951851550E+02  0.14939582846E+02  0.21856537367E+02  0.51100000000E-03 0.  1.
        -12    1    3    3    0    0  0.18592566881E+02 -0.86275783459E+01 -0.25854432645E+02  0.32993489338E+02  0.00000000000E+00 0.  1.
</event>
<event>
 7    1  0.1891413E-013  0.7246153E+02  0.7816164E-02  0.1226708E+00
        -11   -1    0    0    0    0  0.00000000000E+00  0.00000000000E+00  0.45593999997E+02  0.45594000000E+02  0.51100000000E-03 0.  1.
         11   -1    0    0    0    0 -0.00000000000E+00 -0.00000000000E+00 -0.45593999997E+02  0.45594000000E+02  0.51100000000E-03 0. -1.
    9900012    2    1    2    0    0 -0.10166765233E+02 -0.13806568688E+02  0.75296929130E+01  0.72461528640E+02  0.69999945737E+02 0.  0.
        -12    1    1    2    0    0  0.10166765233E+02  0.13806568688E+02 -0.75296929130E+01  0.18726471360E+02  0.00000000000E+00 0.  1.
         11    1    3    3    0    0 -0.45937055538E+01  0.19757210158E+01 -0.96928548172E+01  0.10906742823E+02  0.51100000000E-03 0. -1.
        -11    1    3    3    0    0 -0.13981621854E+02  0.15077580763E+02 -0.66853527633E+01  0.21622052011E+02  0.51100000000E-03 0.  1.
         12    1    3    3    0    0  0.84085621749E+01 -0.30859870468E+02  0.23907900493E+02  0.39932733805E+02  0.00000000000E+00 0. -1.
</event>
<event>
 7    1  0.1891413E-013  0.7246146E+02  0.7816164E-02  0.1226708E+00
        -11   -1    0    0    0    0  0.00000000000E+00  0.00000000000E+00  0.45593999997E+02  0.45594000000E+02  0.51100000000E-03 0.  1.
         11   -1    0    0    0    0 -0.00000000000E+00 -0.00000000000E+00 -0.45593999997E+02  0.45594000000E+02  0.51100000000E-03 0. -1.
    9900012    2    1    2    0    0 -0.14608284914E+02  0.11716644723E+02  0.41045547209E-01  0.72461456367E+02  0.69999851589E+02 0.  0.
        -12    1    1    2    0    0  0.14608284914E+02 -0.11716644723E+02 -0.41045547209E-01  0.18726543633E+02  0.00000000000E+00 0.  1.
         11    1    3    3    0    0 -0.80865014599E+01  0.36008119041E+01 -0.13204759984E+02  0.15897265134E+02  0.51100000000E-03 0. -1.
        -11    1    3    3    0    0 -0.61137343138E+00 -0.36167579985E+01 -0.20252466754E+02  0.20581961175E+02  0.51100000000E-03 0.  1.
        -12    1    3    3    0    0 -0.59104100222E+01  0.11732590818E+02  0.33498272286E+02  0.35982230059E+02  0.00000000000E+00 0.  1.
</event>
<event>
 7    1  0.1891413E-013  0.7246168E+02  0.7816164E-02  0.1226708E+00
        -11   -1    0    0    0    0  0.00000000000E+00  0.00000000000E+00  0.45593999997E+02  0.45594000000E+02  0.51100000000E-03 0. -1.
         11   -1    0    0    0    0 -0.00000000000E+00 -0.00000000000E+00 -0.45593999997E+02  0.45594000000E+02  0.51100000000E-03 0.  1.
    9900012    2    1    2    0    0 -0.63761486319E+01 -0.17287231731E+02  0.33423877272E+01  0.72461676068E+02  0.70000137789E+02 0.  0.
        -12    1    1    2    0    0  0.63761486319E+01  0.17287231731E+02 -0.33423877272E+01  0.18726323932E+02  0.00000000000E+00 0.  1.
         11    1    3    3    0    0 -0.10550114228E+02 -0.27049571860E+01 -0.15483680976E+02  0.18930559432E+02  0.51100000000E-03 0. -1.
        -11    1    3    3    0    0  0.15177023889E+02  0.11780803675E+02 -0.18990752767E+00  0.19213678838E+02  0.51100000000E-03 0.  1.
         12    1    3    3    0    0 -0.11003058293E+02 -0.26363078220E+02  0.19015976231E+02  0.34317437798E+02  0.00000000000E+00 0. -1.
</event>
<event>
 7    1  0.1891413E-013  0.7246182E+02  0.7816164E-02  0.1226707E+00
        -11   -1    0    0    0    0  0.00000000000E+00  0.00000000000E+00  0.45593999997E+02  0.45594000000E+02  0.51100000000E-03 0. -1.
         11   -1    0    0    0    0 -0.00000000000E+00 -0.00000000000E+00 -0.45593999997E+02  0.45594000000E+02  0.51100000000E-03 0.  1.
    9900012    2    1    2    0    0  0.48237157716E+01  0.17961042171E+02  0.21914779103E+01  0.72461819259E+02  0.70000324322E+02 0.  0.
        -12    1    1    2    0    0 -0.48237157716E+01 -0.17961042171E+02 -0.21914779103E+01  0.18726180741E+02  0.00000000000E+00 0.  1.
         11    1    3    3    0    0 -0.92104795755E+00  0.18249056877E+01 -0.34462181894E+01  0.40068728679E+01  0.51100000000E-03 0. -1.
        -11    1    3    3    0    0 -0.19509254050E+02 -0.17106430456E+02 -0.19645032073E+01  0.26021149660E+02  0.51100000000E-03 0.  1.
         12    1    3    3    0    0  0.25254017779E+02  0.33242566939E+02  0.76021993070E+01  0.42433796731E+02  0.00000000000E+00 0. -1.
</event>
<event>
 7    1  0.1891413E-013  0.7246160E+02  0.7816164E-02  0.1226708E+00
        -11   -1    0    0    0    0  0.00000000000E+00  0.00000000000E+00  0.45593999997E+02  0.45594000000E+02  0.51100000000E-03 0. -1.
         11   -1    0    0    0    0 -0.00000000000E+00 -0.00000000000E+00 -0.45593999997E+02  0.45594000000E+02  0.51100000000E-03 0.  1.
    9900012    2    1    2    0    0  0.13641295244E+02 -0.11244743360E+02  0.61764737826E+01  0.72461601052E+02  0.70000040068E+02 0.  0.
        -12    1    1    2    0    0 -0.13641295244E+02  0.11244743360E+02 -0.61764737826E+01  0.18726398948E+02  0.00000000000E+00 0.  1.
         11    1    3    3    0    0 -0.84579872284E+01 -0.50350479612E+00 -0.58712710820E+01  0.10308389274E+02  0.51100000000E-03 0. -1.
        -11    1    3    3    0    0  0.64486047378E+01  0.52251928382E+01 -0.20813515716E+02  0.22407355488E+02  0.51100000000E-03 0.  1.
         12    1    3    3    0    0  0.15650677735E+02 -0.15966431402E+02  0.32861260581E+02  0.39745856290E+02  0.00000000000E+00 0. -1.
</event>
<event>
 7    1  0.1891413E-013  0.7246170E+02  0.7816164E-02  0.1226708E+00
        -11   -1    0    0    0    0  0.00000000000E+00  0.00000000000E+00  0.45593999997E+02  0.45594000000E+02  0.51100000000E-03 0. -1.
         11   -1    0    0    0    0 -0.00000000000E+00 -0.00000000000E+00 -0.45593999997E+02  0.45594000000E+02  0.51100000000E-03 0.  1.
    9900012    2    1    2    0    0  0.83951380077E+01  0.15973040268E+02 -0.50057812751E+01  0.72461702883E+02  0.70000172721E+02 0.  0.
        -12    1    1    2    0    0 -0.83951380077E+01 -0.15973040268E+02  0.50057812751E+01  0.18726297117E+02  0.00000000000E+00 0.  1.
         11    1    3    3    0    0  0.13821462101E+02  0.24732650659E+01  0.21242654763E+02  0.25463704293E+02  0.51100000000E-03 0. -1.
        -11    1    3    3    0    0  0.10277938731E+02  0.16449645340E+02 -0.43309989130E+01  0.19874214657E+02  0.51100000000E-03 0.  1.
        -12    1    3    3    0    0 -0.15704262824E+02 -0.29498701383E+01 -0.21917437125E+02  0.27123783933E+02  0.00000000000E+00 0.  1.
</event>
<event>
 7    1  0.1891413E-013  0.7246157E+02  0.7816164E-02  0.1226708E+00
        -11   -1    0    0    0    0  0.00000000000E+00  0.00000000000E+00  0.45593999997E+02  0.45594000000E+02  0.51100000000E-03 0. -1.
         11   -1    0    0    0    0 -0.00000000000E+00 -0.00000000000E+00 -0.45593999997E+02  0.45594000000E+02  0.51100000000E-03 0.  1.
    9900012    2    1    2    0    0 -0.57031530624E+01 -0.85294584319E+01  0.15665303512E+02  0.72461565472E+02  0.69999993718E+02 0.  0.
        -12    1    1    2    0    0  0.57031530624E+01  0.85294584319E+01 -0.15665303512E+02  0.18726434528E+02  0.00000000000E+00 0.  1.
         11    1    3    3    0    0 -0.86348321220E+01 -0.17191195426E+02  0.12059834992E+01  0.19275682151E+02  0.51100000000E-03 0. -1.
        -11    1    3    3    0    0 -0.12383717820E+02 -0.13932486135E+02 -0.54266596221E+01  0.19414408872E+02  0.51100000000E-03 0.  1.
         12    1    3    3    0    0  0.15315396880E+02  0.22594223129E+02  0.19885979635E+02  0.33771474448E+02  0.00000000000E+00 0. -1.
</event>
<event>
 7    1  0.1891413E-013  0.7246163E+02  0.7816164E-02  0.1226708E+00
        -11   -1    0    0    0    0  0.00000000000E+00  0.00000000000E+00  0.45593999997E+02  0.45594000000E+02  0.51100000000E-03 0.  1.
         11   -1    0    0    0    0 -0.00000000000E+00 -0.00000000000E+00 -0.45593999997E+02  0.45594000000E+02  0.51100000000E-03 0. -1.
    9900012    2    1    2    0    0  0.13391267735E+02 -0.51232486715E+01 -0.12045872054E+02  0.72461634575E+02  0.70000083737E+02 0.  0.
        -12    1    1    2    0    0 -0.13391267735E+02  0.51232486715E+01  0.12045872054E+02  0.18726365425E+02  0.00000000000E+00 0.  1.
         11    1    3    3    0    0  0.21586514117E+02  0.17662455389E+02  0.86648375419E+01  0.29206494688E+02  0.51100000000E-03 0. -1.
        -11    1    3    3    0    0  0.50117865024E+01  0.46592109020E+01 -0.72080155814E+01  0.99389002942E+01  0.51100000000E-03 0.  1.
        -12    1    3    3    0    0 -0.13207032884E+02 -0.27444914963E+02 -0.13502694014E+02  0.33316239592E+02  0.00000000000E+00 0.  1.
</event>
<event>
 7    1  0.1891413E-013  0.7246165E+02  0.7816164E-02  0.1226708E+00
        -11   -1    0    0    0    0  0.00000000000E+00  0.00000000000E+00  0.45593999997E+02  0.45594000000E+02  0.51100000000E-03 0. -1.
         11   -1    0    0    0    0 -0.00000000000E+00 -0.00000000000E+00 -0.45593999997E+02  0.45594000000E+02  0.51100000000E-03 0.  1.
    9900012    2    1    2    0    0 -0.65051066531E+01 -0.97039533001E+00  0.17533345067E+02  0.72461647742E+02  0.70000100889E+02 0.  0.
        -12    1    1    2    0    0  0.65051066531E+01  0.97039533001E+00 -0.17533345067E+02  0.18726352258E+02  0.00000000000E+00 0.  1.
         11    1    3    3    0    0  0.80930908294E+01  0.94871104037E+01  0.13942322328E+02  0.18705393210E+02  0.51100000000E-03 0. -1.
        -11    1    3    3    0    0  0.13651138039E+02 -0.16724511463E+02  0.10500316350E+02  0.24006655267E+02  0.51100000000E-03 0.  1.
        -12    1    3    3    0    0 -0.28249335521E+02  0.62670057290E+01 -0.69092936107E+01  0.29749599264E+02  0.00000000000E+00 0.  1.
</event>
<event>
 7    1  0.1891413E-013  0.7246166E+02  0.7816164E-02  0.1226708E+00
        -11   -1    0    0    0    0  0.00000000000E+00  0.00000000000E+00  0.45593999997E+02  0.45594000000E+02  0.51100000000E-03 0. -1.
         11   -1    0    0    0    0 -0.00000000000E+00 -0.00000000000E+00 -0.45593999997E+02  0.45594000000E+02  0.51100000000E-03 0.  1.
    9900012    2    1    2    0    0 -0.16112042550E+02  0.40889624379E+01  0.86231166865E+01  0.72461663723E+02  0.70000121708E+02 0.  0.
        -12    1    1    2    0    0  0.16112042550E+02 -0.40889624379E+01 -0.86231166865E+01  0.18726336277E+02  0.00000000000E+00 0.  1.
         11    1    3    3    0    0 -0.20952473095E+02  0.93160340496E+01 -0.11243472570E+02  0.25538408230E+02  0.51100000000E-03 0. -1.
        -11    1    3    3    0    0  0.42469492737E+01  0.65570143890E+01 -0.11220541276E+02  0.13672291784E+02  0.51100000000E-03 0.  1.
         12    1    3    3    0    0  0.59348127090E+00 -0.11784086001E+02  0.31087130533E+02  0.33250963710E+02  0.00000000000E+00 0. -1.
</event>
<event>
 7    1  0.1891413E-013  0.7246176E+02  0.7816164E-02  0.1226707E+00
        -11   -1    0    0    0    0  0.00000000000E+00  0.00000000000E+00  0.45593999997E+02  0.45594000000E+02  0.51100000000E-03 0.  1.
         11   -1    0    0    0    0 -0.00000000000E+00 -0.00000000000E+00 -0.45593999997E+02  0.45594000000E+02  0.51100000000E-03 0. -1.
    9900012    2    1    2    0    0 -0.78683770539E+01 -0.27913512348E+01 -0.16762127409E+02  0.72461764007E+02  0.70000252347E+02 0.  0.
        -12    1    1    2    0    0  0.78683770539E+01  0.27913512348E+01  0.16762127409E+02  0.18726235993E+02  0.00000000000E+00 0.  1.
         11    1    3    3    0    0 -0.22539866041E+01 -0.42109095236E+01  0.79374567694E+01  0.92636620650E+01  0.51100000000E-03 0. -1.
        -11    1    3    3    0    0  0.15835072344E+02 -0.99433538887E+00  0.12493978413E+02  0.20194992345E+02  0.51100000000E-03 0.  1.
         12    1    3    3    0    0 -0.21449462793E+02  0.24138936776E+01 -0.37193562591E+02  0.43003109597E+02  0.00000000000E+00 0. -1.
</event>
<event>
 7    1  0.1891413E-013  0.7246150E+02  0.7816164E-02  0.1226708E+00
        -11   -1    0    0    0    0  0.00000000000E+00  0.00000000000E+00  0.45593999997E+02  0.45594000000E+02  0.51100000000E-03 0.  1.
         11   -1    0    0    0    0 -0.00000000000E+00 -0.00000000000E+00 -0.45593999997E+02  0.45594000000E+02  0.51100000000E-03 0. -1.
    9900012    2    1    2    0    0 -0.24898155505E+01  0.15284400132E+02 -0.10529461883E+02  0.72461504428E+02  0.69999914197E+02 0.  0.
        -12    1    1    2    0    0  0.24898155505E+01 -0.15284400132E+02  0.10529461883E+02  0.18726495572E+02  0.00000000000E+00 0.  1.
         11    1    3    3    0    0 -0.34524747085E+00  0.66380553484E+01 -0.31478431659E+01  0.73547189942E+01  0.51100000000E-03 0. -1.
        -11    1    3    3    0    0 -0.10045532394E+02  0.29594854596E+02 -0.22131540456E+02  0.38295864305E+02  0.51100000000E-03 0.  1.
         12    1    3    3    0    0  0.79009643144E+01 -0.20948509813E+02  0.14749921739E+02  0.26810921129E+02  0.00000000000E+00 0. -1.
</event>
<event>
 7    1  0.1891413E-013  0.7246157E+02  0.7816164E-02  0.1226708E+00
        -11   -1    0    0    0    0  0.00000000000E+00  0.00000000000E+00  0.45593999997E+02  0.45594000000E+02  0.51100000000E-03 0.  1.
         11   -1    0    0    0    0 -0.00000000000E+00 -0.00000000000E+00 -0.45593999997E+02  0.45594000000E+02  0.51100000000E-03 0. -1.
    9900012    2    1    2    0    0  0.24152808101E+01 -0.15956030080E+02 -0.95000423946E+01  0.72461567270E+02  0.69999996060E+02 0.  0.
        -12    1    1    2    0    0 -0.24152808101E+01  0.15956030080E+02  0.95000423946E+01  0.18726432730E+02  0.00000000000E+00 0.  1.
         11    1    3    3    0    0 -0.14458220168E+02 -0.88565048923E+01 -0.10685580203E+02  0.20041442909E+02  0.51100000000E-03 0. -1.
        -11    1    3    3    0    0 -0.30488970834E+01 -0.13710931179E+02  0.19859862472E+02  0.24324875023E+02  0.51100000000E-03 0.  1.
        -12    1    3    3    0    0  0.19922398062E+02  0.66114059920E+01 -0.18674324663E+02  0.28095249338E+02  0.00000000000E+00 0.  1.
</event>
<event>
 7    1  0.1891413E-013  0.7246205E+02  0.7816164E-02  0.1226707E+00
        -11   -1    0    0    0    0  0.00000000000E+00  0.00000000000E+00  0.45593999997E+02  0.45594000000E+02  0.51100000000E-03 0.  1.
         11   -1    0    0    0    0 -0.00000000000E+00 -0.00000000000E+00 -0.45593999997E+02  0.45594000000E+02  0.51100000000E-03 0. -1.
    9900012    2    1    2    0    0  0.17849596347E+02 -0.55621545983E+01  0.10562438320E+01  0.72462047299E+02  0.70000621384E+02 0.  0.
        -12    1    1    2    0    0 -0.17849596347E+02  0.55621545983E+01 -0.10562438320E+01  0.18725952701E+02  0.00000000000E+00 0.  1.
         11    1    3    3    0    0  0.11459284571E+01 -0.66170155215E+01  0.10731912031E+01  0.68007195252E+01  0.51100000000E-03 0. -1.
        -11    1    3    3    0    0  0.25286280526E+02 -0.25474587580E+02 -0.77602660280E+01  0.36722912797E+02  0.51100000000E-03 0.  1.
         12    1    3    3    0    0 -0.85826126354E+01  0.26529448503E+02  0.77433186568E+01  0.28938414977E+02  0.00000000000E+00 0. -1.
</event>
<event>
 7    1  0.1891413E-013  0.7246185E+02  0.7816164E-02  0.1226707E+00
        -11   -1    0    0    0    0  0.00000000000E+00  0.00000000000E+00  0.45593999997E+02  0.45594000000E+02  0.51100000000E-03 0.  1.
         11   -1    0    0    0    0 -0.00000000000E+00 -0.00000000000E+00 -0.45593999997E+02  0.45594000000E+02  0.51100000000E-03 0. -1.
    9900012    2    1    2    0    0 -0.86773327596E+01 -0.22314180244E+01 -0.16443637512E+02  0.72461853978E+02  0.70000369549E+02 0.  0.
        -12    1    1    2    0    0  0.86773327596E+01  0.22314180244E+01  0.16443637512E+02  0.18726146022E+02  0.00000000000E+00 0.  1.
         11    1    3    3    0    0 -0.98925802886E+01 -0.39948574879E+01 -0.13244370321E+02  0.17006921431E+02  0.51100000000E-03 0. -1.
        -11    1    3    3    0    0  0.25826791499E+02 -0.92676937072E+01 -0.67344887816E+01  0.28253612959E+02  0.51100000000E-03 0.  1.
         12    1    3    3    0    0 -0.24611543970E+02  0.11031133171E+02  0.35352215901E+01  0.27201319588E+02  0.00000000000E+00 0. -1.
</event>
<event>
 7    1  0.1891413E-013  0.7246172E+02  0.7816164E-02  0.1226708E+00
        -11   -1    0    0    0    0  0.00000000000E+00  0.00000000000E+00  0.45593999997E+02  0.45594000000E+02  0.51100000000E-03 0.  1.
         11   -1    0    0    0    0 -0.00000000000E+00 -0.00000000000E+00 -0.45593999997E+02  0.45594000000E+02  0.51100000000E-03 0. -1.
    9900012    2    1    2    0    0 -0.21348535525E+01  0.18600552125E+02  0.36812281195E+00  0.72461717576E+02  0.70000191861E+02 0.  0.
        -12    1    1    2    0    0  0.21348535525E+01 -0.18600552125E+02 -0.36812281195E+00  0.18726282424E+02  0.00000000000E+00 0.  1.
         11    1    3    3    0    0 -0.56655573609E+01  0.43232534301E+01  0.44819751632E+01  0.84188575268E+01  0.51100000000E-03 0. -1.
        -11    1    3    3    0    0 -0.25795154508E+02  0.20752091002E+02  0.28015791487E+01  0.33224811859E+02  0.51100000000E-03 0.  1.
         12    1    3    3    0    0  0.29325858316E+02 -0.64747923075E+01 -0.69154315000E+01  0.30818048190E+02  0.00000000000E+00 0. -1.
</event>
<event>
 7    1  0.1891413E-013  0.7246162E+02  0.7816164E-02  0.1226708E+00
        -11   -1    0    0    0    0  0.00000000000E+00  0.00000000000E+00  0.45593999997E+02  0.45594000000E+02  0.51100000000E-03 0. -1.
         11   -1    0    0    0    0 -0.00000000000E+00 -0.00000000000E+00 -0.45593999997E+02  0.45594000000E+02  0.51100000000E-03 0.  1.
    9900012    2    1    2    0    0 -0.78304293028E+01  0.16938385089E+02  0.15660855281E+01  0.72461624580E+02  0.70000070717E+02 0.  0.
        -12    1    1    2    0    0  0.78304293028E+01 -0.16938385089E+02 -0.15660855281E+01  0.18726375420E+02  0.00000000000E+00 0.  1.
         11    1    3    3    0    0  0.94195100885E+01 -0.14404549817E+02  0.93443430057E+01  0.19584048923E+02  0.51100000000E-03 0. -1.
        -11    1    3    3    0    0  0.10408070631E+02  0.11187617513E+02 -0.10509964697E+02  0.18545891137E+02  0.51100000000E-03 0.  1.
         12    1    3    3    0    0 -0.27658010023E+02  0.20155317393E+02  0.27317072197E+01  0.34331684520E+02  0.00000000000E+00 0. -1.
</event>
<event>
 7    1  0.1891413E-013  0.7246105E+02  0.7816164E-02  0.1226709E+00
        -11   -1    0    0    0    0  0.00000000000E+00  0.00000000000E+00  0.45593999997E+02  0.45594000000E+02  0.51100000000E-03 0.  1.
         11   -1    0    0    0    0 -0.00000000000E+00 -0.00000000000E+00 -0.45593999997E+02  0.45594000000E+02  0.51100000000E-03 0. -1.
    9900012    2    1    2    0    0  0.62920947699E+01 -0.17405517112E+02 -0.28559230632E+01  0.72461046722E+02  0.69999317946E+02 0.  0.
        -12    1    1    2    0    0 -0.62920947699E+01  0.17405517112E+02  0.28559230632E+01  0.18726953278E+02  0.00000000000E+00 0.  1.
         11    1    3    3    0    0  0.19332550766E+02 -0.16676358754E+02 -0.10394611059E+02  0.27566218451E+02  0.51100000000E-03 0. -1.
        -11    1    3    3    0    0 -0.33000111053E+00 -0.15512996821E+02  0.17175592005E+02  0.23146553352E+02  0.51100000000E-03 0.  1.
         12    1    3    3    0    0 -0.12710454885E+02  0.14783838462E+02 -0.96369040094E+01  0.21748274919E+02  0.00000000000E+00 0. -1.
</event>
<event>
 7    1  0.1891413E-013  0.7246156E+02  0.7816164E-02  0.1226708E+00
        -11   -1    0    0    0    0  0.00000000000E+00  0.00000000000E+00  0.45593999997E+02  0.45594000000E+02  0.51100000000E-03 0.  1.
         11   -1    0    0    0    0 -0.00000000000E+00 -0.00000000000E+00 -0.45593999997E+02  0.45594000000E+02  0.51100000000E-03 0. -1.
    9900012    2    1    2    0    0  0.12225194248E+02  0.13118007110E+02 -0.53983359010E+01  0.72461561058E+02  0.69999987968E+02 0.  0.
        -12    1    1    2    0    0 -0.12225194248E+02 -0.13118007110E+02  0.53983359010E+01  0.18726438942E+02  0.00000000000E+00 0.  1.
         11    1    3    3    0    0 -0.10152287735E+02  0.23504084780E+02 -0.11644439227E+02  0.28126569516E+02  0.51100000000E-03 0. -1.
        -11    1    3    3    0    0 -0.58705684941E+01  0.59609263427E+01  0.81004305679E+01  0.11645307766E+02  0.51100000000E-03 0.  1.
         12    1    3    3    0    0  0.28248050477E+02 -0.16347004012E+02 -0.18543272421E+01  0.32689683777E+02  0.00000000000E+00 0. -1.
</event>
<event>
 7    1  0.1891413E-013  0.7246157E+02  0.7816164E-02  0.1226708E+00
        -11   -1    0    0    0    0  0.00000000000E+00  0.00000000000E+00  0.45593999997E+02  0.45594000000E+02  0.51100000000E-03 0.  1.
         11   -1    0    0    0    0 -0.00000000000E+00 -0.00000000000E+00 -0.45593999997E+02  0.45594000000E+02  0.51100000000E-03 0. -1.
    9900012    2    1    2    0    0 -0.12057454893E+01 -0.13707027038E+02 -0.12702073438E+02  0.72461572630E+02  0.70000003043E+02 0.  0.
        -12    1    1    2    0    0  0.12057454893E+01  0.13707027038E+02  0.12702073438E+02  0.18726427370E+02  0.00000000000E+00 0.  1.
         11    1    3    3    0    0  0.22388588918E+02  0.13230790717E+02 -0.17255393610E+02  0.31209795667E+02  0.51100000000E-03 0. -1.
        -11    1    3    3    0    0 -0.25088160778E+01 -0.55690971800E+01 -0.68143803765E+01  0.91512174977E+01  0.51100000000E-03 0.  1.
        -12    1    3    3    0    0 -0.21085518329E+02 -0.21368720575E+02  0.11367700548E+02  0.32100559465E+02  0.00000000000E+00 0.  1.
</event>
<event>
 7    1  0.1891413E-013  0.7246154E+02  0.7816164E-02  0.1226708E+00
        -11   -1    0    0    0    0  0.00000000000E+00  0.00000000000E+00  0.45593999997E+02  0.45594000000E+02  0.51100000000E-03 0.  1.
         11   -1    0    0    0    0 -0.00000000000E+00 -0.00000000000E+00 -0.45593999997E+02  0.45594000000E+02  0.51100000000E-03 0. -1.
    9900012    2    1    2    0    0  0.32474606870E+01 -0.47393174553E+01 -0.17823383207E+02  0.72461544922E+02  0.69999966947E+02 0.  0.
        -12    1    1    2    0    0 -0.32474606870E+01  0.47393174553E+01  0.17823383207E+02  0.18726455078E+02  0.00000000000E+00 0.  1.
         11    1    3    3    0    0  0.74486677113E+01  0.40738954019E+01 -0.16843069200E+02  0.18861820028E+02  0.51100000000E-03 0. -1.
        -11    1    3    3    0    0 -0.67503323834E+01 -0.17707365178E+01 -0.26292409660E+02  0.27202817889E+02  0.51100000000E-03 0.  1.
        -12    1    3    3    0    0  0.25491253591E+01 -0.70424763395E+01  0.25312095653E+02  0.26396907005E+02  0.00000000000E+00 0.  1.
</event>
<event>
 7    1  0.1891413E-013  0.7246154E+02  0.7816164E-02  0.1226708E+00
        -11   -1    0    0    0    0  0.00000000000E+00  0.00000000000E+00  0.45593999997E+02  0.45594000000E+02  0.51100000000E-03 0.  1.
         11   -1    0    0    0    0 -0.00000000000E+00 -0.00000000000E+00 -0.45593999997E+02  0.45594000000E+02  0.51100000000E-03 0. -1.
    9900012    2    1    2    0    0 -0.87911104115E+01  0.15427990853E+02  0.59475951425E+01  0.72461537120E+02  0.69999956784E+02 0.  0.
        -12    1    1    2    0    0  0.87911104115E+01 -0.15427990853E+02 -0.59475951425E+01  0.18726462880E+02  0.00000000000E+00 0.  1.
         11    1    3    3    0    0  0.76830505166E+01  0.30787106034E+02  0.15367452397E+01  0.31768486735E+02  0.51100000000E-03 0. -1.
        -11    1    3    3    0    0 -0.12776471929E+02  0.89479002134E+01 -0.56298810885E+00  0.15608334603E+02  0.51100000000E-03 0.  1.
         12    1    3    3    0    0 -0.36976889987E+01 -0.24307015395E+02  0.49738380117E+01  0.25084715783E+02  0.00000000000E+00 0. -1.
</event>
<event>
 7    1  0.1891413E-013  0.7246161E+02  0.7816164E-02  0.1226708E+00
        -11   -1    0    0    0    0  0.00000000000E+00  0.00000000000E+00  0.45593999997E+02  0.45594000000E+02  0.51100000000E-03 0.  1.
         11   -1    0    0    0    0 -0.00000000000E+00 -0.00000000000E+00 -0.45593999997E+02  0.45594000000E+02  0.51100000000E-03 0. -1.
    9900012    2    1    2    0    0 -0.25480815242E+01 -0.17456022201E+02  0.62826938226E+01  0.72461610273E+02  0.70000052079E+02 0.  0.
        -12    1    1    2    0    0  0.25480815242E+01  0.17456022201E+02 -0.62826938226E+01  0.18726389727E+02  0.00000000000E+00 0.  1.
         11    1    3    3    0    0  0.34717714008E+01 -0.17542355482E+01 -0.65497620697E+01  0.76177373575E+01  0.51100000000E-03 0. -1.
        -11    1    3    3    0    0 -0.27313610247E+02 -0.19415095124E+01  0.24676355359E+02  0.36860890900E+02  0.51100000000E-03 0.  1.
         12    1    3    3    0    0  0.21293757322E+02 -0.13760277141E+02 -0.11843899466E+02  0.27982982015E+02  0.00000000000E+00 0. -1.
</event>
<event>
 7    1  0.1891413E-013  0.7246161E+02  0.7816164E-02  0.1226708E+00
        -11   -1    0    0    0    0  0.00000000000E+00  0.00000000000E+00  0.45593999997E+02  0.45594000000E+02  0.51100000000E-03 0.  1.
         11   -1    0    0    0    0 -0.00000000000E+00 -0.00000000000E+00 -0.45593999997E+02  0.45594000000E+02  0.51100000000E-03 0. -1.
    9900012    2    1    2    0    0  0.37964568119E+01  0.12519107828E+02  0.13399130839E+02  0.72461605462E+02  0.70000045813E+02 0.  0.
        -12    1    1    2    0    0 -0.37964568119E+01 -0.12519107828E+02 -0.13399130839E+02  0.18726394538E+02  0.00000000000E+00 0.  1.
         11    1    3    3    0    0  0.21891659709E+02  0.14329108869E+02 -0.73117300653E+01  0.27166698780E+02  0.51100000000E-03 0. -1.
        -11    1    3    3    0    0  0.32176924105E+01 -0.36598239213E+01  0.23246817058E+02  0.23752102205E+02  0.51100000000E-03 0.  1.
        -12    1    3    3    0    0 -0.21312895308E+02  0.18498228805E+01 -0.25359561538E+01  0.21542804476E+02  0.00000000000E+00 0.  1.
</event>
<event>
 7    1  0.1891413E-013  0.7246161E+02  0.7816164E-02  0.1226708E+00
        -11   -1    0    0    0    0  0.00000000000E+00  0.00000000000E+00  0.45593999997E+02  0.45594000000E+02  0.51100000000E-03 0. -1.
         11   -1    0    0    0    0 -0.00000000000E+00 -0.00000000000E+00 -0.45593999997E+02  0.45594000000E+02  0.51100000000E-03 0.  1.
    9900012    2    1    2    0    0  0.91696801164E+00 -0.14260987669E+02  0.12102106836E+02  0.72461612481E+02  0.70000054956E+02 0.  0.
        -12    1    1    2    0    0 -0.91696801164E+00  0.14260987669E+02 -0.12102106836E+02  0.18726387519E+02  0.00000000000E+00 0.  1.
         11    1    3    3    0    0  0.25521552944E+02  0.91144398041E+01  0.22634262388E+01  0.27194590937E+02  0.51100000000E-03 0. -1.
        -11    1    3    3    0    0  0.29223256117E+01 -0.79525872473E+00 -0.56734425541E+01  0.64312031608E+01  0.51100000000E-03 0.  1.
         12    1    3    3    0    0 -0.27526910544E+02 -0.22580168749E+02  0.15512123152E+02  0.38835818383E+02  0.00000000000E+00 0. -1.
</event>
<event>
 7    1  0.1891413E-013  0.7246160E+02  0.7816164E-02  0.1226708E+00
        -11   -1    0    0    0    0  0.00000000000E+00  0.00000000000E+00  0.45593999997E+02  0.45594000000E+02  0.51100000000E-03 0.  1.
         11   -1    0    0    0    0 -0.00000000000E+00 -0.00000000000E+00 -0.45593999997E+02  0.45594000000E+02  0.51100000000E-03 0. -1.
    9900012    2    1    2    0    0  0.84164116712E+01 -0.75254728745E+01 -0.14940193934E+02  0.72461598258E+02  0.70000036429E+02 0.  0.
        -12    1    1    2    0    0 -0.84164116712E+01  0.75254728745E+01  0.14940193934E+02  0.18726401742E+02  0.00000000000E+00 0.  1.
         11    1    3    3    0    0 -0.31555211738E+01 -0.36418542029E+01 -0.12466778675E-01  0.48187728309E+01  0.51100000000E-03 0. -1.
        -11    1    3    3    0    0 -0.15237598244E+02  0.16752794210E+02  0.10848315958E+02  0.25110286209E+02  0.51100000000E-03 0.  1.
         12    1    3    3    0    0  0.26809531089E+02 -0.20636412882E+02 -0.25776043113E+02  0.42532539219E+02  0.00000000000E+00 0. -1.
</event>
<event>
 7    1  0.1891413E-013  0.7246158E+02  0.7816164E-02  0.1226708E+00
        -11   -1    0    0    0    0  0.00000000000E+00  0.00000000000E+00  0.45593999997E+02  0.45594000000E+02  0.51100000000E-03 0. -1.
         11   -1    0    0    0    0 -0.00000000000E+00 -0.00000000000E+00 -0.45593999997E+02  0.45594000000E+02  0.51100000000E-03 0.  1.
    9900012    2    1    2    0    0  0.48890535901E+01  0.17823702432E+02  0.30152319602E+01  0.72461579168E+02  0.70000011559E+02 0.  0.
        -12    1    1    2    0    0 -0.48890535901E+01 -0.17823702432E+02 -0.30152319602E+01  0.18726420832E+02  0.00000000000E+00 0.  1.
         11    1    3    3    0    0  0.10195437202E+02  0.84644335932E+01  0.15753985366E+02  0.20585957130E+02  0.51100000000E-03 0. -1.
        -11    1    3    3    0    0 -0.68601755430E+01  0.22173418501E+02  0.10357937009E+02  0.25416714104E+02  0.51100000000E-03 0.  1.
        -12    1    3    3    0    0  0.15537919309E+01 -0.12814149662E+02 -0.23096690415E+02  0.26458907934E+02  0.00000000000E+00 0.  1.
</event>
<event>
 7    1  0.2086136E-013  0.7246157E+02  0.7816164E-02  0.1226708E+00
        -11   -1    0    0    0    0  0.00000000000E+00  0.00000000000E+00  0.45593999997E+02  0.45594000000E+02  0.51100000000E-03 0. -1.
         11   -1    0    0    0    0 -0.00000000000E+00 -0.00000000000E+00 -0.45593999997E+02  0.45594000000E+02  0.51100000000E-03 0.  1.
    9900012    2    1    2    0    0  0.30116291519E+01 -0.74330555594E+01  0.16922139781E+02  0.72461573756E+02  0.70000004510E+02 0.  0.
        -12    1    1    2    0    0 -0.30116291519E+01  0.74330555594E+01 -0.16922139781E+02  0.18726426244E+02  0.00000000000E+00 0.  1.
         11    1    3    3    0    0 -0.47113590963E+01 -0.38333841189E+01  0.11796166800E+01  0.61873446736E+01  0.51100000000E-03 0. -1.
        -11    1    3    3    0    0  0.12089453449E+02 -0.25617960683E+02 -0.11848570002E+02  0.30705429579E+02  0.51100000000E-03 0.  1.
         12    1    3    3    0    0 -0.43664652012E+01  0.22018289243E+02  0.27591093103E+02  0.35568799504E+02  0.00000000000E+00 0. -1.
</event>
<event>
 7    1  0.1891413E-013  0.7246158E+02  0.7816164E-02  0.1226708E+00
        -11   -1    0    0    0    0  0.00000000000E+00  0.00000000000E+00  0.45593999997E+02  0.45594000000E+02  0.51100000000E-03 0.  1.
         11   -1    0    0    0    0 -0.00000000000E+00 -0.00000000000E+00 -0.45593999997E+02  0.45594000000E+02  0.51100000000E-03 0. -1.
    9900012    2    1    2    0    0 -0.16311210259E+02 -0.86962258753E+01  0.29998417923E+01  0.72461575479E+02  0.70000006753E+02 0.  0.
        -12    1    1    2    0    0  0.16311210259E+02  0.86962258753E+01 -0.29998417923E+01  0.18726424521E+02  0.00000000000E+00 0.  1.
         11    1    3    3    0    0  0.57298782044E+01  0.10714286611E+02 -0.68419453543E+01  0.13944162159E+02  0.51100000000E-03 0. -1.
        -11    1    3    3    0    0 -0.16512323441E+02 -0.22466276568E+02 -0.15842094697E+02  0.32068089636E+02  0.51100000000E-03 0.  1.
        -12    1    3    3    0    0 -0.55287650217E+01  0.30557640821E+01  0.25683881843E+02  0.26449323684E+02  0.00000000000E+00 0.  1.
</event>
<event>
 7    1  0.1891413E-013  0.7246155E+02  0.7816164E-02  0.1226708E+00
        -11   -1    0    0    0    0  0.00000000000E+00  0.00000000000E+00  0.45593999997E+02  0.45594000000E+02  0.51100000000E-03 0. -1.
         11   -1    0    0    0    0 -0.00000000000E+00 -0.00000000000E+00 -0.45593999997E+02  0.45594000000E+02  0.51100000000E-03 0.  1.
    9900012    2    1    2    0    0  0.12100344373E+02  0.13966988624E+02  0.30306603726E+01  0.72461547921E+02  0.69999970855E+02 0.  0.
        -12    1    1    2    0    0 -0.12100344373E+02 -0.13966988624E+02 -0.30306603726E+01  0.18726452079E+02  0.00000000000E+00 0.  1.
         11    1    3    3    0    0  0.60686674764E+01 -0.60766969954E+01 -0.18678460405E+01  0.87888463637E+01  0.51100000000E-03 0. -1.
        -11    1    3    3    0    0  0.13384690737E+02  0.30226220453E+01 -0.24984655271E+02  0.28504722230E+02  0.51100000000E-03 0.  1.
         12    1    3    3    0    0 -0.73530138402E+01  0.17021063574E+02  0.29883161684E+02  0.35167979327E+02  0.00000000000E+00 0. -1.
</event>
<event>
 7    1  0.1891413E-013  0.7246159E+02  0.7816164E-02  0.1226708E+00
        -11   -1    0    0    0    0  0.00000000000E+00  0.00000000000E+00  0.45593999997E+02  0.45594000000E+02  0.51100000000E-03 0. -1.
         11   -1    0    0    0    0 -0.00000000000E+00 -0.00000000000E+00 -0.45593999997E+02  0.45594000000E+02  0.51100000000E-03 0.  1.
    9900012    2    1    2    0    0 -0.84294593617E+01 -0.10607395809E+02  0.12926945055E+02  0.72461587118E+02  0.70000021916E+02 0.  0.
        -12    1    1    2    0    0  0.84294593617E+01  0.10607395809E+02 -0.12926945055E+02  0.18726412882E+02  0.00000000000E+00 0.  1.
         11    1    3    3    0    0 -0.17453105853E+02 -0.75064140534E+01 -0.10483115684E+02  0.21699144466E+02  0.51100000000E-03 0. -1.
        -11    1    3    3    0    0 -0.10601192859E+02 -0.12861148664E+02 -0.24689581720E+01  0.16849041210E+02  0.51100000000E-03 0.  1.
         12    1    3    3    0    0  0.19624839350E+02  0.97601669084E+01  0.25879018910E+02  0.33913401442E+02  0.00000000000E+00 0. -1.
</event>
<event>
 7    1  0.1891413E-013  0.7246156E+02  0.7816164E-02  0.1226708E+00
        -11   -1    0    0    0    0  0.00000000000E+00  0.00000000000E+00  0.45593999997E+02  0.45594000000E+02  0.51100000000E-03 0.  1.
         11   -1    0    0    0    0 -0.00000000000E+00 -0.00000000000E+00 -0.45593999997E+02  0.45594000000E+02  0.51100000000E-03 0. -1.
    9900012    2    1    2    0    0 -0.41879726673E+00 -0.14021003552E+02 -0.12406268514E+02  0.72461563335E+02  0.69999990934E+02 0.  0.
        -12    1    1    2    0    0  0.41879726673E+00  0.14021003552E+02  0.12406268514E+02  0.18726436665E+02  0.00000000000E+00 0.  1.
         11    1    3    3    0    0 -0.18404250549E+02 -0.22800055789E+02 -0.24980359702E+02  0.38504251107E+02  0.51100000000E-03 0. -1.
        -11    1    3    3    0    0 -0.19223692292E+01 -0.57353638275E+01  0.58593324708E+01  0.84215009916E+01  0.51100000000E-03 0.  1.
        -12    1    3    3    0    0  0.19907822512E+02  0.14514416064E+02  0.67147587172E+01  0.25535811236E+02  0.00000000000E+00 0.  1.
</event>
<event>
 7    1  0.1891413E-013  0.7246161E+02  0.7816164E-02  0.1226708E+00
        -11   -1    0    0    0    0  0.00000000000E+00  0.00000000000E+00  0.45593999997E+02  0.45594000000E+02  0.51100000000E-03 0. -1.
         11   -1    0    0    0    0 -0.00000000000E+00 -0.00000000000E+00 -0.45593999997E+02  0.45594000000E+02  0.51100000000E-03 0.  1.
    9900012    2    1    2    0    0  0.16044066759E+02  0.90601488085E+01 -0.33435672600E+01  0.72461606417E+02  0.70000047056E+02 0.  0.
        -12    1    1    2    0    0 -0.16044066759E+02 -0.90601488085E+01  0.33435672600E+01  0.18726393583E+02  0.00000000000E+00 0.  1.
         11    1    3    3    0    0 -0.22087019736E+01 -0.24308595272E+01  0.15892471098E+01  0.36487188281E+01  0.51100000000E-03 0. -1.
        -11    1    3    3    0    0 -0.42036896143E+01 -0.19417002514E+02 -0.19582641847E+02  0.27895713917E+02  0.51100000000E-03 0.  1.
         12    1    3    3    0    0  0.22456458347E+02  0.30908010849E+02  0.14649827477E+02  0.40917173672E+02  0.00000000000E+00 0. -1.
</event>
<event>
 7    1  0.1891413E-013  0.7246152E+02  0.7816164E-02  0.1226708E+00
        -11   -1    0    0    0    0  0.00000000000E+00  0.00000000000E+00  0.45593999997E+02  0.45594000000E+02  0.51100000000E-03 0.  1.
         11   -1    0    0    0    0 -0.00000000000E+00 -0.00000000000E+00 -0.45593999997E+02  0.45594000000E+02  0.51100000000E-03 0. -1.
    9900012    2    1    2    0    0 -0.62690988905E+01 -0.91732804415E+01 -0.15074163667E+02  0.72461519145E+02  0.69999933369E+02 0.  0.
        -12    1    1    2    0    0  0.62690988905E+01  0.91732804415E+01  0.15074163667E+02  0.18726480855E+02  0.00000000000E+00 0.  1.
         11    1    3    3    0    0  0.51688677555E+01  0.12615696947E+02 -0.36821570151E+01  0.14122014158E+02  0.51100000000E-03 0. -1.
        -11    1    3    3    0    0  0.56046101334E+01  0.75804848557E+01  0.13337414065E+02  0.16332850933E+02  0.51100000000E-03 0.  1.
        -12    1    3    3    0    0 -0.17042576779E+02 -0.29369462245E+02 -0.24729420717E+02  0.42006654054E+02  0.00000000000E+00 0.  1.
</event>
<event>
 7    1  0.1891413E-013  0.7246153E+02  0.7816164E-02  0.1226708E+00
        -11   -1    0    0    0    0  0.00000000000E+00  0.00000000000E+00  0.45593999997E+02  0.45594000000E+02  0.51100000000E-03 0. -1.
         11   -1    0    0    0    0 -0.00000000000E+00 -0.00000000000E+00 -0.45593999997E+02  0.45594000000E+02  0.51100000000E-03 0.  1.
    9900012    2    1    2    0    0 -0.45737527387E+01 -0.53561490487E+01  0.17351453866E+02  0.72461534823E+02  0.69999953792E+02 0.  0.
        -12    1    1    2    0    0  0.45737527387E+01  0.53561490487E+01 -0.17351453866E+02  0.18726465177E+02  0.00000000000E+00 0.  1.
         11    1    3    3    0    0 -0.30867715414E+02  0.39352859607E+01  0.61424910006E+00  0.31123618566E+02  0.51100000000E-03 0.  1.
        -11    1    3    3    0    0  0.47565529560E+01 -0.11755423486E+02 -0.18083073481E+01  0.12809557100E+02  0.51100000000E-03 0. -1.
        -12    1    3    3    0    0  0.21537409719E+02  0.24639884769E+01  0.18545512114E+02  0.28528359157E+02  0.00000000000E+00 0.  1.
</event>
<event>
 7    1  0.1891413E-013  0.7246158E+02  0.7816164E-02  0.1226708E+00
        -11   -1    0    0    0    0  0.00000000000E+00  0.00000000000E+00  0.45593999997E+02  0.45594000000E+02  0.51100000000E-03 0.  1.
         11   -1    0    0    0    0 -0.00000000000E+00 -0.00000000000E+00 -0.45593999997E+02  0.45594000000E+02  0.51100000000E-03 0. -1.
    9900012    2    1    2    0    0  0.56449652822E+01 -0.17453182923E+02 -0.37682159644E+01  0.72461583398E+02  0.70000017070E+02 0.  0.
        -12    1    1    2    0    0 -0.56449652822E+01  0.17453182923E+02  0.37682159644E+01  0.18726416602E+02  0.00000000000E+00 0.  1.
         11    1    3    3    0    0  0.20466784962E+01 -0.74452751064E+01 -0.11774635423E+02  0.14080591390E+02  0.51100000000E-03 0. -1.
        -11    1    3    3    0    0  0.18040149787E+02 -0.16617894325E+02 -0.16224900417E+02  0.29408311920E+02  0.51100000000E-03 0.  1.
         12    1    3    3    0    0 -0.14441863001E+02  0.66099865087E+01  0.24231319876E+02  0.28972680089E+02  0.00000000000E+00 0. -1.
</event>
<event>
 7    1  0.1891413E-013  0.7246156E+02  0.7816164E-02  0.1226708E+00
        -11   -1    0    0    0    0  0.00000000000E+00  0.00000000000E+00  0.45593999997E+02  0.45594000000E+02  0.51100000000E-03 0.  1.
         11   -1    0    0    0    0 -0.00000000000E+00 -0.00000000000E+00 -0.45593999997E+02  0.45594000000E+02  0.51100000000E-03 0. -1.
    9900012    2    1    2    0    0  0.18171153452E+02 -0.44910133610E+01 -0.56530064383E+00  0.72461559238E+02  0.69999985597E+02 0.  0.
        -12    1    1    2    0    0 -0.18171153452E+02  0.44910133610E+01  0.56530064383E+00  0.18726440762E+02  0.00000000000E+00 0.  1.
         11    1    3    3    0    0  0.12460917502E+02  0.20576004269E+02 -0.20759596001E+02  0.31774317350E+02  0.51100000000E-03 0. -1.
        -11    1    3    3    0    0  0.15850859574E+01  0.48494949358E+01  0.24401082790E+01  0.56554599547E+01  0.51100000000E-03 0.  1.
        -12    1    3    3    0    0  0.41251499927E+01 -0.29916512566E+02  0.17754187078E+02  0.35031781933E+02  0.00000000000E+00 0.  1.
</event>
<event>
 7    1  0.1891413E-013  0.7246156E+02  0.7816164E-02  0.1226708E+00
        -11   -1    0    0    0    0  0.00000000000E+00  0.00000000000E+00  0.45593999997E+02  0.45594000000E+02  0.51100000000E-03 0.  1.
         11   -1    0    0    0    0 -0.00000000000E+00 -0.00000000000E+00 -0.45593999997E+02  0.45594000000E+02  0.51100000000E-03 0. -1.
    9900012    2    1    2    0    0  0.16849565303E+02 -0.55714441735E+01  0.59775072265E+01  0.72461563240E+02  0.69999990811E+02 0.  0.
        -12    1    1    2    0    0 -0.16849565303E+02  0.55714441735E+01 -0.59775072265E+01  0.18726436760E+02  0.00000000000E+00 0.  1.
         11    1    3    3    0    0  0.12624217755E+02 -0.14900525881E+02  0.35411598061E+01  0.19847830069E+02  0.51100000000E-03 0. -1.
        -11    1    3    3    0    0 -0.28480056292E+01  0.38489075861E+00  0.26146515284E+02  0.26303983324E+02  0.51100000000E-03 0.  1.
        -12    1    3    3    0    0  0.70733531776E+01  0.89441909484E+01 -0.23710167863E+02  0.26309749847E+02  0.00000000000E+00 0.  1.
</event>
<event>
 7    1  0.1891413E-013  0.7246152E+02  0.7816164E-02  0.1226708E+00
        -11   -1    0    0    0    0  0.00000000000E+00  0.00000000000E+00  0.45593999997E+02  0.45594000000E+02  0.51100000000E-03 0.  1.
         11   -1    0    0    0    0 -0.00000000000E+00 -0.00000000000E+00 -0.45593999997E+02  0.45594000000E+02  0.51100000000E-03 0. -1.
    9900012    2    1    2    0    0  0.32487286924E+01 -0.15377575866E+02 -0.10181210681E+02  0.72461517988E+02  0.69999931861E+02 0.  0.
        -12    1    1    2    0    0 -0.32487286924E+01  0.15377575866E+02  0.10181210681E+02  0.18726482012E+02  0.00000000000E+00 0.  1.
         11    1    3    3    0    0  0.24361216296E+02 -0.12773485064E+01 -0.24586669692E+02  0.34635311540E+02  0.51100000000E-03 0. -1.
        -11    1    3    3    0    0 -0.55983833323E+01  0.62179173783E+01 -0.22856293819E+00  0.83699840942E+01  0.51100000000E-03 0.  1.
        -12    1    3    3    0    0 -0.15514104272E+02 -0.20318144738E+02  0.14634021950E+02  0.29456222354E+02  0.00000000000E+00 0.  1.
</event>
<event>
 7    1  0.1891413E-013  0.7246152E+02  0.7816164E-02  0.1226708E+00
        -11   -1    0    0    0    0  0.00000000000E+00  0.00000000000E+00  0.45593999997E+02  0.45594000000E+02  0.51100000000E-03 0.  1.
         11   -1    0    0    0    0 -0.00000000000E+00 -0.00000000000E+00 -0.45593999997E+02  0.45594000000E+02  0.51100000000E-03 0. -1.
    9900012    2    1    2    0    0  0.11463107988E+02 -0.13855371795E+02  0.52256033468E+01  0.72461518679E+02  0.69999932761E+02 0.  0.
        -12    1    1    2    0    0 -0.11463107988E+02  0.13855371795E+02 -0.52256033468E+01  0.18726481321E+02  0.00000000000E+00 0.  1.
         11    1    3    3    0    0  0.93244656552E+01  0.33854963183E+01 -0.24141933338E+01  0.10209582498E+02  0.51100000000E-03 0. -1.
        -11    1    3    3    0    0 -0.23658707262E+02 -0.13733532588E+02 -0.11767678900E+02  0.29779567049E+02  0.51100000000E-03 0.  1.
         12    1    3    3    0    0  0.25797349595E+02 -0.35073355254E+01  0.19407475580E+02  0.32472369132E+02  0.00000000000E+00 0. -1.
</event>
<event>
 7    1  0.1891413E-013  0.7246157E+02  0.7816164E-02  0.1226708E+00
        -11   -1    0    0    0    0  0.00000000000E+00  0.00000000000E+00  0.45593999997E+02  0.45594000000E+02  0.51100000000E-03 0.  1.
         11   -1    0    0    0    0 -0.00000000000E+00 -0.00000000000E+00 -0.45593999997E+02  0.45594000000E+02  0.51100000000E-03 0. -1.
    9900012    2    1    2    0    0 -0.75166504164E+01  0.14561099983E+01 -0.17089733789E+02  0.72461567056E+02  0.69999995782E+02 0.  0.
        -12    1    1    2    0    0  0.75166504164E+01 -0.14561099983E+01  0.17089733789E+02  0.18726432944E+02  0.00000000000E+00 0.  1.
         11    1    3    3    0    0 -0.13321939396E+02  0.36176906693E+01 -0.12446214260E+02  0.18586823417E+02  0.51100000000E-03 0. -1.
        -11    1    3    3    0    0 -0.83926285023E+01  0.88722609428E+01  0.19960563664E+02  0.23400370285E+02  0.51100000000E-03 0.  1.
         12    1    3    3    0    0  0.14197917482E+02 -0.11033841614E+02 -0.24604083193E+02  0.30474373355E+02  0.00000000000E+00 0. -1.
</event>
<event>
 7    1  0.1891413E-013  0.7246137E+02  0.7816164E-02  0.1226709E+00
        -11   -1    0    0    0    0  0.00000000000E+00  0.00000000000E+00  0.45593999997E+02  0.45594000000E+02  0.51100000000E-03 0. -1.
         11   -1    0    0    0    0 -0.00000000000E+00 -0.00000000000E+00 -0.45593999997E+02  0.45594000000E+02  0.51100000000E-03 0.  1.
    9900012    2    1    2    0    0 -0.27072442967E+01 -0.14320947542E+02  0.11758746496E+02  0.72461365776E+02  0.69999733576E+02 0.  0.
        -12    1    1    2    0    0  0.27072442967E+01  0.14320947542E+02 -0.11758746496E+02  0.18726634224E+02  0.00000000000E+00 0.  1.
         11    1    3    3    0    0 -0.66388745666E+01  0.13300730963E+01  0.10466869775E+01  0.68512264481E+01  0.51100000000E-03 0. -1.
        -11    1    3    3    0    0 -0.21415473845E+02 -0.27087406718E+02 -0.28954468164E+01  0.34651605089E+02  0.51100000000E-03 0.  1.
         12    1    3    3    0    0  0.25347104115E+02  0.11436386079E+02  0.13607506335E+02  0.30958534239E+02  0.00000000000E+00 0. -1.
</event>
<event>
 7    1  0.1891413E-013  0.7246161E+02  0.7816164E-02  0.1226708E+00
        -11   -1    0    0    0    0  0.00000000000E+00  0.00000000000E+00  0.45593999997E+02  0.45594000000E+02  0.51100000000E-03 0.  1.
         11   -1    0    0    0    0 -0.00000000000E+00 -0.00000000000E+00 -0.45593999997E+02  0.45594000000E+02  0.51100000000E-03 0. -1.
    9900012    2    1    2    0    0 -0.79459723339E+01 -0.19764348502E+01 -0.16841404832E+02  0.72461609857E+02  0.70000051538E+02 0.  0.
        -12    1    1    2    0    0  0.79459723339E+01  0.19764348502E+01  0.16841404832E+02  0.18726390143E+02  0.00000000000E+00 0.  1.
         11    1    3    3    0    0  0.35892717608E+01 -0.15373936324E+02 -0.31048957329E+01  0.16089784574E+02  0.51100000000E-03 0. -1.
        -11    1    3    3    0    0  0.12884637666E+02 -0.37255408541E+01  0.11217019243E+02  0.17484709417E+02  0.51100000000E-03 0.  1.
         12    1    3    3    0    0 -0.24419881760E+02  0.17123042327E+02 -0.24953528342E+02  0.38887115867E+02  0.00000000000E+00 0. -1.
</event>
<event>
 7    1  0.1891413E-013  0.7246159E+02  0.7816164E-02  0.1226708E+00
        -11   -1    0    0    0    0  0.00000000000E+00  0.00000000000E+00  0.45593999997E+02  0.45594000000E+02  0.51100000000E-03 0. -1.
         11   -1    0    0    0    0 -0.00000000000E+00 -0.00000000000E+00 -0.45593999997E+02  0.45594000000E+02  0.51100000000E-03 0.  1.
    9900012    2    1    2    0    0 -0.10931609806E+02  0.92470963046E+01  0.12069367124E+02  0.72461588016E+02  0.70000023086E+02 0.  0.
        -12    1    1    2    0    0  0.10931609806E+02 -0.92470963046E+01 -0.12069367124E+02  0.18726411984E+02  0.00000000000E+00 0.  1.
         11    1    3    3    0    0  0.61087802369E+01 -0.16756698255E+02  0.13268747291E+01  0.17884762486E+02  0.51100000000E-03 0. -1.
        -11    1    3    3    0    0  0.95543905531E+01  0.14162010899E+02 -0.90898902819E+01  0.19351357501E+02  0.51100000000E-03 0.  1.
         12    1    3    3    0    0 -0.26594780596E+02  0.11841783660E+02  0.19832382676E+02  0.35225468029E+02  0.00000000000E+00 0. -1.
</event>
<event>
 7    1  0.1891413E-013  0.7246153E+02  0.7816164E-02  0.1226708E+00
        -11   -1    0    0    0    0  0.00000000000E+00  0.00000000000E+00  0.45593999997E+02  0.45594000000E+02  0.51100000000E-03 0.  1.
         11   -1    0    0    0    0 -0.00000000000E+00 -0.00000000000E+00 -0.45593999997E+02  0.45594000000E+02  0.51100000000E-03 0. -1.
    9900012    2    1    2    0    0  0.12979491842E+02 -0.84349238994E+01 -0.10538760223E+02  0.72461531654E+02  0.69999949664E+02 0.  0.
        -12    1    1    2    0    0 -0.12979491842E+02  0.84349238994E+01  0.10538760223E+02  0.18726468346E+02  0.00000000000E+00 0.  1.
         11    1    3    3    0    0  0.30652271704E+01  0.32203863370E+01 -0.10804340292E+02  0.11683333222E+02  0.51100000000E-03 0. -1.
        -11    1    3    3    0    0  0.21293410015E+02  0.16446207459E+02  0.10349726598E+02  0.28827138095E+02  0.51100000000E-03 0.  1.
         12    1    3    3    0    0 -0.11379145343E+02 -0.28101517695E+02 -0.10084146529E+02  0.31951060338E+02  0.00000000000E+00 0. -1.
</event>
<event>
 7    1  0.1891413E-013  0.7246156E+02  0.7816164E-02  0.1226708E+00
        -11   -1    0    0    0    0  0.00000000000E+00  0.00000000000E+00  0.45593999997E+02  0.45594000000E+02  0.51100000000E-03 0.  1.
         11   -1    0    0    0    0 -0.00000000000E+00 -0.00000000000E+00 -0.45593999997E+02  0.45594000000E+02  0.51100000000E-03 0. -1.
    9900012    2    1    2    0    0 -0.16591648110E+02  0.81813836574E+01 -0.29089118325E+01  0.72461558971E+02  0.69999985249E+02 0.  0.
        -12    1    1    2    0    0  0.16591648110E+02 -0.81813836574E+01  0.29089118325E+01  0.18726441029E+02  0.00000000000E+00 0.  1.
         11    1    3    3    0    0 -0.36131337854E+02  0.14056645444E+02 -0.10182476504E+02  0.40084232365E+02  0.51100000000E-03 0. -1.
        -11    1    3    3    0    0 -0.49445880785E+01 -0.72162303443E+00  0.52916983758E+01  0.72781703080E+01  0.51100000000E-03 0.  1.
        -12    1    3    3    0    0  0.24484277823E+02 -0.51536387518E+01  0.19818662953E+01  0.25099156298E+02  0.00000000000E+00 0.  1.
</event>
<event>
 7    1  0.1891413E-013  0.7246151E+02  0.7816164E-02  0.1226708E+00
        -11   -1    0    0    0    0  0.00000000000E+00  0.00000000000E+00  0.45593999997E+02  0.45594000000E+02  0.51100000000E-03 0.  1.
         11   -1    0    0    0    0 -0.00000000000E+00 -0.00000000000E+00 -0.45593999997E+02  0.45594000000E+02  0.51100000000E-03 0. -1.
    9900012    2    1    2    0    0 -0.55381591075E+01 -0.14579436720E+02 -0.10365821028E+02  0.72461510020E+02  0.69999921482E+02 0.  0.
        -12    1    1    2    0    0  0.55381591075E+01  0.14579436720E+02  0.10365821028E+02  0.18726489980E+02  0.00000000000E+00 0.  1.
         11    1    3    3    0    0  0.73561418500E+01 -0.20036468375E+02  0.42853559393E+01  0.21770097925E+02  0.51100000000E-03 0. -1.
        -11    1    3    3    0    0  0.53064086693E+01  0.78840852575E+01  0.13844309019E+02  0.16792309722E+02  0.51100000000E-03 0.  1.
         12    1    3    3    0    0 -0.18200709627E+02 -0.24270536018E+01 -0.28495485987E+02  0.33899102373E+02  0.00000000000E+00 0. -1.
</event>
<event>
 7    1  0.1891413E-013  0.7246155E+02  0.7816164E-02  0.1226708E+00
        -11   -1    0    0    0    0  0.00000000000E+00  0.00000000000E+00  0.45593999997E+02  0.45594000000E+02  0.51100000000E-03 0. -1.
         11   -1    0    0    0    0 -0.00000000000E+00 -0.00000000000E+00 -0.45593999997E+02  0.45594000000E+02  0.51100000000E-03 0.  1.
    9900012    2    1    2    0    0  0.34879981830E+01  0.17172942586E+02  0.66033270862E+01  0.72461547667E+02  0.69999970523E+02 0.  0.
        -12    1    1    2    0    0 -0.34879981830E+01 -0.17172942586E+02 -0.66033270862E+01  0.18726452333E+02  0.00000000000E+00 0.  1.
         11    1    3    3    0    0  0.15377552434E+02  0.23111507953E+02 -0.57562620578E+01  0.28350405144E+02  0.51100000000E-03 0. -1.
        -11    1    3    3    0    0 -0.21363570011E+01  0.53151939755E+01 -0.13278689262E+02  0.14461635350E+02  0.51100000000E-03 0.  1.
        -12    1    3    3    0    0 -0.97531972502E+01 -0.11253759342E+02  0.25638278406E+02  0.29649507172E+02  0.00000000000E+00 0.  1.
</event>
<event>
 7    1  0.1891413E-013  0.7246157E+02  0.7816164E-02  0.1226708E+00
        -11   -1    0    0    0    0  0.00000000000E+00  0.00000000000E+00  0.45593999997E+02  0.45594000000E+02  0.51100000000E-03 0.  1.
         11   -1    0    0    0    0 -0.00000000000E+00 -0.00000000000E+00 -0.45593999997E+02  0.45594000000E+02  0.51100000000E-03 0. -1.
    9900012    2    1    2    0    0 -0.13126183444E+02 -0.90508630899E+01 -0.98216252228E+01  0.72461571176E+02  0.70000001148E+02 0.  0.
        -12    1    1    2    0    0  0.13126183444E+02  0.90508630899E+01  0.98216252228E+01  0.18726428824E+02  0.00000000000E+00 0.  1.
         11    1    3    3    0    0  0.24617170387E+01 -0.34164817555E+01  0.47865087451E+01  0.63751913377E+01  0.51100000000E-03 0. -1.
        -11    1    3    3    0    0  0.23955633686E+02  0.22966078433E+01 -0.41401435700E+01  0.24419000428E+02  0.51100000000E-03 0.  1.
         12    1    3    3    0    0 -0.39543534169E+02 -0.79309891777E+01 -0.10467990398E+02  0.41667379410E+02  0.00000000000E+00 0. -1.
</event>
<event>
 7    1  0.1891413E-013  0.7246174E+02  0.7816164E-02  0.1226708E+00
        -11   -1    0    0    0    0  0.00000000000E+00  0.00000000000E+00  0.45593999997E+02  0.45594000000E+02  0.51100000000E-03 0. -1.
         11   -1    0    0    0    0 -0.00000000000E+00 -0.00000000000E+00 -0.45593999997E+02  0.45594000000E+02  0.51100000000E-03 0.  1.
    9900012    2    1    2    0    0  0.11046714805E+01  0.18669887642E+02  0.94214602015E+00  0.72461744561E+02  0.70000227015E+02 0.  0.
        -12    1    1    2    0    0 -0.11046714805E+01 -0.18669887642E+02 -0.94214602015E+00  0.18726255439E+02  0.00000000000E+00 0.  1.
         11    1    3    3    0    0 -0.98016065770E+00 -0.65348998553E+01 -0.60265637200E+01  0.89434390235E+01  0.51100000000E-03 0. -1.
        -11    1    3    3    0    0 -0.10496508781E+01 -0.18715235889E+02  0.51934389200E+01  0.19450800226E+02  0.51100000000E-03 0.  1.
         12    1    3    3    0    0  0.31344830163E+01  0.43920023386E+02  0.17752708202E+01  0.44067505312E+02  0.00000000000E+00 0. -1.
</event>
<event>
 7    1  0.1891413E-013  0.7246156E+02  0.7816164E-02  0.1226708E+00
        -11   -1    0    0    0    0  0.00000000000E+00  0.00000000000E+00  0.45593999997E+02  0.45594000000E+02  0.51100000000E-03 0. -1.
         11   -1    0    0    0    0 -0.00000000000E+00 -0.00000000000E+00 -0.45593999997E+02  0.45594000000E+02  0.51100000000E-03 0.  1.
    9900012    2    1    2    0    0  0.43138665696E+01 -0.16457969284E+02  0.78233799587E+01  0.72461562226E+02  0.69999989489E+02 0.  0.
        -12    1    1    2    0    0 -0.43138665696E+01  0.16457969284E+02 -0.78233799587E+01  0.18726437774E+02  0.00000000000E+00 0.  1.
         11    1    3    3    0    0 -0.51652892994E+01  0.14926226304E+02  0.11559177135E+02  0.19572608960E+02  0.51100000000E-03 0. -1.
        -11    1    3    3    0    0  0.73051719318E+01  0.94055035706E+01 -0.81044411158E+00  0.11936743873E+02  0.51100000000E-03 0.  1.
         12    1    3    3    0    0  0.21739839372E+01 -0.40789699158E+02 -0.29253530643E+01  0.40952209393E+02  0.00000000000E+00 0. -1.
</event>
<event>
 7    1  0.1891413E-013  0.7246156E+02  0.7816164E-02  0.1226708E+00
        -11   -1    0    0    0    0  0.00000000000E+00  0.00000000000E+00  0.45593999997E+02  0.45594000000E+02  0.51100000000E-03 0.  1.
         11   -1    0    0    0    0 -0.00000000000E+00 -0.00000000000E+00 -0.45593999997E+02  0.45594000000E+02  0.51100000000E-03 0. -1.
    9900012    2    1    2    0    0 -0.11547896720E+02  0.13498043689E+02 -0.59269250701E+01  0.72461560326E+02  0.69999987015E+02 0.  0.
        -12    1    1    2    0    0  0.11547896720E+02 -0.13498043689E+02  0.59269250701E+01  0.18726439674E+02  0.00000000000E+00 0.  1.
         11    1    3    3    0    0 -0.32501434098E+02  0.19988199546E+02 -0.20829551357E+02  0.43471157674E+02  0.51100000000E-03 0. -1.
        -11    1    3    3    0    0  0.82765710789E+01  0.30308976053E+01  0.36056750075E+01  0.95230699692E+01  0.51100000000E-03 0.  1.
        -12    1    3    3    0    0  0.12676966299E+02 -0.95210534621E+01  0.11296951280E+02  0.19467332683E+02  0.00000000000E+00 0.  1.
</event>
<event>
 7    1  0.1891413E-013  0.7246171E+02  0.7816164E-02  0.1226708E+00
        -11   -1    0    0    0    0  0.00000000000E+00  0.00000000000E+00  0.45593999997E+02  0.45594000000E+02  0.51100000000E-03 0.  1.
         11   -1    0    0    0    0 -0.00000000000E+00 -0.00000000000E+00 -0.45593999997E+02  0.45594000000E+02  0.51100000000E-03 0. -1.
    9900012    2    1    2    0    0 -0.32175837628E+01  0.10096391111E+02  0.15439691257E+02  0.72461707659E+02  0.70000178943E+02 0.  0.
        -12    1    1    2    0    0  0.32175837628E+01 -0.10096391111E+02 -0.15439691257E+02  0.18726292341E+02  0.00000000000E+00 0.  1.
         11    1    3    3    0    0  0.14149271595E+01 -0.12870122483E+01 -0.14483357616E+02  0.14609109058E+02  0.51100000000E-03 0. -1.
        -11    1    3    3    0    0 -0.14635290153E+02 -0.15198805235E+02  0.13369139519E+02  0.24978576624E+02  0.51100000000E-03 0.  1.
         12    1    3    3    0    0  0.10002779231E+02  0.26582208594E+02  0.16553909354E+02  0.32874021977E+02  0.00000000000E+00 0. -1.
</event>
<event>
 7    1  0.1891413E-013  0.7246153E+02  0.7816164E-02  0.1226708E+00
        -11   -1    0    0    0    0  0.00000000000E+00  0.00000000000E+00  0.45593999997E+02  0.45594000000E+02  0.51100000000E-03 0.  1.
         11   -1    0    0    0    0 -0.00000000000E+00 -0.00000000000E+00 -0.45593999997E+02  0.45594000000E+02  0.51100000000E-03 0. -1.
    9900012    2    1    2    0    0  0.12680164764E+02 -0.13740340847E+02  0.10473621151E+01  0.72461534438E+02  0.69999953290E+02 0.  0.
        -12    1    1    2    0    0 -0.12680164764E+02  0.13740340847E+02 -0.10473621151E+01  0.18726465562E+02  0.00000000000E+00 0.  1.
         11    1    3    3    0    0  0.13558284181E+02  0.10236673309E+02  0.27116976334E+01  0.17203774431E+02  0.51100000000E-03 0. -1.
        -11    1    3    3    0    0  0.22981148007E+02 -0.17482453204E+02  0.57514737135E+01  0.29442295833E+02  0.51100000000E-03 0.  1.
        -12    1    3    3    0    0 -0.23859267423E+02 -0.64945609524E+01 -0.74158092317E+01  0.25815464174E+02  0.00000000000E+00 0.  1.
</event>
<event>
 7    1  0.1891413E-013  0.7246157E+02  0.7816164E-02  0.1226708E+00
        -11   -1    0    0    0    0  0.00000000000E+00  0.00000000000E+00  0.45593999997E+02  0.45594000000E+02  0.51100000000E-03 0. -1.
         11   -1    0    0    0    0 -0.00000000000E+00 -0.00000000000E+00 -0.45593999997E+02  0.45594000000E+02  0.51100000000E-03 0.  1.
    9900012    2    1    2    0    0  0.18352171486E+01  0.14780563919E+02 -0.11351041632E+02  0.72461568469E+02  0.69999997622E+02 0.  0.
        -12    1    1    2    0    0 -0.18352171486E+01 -0.14780563919E+02  0.11351041632E+02  0.18726431531E+02  0.00000000000E+00 0.  1.
         11    1    3    3    0    0 -0.12064612837E+02 -0.15303715624E+02 -0.63565003682E+01  0.20497894819E+02  0.51100000000E-03 0. -1.
        -11    1    3    3    0    0  0.13433662337E+02  0.58055817774E+00 -0.15611949149E+02  0.20604205592E+02  0.51100000000E-03 0.  1.
         12    1    3    3    0    0  0.46616764860E+00  0.29503721366E+02  0.10617407885E+02  0.31359468059E+02  0.00000000000E+00 0. -1.
</event>
<event>
 7    1  0.1891413E-013  0.7246158E+02  0.7816164E-02  0.1226708E+00
        -11   -1    0    0    0    0  0.00000000000E+00  0.00000000000E+00  0.45593999997E+02  0.45594000000E+02  0.51100000000E-03 0. -1.
         11   -1    0    0    0    0 -0.00000000000E+00 -0.00000000000E+00 -0.45593999997E+02  0.45594000000E+02  0.51100000000E-03 0.  1.
    9900012    2    1    2    0    0 -0.20354658170E+01  0.10800678377E+02  0.15161823767E+02  0.72461583513E+02  0.70000017220E+02 0.  0.
        -12    1    1    2    0    0  0.20354658170E+01 -0.10800678377E+02 -0.15161823767E+02  0.18726416487E+02  0.00000000000E+00 0.  1.
         11    1    3    3    0    0 -0.19369171490E+02  0.12432692318E+02 -0.76004235556E+01  0.24238462842E+02  0.51100000000E-03 0. -1.
        -11    1    3    3    0    0  0.43716857339E+01 -0.53093213870E+01 -0.10377213719E+02  0.12449381293E+02  0.51100000000E-03 0.  1.
         12    1    3    3    0    0  0.12962019939E+02  0.36773074463E+01  0.33139461041E+02  0.35773739378E+02  0.00000000000E+00 0. -1.
</event>
<event>
 7    1  0.1891413E-013  0.7246168E+02  0.7816164E-02  0.1226708E+00
        -11   -1    0    0    0    0  0.00000000000E+00  0.00000000000E+00  0.45593999997E+02  0.45594000000E+02  0.51100000000E-03 0.  1.
         11   -1    0    0    0    0 -0.00000000000E+00 -0.00000000000E+00 -0.45593999997E+02  0.45594000000E+02  0.51100000000E-03 0. -1.
    9900012    2    1    2    0    0 -0.17308095851E+02 -0.37126626299E+01 -0.61090942463E+01  0.72461679532E+02  0.70000142302E+02 0.  0.
        -12    1    1    2    0    0  0.17308095851E+02  0.37126626299E+01  0.61090942463E+01  0.18726320468E+02  0.00000000000E+00 0.  1.
         11    1    3    3    0    0 -0.11551466459E+01  0.20134084276E+01 -0.71901422572E+01  0.75555491666E+01  0.51100000000E-03 0.  1.
        -11    1    3    3    0    0  0.25887078822E+01 -0.18178278112E+01  0.30031714313E+02  0.30197843819E+02  0.51100000000E-03 0. -1.
         12    1    3    3    0    0 -0.18741657087E+02 -0.39082432463E+01 -0.28950666302E+02  0.34708286546E+02  0.00000000000E+00 0. -1.
</event>
<event>
 7    1  0.1891413E-013  0.7246159E+02  0.7816164E-02  0.1226708E+00
        -11   -1    0    0    0    0  0.00000000000E+00  0.00000000000E+00  0.45593999997E+02  0.45594000000E+02  0.51100000000E-03 0.  1.
         11   -1    0    0    0    0 -0.00000000000E+00 -0.00000000000E+00 -0.45593999997E+02  0.45594000000E+02  0.51100000000E-03 0. -1.
    9900012    2    1    2    0    0 -0.18204878074E+02  0.40698710873E+01  0.16422736719E+01  0.72461588193E+02  0.70000023317E+02 0.  0.
        -12    1    1    2    0    0  0.18204878074E+02 -0.40698710873E+01 -0.16422736719E+01  0.18726411807E+02  0.00000000000E+00 0.  1.
         11    1    3    3    0    0 -0.60497028577E+01 -0.84415058741E+01 -0.18802591365E+01  0.10554302477E+02  0.51100000000E-03 0. -1.
        -11    1    3    3    0    0 -0.24778504228E+02  0.20445699868E+02  0.21421473903E+02  0.38611921207E+02  0.51100000000E-03 0.  1.
         12    1    3    3    0    0  0.12623329012E+02 -0.79343229067E+01 -0.17898941094E+02  0.23295364509E+02  0.00000000000E+00 0. -1.
</event>
<event>
 7    1  0.1891413E-013  0.7246158E+02  0.7816164E-02  0.1226708E+00
        -11   -1    0    0    0    0  0.00000000000E+00  0.00000000000E+00  0.45593999997E+02  0.45594000000E+02  0.51100000000E-03 0. -1.
         11   -1    0    0    0    0 -0.00000000000E+00 -0.00000000000E+00 -0.45593999997E+02  0.45594000000E+02  0.51100000000E-03 0.  1.
    9900012    2    1    2    0    0  0.15394938979E+02 -0.13173681069E+01  0.10580138594E+02  0.72461576488E+02  0.70000008068E+02 0.  0.
        -12    1    1    2    0    0 -0.15394938979E+02  0.13173681069E+01 -0.10580138594E+02  0.18726423512E+02  0.00000000000E+00 0.  1.
         11    1    3    3    0    0 -0.64548021677E+01 -0.11576770629E+02 -0.61129935801E+01  0.14596396130E+02  0.51100000000E-03 0.  1.
        -11    1    3    3    0    0  0.49702950693E+01  0.19200517181E+01 -0.17793477409E+02  0.18574129058E+02  0.51100000000E-03 0. -1.
         12    1    3    3    0    0  0.16879446077E+02  0.83393508039E+01  0.34486609584E+02  0.39291051300E+02  0.00000000000E+00 0. -1.
</event>
<event>
 7    1  0.1891413E-013  0.7246159E+02  0.7816164E-02  0.1226708E+00
        -11   -1    0    0    0    0  0.00000000000E+00  0.00000000000E+00  0.45593999997E+02  0.45594000000E+02  0.51100000000E-03 0. -1.
         11   -1    0    0    0    0 -0.00000000000E+00 -0.00000000000E+00 -0.45593999997E+02  0.45594000000E+02  0.51100000000E-03 0.  1.
    9900012    2    1    2    0    0  0.16718629361E+02 -0.84273514517E+01 -0.38182791269E+00  0.72461585160E+02  0.70000019366E+02 0.  0.
        -12    1    1    2    0    0 -0.16718629361E+02  0.84273514517E+01  0.38182791269E+00  0.18726414840E+02  0.00000000000E+00 0.  1.
         11    1    3    3    0    0  0.14779213119E+02  0.60393600030E+01  0.21228854127E+02  0.26562440729E+02  0.51100000000E-03 0. -1.
        -11    1    3    3    0    0  0.18109746469E+02 -0.89353797483E+01 -0.26406381447E+01  0.20366072240E+02  0.51100000000E-03 0.  1.
         12    1    3    3    0    0 -0.16170330228E+02 -0.55313317063E+01 -0.18970043896E+02  0.25533072191E+02  0.00000000000E+00 0. -1.
</event>
<event>
 7    1  0.1891413E-013  0.7246156E+02  0.7816164E-02  0.1226708E+00
        -11   -1    0    0    0    0  0.00000000000E+00  0.00000000000E+00  0.45593999997E+02  0.45594000000E+02  0.51100000000E-03 0. -1.
         11   -1    0    0    0    0 -0.00000000000E+00 -0.00000000000E+00 -0.45593999997E+02  0.45594000000E+02  0.51100000000E-03 0.  1.
    9900012    2    1    2    0    0 -0.45784305512E+01  0.51142632905E+01  0.17423024967E+02  0.72461561088E+02  0.69999988007E+02 0.  0.
        -12    1    1    2    0    0  0.45784305512E+01 -0.51142632905E+01 -0.17423024967E+02  0.18726438912E+02  0.00000000000E+00 0.  1.
         11    1    3    3    0    0  0.17824378824E+02  0.14173479974E+02  0.18069493416E+02  0.29070648558E+02  0.51100000000E-03 0. -1.
        -11    1    3    3    0    0  0.37585453853E+01  0.10191957220E+02 -0.99037969141E+00  0.10907956160E+02  0.51100000000E-03 0.  1.
        -12    1    3    3    0    0 -0.26161354761E+02 -0.19251173904E+02  0.34391124269E+00  0.32482956370E+02  0.00000000000E+00 0.  1.
</event>
<event>
 7    1  0.1891413E-013  0.7246170E+02  0.7816164E-02  0.1226708E+00
        -11   -1    0    0    0    0  0.00000000000E+00  0.00000000000E+00  0.45593999997E+02  0.45594000000E+02  0.51100000000E-03 0.  1.
         11   -1    0    0    0    0 -0.00000000000E+00 -0.00000000000E+00 -0.45593999997E+02  0.45594000000E+02  0.51100000000E-03 0. -1.
    9900012    2    1    2    0    0  0.12834518691E+02 -0.13626860159E+02 -0.50817330353E+00  0.72461696896E+02  0.70000164922E+02 0.  0.
        -12    1    1    2    0    0 -0.12834518691E+02  0.13626860159E+02  0.50817330353E+00  0.18726303104E+02  0.00000000000E+00 0.  1.
         11    1    3    3    0    0 -0.10806904432E+02 -0.19998900518E+01 -0.78624904193E+01  0.13513234234E+02  0.51100000000E-03 0. -1.
        -11    1    3    3    0    0 -0.26752871636E+01  0.13185061740E+02  0.16841779330E+02  0.21555707963E+02  0.51100000000E-03 0.  1.
         12    1    3    3    0    0  0.26316710287E+02 -0.24812031848E+02 -0.94874622141E+01  0.37392754699E+02  0.00000000000E+00 0. -1.
</event>
<event>
 7    1  0.1891413E-013  0.7246160E+02  0.7816164E-02  0.1226708E+00
        -11   -1    0    0    0    0  0.00000000000E+00  0.00000000000E+00  0.45593999997E+02  0.45594000000E+02  0.51100000000E-03 0.  1.
         11   -1    0    0    0    0 -0.00000000000E+00 -0.00000000000E+00 -0.45593999997E+02  0.45594000000E+02  0.51100000000E-03 0. -1.
    9900012    2    1    2    0    0  0.91005894730E+01  0.19655875038E+01 -0.16247880980E+02  0.72461604208E+02  0.70000044179E+02 0.  0.
        -12    1    1    2    0    0 -0.91005894730E+01 -0.19655875038E+01  0.16247880980E+02  0.18726395792E+02  0.00000000000E+00 0.  1.
         11    1    3    3    0    0  0.20646126869E+02  0.25339638535E+01  0.60056462820E+01  0.21650665464E+02  0.51100000000E-03 0. -1.
        -11    1    3    3    0    0  0.13095864506E+02 -0.89643643718E+01  0.10047679879E+01  0.15901919844E+02  0.51100000000E-03 0.  1.
        -12    1    3    3    0    0 -0.24641401903E+02  0.83959880221E+01 -0.23258295250E+02  0.34909018900E+02  0.00000000000E+00 0.  1.
</event>
<event>
 7    1  0.1891413E-013  0.7246151E+02  0.7816164E-02  0.1226708E+00
        -11   -1    0    0    0    0  0.00000000000E+00  0.00000000000E+00  0.45593999997E+02  0.45594000000E+02  0.51100000000E-03 0.  1.
         11   -1    0    0    0    0 -0.00000000000E+00 -0.00000000000E+00 -0.45593999997E+02  0.45594000000E+02  0.51100000000E-03 0. -1.
    9900012    2    1    2    0    0 -0.58752434098E+01  0.10909149638E+02 -0.14041128306E+02  0.72461513008E+02  0.69999925374E+02 0.  0.
        -12    1    1    2    0    0  0.58752434098E+01 -0.10909149638E+02  0.14041128306E+02  0.18726486992E+02  0.00000000000E+00 0.  1.
         11    1    3    3    0    0  0.39380234755E+00  0.26105234782E+02 -0.22112327221E+02  0.34213935446E+02  0.51100000000E-03 0. -1.
        -11    1    3    3    0    0  0.74872529247E+01  0.60707420119E+01  0.85941859717E+01  0.12914058143E+02  0.51100000000E-03 0.  1.
         12    1    3    3    0    0 -0.13756298682E+02 -0.21266827156E+02 -0.52298705663E+00  0.25333519420E+02  0.00000000000E+00 0. -1.
</event>
<event>
 7    1  0.1891413E-013  0.7246157E+02  0.7816164E-02  0.1226708E+00
        -11   -1    0    0    0    0  0.00000000000E+00  0.00000000000E+00  0.45593999997E+02  0.45594000000E+02  0.51100000000E-03 0. -1.
         11   -1    0    0    0    0 -0.00000000000E+00 -0.00000000000E+00 -0.45593999997E+02  0.45594000000E+02  0.51100000000E-03 0.  1.
    9900012    2    1    2    0    0  0.14322155786E+02 -0.36320690271E+01  0.11504910587E+02  0.72461573768E+02  0.70000004526E+02 0.  0.
        -12    1    1    2    0    0 -0.14322155786E+02  0.36320690271E+01 -0.11504910587E+02  0.18726426232E+02  0.00000000000E+00 0.  1.
         11    1    3    3    0    0  0.54231380305E+01  0.14795609452E+01 -0.30634155519E+00  0.56296866785E+01  0.51100000000E-03 0. -1.
        -11    1    3    3    0    0  0.21298960172E+02  0.20305802676E+02  0.22031691233E+02  0.36760940488E+02  0.51100000000E-03 0.  1.
         12    1    3    3    0    0 -0.12399942416E+02 -0.25417432648E+02 -0.10220439091E+02  0.30070946602E+02  0.00000000000E+00 0. -1.
</event>
<event>
 7    1  0.1891413E-013  0.7246157E+02  0.7816164E-02  0.1226708E+00
        -11   -1    0    0    0    0  0.00000000000E+00  0.00000000000E+00  0.45593999997E+02  0.45594000000E+02  0.51100000000E-03 0.  1.
         11   -1    0    0    0    0 -0.00000000000E+00 -0.00000000000E+00 -0.45593999997E+02  0.45594000000E+02  0.51100000000E-03 0. -1.
    9900012    2    1    2    0    0 -0.96756125167E+01  0.15784375468E+02  0.28133723402E+01  0.72461573474E+02  0.70000004142E+02 0.  0.
        -12    1    1    2    0    0  0.96756125167E+01 -0.15784375468E+02 -0.28133723402E+01  0.18726426526E+02  0.00000000000E+00 0.  1.
         11    1    3    3    0    0  0.12584852584E+02 -0.10047615600E+00 -0.15519712122E+02  0.19981243070E+02  0.51100000000E-03 0. -1.
        -11    1    3    3    0    0 -0.16041920481E+02 -0.11790928884E+02  0.26982876163E+01  0.20091042108E+02  0.51100000000E-03 0.  1.
         12    1    3    3    0    0 -0.62185446199E+01  0.27675780508E+02  0.15634796846E+02  0.32389288296E+02  0.00000000000E+00 0. -1.
</event>
<event>
 7    1  0.1891413E-013  0.7246144E+02  0.7816164E-02  0.1226708E+00
        -11   -1    0    0    0    0  0.00000000000E+00  0.00000000000E+00  0.45593999997E+02  0.45594000000E+02  0.51100000000E-03 0. -1.
         11   -1    0    0    0    0 -0.00000000000E+00 -0.00000000000E+00 -0.45593999997E+02  0.45594000000E+02  0.51100000000E-03 0.  1.
    9900012    2    1    2    0    0 -0.87500487274E+00  0.15894718489E+02 -0.98628754937E+01  0.72461440723E+02  0.69999831209E+02 0.  0.
        -12    1    1    2    0    0  0.87500487274E+00 -0.15894718489E+02  0.98628754937E+01  0.18726559277E+02  0.00000000000E+00 0.  1.
         11    1    3    3    0    0  0.17413366135E+02 -0.12927094016E+02  0.39081234211E+01  0.22036526695E+02  0.51100000000E-03 0. -1.
        -11    1    3    3    0    0 -0.64526562713E+01  0.15893709253E+01  0.10261047140E+02  0.12225054665E+02  0.51100000000E-03 0.  1.
        -12    1    3    3    0    0 -0.11835714736E+02  0.27232441579E+02 -0.24032046055E+02  0.38199859362E+02  0.00000000000E+00 0.  1.
</event>
<event>
 7    1  0.1891413E-013  0.7246144E+02  0.7816164E-02  0.1226708E+00
        -11   -1    0    0    0    0  0.00000000000E+00  0.00000000000E+00  0.45593999997E+02  0.45594000000E+02  0.51100000000E-03 0. -1.
         11   -1    0    0    0    0 -0.00000000000E+00 -0.00000000000E+00 -0.45593999997E+02  0.45594000000E+02  0.51100000000E-03 0.  1.
    9900012    2    1    2    0    0  0.27090591338E+01 -0.13693179081E+02  0.12483672390E+02  0.72461435150E+02  0.69999823949E+02 0.  0.
        -12    1    1    2    0    0 -0.27090591338E+01  0.13693179081E+02 -0.12483672390E+02  0.18726564850E+02  0.00000000000E+00 0.  1.
         11    1    3    3    0    0 -0.58020158169E+01  0.34949732271E+01  0.10491414539E+02  0.12487914345E+02  0.51100000000E-03 0.  1.
        -11    1    3    3    0    0 -0.14555531053E+01 -0.36370037217E+02  0.85388977509E+01  0.37387310909E+02  0.51100000000E-03 0. -1.
        -12    1    3    3    0    0  0.99666280560E+01  0.19181884908E+02 -0.65466399005E+01  0.22586209895E+02  0.00000000000E+00 0.  1.
</event>
<event>
 7    1  0.1891413E-013  0.7246162E+02  0.7816164E-02  0.1226708E+00
        -11   -1    0    0    0    0  0.00000000000E+00  0.00000000000E+00  0.45593999997E+02  0.45594000000E+02  0.51100000000E-03 0.  1.
         11   -1    0    0    0    0 -0.00000000000E+00 -0.00000000000E+00 -0.45593999997E+02  0.45594000000E+02  0.51100000000E-03 0. -1.
    9900012    2    1    2    0    0  0.11714673073E+02  0.13682230983E+02 -0.51225418119E+01  0.72461616353E+02  0.70000060000E+02 0.  0.
        -12    1    1    2    0    0 -0.11714673073E+02 -0.13682230983E+02  0.51225418119E+01  0.18726383647E+02  0.00000000000E+00 0.  1.
         11    1    3    3    0    0  0.60484185696E+01  0.49512119665E+01  0.10517041242E+02  0.13103664521E+02  0.51100000000E-03 0. -1.
        -11    1    3    3    0    0  0.13736173171E+02 -0.18217342829E+02  0.63156452516E+01  0.23673643749E+02  0.51100000000E-03 0.  1.
         12    1    3    3    0    0 -0.80699186675E+01  0.26948361846E+02 -0.21955228305E+02  0.35684308083E+02  0.00000000000E+00 0. -1.
</event>
<event>
 7    1  0.1891413E-013  0.7246158E+02  0.7816164E-02  0.1226708E+00
        -11   -1    0    0    0    0  0.00000000000E+00  0.00000000000E+00  0.45593999997E+02  0.45594000000E+02  0.51100000000E-03 0. -1.
         11   -1    0    0    0    0 -0.00000000000E+00 -0.00000000000E+00 -0.45593999997E+02  0.45594000000E+02  0.51100000000E-03 0.  1.
    9900012    2    1    2    0    0  0.16837962214E+02  0.69854858243E+01  0.42854229017E+01  0.72461579275E+02  0.70000011700E+02 0.  0.
        -12    1    1    2    0    0 -0.16837962214E+02 -0.69854858243E+01 -0.42854229017E+01  0.18726420725E+02  0.00000000000E+00 0.  1.
         11    1    3    3    0    0 -0.35256202312E+01 -0.12889912368E+02  0.69285506123E+01  0.15052729079E+02  0.51100000000E-03 0.  1.
        -11    1    3    3    0    0 -0.98260754707E+01  0.10829863081E+02  0.15282714631E+02  0.21151809858E+02  0.51100000000E-03 0. -1.
        -12    1    3    3    0    0  0.30189657916E+02  0.90455351115E+01 -0.17925842342E+02  0.36257040339E+02  0.00000000000E+00 0.  1.
</event>
<event>
 7    1  0.1891413E-013  0.7246161E+02  0.7816164E-02  0.1226708E+00
        -11   -1    0    0    0    0  0.00000000000E+00  0.00000000000E+00  0.45593999997E+02  0.45594000000E+02  0.51100000000E-03 0.  1.
         11   -1    0    0    0    0 -0.00000000000E+00 -0.00000000000E+00 -0.45593999997E+02  0.45594000000E+02  0.51100000000E-03 0. -1.
    9900012    2    1    2    0    0 -0.28710076616E+01  0.30678078654E+01 -0.18248930797E+02  0.72461612059E+02  0.70000054406E+02 0.  0.
        -12    1    1    2    0    0  0.28710076616E+01 -0.30678078654E+01  0.18248930797E+02  0.18726387941E+02  0.00000000000E+00 0.  1.
         11    1    3    3    0    0 -0.77073181619E+00  0.47247761871E+01 -0.21511873401E+02  0.22038108699E+02  0.51100000000E-03 0. -1.
        -11    1    3    3    0    0 -0.17545613660E+02 -0.18668620789E+02 -0.48139532669E+01  0.26067990087E+02  0.51100000000E-03 0.  1.
        -12    1    3    3    0    0  0.15445337815E+02  0.17011652467E+02  0.80768958709E+01  0.24355513273E+02  0.00000000000E+00 0.  1.
</event>
<event>
 7    1  0.1891413E-013  0.7246163E+02  0.7816164E-02  0.1226708E+00
        -11   -1    0    0    0    0  0.00000000000E+00  0.00000000000E+00  0.45593999997E+02  0.45594000000E+02  0.51100000000E-03 0.  1.
         11   -1    0    0    0    0 -0.00000000000E+00 -0.00000000000E+00 -0.45593999997E+02  0.45594000000E+02  0.51100000000E-03 0. -1.
    9900012    2    1    2    0    0  0.10914040611E+02 -0.12501832805E+02  0.86755352699E+01  0.72461627736E+02  0.70000074828E+02 0.  0.
        -12    1    1    2    0    0 -0.10914040611E+02  0.12501832805E+02 -0.86755352699E+01  0.18726372264E+02  0.00000000000E+00 0.  1.
         11    1    3    3    0    0 -0.20603088497E+02  0.61082363848E+01 -0.75964339329E+01  0.22792621966E+02  0.51100000000E-03 0. -1.
        -11    1    3    3    0    0 -0.22889569223E+01 -0.99948369568E+01  0.98069243418E+01  0.14188440890E+02  0.51100000000E-03 0.  1.
        -12    1    3    3    0    0  0.33806086030E+02 -0.86152322334E+01  0.64650448610E+01  0.35480564880E+02  0.00000000000E+00 0.  1.
</event>
<event>
 7    1  0.1891413E-013  0.7246155E+02  0.7816164E-02  0.1226708E+00
        -11   -1    0    0    0    0  0.00000000000E+00  0.00000000000E+00  0.45593999997E+02  0.45594000000E+02  0.51100000000E-03 0.  1.
         11   -1    0    0    0    0 -0.00000000000E+00 -0.00000000000E+00 -0.45593999997E+02  0.45594000000E+02  0.51100000000E-03 0. -1.
    9900012    2    1    2    0    0 -0.13095079050E+02 -0.97509595700E+00 -0.13350957268E+02  0.72461548990E+02  0.69999972247E+02 0.  0.
        -12    1    1    2    0    0  0.13095079050E+02  0.97509595700E+00  0.13350957268E+02  0.18726451010E+02  0.00000000000E+00 0.  1.
         11    1    3    3    0    0  0.50277473041E+00 -0.27353112605E+02 -0.24481961065E+02  0.36712558743E+02  0.51100000000E-03 0. -1.
        -11    1    3    3    0    0 -0.84225341977E+01  0.83040445849E+01 -0.30327754695E+01  0.12210404010E+02  0.51100000000E-03 0.  1.
        -12    1    3    3    0    0 -0.51753195830E+01  0.18073972063E+02  0.14163779267E+02  0.23538586237E+02  0.00000000000E+00 0.  1.
</event>
<event>
 7    1  0.1891413E-013  0.7246161E+02  0.7816164E-02  0.1226708E+00
        -11   -1    0    0    0    0  0.00000000000E+00  0.00000000000E+00  0.45593999997E+02  0.45594000000E+02  0.51100000000E-03 0.  1.
         11   -1    0    0    0    0 -0.00000000000E+00 -0.00000000000E+00 -0.45593999997E+02  0.45594000000E+02  0.51100000000E-03 0. -1.
    9900012    2    1    2    0    0 -0.11524431305E+02 -0.92196111470E+01  0.11526664690E+02  0.72461608316E+02  0.70000049531E+02 0.  0.
        -12    1    1    2    0    0  0.11524431305E+02  0.92196111470E+01 -0.11526664690E+02  0.18726391684E+02  0.00000000000E+00 0.  1.
         11    1    3    3    0    0 -0.94136031144E+01  0.22917486686E+01 -0.15903622437E+02  0.18622385520E+02  0.51100000000E-03 0. -1.
        -11    1    3    3    0    0  0.12288983985E+02  0.42880307494E+01 -0.58619325885E+01  0.14274753553E+02  0.51100000000E-03 0.  1.
        -12    1    3    3    0    0 -0.14399812175E+02 -0.15799390565E+02  0.33292219716E+02  0.39564469243E+02  0.00000000000E+00 0.  1.
</event>
<event>
 7    1  0.1891413E-013  0.7246160E+02  0.7816164E-02  0.1226708E+00
        -11   -1    0    0    0    0  0.00000000000E+00  0.00000000000E+00  0.45593999997E+02  0.45594000000E+02  0.51100000000E-03 0. -1.
         11   -1    0    0    0    0 -0.00000000000E+00 -0.00000000000E+00 -0.45593999997E+02  0.45594000000E+02  0.51100000000E-03 0.  1.
    9900012    2    1    2    0    0  0.14614282537E+02  0.11369622391E+02  0.27986633280E+01  0.72461599283E+02  0.70000037763E+02 0.  0.
        -12    1    1    2    0    0 -0.14614282537E+02 -0.11369622391E+02 -0.27986633280E+01  0.18726400717E+02  0.00000000000E+00 0.  1.
         11    1    3    3    0    0 -0.20379489024E+01 -0.12916649046E+02 -0.80734828695E+00  0.13101330842E+02  0.51100000000E-03 0. -1.
        -11    1    3    3    0    0 -0.17070225508E+02  0.18059763429E+02 -0.24935464225E+00  0.24851757121E+02  0.51100000000E-03 0.  1.
         12    1    3    3    0    0  0.33722456947E+02  0.62265080086E+01  0.38553662572E+01  0.34508511320E+02  0.00000000000E+00 0. -1.
</event>
<event>
 7    1  0.1891413E-013  0.7246157E+02  0.7816164E-02  0.1226708E+00
        -11   -1    0    0    0    0  0.00000000000E+00  0.00000000000E+00  0.45593999997E+02  0.45594000000E+02  0.51100000000E-03 0. -1.
         11   -1    0    0    0    0 -0.00000000000E+00 -0.00000000000E+00 -0.45593999997E+02  0.45594000000E+02  0.51100000000E-03 0.  1.
    9900012    2    1    2    0    0 -0.59669778244E+01  0.59324423060E+01  0.16729624193E+02  0.72461574241E+02  0.70000005141E+02 0.  0.
        -12    1    1    2    0    0  0.59669778244E+01 -0.59324423060E+01 -0.16729624193E+02  0.18726425759E+02  0.00000000000E+00 0.  1.
         11    1    3    3    0    0 -0.21323507630E+02 -0.13780218365E+01  0.62628048028E+01  0.22266873289E+02  0.51100000000E-03 0. -1.
        -11    1    3    3    0    0  0.10921018487E+02  0.24694249273E+02  0.16042426299E+02  0.31407547401E+02  0.51100000000E-03 0.  1.
         12    1    3    3    0    0  0.44355113185E+01 -0.17383785130E+02 -0.55756069089E+01  0.18787153550E+02  0.00000000000E+00 0. -1.
</event>
<event>
 7    1  0.1891413E-013  0.7246166E+02  0.7816164E-02  0.1226708E+00
        -11   -1    0    0    0    0  0.00000000000E+00  0.00000000000E+00  0.45593999997E+02  0.45594000000E+02  0.51100000000E-03 0.  1.
         11   -1    0    0    0    0 -0.00000000000E+00 -0.00000000000E+00 -0.45593999997E+02  0.45594000000E+02  0.51100000000E-03 0. -1.
    9900012    2    1    2    0    0 -0.14148574557E+02  0.12068704190E+02 -0.21999725743E+01  0.72461663942E+02  0.70000121993E+02 0.  0.
        -12    1    1    2    0    0  0.14148574557E+02 -0.12068704190E+02  0.21999725743E+01  0.18726336058E+02  0.00000000000E+00 0.  1.
         11    1    3    3    0    0 -0.23461433524E+02 -0.45660728305E+01  0.25152374100E+02  0.34697691670E+02  0.51100000000E-03 0. -1.
        -11    1    3    3    0    0  0.51083591992E+01  0.19632432636E+02 -0.18191755296E+02  0.27248260604E+02  0.51100000000E-03 0.  1.
        -12    1    3    3    0    0  0.42044997670E+01 -0.29976556157E+01 -0.91605913789E+01  0.10515711668E+02  0.00000000000E+00 0.  1.
</event>
<event>
 7    1  0.1891413E-013  0.7246153E+02  0.7816164E-02  0.1226708E+00
        -11   -1    0    0    0    0  0.00000000000E+00  0.00000000000E+00  0.45593999997E+02  0.45594000000E+02  0.51100000000E-03 0.  1.
         11   -1    0    0    0    0 -0.00000000000E+00 -0.00000000000E+00 -0.45593999997E+02  0.45594000000E+02  0.51100000000E-03 0. -1.
    9900012    2    1    2    0    0 -0.74112205249E+01  0.43840798735E+01 -0.16629322743E+02  0.72461528872E+02  0.69999946040E+02 0.  0.
        -12    1    1    2    0    0  0.74112205249E+01 -0.43840798735E+01  0.16629322743E+02  0.18726471128E+02  0.00000000000E+00 0.  1.
         11    1    3    3    0    0  0.24589265557E+01 -0.11524967780E+02 -0.77560040773E+01  0.14107685907E+02  0.51100000000E-03 0. -1.
        -11    1    3    3    0    0  0.18348737452E+02 -0.31133129554E+01  0.81318967281E+01  0.20310013006E+02  0.51100000000E-03 0.  1.
         12    1    3    3    0    0 -0.28218884533E+02  0.19022360609E+02 -0.17005215394E+02  0.38043829960E+02  0.00000000000E+00 0. -1.
</event>
<event>
 7    1  0.1891413E-013  0.7246157E+02  0.7816164E-02  0.1226708E+00
        -11   -1    0    0    0    0  0.00000000000E+00  0.00000000000E+00  0.45593999997E+02  0.45594000000E+02  0.51100000000E-03 0. -1.
         11   -1    0    0    0    0 -0.00000000000E+00 -0.00000000000E+00 -0.45593999997E+02  0.45594000000E+02  0.51100000000E-03 0.  1.
    9900012    2    1    2    0    0  0.53331403923E+01 -0.11776499405E+02 -0.13548092520E+02  0.72461571200E+02  0.70000001179E+02 0.  0.
        -12    1    1    2    0    0 -0.53331403923E+01  0.11776499405E+02  0.13548092520E+02  0.18726428800E+02  0.00000000000E+00 0.  1.
         11    1    3    3    0    0  0.71398133958E+00  0.18551132459E+02  0.13342760290E+01  0.18612753091E+02  0.51100000000E-03 0. -1.
        -11    1    3    3    0    0 -0.35619585095E+01 -0.11517220209E+02 -0.27318963982E+02  0.29860671511E+02  0.51100000000E-03 0.  1.
         12    1    3    3    0    0  0.81811175622E+01 -0.18810411655E+02  0.12436595433E+02  0.23988146597E+02  0.00000000000E+00 0. -1.
</event>
<event>
 7    1  0.1891413E-013  0.7246235E+02  0.7816164E-02  0.1226706E+00
        -11   -1    0    0    0    0  0.00000000000E+00  0.00000000000E+00  0.45593999997E+02  0.45594000000E+02  0.51100000000E-03 0.  1.
         11   -1    0    0    0    0 -0.00000000000E+00 -0.00000000000E+00 -0.45593999997E+02  0.45594000000E+02  0.51100000000E-03 0. -1.
    9900012    2    1    2    0    0  0.16573751864E+02 -0.86522014947E+01 -0.10489300646E+01  0.72462346584E+02  0.70001011255E+02 0.  0.
        -12    1    1    2    0    0 -0.16573751864E+02  0.86522014947E+01  0.10489300646E+01  0.18725653416E+02  0.00000000000E+00 0.  1.
         11    1    3    3    0    0 -0.74831797324E+01  0.45438959969E+01  0.94079129597E+01  0.12851217695E+02  0.51100000000E-03 0. -1.
        -11    1    3    3    0    0  0.39441384848E+02 -0.17934195933E+01 -0.82504484238E+01  0.40334961163E+02  0.51100000000E-03 0.  1.
         12    1    3    3    0    0 -0.15384453251E+02 -0.11402677898E+02 -0.22063946005E+01  0.19276167726E+02  0.00000000000E+00 0. -1.
</event>
<event>
 7    1  0.1891413E-013  0.7246159E+02  0.7816164E-02  0.1226708E+00
        -11   -1    0    0    0    0  0.00000000000E+00  0.00000000000E+00  0.45593999997E+02  0.45594000000E+02  0.51100000000E-03 0. -1.
         11   -1    0    0    0    0 -0.00000000000E+00 -0.00000000000E+00 -0.45593999997E+02  0.45594000000E+02  0.51100000000E-03 0.  1.
    9900012    2    1    2    0    0  0.11098410267E+01  0.48135628246E+00  0.18687299280E+02  0.72461585358E+02  0.70000019623E+02 0.  0.
        -12    1    1    2    0    0 -0.11098410267E+01 -0.48135628246E+00 -0.18687299280E+02  0.18726414642E+02  0.00000000000E+00 0.  1.
         11    1    3    3    0    0  0.13670270385E+02  0.71516170869E+01  0.37327255455E+02  0.40389923489E+02  0.51100000000E-03 0. -1.
        -11    1    3    3    0    0  0.62144880996E+01 -0.31945990538E+01 -0.55166883444E+01  0.89027622682E+01  0.51100000000E-03 0.  1.
        -12    1    3    3    0    0 -0.18774917457E+02 -0.34756617507E+01 -0.13123267831E+02  0.23168899601E+02  0.00000000000E+00 0.  1.
</event>
<event>
 7    1  0.1891413E-013  0.7246154E+02  0.7816164E-02  0.1226708E+00
        -11   -1    0    0    0    0  0.00000000000E+00  0.00000000000E+00  0.45593999997E+02  0.45594000000E+02  0.51100000000E-03 0. -1.
         11   -1    0    0    0    0 -0.00000000000E+00 -0.00000000000E+00 -0.45593999997E+02  0.45594000000E+02  0.51100000000E-03 0.  1.
    9900012    2    1    2    0    0  0.54585890878E+01  0.59282000888E+01  0.16903860477E+02  0.72461541441E+02  0.69999962413E+02 0.  0.
        -12    1    1    2    0    0 -0.54585890878E+01 -0.59282000888E+01 -0.16903860477E+02  0.18726458559E+02  0.00000000000E+00 0.  1.
         11    1    3    3    0    0 -0.54203777141E+01  0.69970512182E+01  0.79970452178E+01  0.11928619065E+02  0.51100000000E-03 0. -1.
        -11    1    3    3    0    0  0.10015751536E+02 -0.27627559658E+01 -0.24739651095E+02  0.26832786585E+02  0.51100000000E-03 0.  1.
         12    1    3    3    0    0  0.86321526620E+00  0.16939048364E+01  0.33646466355E+02  0.33700135791E+02  0.00000000000E+00 0. -1.
</event>
<event>
 7    1  0.1891413E-013  0.7246172E+02  0.7816164E-02  0.1226708E+00
        -11   -1    0    0    0    0  0.00000000000E+00  0.00000000000E+00  0.45593999997E+02  0.45594000000E+02  0.51100000000E-03 0.  1.
         11   -1    0    0    0    0 -0.00000000000E+00 -0.00000000000E+00 -0.45593999997E+02  0.45594000000E+02  0.51100000000E-03 0. -1.
    9900012    2    1    2    0    0  0.65905205160E+01  0.16290417558E+02 -0.64699927777E+01  0.72461722436E+02  0.70000198192E+02 0.  0.
        -12    1    1    2    0    0 -0.65905205160E+01 -0.16290417558E+02  0.64699927777E+01  0.18726277564E+02  0.00000000000E+00 0.  1.
         11    1    3    3    0    0  0.17475537985E+00 -0.86028915637E+01 -0.28438419886E+02  0.29711681349E+02  0.51100000000E-03 0. -1.
        -11    1    3    3    0    0  0.87281273989E+01  0.15234938226E+02 -0.11429664474E+01  0.17595167609E+02  0.51100000000E-03 0.  1.
        -12    1    3    3    0    0 -0.23123622628E+01  0.96583708952E+01  0.23111393556E+02  0.25154873477E+02  0.00000000000E+00 0.  1.
</event>
<event>
 7    1  0.1891413E-013  0.7246158E+02  0.7816164E-02  0.1226708E+00
        -11   -1    0    0    0    0  0.00000000000E+00  0.00000000000E+00  0.45593999997E+02  0.45594000000E+02  0.51100000000E-03 0.  1.
         11   -1    0    0    0    0 -0.00000000000E+00 -0.00000000000E+00 -0.45593999997E+02  0.45594000000E+02  0.51100000000E-03 0. -1.
    9900012    2    1    2    0    0  0.44409317311E+01 -0.16118903255E+02 -0.84343324328E+01  0.72461578014E+02  0.70000010057E+02 0.  0.
        -12    1    1    2    0    0 -0.44409317311E+01  0.16118903255E+02  0.84343324328E+01  0.18726421986E+02  0.00000000000E+00 0.  1.
         11    1    3    3    0    0  0.18513058725E+02 -0.75867817286E+00  0.78500049080E+01  0.20122910159E+02  0.51100000000E-03 0. -1.
        -11    1    3    3    0    0  0.14728695602E+02  0.36186537790E+01 -0.63711883766E+01  0.16450567495E+02  0.51100000000E-03 0.  1.
         12    1    3    3    0    0 -0.28800822597E+02 -0.18978878862E+02 -0.99131489642E+01  0.35888100360E+02  0.00000000000E+00 0. -1.
</event>
<event>
 7    1  0.1891413E-013  0.7246157E+02  0.7816164E-02  0.1226708E+00
        -11   -1    0    0    0    0  0.00000000000E+00  0.00000000000E+00  0.45593999997E+02  0.45594000000E+02  0.51100000000E-03 0.  1.
         11   -1    0    0    0    0 -0.00000000000E+00 -0.00000000000E+00 -0.45593999997E+02  0.45594000000E+02  0.51100000000E-03 0. -1.
    9900012    2    1    2    0    0  0.18540491611E+02  0.38173791356E+00  0.26045559701E+01  0.72461567750E+02  0.69999996685E+02 0.  0.
        -12    1    1    2    0    0 -0.18540491611E+02 -0.38173791356E+00 -0.26045559701E+01  0.18726432250E+02  0.00000000000E+00 0.  1.
         11    1    3    3    0    0 -0.74258906559E+01 -0.89614225397E+00 -0.24496789425E+01  0.78706956590E+01  0.51100000000E-03 0. -1.
        -11    1    3    3    0    0 -0.42891098585E+01 -0.75091796332E+01 -0.21635548103E+02  0.23299810817E+02  0.51100000000E-03 0.  1.
         12    1    3    3    0    0  0.30255492126E+02  0.87870598007E+01  0.26689783015E+02  0.41291061274E+02  0.00000000000E+00 0. -1.
</event>
<event>
 7    1  0.1891413E-013  0.7246162E+02  0.7816164E-02  0.1226708E+00
        -11   -1    0    0    0    0  0.00000000000E+00  0.00000000000E+00  0.45593999997E+02  0.45594000000E+02  0.51100000000E-03 0.  1.
         11   -1    0    0    0    0 -0.00000000000E+00 -0.00000000000E+00 -0.45593999997E+02  0.45594000000E+02  0.51100000000E-03 0. -1.
    9900012    2    1    2    0    0  0.73606192325E+01  0.14263788868E+02 -0.96458810563E+01  0.72461617282E+02  0.70000061210E+02 0.  0.
        -12    1    1    2    0    0 -0.73606192325E+01 -0.14263788868E+02  0.96458810563E+01  0.18726382718E+02  0.00000000000E+00 0.  1.
         11    1    3    3    0    0  0.15715922407E+01  0.36775530765E+01  0.67395882294E+01  0.78368583351E+01  0.51100000000E-03 0. -1.
        -11    1    3    3    0    0  0.10459893460E+02 -0.24544624145E+02 -0.10631586983E+02  0.28720699637E+02  0.51100000000E-03 0.  1.
         12    1    3    3    0    0 -0.46708664680E+01  0.35130859936E+02 -0.57538823026E+01  0.35904059310E+02  0.00000000000E+00 0. -1.
</event>
<event>
 7    1  0.1891413E-013  0.7246163E+02  0.7816164E-02  0.1226708E+00
        -11   -1    0    0    0    0  0.00000000000E+00  0.00000000000E+00  0.45593999997E+02  0.45594000000E+02  0.51100000000E-03 0.  1.
         11   -1    0    0    0    0 -0.00000000000E+00 -0.00000000000E+00 -0.45593999997E+02  0.45594000000E+02  0.51100000000E-03 0. -1.
    9900012    2    1    2    0    0  0.39999149162E+00 -0.14269788333E+02 -0.12119824019E+02  0.72461628581E+02  0.70000075930E+02 0.  0.
        -12    1    1    2    0    0 -0.39999149162E+00  0.14269788333E+02  0.12119824019E+02  0.18726371419E+02  0.00000000000E+00 0.  1.
         11    1    3    3    0    0  0.18394610771E+01 -0.74619830998E+01  0.38529682051E+01  0.85971025983E+01  0.51100000000E-03 0. -1.
        -11    1    3    3    0    0  0.24724327599E+02 -0.17685817539E+02  0.17403995308E+01  0.30448473000E+02  0.51100000000E-03 0.  1.
         12    1    3    3    0    0 -0.26163797184E+02  0.10878012306E+02 -0.17713191755E+02  0.33416052983E+02  0.00000000000E+00 0. -1.
</event>
<event>
 7    1  0.1891413E-013  0.7246154E+02  0.7816164E-02  0.1226708E+00
        -11   -1    0    0    0    0  0.00000000000E+00  0.00000000000E+00  0.45593999997E+02  0.45594000000E+02  0.51100000000E-03 0. -1.
         11   -1    0    0    0    0 -0.00000000000E+00 -0.00000000000E+00 -0.45593999997E+02  0.45594000000E+02  0.51100000000E-03 0.  1.
    9900012    2    1    2    0    0  0.35094887670E+01  0.15629085845E+02  0.97002790910E+01  0.72461541440E+02  0.69999962412E+02 0.  0.
        -12    1    1    2    0    0 -0.35094887670E+01 -0.15629085845E+02 -0.97002790910E+01  0.18726458560E+02  0.00000000000E+00 0.  1.
         11    1    3    3    0    0  0.16064117003E+02  0.60254071247E+01 -0.19994150644E+01  0.17273072887E+02  0.51100000000E-03 0. -1.
        -11    1    3    3    0    0 -0.14665945799E+01 -0.20394965933E+02  0.10955460109E+02  0.23197578355E+02  0.51100000000E-03 0.  1.
         12    1    3    3    0    0 -0.11088033656E+02  0.29998644653E+02  0.74423404664E+00  0.31990890199E+02  0.00000000000E+00 0. -1.
</event>
<event>
 7    1  0.1891413E-013  0.7246158E+02  0.7816164E-02  0.1226708E+00
        -11   -1    0    0    0    0  0.00000000000E+00  0.00000000000E+00  0.45593999997E+02  0.45594000000E+02  0.51100000000E-03 0.  1.
         11   -1    0    0    0    0 -0.00000000000E+00 -0.00000000000E+00 -0.45593999997E+02  0.45594000000E+02  0.51100000000E-03 0. -1.
    9900012    2    1    2    0    0 -0.41219015226E+01 -0.17964134918E+02  0.33133705512E+01  0.72461584435E+02  0.70000018421E+02 0.  0.
        -12    1    1    2    0    0  0.41219015226E+01  0.17964134918E+02 -0.33133705512E+01  0.18726415565E+02  0.00000000000E+00 0.  1.
         11    1    3    3    0    0  0.17837006745E+02 -0.58638351427E+01 -0.69174027331E+01  0.20009843403E+02  0.51100000000E-03 0. -1.
        -11    1    3    3    0    0 -0.14855388591E+02 -0.75100112475E+01  0.28112357678E+02  0.32670896737E+02  0.51100000000E-03 0.  1.
         12    1    3    3    0    0 -0.71035196767E+01 -0.45902885275E+01 -0.17881584394E+02  0.19780844295E+02  0.00000000000E+00 0. -1.
</event>
<event>
 7    1  0.1891413E-013  0.7246154E+02  0.7816164E-02  0.1226708E+00
        -11   -1    0    0    0    0  0.00000000000E+00  0.00000000000E+00  0.45593999997E+02  0.45594000000E+02  0.51100000000E-03 0.  1.
         11   -1    0    0    0    0 -0.00000000000E+00 -0.00000000000E+00 -0.45593999997E+02  0.45594000000E+02  0.51100000000E-03 0. -1.
    9900012    2    1    2    0    0 -0.13972477003E+01 -0.18075592404E+02 -0.46905109521E+01  0.72461541849E+02  0.69999962945E+02 0.  0.
        -12    1    1    2    0    0  0.13972477003E+01  0.18075592404E+02  0.46905109521E+01  0.18726458151E+02  0.00000000000E+00 0.  1.
         11    1    3    3    0    0 -0.14960759922E+02 -0.10841895858E+02 -0.15773346489E+02  0.24293404516E+02  0.51100000000E-03 0. -1.
        -11    1    3    3    0    0  0.89713555524E+00 -0.17645192204E+02  0.22189481110E+02  0.28364250957E+02  0.51100000000E-03 0.  1.
         12    1    3    3    0    0  0.12666376667E+02  0.10411495658E+02 -0.11106645574E+02  0.19803886376E+02  0.00000000000E+00 0. -1.
</event>
<event>
 7    1  0.1891413E-013  0.7246155E+02  0.7816164E-02  0.1226708E+00
        -11   -1    0    0    0    0  0.00000000000E+00  0.00000000000E+00  0.45593999997E+02  0.45594000000E+02  0.51100000000E-03 0. -1.
         11   -1    0    0    0    0 -0.00000000000E+00 -0.00000000000E+00 -0.45593999997E+02  0.45594000000E+02  0.51100000000E-03 0.  1.
    9900012    2    1    2    0    0 -0.10603647017E+02 -0.73521431016E+01  0.13571612437E+02  0.72461548056E+02  0.69999971031E+02 0.  0.
        -12    1    1    2    0    0  0.10603647017E+02  0.73521431016E+01 -0.13571612437E+02  0.18726451944E+02  0.00000000000E+00 0.  1.
         11    1    3    3    0    0 -0.13979752300E+01 -0.49425426256E+01 -0.49013416778E+01  0.70997332945E+01  0.51100000000E-03 0. -1.
        -11    1    3    3    0    0  0.63505259202E+01 -0.20386410649E+02 -0.13691668463E+02  0.25365265702E+02  0.51100000000E-03 0.  1.
         12    1    3    3    0    0 -0.15556197707E+02  0.17976810173E+02  0.32164622578E+02  0.39996549059E+02  0.00000000000E+00 0. -1.
</event>
<event>
 7    1  0.1891413E-013  0.7246156E+02  0.7816164E-02  0.1226708E+00
        -11   -1    0    0    0    0  0.00000000000E+00  0.00000000000E+00  0.45593999997E+02  0.45594000000E+02  0.51100000000E-03 0.  1.
         11   -1    0    0    0    0 -0.00000000000E+00 -0.00000000000E+00 -0.45593999997E+02  0.45594000000E+02  0.51100000000E-03 0. -1.
    9900012    2    1    2    0    0  0.40807688962E+01  0.17997841965E+02  0.31787732478E+01  0.72461559079E+02  0.69999985391E+02 0.  0.
        -12    1    1    2    0    0 -0.40807688962E+01 -0.17997841965E+02 -0.31787732478E+01  0.18726440921E+02  0.00000000000E+00 0.  1.
         11    1    3    3    0    0 -0.79698987034E+01 -0.37802179482E+01  0.30887991361E+01  0.93461229097E+01  0.51100000000E-03 0.  1.
        -11    1    3    3    0    0  0.15459135736E+02  0.12288677163E+02 -0.27434027196E+02  0.33802696823E+02  0.51100000000E-03 0. -1.
         12    1    3    3    0    0 -0.34084681360E+01  0.94893827509E+01  0.27524001307E+02  0.29312739346E+02  0.00000000000E+00 0. -1.
</event>
<event>
 7    1  0.1891413E-013  0.7246162E+02  0.7816164E-02  0.1226708E+00
        -11   -1    0    0    0    0  0.00000000000E+00  0.00000000000E+00  0.45593999997E+02  0.45594000000E+02  0.51100000000E-03 0.  1.
         11   -1    0    0    0    0 -0.00000000000E+00 -0.00000000000E+00 -0.45593999997E+02  0.45594000000E+02  0.51100000000E-03 0. -1.
    9900012    2    1    2    0    0 -0.46892132475E+01  0.17502340844E+02 -0.47282633209E+01  0.72461624752E+02  0.70000070941E+02 0.  0.
        -12    1    1    2    0    0  0.46892132475E+01 -0.17502340844E+02  0.47282633209E+01  0.18726375248E+02  0.00000000000E+00 0.  1.
         11    1    3    3    0    0 -0.54345630267E+01  0.14249352118E+02 -0.46611502422E-01  0.15250596184E+02  0.51100000000E-03 0. -1.
        -11    1    3    3    0    0  0.98343004792E+01  0.18274856421E+02  0.18724522535E+02  0.27951593649E+02  0.51100000000E-03 0.  1.
        -12    1    3    3    0    0 -0.90889506999E+01 -0.15021867695E+02 -0.23406174353E+02  0.29259434918E+02  0.00000000000E+00 0.  1.
</event>
<event>
 7    1  0.1891413E-013  0.7246156E+02  0.7816164E-02  0.1226708E+00
        -11   -1    0    0    0    0  0.00000000000E+00  0.00000000000E+00  0.45593999997E+02  0.45594000000E+02  0.51100000000E-03 0. -1.
         11   -1    0    0    0    0 -0.00000000000E+00 -0.00000000000E+00 -0.45593999997E+02  0.45594000000E+02  0.51100000000E-03 0.  1.
    9900012    2    1    2    0    0  0.16508473239E+02  0.88351777879E+01 -0.29938108132E+00  0.72461556551E+02  0.69999982097E+02 0.  0.
        -12    1    1    2    0    0 -0.16508473239E+02 -0.88351777879E+01  0.29938108132E+00  0.18726443449E+02  0.00000000000E+00 0.  1.
         11    1    3    3    0    0  0.24960001785E+02 -0.39913447700E+01  0.19412086680E+02  0.31871015543E+02  0.51100000000E-03 0. -1.
        -11    1    3    3    0    0 -0.30059333769E+01  0.39264173788E+01  0.88748915085E+01  0.10159531901E+02  0.51100000000E-03 0.  1.
        -12    1    3    3    0    0 -0.54455951698E+01  0.89001051792E+01 -0.28586359270E+02  0.30431009107E+02  0.00000000000E+00 0.  1.
</event>
<event>
 7    1  0.1891413E-013  0.7246160E+02  0.7816164E-02  0.1226708E+00
        -11   -1    0    0    0    0  0.00000000000E+00  0.00000000000E+00  0.45593999997E+02  0.45594000000E+02  0.51100000000E-03 0.  1.
         11   -1    0    0    0    0 -0.00000000000E+00 -0.00000000000E+00 -0.45593999997E+02  0.45594000000E+02  0.51100000000E-03 0. -1.
    9900012    2    1    2    0    0  0.10125820573E+02 -0.81670260346E+01 -0.13470175205E+02  0.72461596807E+02  0.70000034537E+02 0.  0.
        -12    1    1    2    0    0 -0.10125820573E+02  0.81670260346E+01  0.13470175205E+02  0.18726403193E+02  0.00000000000E+00 0.  1.
         11    1    3    3    0    0 -0.61579689223E+01  0.10124743955E+01  0.12751593362E+01  0.63695931772E+01  0.51100000000E-03 0. -1.
        -11    1    3    3    0    0 -0.48198773531E+01  0.24191348281E+02 -0.86548180892E+01  0.26141125181E+02  0.51100000000E-03 0.  1.
         12    1    3    3    0    0  0.21103666848E+02 -0.33370848711E+02 -0.60905164519E+01  0.39950878448E+02  0.00000000000E+00 0. -1.
</event>
<event>
 7    1  0.1891413E-013  0.7246157E+02  0.7816164E-02  0.1226708E+00
        -11   -1    0    0    0    0  0.00000000000E+00  0.00000000000E+00  0.45593999997E+02  0.45594000000E+02  0.51100000000E-03 0.  1.
         11   -1    0    0    0    0 -0.00000000000E+00 -0.00000000000E+00 -0.45593999997E+02  0.45594000000E+02  0.51100000000E-03 0. -1.
    9900012    2    1    2    0    0  0.10007838367E+02 -0.22807850605E+01 -0.15662708615E+02  0.72461568134E+02  0.69999997185E+02 0.  0.
        -12    1    1    2    0    0 -0.10007838367E+02  0.22807850605E+01  0.15662708615E+02  0.18726431866E+02  0.00000000000E+00 0.  1.
         11    1    3    3    0    0  0.19247785235E+02 -0.61640325375E+01 -0.35116678879E+02  0.40517325545E+02  0.51100000000E-03 0. -1.
        -11    1    3    3    0    0  0.19021570096E+01 -0.74209122947E+01  0.11993594529E+01  0.77541346347E+01  0.51100000000E-03 0.  1.
        -12    1    3    3    0    0 -0.11142103877E+02  0.11304159772E+02  0.18254610811E+02  0.24190107954E+02  0.00000000000E+00 0.  1.
</event>
<event>
 7    1  0.1891413E-013  0.7246158E+02  0.7816164E-02  0.1226708E+00
        -11   -1    0    0    0    0  0.00000000000E+00  0.00000000000E+00  0.45593999997E+02  0.45594000000E+02  0.51100000000E-03 0. -1.
         11   -1    0    0    0    0 -0.00000000000E+00 -0.00000000000E+00 -0.45593999997E+02  0.45594000000E+02  0.51100000000E-03 0.  1.
    9900012    2    1    2    0    0  0.14040474114E+02 -0.77174661198E+01  0.96945639505E+01  0.72461581046E+02  0.70000014006E+02 0.  0.
        -12    1    1    2    0    0 -0.14040474114E+02  0.77174661198E+01 -0.96945639505E+01  0.18726418954E+02  0.00000000000E+00 0.  1.
         11    1    3    3    0    0 -0.99062205742E+01  0.14670140318E+02 -0.38435264713E+01  0.18114053081E+02  0.51100000000E-03 0. -1.
        -11    1    3    3    0    0  0.28404085325E+02  0.96802436093E+00  0.38821272534E+01  0.28684491395E+02  0.51100000000E-03 0.  1.
         12    1    3    3    0    0 -0.44573906369E+01 -0.23355630799E+02  0.96559631683E+01  0.25663036570E+02  0.00000000000E+00 0. -1.
</event>
<event>
 7    1  0.1891413E-013  0.7246159E+02  0.7816164E-02  0.1226708E+00
        -11   -1    0    0    0    0  0.00000000000E+00  0.00000000000E+00  0.45593999997E+02  0.45594000000E+02  0.51100000000E-03 0.  1.
         11   -1    0    0    0    0 -0.00000000000E+00 -0.00000000000E+00 -0.45593999997E+02  0.45594000000E+02  0.51100000000E-03 0. -1.
    9900012    2    1    2    0    0  0.53285994180E+01 -0.12542330144E+02 -0.12844231301E+02  0.72461593647E+02  0.70000030421E+02 0.  0.
        -12    1    1    2    0    0 -0.53285994180E+01  0.12542330144E+02  0.12844231301E+02  0.18726406353E+02  0.00000000000E+00 0.  1.
         11    1    3    3    0    0 -0.20394642952E+02  0.13659534273E+02  0.11584298976E+01  0.24573691171E+02  0.51100000000E-03 0. -1.
        -11    1    3    3    0    0 -0.46890155694E+01 -0.83250600321E+01  0.88954967349E+00  0.95960820355E+01  0.51100000000E-03 0.  1.
         12    1    3    3    0    0  0.30412257939E+02 -0.17876804385E+02 -0.14892210872E+02  0.38291820440E+02  0.00000000000E+00 0. -1.
</event>
<event>
 7    1  0.1891413E-013  0.7246155E+02  0.7816164E-02  0.1226708E+00
        -11   -1    0    0    0    0  0.00000000000E+00  0.00000000000E+00  0.45593999997E+02  0.45594000000E+02  0.51100000000E-03 0. -1.
         11   -1    0    0    0    0 -0.00000000000E+00 -0.00000000000E+00 -0.45593999997E+02  0.45594000000E+02  0.51100000000E-03 0.  1.
    9900012    2    1    2    0    0  0.14135667515E+02  0.90239670076E+01 -0.83325226529E+01  0.72461547843E+02  0.69999970752E+02 0.  0.
        -12    1    1    2    0    0 -0.14135667515E+02 -0.90239670076E+01  0.83325226529E+01  0.18726452157E+02  0.00000000000E+00 0.  1.
         11    1    3    3    0    0  0.10195192528E+02 -0.29800141674E+01  0.10290714318E+02  0.14789227044E+02  0.51100000000E-03 0. -1.
        -11    1    3    3    0    0 -0.10799590600E+02 -0.77259024881E+01  0.12327512471E+02  0.18118727614E+02  0.51100000000E-03 0.  1.
         12    1    3    3    0    0  0.14740065587E+02  0.19729883663E+02 -0.30950749441E+02  0.39553593185E+02  0.00000000000E+00 0. -1.
</event>
<event>
 7    1  0.1891413E-013  0.7246158E+02  0.7816164E-02  0.1226708E+00
        -11   -1    0    0    0    0  0.00000000000E+00  0.00000000000E+00  0.45593999997E+02  0.45594000000E+02  0.51100000000E-03 0.  1.
         11   -1    0    0    0    0 -0.00000000000E+00 -0.00000000000E+00 -0.45593999997E+02  0.45594000000E+02  0.51100000000E-03 0. -1.
    9900012    2    1    2    0    0  0.47268944784E+01 -0.17605612496E+02 -0.42869396152E+01  0.72461575514E+02  0.70000006800E+02 0.  0.
        -12    1    1    2    0    0 -0.47268944784E+01  0.17605612496E+02  0.42869396152E+01  0.18726424486E+02  0.00000000000E+00 0.  1.
         11    1    3    3    0    0 -0.58354751632E-01 -0.40063099504E+01  0.32734747676E+01  0.51739310017E+01  0.51100000000E-03 0. -1.
        -11    1    3    3    0    0 -0.16355445143E+02 -0.29807622162E+02  0.99294798757E+01  0.35420184862E+02  0.51100000000E-03 0.  1.
         12    1    3    3    0    0  0.21140694373E+02  0.16208319617E+02 -0.17489894258E+02  0.31867459650E+02  0.00000000000E+00 0. -1.
</event>
<event>
 7    1  0.1891413E-013  0.7246155E+02  0.7816164E-02  0.1226708E+00
        -11   -1    0    0    0    0  0.00000000000E+00  0.00000000000E+00  0.45593999997E+02  0.45594000000E+02  0.51100000000E-03 0. -1.
         11   -1    0    0    0    0 -0.00000000000E+00 -0.00000000000E+00 -0.45593999997E+02  0.45594000000E+02  0.51100000000E-03 0.  1.
    9900012    2    1    2    0    0 -0.11009411179E+02  0.82006344669E+01  0.12736651444E+02  0.72461552655E+02  0.69999977021E+02 0.  0.
        -12    1    1    2    0    0  0.11009411179E+02 -0.82006344669E+01 -0.12736651444E+02  0.18726447345E+02  0.00000000000E+00 0.  1.
         11    1    3    3    0    0  0.13989336481E+00 -0.14005214244E+02  0.13589587773E+02  0.19515186196E+02  0.51100000000E-03 0. -1.
        -11    1    3    3    0    0  0.17085780265E+02  0.17075465436E+02  0.11167335470E+01  0.24181449526E+02  0.51100000000E-03 0.  1.
         12    1    3    3    0    0 -0.28235084809E+02  0.51303832747E+01 -0.19696698759E+01  0.28764916932E+02  0.00000000000E+00 0. -1.
</event>
<event>
 7    1  0.1891413E-013  0.7246156E+02  0.7816164E-02  0.1226708E+00
        -11   -1    0    0    0    0  0.00000000000E+00  0.00000000000E+00  0.45593999997E+02  0.45594000000E+02  0.51100000000E-03 0. -1.
         11   -1    0    0    0    0 -0.00000000000E+00 -0.00000000000E+00 -0.45593999997E+02  0.45594000000E+02  0.51100000000E-03 0.  1.
    9900012    2    1    2    0    0  0.11755321498E+02 -0.11872821514E+02 -0.84574179112E+01  0.72461564355E+02  0.69999992263E+02 0.  0.
        -12    1    1    2    0    0 -0.11755321498E+02  0.11872821514E+02  0.84574179112E+01  0.18726435645E+02  0.00000000000E+00 0.  1.
         11    1    3    3    0    0 -0.11088200966E+02 -0.82863886273E+01 -0.85567722025E+01  0.16273622459E+02  0.51100000000E-03 0. -1.
        -11    1    3    3    0    0  0.20720522464E+01 -0.12697468771E+02  0.21466609912E+02  0.25026674871E+02  0.51100000000E-03 0.  1.
        -12    1    3    3    0    0  0.20771470218E+02  0.91110358840E+01 -0.21367255621E+02  0.31161267026E+02  0.00000000000E+00 0.  1.
</event>
<event>
 7    1  0.1891413E-013  0.7246170E+02  0.7816164E-02  0.1226708E+00
        -11   -1    0    0    0    0  0.00000000000E+00  0.00000000000E+00  0.45593999997E+02  0.45594000000E+02  0.51100000000E-03 0.  1.
         11   -1    0    0    0    0 -0.00000000000E+00 -0.00000000000E+00 -0.45593999997E+02  0.45594000000E+02  0.51100000000E-03 0. -1.
    9900012    2    1    2    0    0 -0.80214004962E+01  0.53099455453E+01 -0.16066604008E+02  0.72461704265E+02  0.70000174521E+02 0.  0.
        -12    1    1    2    0    0  0.80214004962E+01 -0.53099455453E+01  0.16066604008E+02  0.18726295735E+02  0.00000000000E+00 0.  1.
         11    1    3    3    0    0 -0.11598803611E+02  0.32403695267E+01 -0.54510562623E+01  0.13219162399E+02  0.51100000000E-03 0. -1.
        -11    1    3    3    0    0 -0.18832163203E+02 -0.77100279044E+01  0.13880101532E+02  0.24632338906E+02  0.51100000000E-03 0.  1.
         12    1    3    3    0    0  0.22409566318E+02  0.97796039230E+01 -0.24495649277E+02  0.34610202960E+02  0.00000000000E+00 0. -1.
</event>
<event>
 7    1  0.1891413E-013  0.7246151E+02  0.7816164E-02  0.1226708E+00
        -11   -1    0    0    0    0  0.00000000000E+00  0.00000000000E+00  0.45593999997E+02  0.45594000000E+02  0.51100000000E-03 0.  1.
         11   -1    0    0    0    0 -0.00000000000E+00 -0.00000000000E+00 -0.45593999997E+02  0.45594000000E+02  0.51100000000E-03 0. -1.
    9900012    2    1    2    0    0 -0.14359247153E+02 -0.73282744496E+01 -0.95283636547E+01  0.72461513433E+02  0.69999925928E+02 0.  0.
        -12    1    1    2    0    0  0.14359247153E+02  0.73282744496E+01  0.95283636547E+01  0.18726486567E+02  0.00000000000E+00 0.  1.
         11    1    3    3    0    0 -0.70274528619E+01 -0.84829536686E+01 -0.25580179478E+02  0.27851232990E+02  0.51100000000E-03 0. -1.
        -11    1    3    3    0    0 -0.14645609700E+02 -0.16610892850E+02  0.11093712481E+02  0.24768651591E+02  0.51100000000E-03 0.  1.
        -12    1    3    3    0    0  0.73138154092E+01  0.17765572069E+02  0.49581033423E+01  0.19841628853E+02  0.00000000000E+00 0.  1.
</event>
<event>
 7    1  0.1891413E-013  0.7246145E+02  0.7816164E-02  0.1226708E+00
        -11   -1    0    0    0    0  0.00000000000E+00  0.00000000000E+00  0.45593999997E+02  0.45594000000E+02  0.51100000000E-03 0.  1.
         11   -1    0    0    0    0 -0.00000000000E+00 -0.00000000000E+00 -0.45593999997E+02  0.45594000000E+02  0.51100000000E-03 0. -1.
    9900012    2    1    2    0    0 -0.34730301974E+01 -0.11242190199E+02 -0.14568285569E+02  0.72461448699E+02  0.69999841599E+02 0.  0.
        -12    1    1    2    0    0  0.34730301974E+01  0.11242190199E+02  0.14568285569E+02  0.18726551301E+02  0.00000000000E+00 0.  1.
         11    1    3    3    0    0  0.18454265550E+02  0.79517036776E+01  0.70233050497E+01  0.21286529131E+02  0.51100000000E-03 0. -1.
        -11    1    3    3    0    0 -0.93622458130E+01  0.99435155982E+01 -0.11568083303E+02  0.17898203840E+02  0.51100000000E-03 0.  1.
        -12    1    3    3    0    0 -0.12565049935E+02 -0.29137409474E+02 -0.10023507315E+02  0.33276715728E+02  0.00000000000E+00 0.  1.
</event>
<event>
 7    1  0.1891413E-013  0.7246155E+02  0.7816164E-02  0.1226708E+00
        -11   -1    0    0    0    0  0.00000000000E+00  0.00000000000E+00  0.45593999997E+02  0.45594000000E+02  0.51100000000E-03 0. -1.
         11   -1    0    0    0    0 -0.00000000000E+00 -0.00000000000E+00 -0.45593999997E+02  0.45594000000E+02  0.51100000000E-03 0.  1.
    9900012    2    1    2    0    0  0.13252060347E+02  0.96387541833E+01 -0.90640724535E+01  0.72461545582E+02  0.69999967807E+02 0.  0.
        -12    1    1    2    0    0 -0.13252060347E+02 -0.96387541833E+01  0.90640724535E+01  0.18726454418E+02  0.00000000000E+00 0.  1.
         11    1    3    3    0    0 -0.34526363594E+01  0.73205284689E+01  0.15671497229E+02  0.17638215912E+02  0.51100000000E-03 0. -1.
        -11    1    3    3    0    0  0.72494824079E+01  0.17472432071E+02  0.55050689105E+01  0.19701438060E+02  0.51100000000E-03 0.  1.
        -12    1    3    3    0    0  0.94552142984E+01 -0.15154206357E+02 -0.30240638593E+02  0.35121891610E+02  0.00000000000E+00 0.  1.
</event>
<event>
 7    1  0.1891413E-013  0.7246149E+02  0.7816164E-02  0.1226708E+00
        -11   -1    0    0    0    0  0.00000000000E+00  0.00000000000E+00  0.45593999997E+02  0.45594000000E+02  0.51100000000E-03 0.  1.
         11   -1    0    0    0    0 -0.00000000000E+00 -0.00000000000E+00 -0.45593999997E+02  0.45594000000E+02  0.51100000000E-03 0. -1.
    9900012    2    1    2    0    0 -0.12358691639E+02 -0.56222116945E+01 -0.12897114976E+02  0.72461492101E+02  0.69999898139E+02 0.  0.
        -12    1    1    2    0    0  0.12358691639E+02  0.56222116945E+01  0.12897114976E+02  0.18726507899E+02  0.00000000000E+00 0.  1.
         11    1    3    3    0    0  0.66002380156E+01 -0.42514888650E+01  0.26759018498E+01  0.82945012148E+01  0.51100000000E-03 0. -1.
        -11    1    3    3    0    0 -0.65277695762E+00 -0.28891208035E+02 -0.10393287531E+02  0.30710721995E+02  0.51100000000E-03 0.  1.
         12    1    3    3    0    0 -0.18306152697E+02  0.27520485206E+02 -0.51797292945E+01  0.33456268891E+02  0.00000000000E+00 0. -1.
</event>
<event>
 7    1  0.1891413E-013  0.7246155E+02  0.7816164E-02  0.1226708E+00
        -11   -1    0    0    0    0  0.00000000000E+00  0.00000000000E+00  0.45593999997E+02  0.45594000000E+02  0.51100000000E-03 0.  1.
         11   -1    0    0    0    0 -0.00000000000E+00 -0.00000000000E+00 -0.45593999997E+02  0.45594000000E+02  0.51100000000E-03 0. -1.
    9900012    2    1    2    0    0  0.15848445749E+02 -0.13728425473E+01 -0.98803830446E+01  0.72461550832E+02  0.69999974647E+02 0.  0.
        -12    1    1    2    0    0 -0.15848445749E+02  0.13728425473E+01  0.98803830446E+01  0.18726449168E+02  0.00000000000E+00 0.  1.
         11    1    3    3    0    0 -0.45209946119E+01  0.43862665207E+01 -0.18397350315E+02  0.19445853675E+02  0.51100000000E-03 0. -1.
        -11    1    3    3    0    0 -0.11610671888E+02 -0.10019406914E+02  0.13424814755E+02  0.20381900502E+02  0.51100000000E-03 0.  1.
         12    1    3    3    0    0  0.31980112249E+02  0.42602978458E+01 -0.49078474839E+01  0.32633796655E+02  0.00000000000E+00 0. -1.
</event>
<event>
 7    1  0.1891413E-013  0.7246157E+02  0.7816164E-02  0.1226708E+00
        -11   -1    0    0    0    0  0.00000000000E+00  0.00000000000E+00  0.45593999997E+02  0.45594000000E+02  0.51100000000E-03 0.  1.
         11   -1    0    0    0    0 -0.00000000000E+00 -0.00000000000E+00 -0.45593999997E+02  0.45594000000E+02  0.51100000000E-03 0. -1.
    9900012    2    1    2    0    0 -0.10417415454E+02 -0.13162850076E+02 -0.83003577920E+01  0.72461571981E+02  0.70000002198E+02 0.  0.
        -12    1    1    2    0    0  0.10417415454E+02  0.13162850076E+02  0.83003577920E+01  0.18726428019E+02  0.00000000000E+00 0.  1.
         11    1    3    3    0    0  0.94227700650E+01  0.30073426020E+01  0.13068142385E+02  0.16389296839E+02  0.51100000000E-03 0. -1.
        -11    1    3    3    0    0 -0.17267417564E+02  0.71134661908E+01  0.64011487882E+01  0.19741829111E+02  0.51100000000E-03 0.  1.
         12    1    3    3    0    0 -0.25727679555E+01 -0.23283658869E+02 -0.27769648965E+02  0.36330446032E+02  0.00000000000E+00 0. -1.
</event>
<event>
 7    1  0.1891413E-013  0.7246150E+02  0.7816164E-02  0.1226708E+00
        -11   -1    0    0    0    0  0.00000000000E+00  0.00000000000E+00  0.45593999997E+02  0.45594000000E+02  0.51100000000E-03 0. -1.
         11   -1    0    0    0    0 -0.00000000000E+00 -0.00000000000E+00 -0.45593999997E+02  0.45594000000E+02  0.51100000000E-03 0.  1.
    9900012    2    1    2    0    0 -0.12196675779E+02  0.13053108231E+02  0.56159692743E+01  0.72461504187E+02  0.69999913883E+02 0.  0.
        -12    1    1    2    0    0  0.12196675779E+02 -0.13053108231E+02 -0.56159692743E+01  0.18726495813E+02  0.00000000000E+00 0.  1.
         11    1    3    3    0    0  0.11952111428E+02 -0.56678116981E+01  0.18353375518E+02  0.22623515425E+02  0.51100000000E-03 0. -1.
        -11    1    3    3    0    0 -0.91170089790E+01  0.36124250884E+01  0.13087815347E+02  0.16354215927E+02  0.51100000000E-03 0.  1.
        -12    1    3    3    0    0 -0.15031778228E+02  0.15108494840E+02 -0.25825221591E+02  0.33483772835E+02  0.00000000000E+00 0.  1.
</event>
<event>
 7    1  0.1891413E-013  0.7246171E+02  0.7816164E-02  0.1226708E+00
        -11   -1    0    0    0    0  0.00000000000E+00  0.00000000000E+00  0.45593999997E+02  0.45594000000E+02  0.51100000000E-03 0.  1.
         11   -1    0    0    0    0 -0.00000000000E+00 -0.00000000000E+00 -0.45593999997E+02  0.45594000000E+02  0.51100000000E-03 0. -1.
    9900012    2    1    2    0    0 -0.30460479250E+01  0.11883264208E+02 -0.14148627077E+02  0.72461707672E+02  0.70000178959E+02 0.  0.
        -12    1    1    2    0    0  0.30460479250E+01 -0.11883264208E+02  0.14148627077E+02  0.18726292328E+02  0.00000000000E+00 0.  1.
         11    1    3    3    0    0 -0.31746904841E+02  0.53654655679E+01 -0.89848467869E+01  0.33427259233E+02  0.51100000000E-03 0. -1.
        -11    1    3    3    0    0  0.77860442693E+01  0.71836500371E+01 -0.12928858147E+02  0.16714744582E+02  0.51100000000E-03 0.  1.
        -12    1    3    3    0    0  0.20914812647E+02 -0.66585139693E+00  0.77650778564E+01  0.22319703857E+02  0.00000000000E+00 0.  1.
</event>
<event>
 7    1  0.1891413E-013  0.7246165E+02  0.7816164E-02  0.1226708E+00
        -11   -1    0    0    0    0  0.00000000000E+00  0.00000000000E+00  0.45593999997E+02  0.45594000000E+02  0.51100000000E-03 0. -1.
         11   -1    0    0    0    0 -0.00000000000E+00 -0.00000000000E+00 -0.45593999997E+02  0.45594000000E+02  0.51100000000E-03 0.  1.
    9900012    2    1    2    0    0  0.15860497704E+02  0.48781282874E+01  0.86789717603E+01  0.72461652950E+02  0.70000107674E+02 0.  0.
        -12    1    1    2    0    0 -0.15860497704E+02 -0.48781282874E+01 -0.86789717603E+01  0.18726347050E+02  0.00000000000E+00 0.  1.
         11    1    3    3    0    0  0.15927713599E+01  0.99978286291E+01  0.33651988545E+02  0.35141852985E+02  0.51100000000E-03 0. -1.
        -11    1    3    3    0    0 -0.51938777474E+01 -0.61902622335E+01 -0.55471106598E+01  0.98013340677E+01  0.51100000000E-03 0.  1.
        -12    1    3    3    0    0  0.19461604092E+02  0.10705618919E+01 -0.19425906125E+02  0.27518465898E+02  0.00000000000E+00 0.  1.
</event>
<event>
 7    1  0.1891413E-013  0.7246158E+02  0.7816164E-02  0.1226708E+00
        -11   -1    0    0    0    0  0.00000000000E+00  0.00000000000E+00  0.45593999997E+02  0.45594000000E+02  0.51100000000E-03 0.  1.
         11   -1    0    0    0    0 -0.00000000000E+00 -0.00000000000E+00 -0.45593999997E+02  0.45594000000E+02  0.51100000000E-03 0. -1.
    9900012    2    1    2    0    0 -0.13051233432E+02 -0.96289599119E+01 -0.93609414456E+01  0.72461580485E+02  0.70000013276E+02 0.  0.
        -12    1    1    2    0    0  0.13051233432E+02  0.96289599119E+01  0.93609414456E+01  0.18726419515E+02  0.00000000000E+00 0.  1.
         11    1    3    3    0    0 -0.17480168162E+02 -0.17311457997E+01  0.10617133857E+02  0.20525025611E+02  0.51100000000E-03 0. -1.
        -11    1    3    3    0    0 -0.37001092812E+00 -0.24340018131E+02 -0.24168793224E+02  0.34303118763E+02  0.51100000000E-03 0.  1.
         12    1    3    3    0    0  0.47989456574E+01  0.16442204019E+02  0.41907179213E+01  0.17633436112E+02  0.00000000000E+00 0. -1.
</event>
<event>
 7    1  0.1891413E-013  0.7246155E+02  0.7816164E-02  0.1226708E+00
        -11   -1    0    0    0    0  0.00000000000E+00  0.00000000000E+00  0.45593999997E+02  0.45594000000E+02  0.51100000000E-03 0. -1.
         11   -1    0    0    0    0 -0.00000000000E+00 -0.00000000000E+00 -0.45593999997E+02  0.45594000000E+02  0.51100000000E-03 0.  1.
    9900012    2    1    2    0    0  0.97568393336E+01 -0.13993767881E+02  0.77238835100E+01  0.72461552666E+02  0.69999977035E+02 0.  0.
        -12    1    1    2    0    0 -0.97568393336E+01  0.13993767881E+02 -0.77238835100E+01  0.18726447334E+02  0.00000000000E+00 0.  1.
         11    1    3    3    0    0 -0.12274533235E+02 -0.29025122443E+02 -0.62769103629E+01  0.32132872622E+02  0.51100000000E-03 0. -1.
        -11    1    3    3    0    0  0.79936893102E+01 -0.60721796988E+01 -0.21610047855E+01  0.10268416481E+02  0.51100000000E-03 0.  1.
        -12    1    3    3    0    0  0.14037683259E+02  0.21103534261E+02  0.16161798658E+02  0.30060263563E+02  0.00000000000E+00 0.  1.
</event>
<event>
 7    1  0.1891413E-013  0.7246157E+02  0.7816164E-02  0.1226708E+00
        -11   -1    0    0    0    0  0.00000000000E+00  0.00000000000E+00  0.45593999997E+02  0.45594000000E+02  0.51100000000E-03 0.  1.
         11   -1    0    0    0    0 -0.00000000000E+00 -0.00000000000E+00 -0.45593999997E+02  0.45594000000E+02  0.51100000000E-03 0. -1.
    9900012    2    1    2    0    0 -0.13850506605E+00 -0.17170427495E+02 -0.74723858931E+01  0.72461566411E+02  0.69999994941E+02 0.  0.
        -12    1    1    2    0    0  0.13850506605E+00  0.17170427495E+02  0.74723858931E+01  0.18726433589E+02  0.00000000000E+00 0.  1.
         11    1    3    3    0    0 -0.31990590138E+01  0.11023635362E+02  0.93113397646E+00  0.11516141972E+02  0.51100000000E-03 0. -1.
        -11    1    3    3    0    0 -0.46546495656E+01 -0.19496355706E+02  0.21178938595E+02  0.29160265579E+02  0.51100000000E-03 0.  1.
         12    1    3    3    0    0  0.77152035133E+01 -0.86977071513E+01 -0.29582458465E+02  0.31785158860E+02  0.00000000000E+00 0. -1.
</event>
<event>
 7    1  0.1891413E-013  0.7246154E+02  0.7816164E-02  0.1226708E+00
        -11   -1    0    0    0    0  0.00000000000E+00  0.00000000000E+00  0.45593999997E+02  0.45594000000E+02  0.51100000000E-03 0. -1.
         11   -1    0    0    0    0 -0.00000000000E+00 -0.00000000000E+00 -0.45593999997E+02  0.45594000000E+02  0.51100000000E-03 0.  1.
    9900012    2    1    2    0    0 -0.46686390084E+01  0.93725074585E+01  0.15525467045E+02  0.72461542428E+02  0.69999963698E+02 0.  0.
        -12    1    1    2    0    0  0.46686390084E+01 -0.93725074585E+01 -0.15525467045E+02  0.18726457572E+02  0.00000000000E+00 0.  1.
         11    1    3    3    0    0  0.12936634141E+01 -0.20517308125E+02 -0.44127156669E+01  0.21026306322E+02  0.51100000000E-03 0. -1.
        -11    1    3    3    0    0 -0.16933327651E+02  0.24486789380E+01  0.29942998129E+01  0.17369497560E+02  0.51100000000E-03 0.  1.
         12    1    3    3    0    0  0.10971025228E+02  0.27441136646E+02  0.16943882899E+02  0.34065738545E+02  0.00000000000E+00 0. -1.
</event>
<event>
 7    1  0.1891413E-013  0.7246197E+02  0.7816164E-02  0.1226707E+00
        -11   -1    0    0    0    0  0.00000000000E+00  0.00000000000E+00  0.45593999997E+02  0.45594000000E+02  0.51100000000E-03 0.  1.
         11   -1    0    0    0    0 -0.00000000000E+00 -0.00000000000E+00 -0.45593999997E+02  0.45594000000E+02  0.51100000000E-03 0. -1.
    9900012    2    1    2    0    0  0.65090865664E+01 -0.11447311268E+02  0.13313714003E+02  0.72461972024E+02  0.70000523326E+02 0.  0.
        -12    1    1    2    0    0 -0.65090865664E+01  0.11447311268E+02 -0.13313714003E+02  0.18726027976E+02  0.00000000000E+00 0.  1.
         11    1    3    3    0    0 -0.12808322582E+02 -0.92507675612E+01  0.11080309133E+02  0.19297748019E+02  0.51100000000E-03 0. -1.
        -11    1    3    3    0    0 -0.16504007922E+02  0.20914441039E+00 -0.33177836061E+01  0.16835489514E+02  0.51100000000E-03 0.  1.
         12    1    3    3    0    0  0.35821417070E+02 -0.24056881169E+01  0.55511884762E+01  0.36328734491E+02  0.00000000000E+00 0. -1.
</event>
<event>
 7    1  0.1891413E-013  0.7246157E+02  0.7816164E-02  0.1226708E+00
        -11   -1    0    0    0    0  0.00000000000E+00  0.00000000000E+00  0.45593999997E+02  0.45594000000E+02  0.51100000000E-03 0. -1.
         11   -1    0    0    0    0 -0.00000000000E+00 -0.00000000000E+00 -0.45593999997E+02  0.45594000000E+02  0.51100000000E-03 0.  1.
    9900012    2    1    2    0    0  0.15637818435E+02  0.87508586596E+01 -0.54369335352E+01  0.72461571111E+02  0.70000001064E+02 0.  0.
        -12    1    1    2    0    0 -0.15637818435E+02 -0.87508586596E+01  0.54369335352E+01  0.18726428889E+02  0.00000000000E+00 0.  1.
         11    1    3    3    0    0 -0.90969101844E+00 -0.24199834414E+02 -0.63453684726E+01  0.25034440771E+02  0.51100000000E-03 0. -1.
        -11    1    3    3    0    0  0.17476439167E+01 -0.20234198918E+01 -0.79869767836E+01  0.84226056372E+01  0.51100000000E-03 0.  1.
        -12    1    3    3    0    0  0.14799865536E+02  0.34974112965E+02  0.88954117210E+01  0.39004524703E+02  0.00000000000E+00 0.  1.
</event>
<event>
 7    1  0.1891413E-013  0.7246155E+02  0.7816164E-02  0.1226708E+00
        -11   -1    0    0    0    0  0.00000000000E+00  0.00000000000E+00  0.45593999997E+02  0.45594000000E+02  0.51100000000E-03 0.  1.
         11   -1    0    0    0    0 -0.00000000000E+00 -0.00000000000E+00 -0.45593999997E+02  0.45594000000E+02  0.51100000000E-03 0. -1.
    9900012    2    1    2    0    0 -0.16987543569E+02  0.20881128484E+01 -0.75988756618E+01  0.72461554446E+02  0.69999979354E+02 0.  0.
        -12    1    1    2    0    0  0.16987543569E+02 -0.20881128484E+01  0.75988756618E+01  0.18726445554E+02  0.00000000000E+00 0.  1.
         11    1    3    3    0    0 -0.73572868682E+01  0.13378238408E+02 -0.12709756628E+02  0.19865670056E+02  0.51100000000E-03 0. -1.
        -11    1    3    3    0    0 -0.20552938431E+02  0.13760691851E+02 -0.30407132837E+00  0.24736054212E+02  0.51100000000E-03 0.  1.
        -12    1    3    3    0    0  0.10922681730E+02 -0.25050817411E+02  0.54149522948E+01  0.27859830177E+02  0.00000000000E+00 0.  1.
</event>
<event>
 7    1  0.1891413E-013  0.7246156E+02  0.7816164E-02  0.1226708E+00
        -11   -1    0    0    0    0  0.00000000000E+00  0.00000000000E+00  0.45593999997E+02  0.45594000000E+02  0.51100000000E-03 0. -1.
         11   -1    0    0    0    0 -0.00000000000E+00 -0.00000000000E+00 -0.45593999997E+02  0.45594000000E+02  0.51100000000E-03 0.  1.
    9900012    2    1    2    0    0  0.15421255932E+02 -0.96787498880E+01 -0.43801927519E+01  0.72461563541E+02  0.69999991202E+02 0.  0.
        -12    1    1    2    0    0 -0.15421255932E+02  0.96787498880E+01  0.43801927519E+01  0.18726436459E+02  0.00000000000E+00 0.  1.
         11    1    3    3    0    0  0.69411193416E+01 -0.20957932867E+02  0.32283178750E+01  0.22312241580E+02  0.51100000000E-03 0. -1.
        -11    1    3    3    0    0  0.15555704499E+02  0.85155565721E+01 -0.25299801452E+02  0.30896190703E+02  0.51100000000E-03 0.  1.
         12    1    3    3    0    0 -0.70755679087E+01  0.27636264069E+01  0.17691290825E+02  0.19253131257E+02  0.00000000000E+00 0. -1.
</event>
<event>
 7    1  0.1891413E-013  0.7246151E+02  0.7816164E-02  0.1226708E+00
        -11   -1    0    0    0    0  0.00000000000E+00  0.00000000000E+00  0.45593999997E+02  0.45594000000E+02  0.51100000000E-03 0.  1.
         11   -1    0    0    0    0 -0.00000000000E+00 -0.00000000000E+00 -0.45593999997E+02  0.45594000000E+02  0.51100000000E-03 0. -1.
    9900012    2    1    2    0    0  0.65391197701E+01  0.63267054490E+01 -0.16367474655E+02  0.72461507649E+02  0.69999918393E+02 0.  0.
        -12    1    1    2    0    0 -0.65391197701E+01 -0.63267054490E+01  0.16367474655E+02  0.18726492351E+02  0.00000000000E+00 0.  1.
         11    1    3    3    0    0 -0.79766957859E+01 -0.21438556615E+01  0.78957691123E+01  0.11426590169E+02  0.51100000000E-03 0.  1.
        -11    1    3    3    0    0 -0.68808945931E+01 -0.18696528063E+02 -0.15814882230E+02  0.25436536168E+02  0.51100000000E-03 0. -1.
         12    1    3    3    0    0  0.21396710149E+02  0.27167089174E+02 -0.84483615374E+01  0.35598381312E+02  0.00000000000E+00 0. -1.
</event>
<event>
 7    1  0.1891413E-013  0.7246154E+02  0.7816164E-02  0.1226708E+00
        -11   -1    0    0    0    0  0.00000000000E+00  0.00000000000E+00  0.45593999997E+02  0.45594000000E+02  0.51100000000E-03 0.  1.
         11   -1    0    0    0    0 -0.00000000000E+00 -0.00000000000E+00 -0.45593999997E+02  0.45594000000E+02  0.51100000000E-03 0. -1.
    9900012    2    1    2    0    0  0.13140422254E+02  0.10511171351E+02 -0.82173495252E+01  0.72461541355E+02  0.69999962301E+02 0.  0.
        -12    1    1    2    0    0 -0.13140422254E+02 -0.10511171351E+02  0.82173495252E+01  0.18726458645E+02  0.00000000000E+00 0.  1.
         11    1    3    3    0    0  0.30511353480E+02  0.14290756675E+02  0.25889077464E+01  0.33791579736E+02  0.51100000000E-03 0. -1.
        -11    1    3    3    0    0  0.90556972726E+01 -0.49922616276E+01 -0.74700631242E+00  0.10367562295E+02  0.51100000000E-03 0.  1.
        -12    1    3    3    0    0 -0.26426628498E+02  0.12126763034E+01 -0.10059250959E+02  0.28302399323E+02  0.00000000000E+00 0.  1.
</event>
<event>
 7    1  0.1891413E-013  0.7246158E+02  0.7816164E-02  0.1226708E+00
        -11   -1    0    0    0    0  0.00000000000E+00  0.00000000000E+00  0.45593999997E+02  0.45594000000E+02  0.51100000000E-03 0.  1.
         11   -1    0    0    0    0 -0.00000000000E+00 -0.00000000000E+00 -0.45593999997E+02  0.45594000000E+02  0.51100000000E-03 0. -1.
    9900012    2    1    2    0    0  0.89805970503E+00 -0.75173384987E+01 -0.17127812926E+02  0.72461578426E+02  0.70000010593E+02 0.  0.
        -12    1    1    2    0    0 -0.89805970503E+00  0.75173384987E+01  0.17127812926E+02  0.18726421574E+02  0.00000000000E+00 0.  1.
         11    1    3    3    0    0  0.97010811156E+01 -0.12124859225E+02 -0.21538425468E+02  0.26552343737E+02  0.51100000000E-03 0. -1.
        -11    1    3    3    0    0 -0.15794542435E+02 -0.16851700434E+02  0.30754474889E+01  0.23300338104E+02  0.51100000000E-03 0.  1.
         12    1    3    3    0    0  0.69915210247E+01  0.21459221160E+02  0.13351650529E+01  0.22608896584E+02  0.00000000000E+00 0. -1.
</event>
<event>
 7    1  0.1891413E-013  0.7246158E+02  0.7816164E-02  0.1226708E+00
        -11   -1    0    0    0    0  0.00000000000E+00  0.00000000000E+00  0.45593999997E+02  0.45594000000E+02  0.51100000000E-03 0. -1.
         11   -1    0    0    0    0 -0.00000000000E+00 -0.00000000000E+00 -0.45593999997E+02  0.45594000000E+02  0.51100000000E-03 0.  1.
    9900012    2    1    2    0    0  0.46062392385E+01 -0.54277190751E+01  0.17320542874E+02  0.72461580701E+02  0.70000013557E+02 0.  0.
        -12    1    1    2    0    0 -0.46062392385E+01  0.54277190751E+01 -0.17320542874E+02  0.18726419299E+02  0.00000000000E+00 0.  1.
         11    1    3    3    0    0 -0.48741122846E+00  0.24136098895E+02  0.16862955414E+02  0.29447378578E+02  0.51100000000E-03 0. -1.
        -11    1    3    3    0    0 -0.66021060354E+01  0.32695899110E+01 -0.30708580859E+01  0.79817411593E+01  0.51100000000E-03 0.  1.
        -12    1    3    3    0    0  0.11695756502E+02 -0.32833407881E+02  0.35284455463E+01  0.35032460964E+02  0.00000000000E+00 0.  1.
</event>
<event>
 7    1  0.1891413E-013  0.7246157E+02  0.7816164E-02  0.1226708E+00
        -11   -1    0    0    0    0  0.00000000000E+00  0.00000000000E+00  0.45593999997E+02  0.45594000000E+02  0.51100000000E-03 0. -1.
         11   -1    0    0    0    0 -0.00000000000E+00 -0.00000000000E+00 -0.45593999997E+02  0.45594000000E+02  0.51100000000E-03 0.  1.
    9900012    2    1    2    0    0  0.12611969929E+01  0.66359217627E+01  0.17465774632E+02  0.72461565235E+02  0.69999993409E+02 0.  0.
        -12    1    1    2    0    0 -0.12611969929E+01 -0.66359217627E+01 -0.17465774632E+02  0.18726434765E+02  0.00000000000E+00 0.  1.
         11    1    3    3    0    0 -0.65840278238E+01 -0.10529270308E+02 -0.15592879340E+02  0.19933711194E+02  0.51100000000E-03 0. -1.
        -11    1    3    3    0    0 -0.14160640165E+02  0.10715022777E+02  0.12355752568E+02  0.21633309150E+02  0.51100000000E-03 0.  1.
         12    1    3    3    0    0  0.22005864982E+02  0.64501692931E+01  0.20702901404E+02  0.30894544891E+02  0.00000000000E+00 0. -1.
</event>
<event>
 7    1  0.1891413E-013  0.7246143E+02  0.7816164E-02  0.1226708E+00
        -11   -1    0    0    0    0  0.00000000000E+00  0.00000000000E+00  0.45593999997E+02  0.45594000000E+02  0.51100000000E-03 0.  1.
         11   -1    0    0    0    0 -0.00000000000E+00 -0.00000000000E+00 -0.45593999997E+02  0.45594000000E+02  0.51100000000E-03 0. -1.
    9900012    2    1    2    0    0  0.12245762616E+02 -0.82926415545E+01 -0.11487284087E+02  0.72461433264E+02  0.69999821493E+02 0.  0.
        -12    1    1    2    0    0 -0.12245762616E+02  0.82926415545E+01  0.11487284087E+02  0.18726566736E+02  0.00000000000E+00 0.  1.
         11    1    3    3    0    0 -0.53529647631E+01 -0.56665630467E+01 -0.16085178758E+02  0.17874483054E+02  0.51100000000E-03 0. -1.
        -11    1    3    3    0    0 -0.10058409016E+02 -0.19437188624E+02  0.37902245290E+01  0.22211296580E+02  0.51100000000E-03 0.  1.
         12    1    3    3    0    0  0.27657136395E+02  0.16811110116E+02  0.80767014182E+00  0.32375653630E+02  0.00000000000E+00 0. -1.
</event>
<event>
 7    1  0.1891413E-013  0.7246194E+02  0.7816164E-02  0.1226707E+00
        -11   -1    0    0    0    0  0.00000000000E+00  0.00000000000E+00  0.45593999997E+02  0.45594000000E+02  0.51100000000E-03 0. -1.
         11   -1    0    0    0    0 -0.00000000000E+00 -0.00000000000E+00 -0.45593999997E+02  0.45594000000E+02  0.51100000000E-03 0.  1.
    9900012    2    1    2    0    0  0.25076431009E+01 -0.13716633683E+02  0.12499235493E+02  0.72461943250E+02  0.70000485842E+02 0.  0.
        -12    1    1    2    0    0 -0.25076431009E+01  0.13716633683E+02 -0.12499235493E+02  0.18726056750E+02  0.00000000000E+00 0.  1.
         11    1    3    3    0    0 -0.84367453357E+01  0.66468695369E+01  0.20748247917E+02  0.23363418808E+02  0.51100000000E-03 0. -1.
        -11    1    3    3    0    0 -0.14754426901E+02 -0.11837244595E+02 -0.11001691145E+02  0.21882657085E+02  0.51100000000E-03 0.  1.
         12    1    3    3    0    0  0.25698815337E+02 -0.85262586245E+01  0.27526787213E+01  0.27215867357E+02  0.00000000000E+00 0. -1.
</event>
<event>
 7    1  0.1891413E-013  0.7246153E+02  0.7816164E-02  0.1226708E+00
        -11   -1    0    0    0    0  0.00000000000E+00  0.00000000000E+00  0.45593999997E+02  0.45594000000E+02  0.51100000000E-03 0.  1.
         11   -1    0    0    0    0 -0.00000000000E+00 -0.00000000000E+00 -0.45593999997E+02  0.45594000000E+02  0.51100000000E-03 0. -1.
    9900012    2    1    2    0    0  0.14709821285E+02  0.11031638781E+02 -0.35503230535E+01  0.72461529691E+02  0.69999947107E+02 0.  0.
        -12    1    1    2    0    0 -0.14709821285E+02 -0.11031638781E+02  0.35503230535E+01  0.18726470309E+02  0.00000000000E+00 0.  1.
         11    1    3    3    0    0 -0.77983224980E+01  0.18274172934E+02  0.60198604589E+01  0.20760490129E+02  0.51100000000E-03 0. -1.
        -11    1    3    3    0    0 -0.11368628859E+01 -0.17475662472E+02  0.92400535250E+01  0.19800753154E+02  0.51100000000E-03 0.  1.
        -12    1    3    3    0    0  0.23645006669E+02  0.10233128319E+02 -0.18810237037E+02  0.31900286409E+02  0.00000000000E+00 0.  1.
</event>
<event>
 7    1  0.1891413E-013  0.7246168E+02  0.7816164E-02  0.1226708E+00
        -11   -1    0    0    0    0  0.00000000000E+00  0.00000000000E+00  0.45593999997E+02  0.45594000000E+02  0.51100000000E-03 0. -1.
         11   -1    0    0    0    0 -0.00000000000E+00 -0.00000000000E+00 -0.45593999997E+02  0.45594000000E+02  0.51100000000E-03 0.  1.
    9900012    2    1    2    0    0  0.12644489220E+02  0.29399153245E+01  0.13496254161E+02  0.72461679322E+02  0.70000142029E+02 0.  0.
        -12    1    1    2    0    0 -0.12644489220E+02 -0.29399153245E+01 -0.13496254161E+02  0.18726320678E+02  0.00000000000E+00 0.  1.
         11    1    3    3    0    0 -0.78183920668E+01 -0.21202764566E+02  0.91786450653E+01  0.24391228039E+02  0.51100000000E-03 0. -1.
        -11    1    3    3    0    0  0.49964304899E+01  0.22187528514E+02  0.16655270666E+02  0.28189515435E+02  0.51100000000E-03 0.  1.
         12    1    3    3    0    0  0.15466450797E+02  0.19551513760E+01 -0.12337661571E+02  0.19880935848E+02  0.00000000000E+00 0. -1.
</event>
<event>
 7    1  0.1891413E-013  0.7246155E+02  0.7816164E-02  0.1226708E+00
        -11   -1    0    0    0    0  0.00000000000E+00  0.00000000000E+00  0.45593999997E+02  0.45594000000E+02  0.51100000000E-03 0.  1.
         11   -1    0    0    0    0 -0.00000000000E+00 -0.00000000000E+00 -0.45593999997E+02  0.45594000000E+02  0.51100000000E-03 0. -1.
    9900012    2    1    2    0    0  0.15313376181E+02 -0.23265915804E+01 -0.10524602396E+02  0.72461554154E+02  0.69999978974E+02 0.  0.
        -12    1    1    2    0    0 -0.15313376181E+02  0.23265915804E+01  0.10524602396E+02  0.18726445846E+02  0.00000000000E+00 0.  1.
         11    1    3    3    0    0  0.23170395130E+02  0.27399303068E+02 -0.10459887884E+02  0.37376440091E+02  0.51100000000E-03 0. -1.
        -11    1    3    3    0    0  0.39610038260E+01 -0.36674137830E+01  0.32176893232E+01  0.62843456307E+01  0.51100000000E-03 0.  1.
        -12    1    3    3    0    0 -0.11818022775E+02 -0.26058480865E+02 -0.32824038345E+01  0.28800768432E+02  0.00000000000E+00 0.  1.
</event>
<event>
 7    1  0.1891413E-013  0.7246188E+02  0.7816164E-02  0.1226707E+00
        -11   -1    0    0    0    0  0.00000000000E+00  0.00000000000E+00  0.45593999997E+02  0.45594000000E+02  0.51100000000E-03 0.  1.
         11   -1    0    0    0    0 -0.00000000000E+00 -0.00000000000E+00 -0.45593999997E+02  0.45594000000E+02  0.51100000000E-03 0. -1.
    9900012    2    1    2    0    0  0.17315916563E+02 -0.69503221206E+01  0.15873077074E+01  0.72461882149E+02  0.70000406248E+02 0.  0.
        -12    1    1    2    0    0 -0.17315916563E+02  0.69503221206E+01 -0.15873077074E+01  0.18726117851E+02  0.00000000000E+00 0.  1.
         11    1    3    3    0    0  0.95232849184E+01  0.11937538054E+02  0.93826373048E+01  0.17922936520E+02  0.51100000000E-03 0. -1.
        -11    1    3    3    0    0  0.22252923856E+01  0.16358109531E+02  0.39461499833E+01  0.16973855590E+02  0.51100000000E-03 0.  1.
         12    1    3    3    0    0  0.55673392591E+01 -0.35245969706E+02 -0.11741479581E+02  0.37565090040E+02  0.00000000000E+00 0. -1.
</event>
<event>
 7    1  0.1891413E-013  0.7246157E+02  0.7816164E-02  0.1226708E+00
        -11   -1    0    0    0    0  0.00000000000E+00  0.00000000000E+00  0.45593999997E+02  0.45594000000E+02  0.51100000000E-03 0.  1.
         11   -1    0    0    0    0 -0.00000000000E+00 -0.00000000000E+00 -0.45593999997E+02  0.45594000000E+02  0.51100000000E-03 0. -1.
    9900012    2    1    2    0    0 -0.86057929842E+01  0.30122196637E+01 -0.16356836933E+02  0.72461568022E+02  0.69999997040E+02 0.  0.
        -12    1    1    2    0    0  0.86057929842E+01 -0.30122196637E+01  0.16356836933E+02  0.18726431978E+02  0.00000000000E+00 0.  1.
         11    1    3    3    0    0 -0.12680557037E+02 -0.71386687194E+01  0.48298779332E+01  0.15332476609E+02  0.51100000000E-03 0. -1.
        -11    1    3    3    0    0  0.13989293300E+02 -0.18222046092E+02 -0.10087118617E+02  0.25089704124E+02  0.51100000000E-03 0.  1.
        -12    1    3    3    0    0 -0.99145292464E+01  0.28372934475E+02 -0.11099596249E+02  0.32039387288E+02  0.00000000000E+00 0.  1.
</event>
<event>
 7    1  0.1891413E-013  0.7246155E+02  0.7816164E-02  0.1226708E+00
        -11   -1    0    0    0    0  0.00000000000E+00  0.00000000000E+00  0.45593999997E+02  0.45594000000E+02  0.51100000000E-03 0.  1.
         11   -1    0    0    0    0 -0.00000000000E+00 -0.00000000000E+00 -0.45593999997E+02  0.45594000000E+02  0.51100000000E-03 0. -1.
    9900012    2    1    2    0    0 -0.15224037726E+02 -0.30591922744E+01 -0.10466617583E+02  0.72461546366E+02  0.69999968829E+02 0.  0.
        -12    1    1    2    0    0  0.15224037726E+02  0.30591922744E+01  0.10466617583E+02  0.18726453634E+02  0.00000000000E+00 0.  1.
         11    1    3    3    0    0 -0.27128201960E+02 -0.49863163078E+01 -0.17047002863E+02  0.32425345007E+02  0.51100000000E-03 0. -1.
        -11    1    3    3    0    0 -0.84385298337E+01  0.71738444135E+01 -0.86786906983E+01  0.14070980844E+02  0.51100000000E-03 0.  1.
        -12    1    3    3    0    0  0.20342694068E+02 -0.52467203802E+01  0.15259075978E+02  0.25965220515E+02  0.00000000000E+00 0.  1.
</event>
<event>
 7    1  0.1891413E-013  0.7246156E+02  0.7816164E-02  0.1226708E+00
        -11   -1    0    0    0    0  0.00000000000E+00  0.00000000000E+00  0.45593999997E+02  0.45594000000E+02  0.51100000000E-03 0.  1.
         11   -1    0    0    0    0 -0.00000000000E+00 -0.00000000000E+00 -0.45593999997E+02  0.45594000000E+02  0.51100000000E-03 0. -1.
    9900012    2    1    2    0    0  0.14422626075E+02 -0.27551870886E+01 -0.11622232244E+02  0.72461561975E+02  0.69999989162E+02 0.  0.
        -12    1    1    2    0    0 -0.14422626075E+02  0.27551870886E+01  0.11622232244E+02  0.18726438025E+02  0.00000000000E+00 0.  1.
         11    1    3    3    0    0  0.25415987747E+02  0.74170202342E+01 -0.73777206618E+01  0.27484820988E+02  0.51100000000E-03 0. -1.
        -11    1    3    3    0    0  0.23137954636E+01 -0.21399430879E+02 -0.13350741405E+02  0.25328473853E+02  0.51100000000E-03 0.  1.
         12    1    3    3    0    0 -0.13307157135E+02  0.11227223556E+02  0.91062298226E+01  0.19648267134E+02  0.00000000000E+00 0. -1.
</event>
<event>
 7    1  0.1891413E-013  0.7246156E+02  0.7816164E-02  0.1226708E+00
        -11   -1    0    0    0    0  0.00000000000E+00  0.00000000000E+00  0.45593999997E+02  0.45594000000E+02  0.51100000000E-03 0.  1.
         11   -1    0    0    0    0 -0.00000000000E+00 -0.00000000000E+00 -0.45593999997E+02  0.45594000000E+02  0.51100000000E-03 0. -1.
    9900012    2    1    2    0    0  0.80390000305E+00 -0.11534471644E+02 -0.14730551627E+02  0.72461563004E+02  0.69999990503E+02 0.  0.
        -12    1    1    2    0    0 -0.80390000305E+00  0.11534471644E+02  0.14730551627E+02  0.18726436996E+02  0.00000000000E+00 0.  1.
         11    1    3    3    0    0  0.53968304222E+01 -0.22879353352E+02 -0.46306915084E+01  0.23959004414E+02  0.51100000000E-03 0. -1.
        -11    1    3    3    0    0 -0.11579912814E+02  0.19928280920E+02  0.10337721557E+02  0.25260626446E+02  0.51100000000E-03 0.  1.
         12    1    3    3    0    0  0.69869823950E+01 -0.85833992118E+01 -0.20437581676E+02  0.23241932144E+02  0.00000000000E+00 0. -1.
</event>
<event>
 7    1  0.1891413E-013  0.7246158E+02  0.7816164E-02  0.1226708E+00
        -11   -1    0    0    0    0  0.00000000000E+00  0.00000000000E+00  0.45593999997E+02  0.45594000000E+02  0.51100000000E-03 0. -1.
         11   -1    0    0    0    0 -0.00000000000E+00 -0.00000000000E+00 -0.45593999997E+02  0.45594000000E+02  0.51100000000E-03 0.  1.
    9900012    2    1    2    0    0 -0.11668243226E+02  0.13863935938E+02 -0.47246432032E+01  0.72461578210E+02  0.70000010311E+02 0.  0.
        -12    1    1    2    0    0  0.11668243226E+02 -0.13863935938E+02  0.47246432032E+01  0.18726421790E+02  0.00000000000E+00 0.  1.
         11    1    3    3    0    0  0.18543724874E+02  0.11766862677E+02  0.10095703480E+02  0.24171305684E+02  0.51100000000E-03 0. -1.
        -11    1    3    3    0    0 -0.24859309973E+01 -0.55279721915E+01  0.90676975649E+01  0.10906945900E+02  0.51100000000E-03 0.  1.
        -12    1    3    3    0    0 -0.27726037103E+02  0.76250454520E+01 -0.23888044248E+02  0.37383326626E+02  0.00000000000E+00 0.  1.
</event>
<event>
 7    1  0.1891413E-013  0.7246156E+02  0.7816164E-02  0.1226708E+00
        -11   -1    0    0    0    0  0.00000000000E+00  0.00000000000E+00  0.45593999997E+02  0.45594000000E+02  0.51100000000E-03 0.  1.
         11   -1    0    0    0    0 -0.00000000000E+00 -0.00000000000E+00 -0.45593999997E+02  0.45594000000E+02  0.51100000000E-03 0. -1.
    9900012    2    1    2    0    0 -0.68113887547E+01 -0.70239571786E+00 -0.17429604289E+02  0.72461561946E+02  0.69999989125E+02 0.  0.
        -12    1    1    2    0    0  0.68113887547E+01  0.70239571786E+00  0.17429604289E+02  0.18726438054E+02  0.00000000000E+00 0.  1.
         11    1    3    3    0    0  0.13149546962E+02 -0.80006019775E+01 -0.17950912177E+01  0.15496534130E+02  0.51100000000E-03 0. -1.
        -11    1    3    3    0    0 -0.12068626477E+02  0.35766714199E+01  0.18141157804E+02  0.22080442256E+02  0.51100000000E-03 0.  1.
         12    1    3    3    0    0 -0.78923092395E+01  0.37215348397E+01 -0.33775670875E+02  0.34884585561E+02  0.00000000000E+00 0. -1.
</event>
<event>
 7    1  0.1891413E-013  0.7246156E+02  0.7816164E-02  0.1226708E+00
        -11   -1    0    0    0    0  0.00000000000E+00  0.00000000000E+00  0.45593999997E+02  0.45594000000E+02  0.51100000000E-03 0.  1.
         11   -1    0    0    0    0 -0.00000000000E+00 -0.00000000000E+00 -0.45593999997E+02  0.45594000000E+02  0.51100000000E-03 0. -1.
    9900012    2    1    2    0    0 -0.13677860636E+01 -0.11958533591E+02 -0.14345811806E+02  0.72461556645E+02  0.69999982219E+02 0.  0.
        -12    1    1    2    0    0  0.13677860636E+01  0.11958533591E+02  0.14345811806E+02  0.18726443355E+02  0.00000000000E+00 0.  1.
         11    1    3    3    0    0 -0.39952121191E+01  0.51985097359E+01  0.14194217993E+02  0.15635282155E+02  0.51100000000E-03 0. -1.
        -11    1    3    3    0    0  0.15427916946E+02  0.66131729325E+01  0.99041017606E+00  0.16814743237E+02  0.51100000000E-03 0.  1.
         12    1    3    3    0    0 -0.12800490891E+02 -0.23770216260E+02 -0.29530439975E+02  0.40011531253E+02  0.00000000000E+00 0. -1.
</event>
<event>
 7    1  0.1891413E-013  0.7246159E+02  0.7816164E-02  0.1226708E+00
        -11   -1    0    0    0    0  0.00000000000E+00  0.00000000000E+00  0.45593999997E+02  0.45594000000E+02  0.51100000000E-03 0.  1.
         11   -1    0    0    0    0 -0.00000000000E+00 -0.00000000000E+00 -0.45593999997E+02  0.45594000000E+02  0.51100000000E-03 0. -1.
    9900012    2    1    2    0    0  0.15427846179E+02  0.20667051943E+01 -0.10410999387E+02  0.72461585065E+02  0.70000019241E+02 0.  0.
        -12    1    1    2    0    0 -0.15427846179E+02 -0.20667051943E+01  0.10410999387E+02  0.18726414935E+02  0.00000000000E+00 0.  1.
         11    1    3    3    0    0 -0.77527733683E+01  0.96248254347E+01 -0.17249077735E+02  0.21219647559E+02  0.51100000000E-03 0. -1.
        -11    1    3    3    0    0 -0.12044207810E+01 -0.94735907882E+01 -0.15441519836E+02  0.18155993141E+02  0.51100000000E-03 0.  1.
        -12    1    3    3    0    0  0.24385040329E+02  0.19154705478E+01  0.22279598184E+02  0.33085944364E+02  0.00000000000E+00 0.  1.
</event>
<event>
 7    1  0.1891413E-013  0.7246157E+02  0.7816164E-02  0.1226708E+00
        -11   -1    0    0    0    0  0.00000000000E+00  0.00000000000E+00  0.45593999997E+02  0.45594000000E+02  0.51100000000E-03 0. -1.
         11   -1    0    0    0    0 -0.00000000000E+00 -0.00000000000E+00 -0.45593999997E+02  0.45594000000E+02  0.51100000000E-03 0.  1.
    9900012    2    1    2    0    0  0.15392424575E+02  0.99745209778E+00  0.10618743459E+02  0.72461565272E+02  0.69999993457E+02 0.  0.
        -12    1    1    2    0    0 -0.15392424575E+02 -0.99745209778E+00 -0.10618743459E+02  0.18726434728E+02  0.00000000000E+00 0.  1.
         11    1    3    3    0    0  0.14373101517E+02 -0.50398279109E+01 -0.86589116382E+01  0.17520349986E+02  0.51100000000E-03 0. -1.
        -11    1    3    3    0    0  0.10704448066E+02  0.22923851932E+02 -0.28608497957E+01  0.25461199061E+02  0.51100000000E-03 0.  1.
         12    1    3    3    0    0 -0.96851250083E+01 -0.16886571923E+02  0.22138504893E+02  0.29480016225E+02  0.00000000000E+00 0. -1.
</event>
<event>
 7    1  0.1891413E-013  0.7246164E+02  0.7816164E-02  0.1226708E+00
        -11   -1    0    0    0    0  0.00000000000E+00  0.00000000000E+00  0.45593999997E+02  0.45594000000E+02  0.51100000000E-03 0.  1.
         11   -1    0    0    0    0 -0.00000000000E+00 -0.00000000000E+00 -0.45593999997E+02  0.45594000000E+02  0.51100000000E-03 0. -1.
    9900012    2    1    2    0    0  0.27650871149E+01 -0.17660524294E+02  0.55800339013E+01  0.72461638810E+02  0.70000089254E+02 0.  0.
        -12    1    1    2    0    0 -0.27650871149E+01  0.17660524294E+02 -0.55800339013E+01  0.18726361190E+02  0.00000000000E+00 0.  1.
         11    1    3    3    0    0 -0.19067233887E+02 -0.13698169920E+01 -0.29768031452E+01  0.19346761070E+02  0.51100000000E-03 0. -1.
        -11    1    3    3    0    0  0.23427344040E+01 -0.20197822521E+01 -0.17390797800E+02  0.17663741767E+02  0.51100000000E-03 0.  1.
        -12    1    3    3    0    0  0.19489586598E+02 -0.14270925050E+02  0.25947634847E+02  0.35451135972E+02  0.00000000000E+00 0.  1.
</event>
<event>
 7    1  0.1891413E-013  0.7246154E+02  0.7816164E-02  0.1226708E+00
        -11   -1    0    0    0    0  0.00000000000E+00  0.00000000000E+00  0.45593999997E+02  0.45594000000E+02  0.51100000000E-03 0.  1.
         11   -1    0    0    0    0 -0.00000000000E+00 -0.00000000000E+00 -0.45593999997E+02  0.45594000000E+02  0.51100000000E-03 0. -1.
    9900012    2    1    2    0    0  0.18326008114E+02 -0.38423661572E+01 -0.27165512069E+00  0.72461544180E+02  0.69999965982E+02 0.  0.
        -12    1    1    2    0    0 -0.18326008114E+02  0.38423661572E+01  0.27165512069E+00  0.18726455820E+02  0.00000000000E+00 0.  1.
         11    1    3    3    0    0 -0.80748616589E+01 -0.62914395220E+01 -0.22414634815E+02  0.24641458078E+02  0.51100000000E-03 0. -1.
        -11    1    3    3    0    0  0.27830533015E+01  0.13528440784E+02  0.33142969013E+00  0.13815713576E+02  0.51100000000E-03 0.  1.
        -12    1    3    3    0    0  0.23617816471E+02 -0.11079367419E+02  0.21811550004E+02  0.34004372526E+02  0.00000000000E+00 0.  1.
</event>
<event>
 7    1  0.1891413E-013  0.7246157E+02  0.7816164E-02  0.1226708E+00
        -11   -1    0    0    0    0  0.00000000000E+00  0.00000000000E+00  0.45593999997E+02  0.45594000000E+02  0.51100000000E-03 0.  1.
         11   -1    0    0    0    0 -0.00000000000E+00 -0.00000000000E+00 -0.45593999997E+02  0.45594000000E+02  0.51100000000E-03 0. -1.
    9900012    2    1    2    0    0 -0.15348989524E+02  0.91909740312E+01  0.55329668927E+01  0.72461569329E+02  0.69999998742E+02 0.  0.
        -12    1    1    2    0    0  0.15348989524E+02 -0.91909740312E+01 -0.55329668927E+01  0.18726430671E+02  0.00000000000E+00 0.  1.
         11    1    3    3    0    0 -0.21452123368E+02 -0.11383729509E+02  0.17292259313E+01  0.24346932397E+02  0.51100000000E-03 0. -1.
        -11    1    3    3    0    0  0.17881053699E+02 -0.52291623197E+01 -0.31882509633E+01  0.18900824437E+02  0.51100000000E-03 0.  1.
         12    1    3    3    0    0 -0.11777919854E+02  0.25803865860E+02  0.69919919247E+01  0.29213812495E+02  0.00000000000E+00 0. -1.
</event>
<event>
 7    1  0.1891413E-013  0.7246152E+02  0.7816164E-02  0.1226708E+00
        -11   -1    0    0    0    0  0.00000000000E+00  0.00000000000E+00  0.45593999997E+02  0.45594000000E+02  0.51100000000E-03 0. -1.
         11   -1    0    0    0    0 -0.00000000000E+00 -0.00000000000E+00 -0.45593999997E+02  0.45594000000E+02  0.51100000000E-03 0.  1.
    9900012    2    1    2    0    0 -0.81330306434E+00 -0.94440040892E+01  0.16150248774E+02  0.72461515798E+02  0.69999929009E+02 0.  0.
        -12    1    1    2    0    0  0.81330306434E+00  0.94440040892E+01 -0.16150248774E+02  0.18726484202E+02  0.00000000000E+00 0.  1.
         11    1    3    3    0    0  0.14286730217E+02 -0.18776895005E+02 -0.11915603462E+02  0.26432254018E+02  0.51100000000E-03 0. -1.
        -11    1    3    3    0    0  0.68965828004E+01 -0.35496082778E+01  0.16096130465E+02  0.17867512123E+02  0.51100000000E-03 0.  1.
        -12    1    3    3    0    0 -0.21996616082E+02  0.12882499194E+02  0.11969721770E+02  0.28161749658E+02  0.00000000000E+00 0.  1.
</event>
<event>
 7    1  0.1891413E-013  0.7246161E+02  0.7816164E-02  0.1226708E+00
        -11   -1    0    0    0    0  0.00000000000E+00  0.00000000000E+00  0.45593999997E+02  0.45594000000E+02  0.51100000000E-03 0.  1.
         11   -1    0    0    0    0 -0.00000000000E+00 -0.00000000000E+00 -0.45593999997E+02  0.45594000000E+02  0.51100000000E-03 0. -1.
    9900012    2    1    2    0    0  0.29125763946E+00  0.64532404213E+01 -0.17576930861E+02  0.72461611094E+02  0.70000053149E+02 0.  0.
        -12    1    1    2    0    0 -0.29125763946E+00 -0.64532404213E+01  0.17576930861E+02  0.18726388906E+02  0.00000000000E+00 0.  1.
         11    1    3    3    0    0 -0.38032566338E+01 -0.43598310621E-01  0.10781791824E+02  0.11433009098E+02  0.51100000000E-03 0. -1.
        -11    1    3    3    0    0 -0.69505091060E+00  0.20429175548E+02  0.78818210025E+01  0.21907930343E+02  0.51100000000E-03 0.  1.
         12    1    3    3    0    0  0.47895651839E+01 -0.13932336816E+02 -0.36240543688E+02  0.39120671653E+02  0.00000000000E+00 0. -1.
</event>
<event>
 7    1  0.1891413E-013  0.7246156E+02  0.7816164E-02  0.1226708E+00
        -11   -1    0    0    0    0  0.00000000000E+00  0.00000000000E+00  0.45593999997E+02  0.45594000000E+02  0.51100000000E-03 0.  1.
         11   -1    0    0    0    0 -0.00000000000E+00 -0.00000000000E+00 -0.45593999997E+02  0.45594000000E+02  0.51100000000E-03 0. -1.
    9900012    2    1    2    0    0  0.12825053672E+02 -0.28705815011E+01 -0.13340063804E+02  0.72461560345E+02  0.69999987039E+02 0.  0.
        -12    1    1    2    0    0 -0.12825053672E+02  0.28705815011E+01  0.13340063804E+02  0.18726439655E+02  0.00000000000E+00 0.  1.
         11    1    3    3    0    0  0.35876190515E+02 -0.11125468355E+02 -0.59152123167E+01  0.38024555606E+02  0.51100000000E-03 0. -1.
        -11    1    3    3    0    0  0.12457194348E+01  0.92044845757E+01 -0.14818754742E+01  0.94058656378E+01  0.51100000000E-03 0.  1.
        -12    1    3    3    0    0 -0.24296856278E+02 -0.94959772141E+00 -0.59429760133E+01  0.25031139101E+02  0.00000000000E+00 0.  1.
</event>
<event>
 7    1  0.1891413E-013  0.7246158E+02  0.7816164E-02  0.1226708E+00
        -11   -1    0    0    0    0  0.00000000000E+00  0.00000000000E+00  0.45593999997E+02  0.45594000000E+02  0.51100000000E-03 0.  1.
         11   -1    0    0    0    0 -0.00000000000E+00 -0.00000000000E+00 -0.45593999997E+02  0.45594000000E+02  0.51100000000E-03 0. -1.
    9900012    2    1    2    0    0 -0.22640184853E+01 -0.22688953339E+01 -0.18450066576E+02  0.72461584903E+02  0.70000019030E+02 0.  0.
        -12    1    1    2    0    0  0.22640184853E+01  0.22688953339E+01  0.18450066576E+02  0.18726415097E+02  0.00000000000E+00 0.  1.
         11    1    3    3    0    0  0.44754257244E+01 -0.35677286392E+01  0.55152191405E+01  0.79483184062E+01  0.51100000000E-03 0. -1.
        -11    1    3    3    0    0  0.20769075025E+02 -0.15135707676E+02 -0.22349990598E+01  0.25796111050E+02  0.51100000000E-03 0.  1.
        -12    1    3    3    0    0 -0.27508519234E+02  0.16434540981E+02 -0.21730286657E+02  0.38717155447E+02  0.00000000000E+00 0.  1.
</event>
<event>
 7    1  0.1891413E-013  0.7246152E+02  0.7816164E-02  0.1226708E+00
        -11   -1    0    0    0    0  0.00000000000E+00  0.00000000000E+00  0.45593999997E+02  0.45594000000E+02  0.51100000000E-03 0. -1.
         11   -1    0    0    0    0 -0.00000000000E+00 -0.00000000000E+00 -0.45593999997E+02  0.45594000000E+02  0.51100000000E-03 0.  1.
    9900012    2    1    2    0    0 -0.99987350101E+01  0.64859011432E+01  0.14444354586E+02  0.72461521558E+02  0.69999936512E+02 0.  0.
        -12    1    1    2    0    0  0.99987350101E+01 -0.64859011432E+01 -0.14444354586E+02  0.18726478442E+02  0.00000000000E+00 0.  1.
         11    1    3    3    0    0  0.12404068111E+02  0.14708525355E+02 -0.91587376631E+00  0.19262410255E+02  0.51100000000E-03 0. -1.
        -11    1    3    3    0    0 -0.37042038557E+01  0.17198796004E+02 -0.10600499823E+01  0.17625079189E+02  0.51100000000E-03 0.  1.
         12    1    3    3    0    0 -0.18698599266E+02 -0.25421420216E+02  0.16420278334E+02  0.35574032114E+02  0.00000000000E+00 0. -1.
</event>
<event>
 7    1  0.1891413E-013  0.7246157E+02  0.7816164E-02  0.1226708E+00
        -11   -1    0    0    0    0  0.00000000000E+00  0.00000000000E+00  0.45593999997E+02  0.45594000000E+02  0.51100000000E-03 0.  1.
         11   -1    0    0    0    0 -0.00000000000E+00 -0.00000000000E+00 -0.45593999997E+02  0.45594000000E+02  0.51100000000E-03 0. -1.
    9900012    2    1    2    0    0 -0.13879202188E+01  0.80851578297E+01 -0.16833985595E+02  0.72461570264E+02  0.69999999960E+02 0.  0.
        -12    1    1    2    0    0  0.13879202188E+01 -0.80851578297E+01  0.16833985595E+02  0.18726429736E+02  0.00000000000E+00 0.  1.
         11    1    3    3    0    0 -0.30963918565E+02 -0.13008711102E+02 -0.48977921836E+01  0.33940818876E+02  0.51100000000E-03 0. -1.
        -11    1    3    3    0    0  0.11862607262E+02  0.66575578779E+01 -0.26713646154E+01  0.13862925994E+02  0.51100000000E-03 0.  1.
        -12    1    3    3    0    0  0.17713391084E+02  0.14436311054E+02 -0.92648287956E+01  0.24657825394E+02  0.00000000000E+00 0.  1.
</event>
<event>
 7    1  0.1891413E-013  0.7246158E+02  0.7816164E-02  0.1226708E+00
        -11   -1    0    0    0    0  0.00000000000E+00  0.00000000000E+00  0.45593999997E+02  0.45594000000E+02  0.51100000000E-03 0.  1.
         11   -1    0    0    0    0 -0.00000000000E+00 -0.00000000000E+00 -0.45593999997E+02  0.45594000000E+02  0.51100000000E-03 0. -1.
    9900012    2    1    2    0    0  0.12555408466E+02 -0.13784696649E+02 -0.17385805415E+01  0.72461580007E+02  0.70000012653E+02 0.  0.
        -12    1    1    2    0    0 -0.12555408466E+02  0.13784696649E+02  0.17385805415E+01  0.18726419993E+02  0.00000000000E+00 0.  1.
         11    1    3    3    0    0  0.59655180000E+01 -0.59633482662E-01 -0.93245480079E+01  0.11069695433E+02  0.51100000000E-03 0. -1.
        -11    1    3    3    0    0 -0.39270382167E+00 -0.23777632828E+02 -0.20089493406E+02  0.31130656671E+02  0.51100000000E-03 0.  1.
        -12    1    3    3    0    0  0.69825942872E+01  0.10052569661E+02  0.27675460872E+02  0.30261227904E+02  0.00000000000E+00 0.  1.
</event>
<event>
 7    1  0.1891413E-013  0.7246135E+02  0.7816164E-02  0.1226709E+00
        -11   -1    0    0    0    0  0.00000000000E+00  0.00000000000E+00  0.45593999997E+02  0.45594000000E+02  0.51100000000E-03 0.  1.
         11   -1    0    0    0    0 -0.00000000000E+00 -0.00000000000E+00 -0.45593999997E+02  0.45594000000E+02  0.51100000000E-03 0. -1.
    9900012    2    1    2    0    0 -0.95925599430E+01  0.22052929909E+01 -0.15931317219E+02  0.72461350760E+02  0.69999714015E+02 0.  0.
        -12    1    1    2    0    0  0.95925599430E+01 -0.22052929909E+01  0.15931317219E+02  0.18726649240E+02  0.00000000000E+00 0.  1.
         11    1    3    3    0    0  0.66094413575E+01  0.43344383469E+01 -0.19075706798E+02  0.20648357343E+02  0.51100000000E-03 0. -1.
        -11    1    3    3    0    0 -0.24770704294E+02  0.17466917902E+02  0.11307583092E+01  0.30330836237E+02  0.51100000000E-03 0.  1.
         12    1    3    3    0    0  0.85687029934E+01 -0.19596063258E+02  0.20136312697E+01  0.21482157180E+02  0.00000000000E+00 0. -1.
</event>
<event>
 7    1  0.1891413E-013  0.7246153E+02  0.7816164E-02  0.1226708E+00
        -11   -1    0    0    0    0  0.00000000000E+00  0.00000000000E+00  0.45593999997E+02  0.45594000000E+02  0.51100000000E-03 0.  1.
         11   -1    0    0    0    0 -0.00000000000E+00 -0.00000000000E+00 -0.45593999997E+02  0.45594000000E+02  0.51100000000E-03 0. -1.
    9900012    2    1    2    0    0 -0.45553857038E+01  0.18138869697E+02 -0.95424731853E+00  0.72461528876E+02  0.69999946045E+02 0.  0.
        -12    1    1    2    0    0  0.45553857038E+01 -0.18138869697E+02  0.95424731853E+00  0.18726471124E+02  0.00000000000E+00 0.  1.
         11    1    3    3    0    0 -0.16121682238E+01 -0.88489988707E+01  0.85850911587E+01  0.12434132775E+02  0.51100000000E-03 0.  1.
        -11    1    3    3    0    0  0.21126711123E+02  0.21261498130E+02  0.63292602020E+01  0.30634111062E+02  0.51100000000E-03 0. -1.
         12    1    3    3    0    0 -0.24069928603E+02  0.57263704380E+01 -0.15868598679E+02  0.29393285039E+02  0.00000000000E+00 0. -1.
</event>
<event>
 7    1  0.1891413E-013  0.7246155E+02  0.7816164E-02  0.1226708E+00
        -11   -1    0    0    0    0  0.00000000000E+00  0.00000000000E+00  0.45593999997E+02  0.45594000000E+02  0.51100000000E-03 0. -1.
         11   -1    0    0    0    0 -0.00000000000E+00 -0.00000000000E+00 -0.45593999997E+02  0.45594000000E+02  0.51100000000E-03 0.  1.
    9900012    2    1    2    0    0 -0.14761832779E+02  0.10905869545E+02  0.37188847901E+01  0.72461553417E+02  0.69999978014E+02 0.  0.
        -12    1    1    2    0    0  0.14761832779E+02 -0.10905869545E+02 -0.37188847901E+01  0.18726446583E+02  0.00000000000E+00 0.  1.
         11    1    3    3    0    0 -0.36828423562E+02  0.11004335255E+02 -0.44457679546E+01  0.38693578659E+02  0.51100000000E-03 0. -1.
        -11    1    3    3    0    0 -0.27581221043E+01  0.64568732977E+01  0.26642409867E+01  0.75097690125E+01  0.51100000000E-03 0.  1.
        -12    1    3    3    0    0  0.24824712887E+02 -0.65553390084E+01  0.55004117580E+01  0.26258205745E+02  0.00000000000E+00 0.  1.
</event>
<event>
 7    1  0.1891413E-013  0.7246153E+02  0.7816164E-02  0.1226708E+00
        -11   -1    0    0    0    0  0.00000000000E+00  0.00000000000E+00  0.45593999997E+02  0.45594000000E+02  0.51100000000E-03 0.  1.
         11   -1    0    0    0    0 -0.00000000000E+00 -0.00000000000E+00 -0.45593999997E+02  0.45594000000E+02  0.51100000000E-03 0. -1.
    9900012    2    1    2    0    0 -0.41645654186E+01 -0.10705366676E+02 -0.14789594834E+02  0.72461532203E+02  0.69999950379E+02 0.  0.
        -12    1    1    2    0    0  0.41645654186E+01  0.10705366676E+02  0.14789594834E+02  0.18726467797E+02  0.00000000000E+00 0.  1.
         11    1    3    3    0    0 -0.10477550584E+02 -0.19748403589E+02  0.13967523381E+02  0.26360391124E+02  0.51100000000E-03 0. -1.
        -11    1    3    3    0    0 -0.26914636944E+01  0.47485513575E+00  0.73886797325E+01  0.78779472370E+01  0.51100000000E-03 0.  1.
         12    1    3    3    0    0  0.90044488601E+01  0.85681817769E+01 -0.36145797947E+02  0.38223193842E+02  0.00000000000E+00 0. -1.
</event>
<event>
 7    1  0.1891413E-013  0.7246147E+02  0.7816164E-02  0.1226708E+00
        -11   -1    0    0    0    0  0.00000000000E+00  0.00000000000E+00  0.45593999997E+02  0.45594000000E+02  0.51100000000E-03 0. -1.
         11   -1    0    0    0    0 -0.00000000000E+00 -0.00000000000E+00 -0.45593999997E+02  0.45594000000E+02  0.51100000000E-03 0.  1.
    9900012    2    1    2    0    0 -0.21483481167E+01  0.13802901282E+01  0.18551607935E+02  0.72461474497E+02  0.69999875206E+02 0.  0.
        -12    1    1    2    0    0  0.21483481167E+01 -0.13802901282E+01 -0.18551607935E+02  0.18726525503E+02  0.00000000000E+00 0.  1.
         11    1    3    3    0    0 -0.22263541585E+01 -0.25277365080E+01  0.92439751707E+01  0.98385558854E+01  0.51100000000E-03 0. -1.
        -11    1    3    3    0    0 -0.69964047990E+00  0.28586903838E+02  0.20827809739E+02  0.35376520838E+02  0.51100000000E-03 0.  1.
        -12    1    3    3    0    0  0.77764652172E+00 -0.24678877202E+02 -0.11520176975E+02  0.27246397773E+02  0.00000000000E+00 0.  1.
</event>
<event>
 7    1  0.1891413E-013  0.7246160E+02  0.7816164E-02  0.1226708E+00
        -11   -1    0    0    0    0  0.00000000000E+00  0.00000000000E+00  0.45593999997E+02  0.45594000000E+02  0.51100000000E-03 0.  1.
         11   -1    0    0    0    0 -0.00000000000E+00 -0.00000000000E+00 -0.45593999997E+02  0.45594000000E+02  0.51100000000E-03 0. -1.
    9900012    2    1    2    0    0  0.68450294441E+01  0.17405474760E+02  0.93437822862E+00  0.72461600389E+02  0.70000039204E+02 0.  0.
        -12    1    1    2    0    0 -0.68450294441E+01 -0.17405474760E+02 -0.93437822862E+00  0.18726399611E+02  0.00000000000E+00 0.  1.
         11    1    3    3    0    0  0.20833767188E+02  0.10684995368E+02  0.39288894640E+01  0.23741338504E+02  0.51100000000E-03 0. -1.
        -11    1    3    3    0    0 -0.49611357917E+01 -0.16589771737E+02  0.10562857975E+02  0.20283179324E+02  0.51100000000E-03 0.  1.
         12    1    3    3    0    0 -0.90276019523E+01  0.23310251129E+02 -0.13557369210E+02  0.28437082561E+02  0.00000000000E+00 0. -1.
</event>
<event>
 7    1  0.1891413E-013  0.7246159E+02  0.7816164E-02  0.1226708E+00
        -11   -1    0    0    0    0  0.00000000000E+00  0.00000000000E+00  0.45593999997E+02  0.45594000000E+02  0.51100000000E-03 0.  1.
         11   -1    0    0    0    0 -0.00000000000E+00 -0.00000000000E+00 -0.45593999997E+02  0.45594000000E+02  0.51100000000E-03 0. -1.
    9900012    2    1    2    0    0  0.11916933620E+02  0.98623448132E+01 -0.10554577539E+02  0.72461594602E+02  0.70000031665E+02 0.  0.
        -12    1    1    2    0    0 -0.11916933620E+02 -0.98623448132E+01  0.10554577539E+02  0.18726405398E+02  0.00000000000E+00 0.  1.
         11    1    3    3    0    0 -0.23024231246E+02  0.14165007791E+02  0.57654649411E+00  0.27038769874E+02  0.51100000000E-03 0. -1.
        -11    1    3    3    0    0  0.14354322697E+01  0.19813661852E+01 -0.11065570877E+02  0.11332834458E+02  0.51100000000E-03 0.  1.
        -12    1    3    3    0    0  0.33505732596E+02 -0.62840291629E+01 -0.65553156226E-01  0.34089990269E+02  0.00000000000E+00 0.  1.
</event>
<event>
 7    1  0.1891413E-013  0.7246164E+02  0.7816164E-02  0.1226708E+00
        -11   -1    0    0    0    0  0.00000000000E+00  0.00000000000E+00  0.45593999997E+02  0.45594000000E+02  0.51100000000E-03 0.  1.
         11   -1    0    0    0    0 -0.00000000000E+00 -0.00000000000E+00 -0.45593999997E+02  0.45594000000E+02  0.51100000000E-03 0. -1.
    9900012    2    1    2    0    0  0.17555244058E+02  0.64916209294E+01 -0.59052159252E+00  0.72461642853E+02  0.70000094522E+02 0.  0.
        -12    1    1    2    0    0 -0.17555244058E+02 -0.64916209294E+01  0.59052159252E+00  0.18726357147E+02  0.00000000000E+00 0.  1.
         11    1    3    3    0    0  0.52303937563E+01  0.64998806089E+01 -0.14583074007E+02  0.16800937906E+02  0.51100000000E-03 0. -1.
        -11    1    3    3    0    0  0.48952367852E+00  0.24655570344E+02  0.13891698534E+02  0.28303993902E+02  0.51100000000E-03 0.  1.
        -12    1    3    3    0    0  0.11835326623E+02 -0.24663830023E+02  0.10085388017E+00  0.27356711045E+02  0.00000000000E+00 0.  1.
</event>
<event>
 7    1  0.1891413E-013  0.7246153E+02  0.7816164E-02  0.1226708E+00
        -11   -1    0    0    0    0  0.00000000000E+00  0.00000000000E+00  0.45593999997E+02  0.45594000000E+02  0.51100000000E-03 0.  1.
         11   -1    0    0    0    0 -0.00000000000E+00 -0.00000000000E+00 -0.45593999997E+02  0.45594000000E+02  0.51100000000E-03 0. -1.
    9900012    2    1    2    0    0 -0.12227157126E+02 -0.44476082192E+01 -0.13468342698E+02  0.72461525551E+02  0.69999941714E+02 0.  0.
        -12    1    1    2    0    0  0.12227157126E+02  0.44476082192E+01  0.13468342698E+02  0.18726474449E+02  0.00000000000E+00 0.  1.
         11    1    3    3    0    0 -0.33245674852E+01 -0.34047948716E+01 -0.11745141006E+02  0.12672557539E+02  0.51100000000E-03 0. -1.
        -11    1    3    3    0    0  0.73140775328E+01 -0.14769180550E+02 -0.23929586917E+02  0.29055972786E+02  0.51100000000E-03 0.  1.
        -12    1    3    3    0    0 -0.16216667173E+02  0.13726367203E+02  0.22206385225E+02  0.30732995226E+02  0.00000000000E+00 0.  1.
</event>
<event>
 7    1  0.1891413E-013  0.7246162E+02  0.7816164E-02  0.1226708E+00
        -11   -1    0    0    0    0  0.00000000000E+00  0.00000000000E+00  0.45593999997E+02  0.45594000000E+02  0.51100000000E-03 0. -1.
         11   -1    0    0    0    0 -0.00000000000E+00 -0.00000000000E+00 -0.45593999997E+02  0.45594000000E+02  0.51100000000E-03 0.  1.
    9900012    2    1    2    0    0  0.16829853006E+02 -0.67138682288E+01  0.47283504370E+01  0.72461620835E+02  0.70000065838E+02 0.  0.
        -12    1    1    2    0    0 -0.16829853006E+02  0.67138682288E+01 -0.47283504370E+01  0.18726379165E+02  0.00000000000E+00 0.  1.
         11    1    3    3    0    0 -0.15208442005E+02  0.17481272657E+02  0.10073591593E+02  0.25265962277E+02  0.51100000000E-03 0.  1.
        -11    1    3    3    0    0  0.14092111414E+02 -0.10754061941E+01 -0.10331161824E+02  0.17506484726E+02  0.51100000000E-03 0. -1.
        -12    1    3    3    0    0  0.17946183597E+02 -0.23119734691E+02  0.49859206676E+01  0.29689173832E+02  0.00000000000E+00 0.  1.
</event>
<event>
 7    1  0.1891413E-013  0.7246132E+02  0.7816164E-02  0.1226709E+00
        -11   -1    0    0    0    0  0.00000000000E+00  0.00000000000E+00  0.45593999997E+02  0.45594000000E+02  0.51100000000E-03 0.  1.
         11   -1    0    0    0    0 -0.00000000000E+00 -0.00000000000E+00 -0.45593999997E+02  0.45594000000E+02  0.51100000000E-03 0. -1.
    9900012    2    1    2    0    0 -0.15113797610E+02  0.71914044121E+01 -0.83991281403E+01  0.72461320392E+02  0.69999674455E+02 0.  0.
        -12    1    1    2    0    0  0.15113797610E+02 -0.71914044121E+01  0.83991281403E+01  0.18726679608E+02  0.00000000000E+00 0.  1.
         11    1    3    3    0    0 -0.17096369065E+02 -0.18227628441E+02 -0.12507061477E+02  0.27945641178E+02  0.51100000000E-03 0. -1.
        -11    1    3    3    0    0  0.14608150494E+01  0.15652995357E+02 -0.15828882916E+02  0.22309275624E+02  0.51100000000E-03 0.  1.
        -12    1    3    3    0    0  0.52175640485E+00  0.97660374956E+01  0.19936816253E+02  0.22206403590E+02  0.00000000000E+00 0.  1.
</event>
<event>
 7    1  0.1891413E-013  0.7246156E+02  0.7816164E-02  0.1226708E+00
        -11   -1    0    0    0    0  0.00000000000E+00  0.00000000000E+00  0.45593999997E+02  0.45594000000E+02  0.51100000000E-03 0.  1.
         11   -1    0    0    0    0 -0.00000000000E+00 -0.00000000000E+00 -0.45593999997E+02  0.45594000000E+02  0.51100000000E-03 0. -1.
    9900012    2    1    2    0    0 -0.13563301775E+02 -0.16315982619E+01 -0.12808373331E+02  0.72461556256E+02  0.69999981712E+02 0.  0.
        -12    1    1    2    0    0  0.13563301775E+02  0.16315982619E+01  0.12808373331E+02  0.18726443744E+02  0.00000000000E+00 0.  1.
         11    1    3    3    0    0  0.16109623192E+02  0.36418559908E+01 -0.12826787241E+02  0.20911947438E+02  0.51100000000E-03 0. -1.
        -11    1    3    3    0    0 -0.84182947193E+01 -0.21726335805E+02 -0.58816246574E+01  0.24031122786E+02  0.51100000000E-03 0.  1.
         12    1    3    3    0    0 -0.21254630248E+02  0.16452881553E+02  0.59000385674E+01  0.27518486031E+02  0.00000000000E+00 0. -1.
</event>
<event>
 7    1  0.1891413E-013  0.7246165E+02  0.7816164E-02  0.1226708E+00
        -11   -1    0    0    0    0  0.00000000000E+00  0.00000000000E+00  0.45593999997E+02  0.45594000000E+02  0.51100000000E-03 0.  1.
         11   -1    0    0    0    0 -0.00000000000E+00 -0.00000000000E+00 -0.45593999997E+02  0.45594000000E+02  0.51100000000E-03 0. -1.
    9900012    2    1    2    0    0 -0.10093144605E+02  0.67340377301E+00 -0.15759164094E+02  0.72461647082E+02  0.70000100030E+02 0.  0.
        -12    1    1    2    0    0  0.10093144605E+02 -0.67340377301E+00  0.15759164094E+02  0.18726352918E+02  0.00000000000E+00 0.  1.
         11    1    3    3    0    0 -0.37648483966E-01  0.19664982346E+02 -0.13322231030E+01  0.19710093017E+02  0.51100000000E-03 0. -1.
        -11    1    3    3    0    0 -0.13562231037E+01  0.15226343220E+02 -0.62214449433E+01  0.16504158458E+02  0.51100000000E-03 0.  1.
         12    1    3    3    0    0 -0.86992730174E+01 -0.34217921793E+02 -0.82054960480E+01  0.36247395607E+02  0.00000000000E+00 0. -1.
</event>
<event>
 7    1  0.1891413E-013  0.7246159E+02  0.7816164E-02  0.1226708E+00
        -11   -1    0    0    0    0  0.00000000000E+00  0.00000000000E+00  0.45593999997E+02  0.45594000000E+02  0.51100000000E-03 0.  1.
         11   -1    0    0    0    0 -0.00000000000E+00 -0.00000000000E+00 -0.45593999997E+02  0.45594000000E+02  0.51100000000E-03 0. -1.
    9900012    2    1    2    0    0  0.96752467860E+01 -0.14576227107E+02 -0.66784513644E+01  0.72461587912E+02  0.70000022951E+02 0.  0.
        -12    1    1    2    0    0 -0.96752467860E+01  0.14576227107E+02  0.66784513644E+01  0.18726412088E+02  0.00000000000E+00 0.  1.
         11    1    3    3    0    0  0.25713458862E+02  0.14138013410E+02 -0.92545072742E+01  0.30768673923E+02  0.51100000000E-03 0. -1.
        -11    1    3    3    0    0  0.39439127988E+01  0.15948461674E+01  0.32974651599E+01  0.53824956297E+01  0.51100000000E-03 0.  1.
         12    1    3    3    0    0 -0.19982124874E+02 -0.30309086685E+02 -0.72140925006E+00  0.36310418360E+02  0.00000000000E+00 0. -1.
</event>
<event>
 7    1  0.1891413E-013  0.7246174E+02  0.7816164E-02  0.1226708E+00
        -11   -1    0    0    0    0  0.00000000000E+00  0.00000000000E+00  0.45593999997E+02  0.45594000000E+02  0.51100000000E-03 0.  1.
         11   -1    0    0    0    0 -0.00000000000E+00 -0.00000000000E+00 -0.45593999997E+02  0.45594000000E+02  0.51100000000E-03 0. -1.
    9900012    2    1    2    0    0 -0.17007480768E+02  0.17742148228E+01  0.76335222308E+01  0.72461737641E+02  0.70000218000E+02 0.  0.
        -12    1    1    2    0    0  0.17007480768E+02 -0.17742148228E+01 -0.76335222308E+01  0.18726262359E+02  0.00000000000E+00 0.  1.
         11    1    3    3    0    0 -0.19503649203E+02  0.17528394030E+02 -0.17774200640E+02  0.31679001533E+02  0.51100000000E-03 0. -1.
        -11    1    3    3    0    0  0.64173263276E+01 -0.52670953445E+01 -0.40731430235E+01  0.92474247720E+01  0.51100000000E-03 0.  1.
        -12    1    3    3    0    0 -0.39211578920E+01 -0.10487083863E+02  0.29480865894E+02  0.31535311335E+02  0.00000000000E+00 0.  1.
</event>
<event>
 7    1  0.1891413E-013  0.7246158E+02  0.7816164E-02  0.1226708E+00
        -11   -1    0    0    0    0  0.00000000000E+00  0.00000000000E+00  0.45593999997E+02  0.45594000000E+02  0.51100000000E-03 0.  1.
         11   -1    0    0    0    0 -0.00000000000E+00 -0.00000000000E+00 -0.45593999997E+02  0.45594000000E+02  0.51100000000E-03 0. -1.
    9900012    2    1    2    0    0 -0.52393360012E+01  0.72708416336E+00 -0.17963839358E+02  0.72461579691E+02  0.70000012241E+02 0.  0.
        -12    1    1    2    0    0  0.52393360012E+01 -0.72708416336E+00  0.17963839358E+02  0.18726420309E+02  0.00000000000E+00 0.  1.
         11    1    3    3    0    0  0.91668386172E+01 -0.19778602434E+02  0.57334307277E+01  0.22540990942E+02  0.51100000000E-03 0. -1.
        -11    1    3    3    0    0  0.91573812017E+01  0.66152616900E+00  0.24624222419E+01  0.95057230605E+01  0.51100000000E-03 0.  1.
         12    1    3    3    0    0 -0.23563555820E+02  0.19844160428E+02 -0.26159692327E+02  0.40414865689E+02  0.00000000000E+00 0. -1.
</event>
<event>
 7    1  0.1891413E-013  0.7246153E+02  0.7816164E-02  0.1226708E+00
        -11   -1    0    0    0    0  0.00000000000E+00  0.00000000000E+00  0.45593999997E+02  0.45594000000E+02  0.51100000000E-03 0.  1.
         11   -1    0    0    0    0 -0.00000000000E+00 -0.00000000000E+00 -0.45593999997E+02  0.45594000000E+02  0.51100000000E-03 0. -1.
    9900012    2    1    2    0    0  0.11818132776E+01  0.42646050079E+01 -0.18196078181E+02  0.72461526769E+02  0.69999943300E+02 0.  0.
        -12    1    1    2    0    0 -0.11818132776E+01 -0.42646050079E+01  0.18196078181E+02  0.18726473231E+02  0.00000000000E+00 0.  1.
         11    1    3    3    0    0  0.17383227826E+01 -0.86748474765E+01 -0.14466811709E+02  0.16957694009E+02  0.51100000000E-03 0. -1.
        -11    1    3    3    0    0  0.77006629116E+01  0.27026508485E+01  0.23710104352E+02  0.25075358014E+02  0.51100000000E-03 0.  1.
         12    1    3    3    0    0 -0.82571724166E+01  0.10236801636E+02 -0.27439370825E+02  0.30428474745E+02  0.00000000000E+00 0. -1.
</event>
<event>
 7    1  0.1891413E-013  0.7246157E+02  0.7816164E-02  0.1226708E+00
        -11   -1    0    0    0    0  0.00000000000E+00  0.00000000000E+00  0.45593999997E+02  0.45594000000E+02  0.51100000000E-03 0.  1.
         11   -1    0    0    0    0 -0.00000000000E+00 -0.00000000000E+00 -0.45593999997E+02  0.45594000000E+02  0.51100000000E-03 0. -1.
    9900012    2    1    2    0    0  0.49405050254E+01  0.10530989028E+02 -0.14675445480E+02  0.72461574291E+02  0.70000005206E+02 0.  0.
        -12    1    1    2    0    0 -0.49405050254E+01 -0.10530989028E+02  0.14675445480E+02  0.18726425709E+02  0.00000000000E+00 0.  1.
         11    1    3    3    0    0  0.24147655141E+01  0.72840938018E+01 -0.17721102092E+02  0.19311306911E+02  0.51100000000E-03 0. -1.
        -11    1    3    3    0    0  0.22641893835E+02 -0.40385261263E+01 -0.12989020967E+02  0.26413627461E+02  0.51100000000E-03 0.  1.
         12    1    3    3    0    0 -0.20116154324E+02  0.72854213525E+01  0.16034677579E+02  0.26736639919E+02  0.00000000000E+00 0. -1.
</event>
<event>
 7    1  0.1891413E-013  0.7246146E+02  0.7816164E-02  0.1226708E+00
        -11   -1    0    0    0    0  0.00000000000E+00  0.00000000000E+00  0.45593999997E+02  0.45594000000E+02  0.51100000000E-03 0.  1.
         11   -1    0    0    0    0 -0.00000000000E+00 -0.00000000000E+00 -0.45593999997E+02  0.45594000000E+02  0.51100000000E-03 0. -1.
    9900012    2    1    2    0    0 -0.96056264530E+01 -0.54185959789E+01 -0.15134533507E+02  0.72461458771E+02  0.69999854719E+02 0.  0.
        -12    1    1    2    0    0  0.96056264530E+01  0.54185959789E+01  0.15134533507E+02  0.18726541229E+02  0.00000000000E+00 0.  1.
         11    1    3    3    0    0 -0.46782910300E+01  0.12989650348E+01 -0.19698666968E+01  0.52396652744E+01  0.51100000000E-03 0. -1.
        -11    1    3    3    0    0 -0.24402194342E+02  0.62851059683E+01  0.15977631506E+02  0.29837130468E+02  0.51100000000E-03 0.  1.
         12    1    3    3    0    0  0.19474858919E+02 -0.13002666982E+02 -0.29142298317E+02  0.37384663028E+02  0.00000000000E+00 0. -1.
</event>
<event>
 7    1  0.1891413E-013  0.7246155E+02  0.7816164E-02  0.1226708E+00
        -11   -1    0    0    0    0  0.00000000000E+00  0.00000000000E+00  0.45593999997E+02  0.45594000000E+02  0.51100000000E-03 0.  1.
         11   -1    0    0    0    0 -0.00000000000E+00 -0.00000000000E+00 -0.45593999997E+02  0.45594000000E+02  0.51100000000E-03 0. -1.
    9900012    2    1    2    0    0  0.14081529920E+01  0.12097246151E+02 -0.14225109818E+02  0.72461547890E+02  0.69999970815E+02 0.  0.
        -12    1    1    2    0    0 -0.14081529920E+01 -0.12097246151E+02  0.14225109818E+02  0.18726452110E+02  0.00000000000E+00 0.  1.
         11    1    3    3    0    0 -0.76573471990E+01  0.18182509695E+02  0.71865300400E+01  0.20997257898E+02  0.51100000000E-03 0. -1.
        -11    1    3    3    0    0  0.33608118862E+01  0.11442765030E+02  0.96525301078E+01  0.15342857159E+02  0.51100000000E-03 0.  1.
         12    1    3    3    0    0  0.57046883049E+01 -0.17528028574E+02 -0.31064169965E+02  0.36121432834E+02  0.00000000000E+00 0. -1.
</event>
<event>
 7    1  0.1891413E-013  0.7246153E+02  0.7816164E-02  0.1226708E+00
        -11   -1    0    0    0    0  0.00000000000E+00  0.00000000000E+00  0.45593999997E+02  0.45594000000E+02  0.51100000000E-03 0. -1.
         11   -1    0    0    0    0 -0.00000000000E+00 -0.00000000000E+00 -0.45593999997E+02  0.45594000000E+02  0.51100000000E-03 0.  1.
    9900012    2    1    2    0    0  0.10331897533E+02 -0.14730587686E+02  0.51906172666E+01  0.72461526017E+02  0.69999942321E+02 0.  0.
        -12    1    1    2    0    0 -0.10331897533E+02  0.14730587686E+02 -0.51906172666E+01  0.18726473983E+02  0.00000000000E+00 0.  1.
         11    1    3    3    0    0  0.13610949614E+01 -0.53615583872E+01  0.19073092436E+02  0.19859046885E+02  0.51100000000E-03 0. -1.
        -11    1    3    3    0    0 -0.85845050932E+01  0.17008107983E+02 -0.50760314281E+01  0.19716377968E+02  0.51100000000E-03 0.  1.
        -12    1    3    3    0    0  0.17555307665E+02 -0.26377137282E+02 -0.88064437415E+01  0.32886101164E+02  0.00000000000E+00 0.  1.
</event>
<event>
 7    1  0.1891413E-013  0.7246150E+02  0.7816164E-02  0.1226708E+00
        -11   -1    0    0    0    0  0.00000000000E+00  0.00000000000E+00  0.45593999997E+02  0.45594000000E+02  0.51100000000E-03 0. -1.
         11   -1    0    0    0    0 -0.00000000000E+00 -0.00000000000E+00 -0.45593999997E+02  0.45594000000E+02  0.51100000000E-03 0.  1.
    9900012    2    1    2    0    0 -0.11013035803E+02  0.61779595641E+01  0.13828515576E+02  0.72461495120E+02  0.69999902071E+02 0.  0.
        -12    1    1    2    0    0  0.11013035803E+02 -0.61779595641E+01 -0.13828515576E+02  0.18726504880E+02  0.00000000000E+00 0.  1.
         11    1    3    3    0    0 -0.10757103576E+02  0.20573680709E+02  0.19571927135E+02  0.30365308286E+02  0.51100000000E-03 0. -1.
        -11    1    3    3    0    0 -0.24576734031E+01  0.94600910448E+01  0.95569479416E+01  0.13669993978E+02  0.51100000000E-03 0.  1.
        -12    1    3    3    0    0  0.22017411756E+01 -0.23855812190E+02 -0.15300359501E+02  0.28426192856E+02  0.00000000000E+00 0.  1.
</event>
<event>
 7    1  0.1891413E-013  0.7246154E+02  0.7816164E-02  0.1226708E+00
        -11   -1    0    0    0    0  0.00000000000E+00  0.00000000000E+00  0.45593999997E+02  0.45594000000E+02  0.51100000000E-03 0. -1.
         11   -1    0    0    0    0 -0.00000000000E+00 -0.00000000000E+00 -0.45593999997E+02  0.45594000000E+02  0.51100000000E-03 0.  1.
    9900012    2    1    2    0    0 -0.12523493445E+02  0.13242811190E+02 -0.42977211696E+01  0.72461538948E+02  0.69999959166E+02 0.  0.
        -12    1    1    2    0    0  0.12523493445E+02 -0.13242811190E+02  0.42977211696E+01  0.18726461052E+02  0.00000000000E+00 0.  1.
         11    1    3    3    0    0 -0.44902195144E+01  0.56548861158E+01 -0.10853490750E+02  0.13036029687E+02  0.51100000000E-03 0. -1.
        -11    1    3    3    0    0 -0.84290100696E+01 -0.20653870883E+02  0.18283441356E+02  0.28842933646E+02  0.51100000000E-03 0.  1.
         12    1    3    3    0    0  0.39573613885E+00  0.28241795957E+02 -0.11727671776E+02  0.30582575615E+02  0.00000000000E+00 0. -1.
</event>
<event>
 7    1  0.1891413E-013  0.7246148E+02  0.7816164E-02  0.1226708E+00
        -11   -1    0    0    0    0  0.00000000000E+00  0.00000000000E+00  0.45593999997E+02  0.45594000000E+02  0.51100000000E-03 0. -1.
         11   -1    0    0    0    0 -0.00000000000E+00 -0.00000000000E+00 -0.45593999997E+02  0.45594000000E+02  0.51100000000E-03 0.  1.
    9900012    2    1    2    0    0 -0.18473217719E+02  0.19001437334E+01  0.24108771576E+01  0.72461477425E+02  0.69999879020E+02 0.  0.
        -12    1    1    2    0    0  0.18473217719E+02 -0.19001437334E+01 -0.24108771576E+01  0.18726522575E+02  0.00000000000E+00 0.  1.
         11    1    3    3    0    0 -0.56693600245E+01 -0.57088638188E+01 -0.14846128014E+02  0.16886097431E+02  0.51100000000E-03 0. -1.
        -11    1    3    3    0    0 -0.16914245651E+02  0.27618473234E+02  0.99444353254E+01  0.33878659417E+02  0.51100000000E-03 0.  1.
         12    1    3    3    0    0  0.41103879570E+01 -0.20009465682E+02  0.73125698459E+01  0.21696720577E+02  0.00000000000E+00 0. -1.
</event>
<event>
 7    1  0.1891413E-013  0.7246157E+02  0.7816164E-02  0.1226708E+00
        -11   -1    0    0    0    0  0.00000000000E+00  0.00000000000E+00  0.45593999997E+02  0.45594000000E+02  0.51100000000E-03 0.  1.
         11   -1    0    0    0    0 -0.00000000000E+00 -0.00000000000E+00 -0.45593999997E+02  0.45594000000E+02  0.51100000000E-03 0. -1.
    9900012    2    1    2    0    0  0.25561617519E+01  0.10691393764E+02 -0.15160457176E+02  0.72461566135E+02  0.69999994581E+02 0.  0.
        -12    1    1    2    0    0 -0.25561617519E+01 -0.10691393764E+02  0.15160457176E+02  0.18726433865E+02  0.00000000000E+00 0.  1.
         11    1    3    3    0    0  0.16375719089E+02  0.18818008242E+02  0.43602365259E+01  0.25323768928E+02  0.51100000000E-03 0. -1.
        -11    1    3    3    0    0 -0.10597468695E+02  0.27676646917E+01  0.10417873933E+02  0.15116163803E+02  0.51100000000E-03 0.  1.
         12    1    3    3    0    0 -0.32220886421E+01 -0.10894279169E+02 -0.29938567635E+02  0.32021633404E+02  0.00000000000E+00 0. -1.
</event>
<event>
 7    1  0.1891413E-013  0.7246160E+02  0.7816164E-02  0.1226708E+00
        -11   -1    0    0    0    0  0.00000000000E+00  0.00000000000E+00  0.45593999997E+02  0.45594000000E+02  0.51100000000E-03 0.  1.
         11   -1    0    0    0    0 -0.00000000000E+00 -0.00000000000E+00 -0.45593999997E+02  0.45594000000E+02  0.51100000000E-03 0. -1.
    9900012    2    1    2    0    0  0.16189136556E+02  0.33955276083E+01 -0.87784057599E+01  0.72461597306E+02  0.70000035187E+02 0.  0.
        -12    1    1    2    0    0 -0.16189136556E+02 -0.33955276083E+01  0.87784057599E+01  0.18726402694E+02  0.00000000000E+00 0.  1.
         11    1    3    3    0    0 -0.10750324637E+02 -0.10808870309E+02 -0.16152770850E+02  0.22210654280E+02  0.51100000000E-03 0. -1.
        -11    1    3    3    0    0 -0.65709435937E+01 -0.72227836752E+01  0.31095532263E+01  0.10247693656E+02  0.51100000000E-03 0.  1.
         12    1    3    3    0    0  0.33510404787E+02  0.21427181592E+02  0.42648118634E+01  0.40003249371E+02  0.00000000000E+00 0. -1.
</event>
<event>
 7    1  0.1891413E-013  0.7246157E+02  0.7816164E-02  0.1226708E+00
        -11   -1    0    0    0    0  0.00000000000E+00  0.00000000000E+00  0.45593999997E+02  0.45594000000E+02  0.51100000000E-03 0. -1.
         11   -1    0    0    0    0 -0.00000000000E+00 -0.00000000000E+00 -0.45593999997E+02  0.45594000000E+02  0.51100000000E-03 0.  1.
    9900012    2    1    2    0    0  0.93319367302E+01 -0.13059596337E+02 -0.96457715693E+01  0.72461574586E+02  0.70000005591E+02 0.  0.
        -12    1    1    2    0    0 -0.93319367302E+01  0.13059596337E+02  0.96457715693E+01  0.18726425414E+02  0.00000000000E+00 0.  1.
         11    1    3    3    0    0  0.14806985705E+02  0.37183115275E+00  0.49791649400E+01  0.15626169327E+02  0.51100000000E-03 0. -1.
        -11    1    3    3    0    0 -0.14849769284E+00  0.15631216366E+02 -0.21419970260E+02  0.26517392459E+02  0.51100000000E-03 0.  1.
         12    1    3    3    0    0 -0.53265512819E+01 -0.29062643856E+02  0.67950337506E+01  0.30318012800E+02  0.00000000000E+00 0. -1.
</event>
<event>
 7    1  0.1891413E-013  0.7246163E+02  0.7816164E-02  0.1226708E+00
        -11   -1    0    0    0    0  0.00000000000E+00  0.00000000000E+00  0.45593999997E+02  0.45594000000E+02  0.51100000000E-03 0.  1.
         11   -1    0    0    0    0 -0.00000000000E+00 -0.00000000000E+00 -0.45593999997E+02  0.45594000000E+02  0.51100000000E-03 0. -1.
    9900012    2    1    2    0    0  0.13982801727E+02 -0.74069025252E+01 -0.10014788975E+02  0.72461629626E+02  0.70000077291E+02 0.  0.
        -12    1    1    2    0    0 -0.13982801727E+02  0.74069025252E+01  0.10014788975E+02  0.18726370374E+02  0.00000000000E+00 0.  1.
         11    1    3    3    0    0 -0.65029851286E+01  0.96490991879E+01 -0.26804370761E+01  0.11940631219E+02  0.51100000000E-03 0.  1.
        -11    1    3    3    0    0  0.24224493988E+02 -0.32059522013E+02  0.53296611837E+01  0.40534483459E+02  0.51100000000E-03 0. -1.
         12    1    3    3    0    0 -0.37387071318E+01  0.15003520300E+02 -0.12664013083E+02  0.19986514948E+02  0.00000000000E+00 0. -1.
</event>
<event>
 7    1  0.1891413E-013  0.7246158E+02  0.7816164E-02  0.1226708E+00
        -11   -1    0    0    0    0  0.00000000000E+00  0.00000000000E+00  0.45593999997E+02  0.45594000000E+02  0.51100000000E-03 0.  1.
         11   -1    0    0    0    0 -0.00000000000E+00 -0.00000000000E+00 -0.45593999997E+02  0.45594000000E+02  0.51100000000E-03 0. -1.
    9900012    2    1    2    0    0  0.16668335024E+02 -0.68946948459E+01  0.50307690007E+01  0.72461578927E+02  0.70000011245E+02 0.  0.
        -12    1    1    2    0    0 -0.16668335024E+02  0.68946948459E+01 -0.50307690007E+01  0.18726421073E+02  0.00000000000E+00 0.  1.
         11    1    3    3    0    0 -0.15232732172E+01  0.17381895063E+02 -0.16722107570E+02  0.24167737154E+02  0.51100000000E-03 0. -1.
        -11    1    3    3    0    0 -0.67702718649E+01  0.11100833983E+01  0.68581916375E+01  0.97007040504E+01  0.51100000000E-03 0.  1.
        -12    1    3    3    0    0  0.24961880106E+02 -0.25386673307E+02  0.14894684934E+02  0.38593137723E+02  0.00000000000E+00 0.  1.
</event>
<event>
 7    1  0.1891413E-013  0.7246158E+02  0.7816164E-02  0.1226708E+00
        -11   -1    0    0    0    0  0.00000000000E+00  0.00000000000E+00  0.45593999997E+02  0.45594000000E+02  0.51100000000E-03 0.  1.
         11   -1    0    0    0    0 -0.00000000000E+00 -0.00000000000E+00 -0.45593999997E+02  0.45594000000E+02  0.51100000000E-03 0. -1.
    9900012    2    1    2    0    0  0.61054765646E+01  0.16520864413E+02 -0.63610520039E+01  0.72461580491E+02  0.70000013283E+02 0.  0.
        -12    1    1    2    0    0 -0.61054765646E+01 -0.16520864413E+02  0.63610520039E+01  0.18726419509E+02  0.00000000000E+00 0.  1.
         11    1    3    3    0    0  0.12823962300E+02  0.21993563263E+02 -0.15304558966E+02  0.29705224447E+02  0.51100000000E-03 0. -1.
        -11    1    3    3    0    0 -0.13449086124E+02  0.14885035807E+02  0.17362929544E+01  0.20135960917E+02  0.51100000000E-03 0.  1.
         12    1    3    3    0    0  0.67306003883E+01 -0.20357734657E+02  0.72072140077E+01  0.22620395127E+02  0.00000000000E+00 0. -1.
</event>
<event>
 7    1  0.1891413E-013  0.7246156E+02  0.7816164E-02  0.1226708E+00
        -11   -1    0    0    0    0  0.00000000000E+00  0.00000000000E+00  0.45593999997E+02  0.45594000000E+02  0.51100000000E-03 0. -1.
         11   -1    0    0    0    0 -0.00000000000E+00 -0.00000000000E+00 -0.45593999997E+02  0.45594000000E+02  0.51100000000E-03 0.  1.
    9900012    2    1    2    0    0  0.59042195460E+01  0.11193245462E+02  0.13803303380E+02  0.72461555152E+02  0.69999980275E+02 0.  0.
        -12    1    1    2    0    0 -0.59042195460E+01 -0.11193245462E+02 -0.13803303380E+02  0.18726444848E+02  0.00000000000E+00 0.  1.
         11    1    3    3    0    0 -0.10704765922E+02  0.11810351862E+02  0.12500042971E+02  0.20256542131E+02  0.51100000000E-03 0. -1.
        -11    1    3    3    0    0 -0.56752112466E+01  0.17231156184E+02 -0.10890343612E+02  0.21159403356E+02  0.51100000000E-03 0.  1.
         12    1    3    3    0    0  0.22284196715E+02 -0.17848262584E+02  0.12193604021E+02  0.31045609666E+02  0.00000000000E+00 0. -1.
</event>
<event>
 7    1  0.1891413E-013  0.7246164E+02  0.7816164E-02  0.1226708E+00
        -11   -1    0    0    0    0  0.00000000000E+00  0.00000000000E+00  0.45593999997E+02  0.45594000000E+02  0.51100000000E-03 0.  1.
         11   -1    0    0    0    0 -0.00000000000E+00 -0.00000000000E+00 -0.45593999997E+02  0.45594000000E+02  0.51100000000E-03 0. -1.
    9900012    2    1    2    0    0 -0.15410394796E+02 -0.93292213943E+01 -0.51148585169E+01  0.72461643781E+02  0.70000095730E+02 0.  0.
        -12    1    1    2    0    0  0.15410394796E+02  0.93292213943E+01  0.51148585169E+01  0.18726356219E+02  0.00000000000E+00 0.  1.
         11    1    3    3    0    0 -0.11471525221E+02 -0.14430892144E+02 -0.18906617406E+02  0.26406565869E+02  0.51100000000E-03 0. -1.
        -11    1    3    3    0    0 -0.55117372263E+01 -0.13957848585E+02  0.20833469233E+02  0.25675556954E+02  0.51100000000E-03 0.  1.
        -12    1    3    3    0    0  0.15728676515E+01  0.19059519335E+02 -0.70417103436E+01  0.20379520958E+02  0.00000000000E+00 0.  1.
</event>
<event>
 7    1  0.1891413E-013  0.7246157E+02  0.7816164E-02  0.1226708E+00
        -11   -1    0    0    0    0  0.00000000000E+00  0.00000000000E+00  0.45593999997E+02  0.45594000000E+02  0.51100000000E-03 0.  1.
         11   -1    0    0    0    0 -0.00000000000E+00 -0.00000000000E+00 -0.45593999997E+02  0.45594000000E+02  0.51100000000E-03 0. -1.
    9900012    2    1    2    0    0  0.16081384760E+02  0.84044607099E+01 -0.46296191197E+01  0.72461567644E+02  0.69999996547E+02 0.  0.
        -12    1    1    2    0    0 -0.16081384760E+02 -0.84044607099E+01  0.46296191197E+01  0.18726432356E+02  0.00000000000E+00 0.  1.
         11    1    3    3    0    0 -0.45280296655E+01 -0.12275107332E+02 -0.43680632447E+00  0.13090917183E+02  0.51100000000E-03 0.  1.
        -11    1    3    3    0    0 -0.16678735136E+02  0.22558111387E+01  0.31869089444E+01  0.17129660782E+02  0.51100000000E-03 0. -1.
         12    1    3    3    0    0  0.37288149561E+02  0.18423756903E+02 -0.73797217396E+01  0.42240989679E+02  0.00000000000E+00 0. -1.
</event>
<event>
 7    1  0.1891413E-013  0.7246143E+02  0.7816164E-02  0.1226708E+00
        -11   -1    0    0    0    0  0.00000000000E+00  0.00000000000E+00  0.45593999997E+02  0.45594000000E+02  0.51100000000E-03 0. -1.
         11   -1    0    0    0    0 -0.00000000000E+00 -0.00000000000E+00 -0.45593999997E+02  0.45594000000E+02  0.51100000000E-03 0.  1.
    9900012    2    1    2    0    0 -0.85882448098E+01 -0.16637613348E+02  0.34100083685E+00  0.72461430416E+02  0.69999817782E+02 0.  0.
        -12    1    1    2    0    0  0.85882448098E+01  0.16637613348E+02 -0.34100083685E+00  0.18726569584E+02  0.00000000000E+00 0.  1.
         11    1    3    3    0    0 -0.11008220820E+02 -0.29401552840E+02  0.61785636640E+01  0.31996982424E+02  0.51100000000E-03 0. -1.
        -11    1    3    3    0    0 -0.12036758743E+02 -0.80672340356E+01 -0.40493888914E+01  0.15045310787E+02  0.51100000000E-03 0.  1.
        -12    1    3    3    0    0  0.14456734752E+02  0.20831173528E+02 -0.17881739358E+01  0.25419137206E+02  0.00000000000E+00 0.  1.
</event>
<event>
 7    1  0.1891413E-013  0.7246156E+02  0.7816164E-02  0.1226708E+00
        -11   -1    0    0    0    0  0.00000000000E+00  0.00000000000E+00  0.45593999997E+02  0.45594000000E+02  0.51100000000E-03 0.  1.
         11   -1    0    0    0    0 -0.00000000000E+00 -0.00000000000E+00 -0.45593999997E+02  0.45594000000E+02  0.51100000000E-03 0. -1.
    9900012    2    1    2    0    0 -0.53503317783E+01 -0.17939818940E+02 -0.46526373830E+00  0.72461558157E+02  0.69999984189E+02 0.  0.
        -12    1    1    2    0    0  0.53503317783E+01  0.17939818940E+02  0.46526373830E+00  0.18726441843E+02  0.00000000000E+00 0.  1.
         11    1    3    3    0    0  0.40606534388E+01  0.21874920128E+02 -0.14488775121E+02  0.26550435811E+02  0.51100000000E-03 0. -1.
        -11    1    3    3    0    0 -0.66200873492E+01 -0.47697201222E+01  0.27986098758E+00  0.81641967754E+01  0.51100000000E-03 0.  1.
        -12    1    3    3    0    0 -0.27908978679E+01 -0.35045018946E+02  0.13743650395E+02  0.37746925571E+02  0.00000000000E+00 0.  1.
</event>
<event>
 7    1  0.1891413E-013  0.7246160E+02  0.7816164E-02  0.1226708E+00
        -11   -1    0    0    0    0  0.00000000000E+00  0.00000000000E+00  0.45593999997E+02  0.45594000000E+02  0.51100000000E-03 0. -1.
         11   -1    0    0    0    0 -0.00000000000E+00 -0.00000000000E+00 -0.45593999997E+02  0.45594000000E+02  0.51100000000E-03 0.  1.
    9900012    2    1    2    0    0  0.96164959483E+01 -0.68380506565E+01  0.14541051432E+02  0.72461598641E+02  0.70000036927E+02 0.  0.
        -12    1    1    2    0    0 -0.96164959483E+01  0.68380506565E+01 -0.14541051432E+02  0.18726401359E+02  0.00000000000E+00 0.  1.
         11    1    3    3    0    0 -0.20413545617E+02 -0.18721090972E+02  0.11060476494E+02  0.29824926360E+02  0.51100000000E-03 0. -1.
        -11    1    3    3    0    0 -0.51979397104E+01  0.29406814072E+01  0.18610297162E+01  0.62553669947E+01  0.51100000000E-03 0.  1.
        -12    1    3    3    0    0  0.35227981276E+02  0.89423589087E+01  0.16195452218E+01  0.36381305287E+02  0.00000000000E+00 0.  1.
</event>
<event>
 7    1  0.1891413E-013  0.7246161E+02  0.7816164E-02  0.1226708E+00
        -11   -1    0    0    0    0  0.00000000000E+00  0.00000000000E+00  0.45593999997E+02  0.45594000000E+02  0.51100000000E-03 0.  1.
         11   -1    0    0    0    0 -0.00000000000E+00 -0.00000000000E+00 -0.45593999997E+02  0.45594000000E+02  0.51100000000E-03 0. -1.
    9900012    2    1    2    0    0  0.10512946273E+02  0.44014795379E+00 -0.15490708229E+02  0.72461606568E+02  0.70000047253E+02 0.  0.
        -12    1    1    2    0    0 -0.10512946273E+02 -0.44014795379E+00  0.15490708229E+02  0.18726393432E+02  0.00000000000E+00 0.  1.
         11    1    3    3    0    0  0.22333720542E+02 -0.34911113681E+01 -0.65747897067E+01  0.23541682008E+02  0.51100000000E-03 0. -1.
        -11    1    3    3    0    0  0.89717055126E+01 -0.66656121109E+01  0.12834145726E+02  0.17018730311E+02  0.51100000000E-03 0.  1.
        -12    1    3    3    0    0 -0.20792479782E+02  0.10596871433E+02 -0.21750064248E+02  0.31901194248E+02  0.00000000000E+00 0.  1.
</event>
<event>
 7    1  0.1891413E-013  0.7246157E+02  0.7816164E-02  0.1226708E+00
        -11   -1    0    0    0    0  0.00000000000E+00  0.00000000000E+00  0.45593999997E+02  0.45594000000E+02  0.51100000000E-03 0.  1.
         11   -1    0    0    0    0 -0.00000000000E+00 -0.00000000000E+00 -0.45593999997E+02  0.45594000000E+02  0.51100000000E-03 0. -1.
    9900012    2    1    2    0    0 -0.16951978966E+00  0.15090439864E+02 -0.11087337527E+02  0.72461570397E+02  0.70000000134E+02 0.  0.
        -12    1    1    2    0    0  0.16951978966E+00 -0.15090439864E+02  0.11087337527E+02  0.18726429603E+02  0.00000000000E+00 0.  1.
         11    1    3    3    0    0 -0.74015718221E+01  0.53572383501E+01  0.19458653361E+02  0.21497033727E+02  0.51100000000E-03 0.  1.
        -11    1    3    3    0    0  0.76417083672E+01  0.16682931268E+02  0.12719739499E+01  0.18393852790E+02  0.51100000000E-03 0. -1.
         12    1    3    3    0    0 -0.40965633476E+00 -0.69497297542E+01 -0.31817964838E+02  0.32570683880E+02  0.00000000000E+00 0. -1.
</event>
<event>
 7    1  0.1891413E-013  0.7246156E+02  0.7816164E-02  0.1226708E+00
        -11   -1    0    0    0    0  0.00000000000E+00  0.00000000000E+00  0.45593999997E+02  0.45594000000E+02  0.51100000000E-03 0.  1.
         11   -1    0    0    0    0 -0.00000000000E+00 -0.00000000000E+00 -0.45593999997E+02  0.45594000000E+02  0.51100000000E-03 0. -1.
    9900012    2    1    2    0    0 -0.15953655661E+01 -0.15713966981E+02 -0.10060099173E+02  0.72461560271E+02  0.69999986942E+02 0.  0.
        -12    1    1    2    0    0  0.15953655661E+01  0.15713966981E+02  0.10060099173E+02  0.18726439729E+02  0.00000000000E+00 0.  1.
         11    1    3    3    0    0  0.13370699016E+01 -0.18794247467E+02 -0.11525264059E+02  0.22087172876E+02  0.51100000000E-03 0. -1.
        -11    1    3    3    0    0 -0.24351809843E+01 -0.20668443028E+02  0.12398864755E+02  0.24224914677E+02  0.51100000000E-03 0.  1.
         12    1    3    3    0    0 -0.49725448347E+00  0.23748723514E+02 -0.10933699869E+02  0.26149472718E+02  0.00000000000E+00 0. -1.
</event>
<event>
 7    1  0.1891413E-013  0.7246157E+02  0.7816164E-02  0.1226708E+00
        -11   -1    0    0    0    0  0.00000000000E+00  0.00000000000E+00  0.45593999997E+02  0.45594000000E+02  0.51100000000E-03 0.  1.
         11   -1    0    0    0    0 -0.00000000000E+00 -0.00000000000E+00 -0.45593999997E+02  0.45594000000E+02  0.51100000000E-03 0. -1.
    9900012    2    1    2    0    0 -0.51577810280E+01  0.11830533983E+02 -0.13568902426E+02  0.72461565409E+02  0.69999993636E+02 0.  0.
        -12    1    1    2    0    0  0.51577810280E+01 -0.11830533983E+02  0.13568902426E+02  0.18726434591E+02  0.00000000000E+00 0.  1.
         11    1    3    3    0    0 -0.71609971806E+01  0.83192751986E+00 -0.16093259520E+02  0.17634199337E+02  0.51100000000E-03 0. -1.
        -11    1    3    3    0    0 -0.22548099876E+02  0.61877780412E+01 -0.11596130754E+02  0.26099342019E+02  0.51100000000E-03 0.  1.
         12    1    3    3    0    0  0.24551316029E+02  0.48108284221E+01  0.14120487848E+02  0.28728024052E+02  0.00000000000E+00 0. -1.
</event>
<event>
 7    1  0.1891413E-013  0.7246162E+02  0.7816164E-02  0.1226708E+00
        -11   -1    0    0    0    0  0.00000000000E+00  0.00000000000E+00  0.45593999997E+02  0.45594000000E+02  0.51100000000E-03 0.  1.
         11   -1    0    0    0    0 -0.00000000000E+00 -0.00000000000E+00 -0.45593999997E+02  0.45594000000E+02  0.51100000000E-03 0. -1.
    9900012    2    1    2    0    0  0.56137076416E+01 -0.76366265434E+00 -0.17848817624E+02  0.72461623289E+02  0.70000069036E+02 0.  0.
        -12    1    1    2    0    0 -0.56137076416E+01  0.76366265434E+00  0.17848817624E+02  0.18726376711E+02  0.00000000000E+00 0.  1.
         11    1    3    3    0    0 -0.59088131190E+01  0.16573734074E+01  0.86728970660E+01  0.10624504829E+02  0.51100000000E-03 0. -1.
        -11    1    3    3    0    0  0.21847313456E+02  0.19079426869E+02 -0.44586814090E+01  0.29346370731E+02  0.51100000000E-03 0.  1.
         12    1    3    3    0    0 -0.10324792696E+02 -0.21500462931E+02 -0.22063033281E+02  0.32490747729E+02  0.00000000000E+00 0. -1.
</event>
<event>
 7    1  0.1891413E-013  0.7246150E+02  0.7816164E-02  0.1226708E+00
        -11   -1    0    0    0    0  0.00000000000E+00  0.00000000000E+00  0.45593999997E+02  0.45594000000E+02  0.51100000000E-03 0.  1.
         11   -1    0    0    0    0 -0.00000000000E+00 -0.00000000000E+00 -0.45593999997E+02  0.45594000000E+02  0.51100000000E-03 0. -1.
    9900012    2    1    2    0    0  0.11176518307E+01  0.16217536954E+02 -0.92964535797E+01  0.72461502740E+02  0.69999911997E+02 0.  0.
        -12    1    1    2    0    0 -0.11176518307E+01 -0.16217536954E+02  0.92964535797E+01  0.18726497260E+02  0.00000000000E+00 0.  1.
         11    1    3    3    0    0 -0.28687405284E+01  0.12786978982E+02  0.13899582593E+02  0.19103269360E+02  0.51100000000E-03 0. -1.
        -11    1    3    3    0    0 -0.96754220331E+01 -0.87068224516E+00  0.11953114021E+02  0.15402883306E+02  0.51100000000E-03 0.  1.
         12    1    3    3    0    0  0.13661814392E+02  0.43012402174E+01 -0.35149150193E+02  0.37955350074E+02  0.00000000000E+00 0. -1.
</event>
<event>
 7    1  0.1891413E-013  0.7246162E+02  0.7816164E-02  0.1226708E+00
        -11   -1    0    0    0    0  0.00000000000E+00  0.00000000000E+00  0.45593999997E+02  0.45594000000E+02  0.51100000000E-03 0.  1.
         11   -1    0    0    0    0 -0.00000000000E+00 -0.00000000000E+00 -0.45593999997E+02  0.45594000000E+02  0.51100000000E-03 0. -1.
    9900012    2    1    2    0    0  0.14368449621E+02  0.11976266339E+02  0.89099516724E+00  0.72461623620E+02  0.70000069466E+02 0.  0.
        -12    1    1    2    0    0 -0.14368449621E+02 -0.11976266339E+02 -0.89099516724E+00  0.18726376380E+02  0.00000000000E+00 0.  1.
         11    1    3    3    0    0 -0.16244434750E+01  0.12562788422E+02 -0.12362987629E+02  0.17700450077E+02  0.51100000000E-03 0. -1.
        -11    1    3    3    0    0  0.38480417151E+01  0.47058880736E+00 -0.19463747071E+02  0.19846065836E+02  0.51100000000E-03 0.  1.
        -12    1    3    3    0    0  0.12144851381E+02 -0.10571108902E+01  0.32717729867E+02  0.34915107707E+02  0.00000000000E+00 0.  1.
</event>
<event>
 7    1  0.1891413E-013  0.7246154E+02  0.7816164E-02  0.1226708E+00
        -11   -1    0    0    0    0  0.00000000000E+00  0.00000000000E+00  0.45593999997E+02  0.45594000000E+02  0.51100000000E-03 0. -1.
         11   -1    0    0    0    0 -0.00000000000E+00 -0.00000000000E+00 -0.45593999997E+02  0.45594000000E+02  0.51100000000E-03 0.  1.
    9900012    2    1    2    0    0 -0.11102327679E+02 -0.86938365304E+01  0.12322174994E+02  0.72461535569E+02  0.69999954764E+02 0.  0.
        -12    1    1    2    0    0  0.11102327679E+02  0.86938365304E+01 -0.12322174994E+02  0.18726464431E+02  0.00000000000E+00 0.  1.
         11    1    3    3    0    0 -0.10509596020E+02  0.56917957101E+01 -0.11620547051E+02  0.16669890850E+02  0.51100000000E-03 0. -1.
        -11    1    3    3    0    0  0.77793980264E+01 -0.15585298687E+02 -0.10491132745E+02  0.20334316693E+02  0.51100000000E-03 0.  1.
         12    1    3    3    0    0 -0.83721296855E+01  0.11996664469E+01  0.34433854790E+02  0.35457328026E+02  0.00000000000E+00 0. -1.
</event>
<event>
 7    1  0.1891413E-013  0.7246166E+02  0.7816164E-02  0.1226708E+00
        -11   -1    0    0    0    0  0.00000000000E+00  0.00000000000E+00  0.45593999997E+02  0.45594000000E+02  0.51100000000E-03 0.  1.
         11   -1    0    0    0    0 -0.00000000000E+00 -0.00000000000E+00 -0.45593999997E+02  0.45594000000E+02  0.51100000000E-03 0. -1.
    9900012    2    1    2    0    0 -0.17606011428E+02 -0.57793829490E+01 -0.27023724844E+01  0.72461662325E+02  0.70000119887E+02 0.  0.
        -12    1    1    2    0    0  0.17606011428E+02  0.57793829490E+01  0.27023724844E+01  0.18726337675E+02  0.00000000000E+00 0.  1.
         11    1    3    3    0    0  0.68999256519E+01 -0.12775502386E+02  0.17273828384E+00  0.14520753217E+02  0.51100000000E-03 0. -1.
        -11    1    3    3    0    0  0.17815854234E+01  0.20093779911E+02  0.13539758462E+02  0.24295248449E+02  0.51100000000E-03 0.  1.
         12    1    3    3    0    0 -0.26287522504E+02 -0.13097660474E+02 -0.16414869230E+02  0.33645660658E+02  0.00000000000E+00 0. -1.
</event>
<event>
 7    1  0.1891413E-013  0.7246161E+02  0.7816164E-02  0.1226708E+00
        -11   -1    0    0    0    0  0.00000000000E+00  0.00000000000E+00  0.45593999997E+02  0.45594000000E+02  0.51100000000E-03 0. -1.
         11   -1    0    0    0    0 -0.00000000000E+00 -0.00000000000E+00 -0.45593999997E+02  0.45594000000E+02  0.51100000000E-03 0.  1.
    9900012    2    1    2    0    0  0.15861293419E+02 -0.68912272946E+00  0.99308758725E+01  0.72461606470E+02  0.70000047125E+02 0.  0.
        -12    1    1    2    0    0 -0.15861293419E+02  0.68912272946E+00 -0.99308758725E+01  0.18726393530E+02  0.00000000000E+00 0.  1.
         11    1    3    3    0    0  0.57896712519E+01  0.83015163913E+01  0.11977338779E+02  0.15680947423E+02  0.51100000000E-03 0. -1.
        -11    1    3    3    0    0 -0.20989911874E+02 -0.34695465734E+01 -0.11049194443E+02  0.23972877424E+02  0.51100000000E-03 0.  1.
         12    1    3    3    0    0  0.31061534041E+02 -0.55210925473E+01  0.90027315357E+01  0.32807781622E+02  0.00000000000E+00 0. -1.
</event>
<event>
 7    1  0.1891413E-013  0.7246158E+02  0.7816164E-02  0.1226708E+00
        -11   -1    0    0    0    0  0.00000000000E+00  0.00000000000E+00  0.45593999997E+02  0.45594000000E+02  0.51100000000E-03 0.  1.
         11   -1    0    0    0    0 -0.00000000000E+00 -0.00000000000E+00 -0.45593999997E+02  0.45594000000E+02  0.51100000000E-03 0. -1.
    9900012    2    1    2    0    0 -0.87407700526E+01 -0.15635780326E+02 -0.54589466169E+01  0.72461580543E+02  0.70000013350E+02 0.  0.
        -12    1    1    2    0    0  0.87407700526E+01  0.15635780326E+02  0.54589466169E+01  0.18726419457E+02  0.00000000000E+00 0.  1.
         11    1    3    3    0    0  0.10870319363E+02 -0.78994619720E+00  0.52676918138E+01  0.12105223474E+02  0.51100000000E-03 0. -1.
        -11    1    3    3    0    0 -0.32790999469E+02 -0.12428363109E+02  0.92823075381E+01  0.36274992615E+02  0.51100000000E-03 0.  1.
         12    1    3    3    0    0  0.13179910053E+02 -0.24174710200E+01 -0.20008945969E+02  0.24081364453E+02  0.00000000000E+00 0. -1.
</event>
<event>
 7    1  0.1891413E-013  0.7246160E+02  0.7816164E-02  0.1226708E+00
        -11   -1    0    0    0    0  0.00000000000E+00  0.00000000000E+00  0.45593999997E+02  0.45594000000E+02  0.51100000000E-03 0.  1.
         11   -1    0    0    0    0 -0.00000000000E+00 -0.00000000000E+00 -0.45593999997E+02  0.45594000000E+02  0.51100000000E-03 0. -1.
    9900012    2    1    2    0    0  0.16850874648E+02  0.78896882987E+01  0.21163582407E+01  0.72461598048E+02  0.70000036154E+02 0.  0.
        -12    1    1    2    0    0 -0.16850874648E+02 -0.78896882987E+01 -0.21163582407E+01  0.18726401952E+02  0.00000000000E+00 0.  1.
         11    1    3    3    0    0  0.22620732795E+02  0.76191332306E+01  0.39630092087E+01  0.24196160556E+02  0.51100000000E-03 0.  1.
        -11    1    3    3    0    0  0.16754375153E+02  0.13553497686E+02 -0.43906996782E+01  0.21992831337E+02  0.51100000000E-03 0. -1.
         12    1    3    3    0    0 -0.22524233300E+02 -0.13282942618E+02  0.25440487102E+01  0.26272606155E+02  0.00000000000E+00 0. -1.
</event>
<event>
 7    1  0.1891413E-013  0.7246163E+02  0.7816164E-02  0.1226708E+00
        -11   -1    0    0    0    0  0.00000000000E+00  0.00000000000E+00  0.45593999997E+02  0.45594000000E+02  0.51100000000E-03 0.  1.
         11   -1    0    0    0    0 -0.00000000000E+00 -0.00000000000E+00 -0.45593999997E+02  0.45594000000E+02  0.51100000000E-03 0. -1.
    9900012    2    1    2    0    0 -0.19991883324E+01  0.43520421380E+01 -0.18103586520E+02  0.72461631701E+02  0.70000079994E+02 0.  0.
        -12    1    1    2    0    0  0.19991883324E+01 -0.43520421380E+01  0.18103586520E+02  0.18726368299E+02  0.00000000000E+00 0.  1.
         11    1    3    3    0    0  0.39121374067E+01 -0.48615771573E+00  0.34752803063E+01  0.52553536401E+01  0.51100000000E-03 0. -1.
        -11    1    3    3    0    0 -0.32629705631E+02 -0.85523054656E+01 -0.12467322324E+02  0.35962115407E+02  0.51100000000E-03 0.  1.
         12    1    3    3    0    0  0.26718379892E+02  0.13390505319E+02 -0.91115445026E+01  0.31244162654E+02  0.00000000000E+00 0. -1.
</event>
<event>
 7    1  0.1891413E-013  0.7246156E+02  0.7816164E-02  0.1226708E+00
        -11   -1    0    0    0    0  0.00000000000E+00  0.00000000000E+00  0.45593999997E+02  0.45594000000E+02  0.51100000000E-03 0.  1.
         11   -1    0    0    0    0 -0.00000000000E+00 -0.00000000000E+00 -0.45593999997E+02  0.45594000000E+02  0.51100000000E-03 0. -1.
    9900012    2    1    2    0    0 -0.17925367375E+02  0.46800344637E+01  0.27309499806E+01  0.72461558643E+02  0.69999984821E+02 0.  0.
        -12    1    1    2    0    0  0.17925367375E+02 -0.46800344637E+01 -0.27309499806E+01  0.18726441357E+02  0.00000000000E+00 0.  1.
         11    1    3    3    0    0  0.10293433556E+02 -0.15388075437E+02 -0.82192450750E+01  0.20255952949E+02  0.51100000000E-03 0. -1.
        -11    1    3    3    0    0 -0.62040834978E+01 -0.47187588121E+01  0.16819918899E+02  0.18538257977E+02  0.51100000000E-03 0.  1.
        -12    1    3    3    0    0 -0.22014717434E+02  0.24786868712E+02 -0.58697238437E+01  0.33667347716E+02  0.00000000000E+00 0.  1.
</event>
<event>
 7    1  0.1891413E-013  0.7246166E+02  0.7816164E-02  0.1226708E+00
        -11   -1    0    0    0    0  0.00000000000E+00  0.00000000000E+00  0.45593999997E+02  0.45594000000E+02  0.51100000000E-03 0.  1.
         11   -1    0    0    0    0 -0.00000000000E+00 -0.00000000000E+00 -0.45593999997E+02  0.45594000000E+02  0.51100000000E-03 0. -1.
    9900012    2    1    2    0    0  0.18622955735E+01 -0.12479464614E+02  0.13837297474E+02  0.72461655369E+02  0.70000110826E+02 0.  0.
        -12    1    1    2    0    0 -0.18622955735E+01  0.12479464614E+02 -0.13837297474E+02  0.18726344631E+02  0.00000000000E+00 0.  1.
         11    1    3    3    0    0  0.70156931389E+00  0.60973154541E+00 -0.71050751531E+01  0.71656168787E+01  0.51100000000E-03 0. -1.
        -11    1    3    3    0    0  0.28285668045E+02 -0.89684792577E+01 -0.17017422610E+01  0.29722189757E+02  0.51100000000E-03 0.  1.
         12    1    3    3    0    0 -0.27124941786E+02 -0.41207169014E+01  0.22644114888E+02  0.35573848734E+02  0.00000000000E+00 0. -1.
</event>
<event>
 7    1  0.1891413E-013  0.7246157E+02  0.7816164E-02  0.1226708E+00
        -11   -1    0    0    0    0  0.00000000000E+00  0.00000000000E+00  0.45593999997E+02  0.45594000000E+02  0.51100000000E-03 0.  1.
         11   -1    0    0    0    0 -0.00000000000E+00 -0.00000000000E+00 -0.45593999997E+02  0.45594000000E+02  0.51100000000E-03 0. -1.
    9900012    2    1    2    0    0 -0.16764041033E+02 -0.61649843599E+01 -0.56248569593E+01  0.72461571624E+02  0.70000001732E+02 0.  0.
        -12    1    1    2    0    0  0.16764041033E+02  0.61649843599E+01  0.56248569593E+01  0.18726428376E+02  0.00000000000E+00 0.  1.
         11    1    3    3    0    0 -0.18317512702E+02  0.12008218382E+02  0.15311606182E+01  0.21956161627E+02  0.51100000000E-03 0. -1.
        -11    1    3    3    0    0 -0.19465599658E+02  0.31947616182E+01 -0.55376581498E+01  0.20488575594E+02  0.51100000000E-03 0.  1.
        -12    1    3    3    0    0  0.21019071326E+02 -0.21367964360E+02 -0.16183594277E+01  0.30016834403E+02  0.00000000000E+00 0.  1.
</event>
<event>
 7    1  0.1891413E-013  0.7246185E+02  0.7816164E-02  0.1226707E+00
        -11   -1    0    0    0    0  0.00000000000E+00  0.00000000000E+00  0.45593999997E+02  0.45594000000E+02  0.51100000000E-03 0.  1.
         11   -1    0    0    0    0 -0.00000000000E+00 -0.00000000000E+00 -0.45593999997E+02  0.45594000000E+02  0.51100000000E-03 0. -1.
    9900012    2    1    2    0    0  0.87676773327E+01 -0.11572751883E+02 -0.11826570374E+02  0.72461854674E+02  0.70000370457E+02 0.  0.
        -12    1    1    2    0    0 -0.87676773327E+01  0.11572751883E+02  0.11826570374E+02  0.18726145326E+02  0.00000000000E+00 0.  1.
         11    1    3    3    0    0  0.23163847696E+02 -0.28776293084E+02  0.32086668604E+01  0.37080108239E+02  0.51100000000E-03 0. -1.
        -11    1    3    3    0    0  0.60710353077E+01  0.65542240672E+01 -0.36081754186E+01  0.96350533441E+01  0.51100000000E-03 0.  1.
        -12    1    3    3    0    0 -0.20467205671E+02  0.10649317134E+02 -0.11427061816E+02  0.25746693091E+02  0.00000000000E+00 0.  1.
</event>
<event>
 7    1  0.1891413E-013  0.7246152E+02  0.7816164E-02  0.1226708E+00
        -11   -1    0    0    0    0  0.00000000000E+00  0.00000000000E+00  0.45593999997E+02  0.45594000000E+02  0.51100000000E-03 0.  1.
         11   -1    0    0    0    0 -0.00000000000E+00 -0.00000000000E+00 -0.45593999997E+02  0.45594000000E+02  0.51100000000E-03 0. -1.
    9900012    2    1    2    0    0 -0.68178950598E+01 -0.31173552685E+01 -0.17160406780E+02  0.72461517207E+02  0.69999930844E+02 0.  0.
        -12    1    1    2    0    0  0.68178950598E+01  0.31173552685E+01  0.17160406780E+02  0.18726482793E+02  0.00000000000E+00 0.  1.
         11    1    3    3    0    0 -0.23946482149E+02 -0.81452368600E+01 -0.36920560441E+01  0.25561888994E+02  0.51100000000E-03 0. -1.
        -11    1    3    3    0    0  0.11770347835E+02 -0.14497924075E+02 -0.18232590062E+02  0.26099008243E+02  0.51100000000E-03 0.  1.
        -12    1    3    3    0    0  0.53582392543E+01  0.19525805666E+02  0.47642393259E+01  0.20800619971E+02  0.00000000000E+00 0.  1.
</event>
<event>
 7    1  0.1891413E-013  0.7246159E+02  0.7816164E-02  0.1226708E+00
        -11   -1    0    0    0    0  0.00000000000E+00  0.00000000000E+00  0.45593999997E+02  0.45594000000E+02  0.51100000000E-03 0.  1.
         11   -1    0    0    0    0 -0.00000000000E+00 -0.00000000000E+00 -0.45593999997E+02  0.45594000000E+02  0.51100000000E-03 0. -1.
    9900012    2    1    2    0    0 -0.14747512913E+01 -0.10008138521E+02 -0.15758831872E+02  0.72461587904E+02  0.70000022940E+02 0.  0.
        -12    1    1    2    0    0  0.14747512913E+01  0.10008138521E+02  0.15758831872E+02  0.18726412096E+02  0.00000000000E+00 0.  1.
         11    1    3    3    0    0  0.13488519046E+02  0.15391720343E+00  0.13892836218E+02  0.19364264381E+02  0.51100000000E-03 0. -1.
        -11    1    3    3    0    0 -0.12176989103E+02 -0.22022735931E+02 -0.50824749208E+01  0.25673167181E+02  0.51100000000E-03 0.  1.
        -12    1    3    3    0    0 -0.27862812339E+01  0.11860680207E+02 -0.24569193169E+02  0.27424156342E+02  0.00000000000E+00 0.  1.
</event>
<event>
 7    1  0.1891413E-013  0.7246155E+02  0.7816164E-02  0.1226708E+00
        -11   -1    0    0    0    0  0.00000000000E+00  0.00000000000E+00  0.45593999997E+02  0.45594000000E+02  0.51100000000E-03 0. -1.
         11   -1    0    0    0    0 -0.00000000000E+00 -0.00000000000E+00 -0.45593999997E+02  0.45594000000E+02  0.51100000000E-03 0.  1.
    9900012    2    1    2    0    0 -0.66747016245E+01  0.17495991670E+02  0.13651836208E+00  0.72461548025E+02  0.69999970990E+02 0.  0.
        -12    1    1    2    0    0  0.66747016245E+01 -0.17495991670E+02 -0.13651836208E+00  0.18726451975E+02  0.00000000000E+00 0.  1.
         11    1    3    3    0    0 -0.74519394057E+01  0.34526429158E+02  0.18728481219E+02  0.39979516259E+02  0.51100000000E-03 0. -1.
        -11    1    3    3    0    0  0.11961025950E+01  0.32111079657E+01  0.16932847911E+01  0.38221838561E+01  0.51100000000E-03 0.  1.
        -12    1    3    3    0    0 -0.41886481381E+00 -0.20241545454E+02 -0.20285247648E+02  0.28659847910E+02  0.00000000000E+00 0.  1.
</event>
<event>
 7    1  0.1891413E-013  0.7246156E+02  0.7816164E-02  0.1226708E+00
        -11   -1    0    0    0    0  0.00000000000E+00  0.00000000000E+00  0.45593999997E+02  0.45594000000E+02  0.51100000000E-03 0. -1.
         11   -1    0    0    0    0 -0.00000000000E+00 -0.00000000000E+00 -0.45593999997E+02  0.45594000000E+02  0.51100000000E-03 0.  1.
    9900012    2    1    2    0    0  0.51111301351E+01  0.17709433448E+02  0.33063472861E+01  0.72461558355E+02  0.69999984447E+02 0.  0.
        -12    1    1    2    0    0 -0.51111301351E+01 -0.17709433448E+02 -0.33063472861E+01  0.18726441645E+02  0.00000000000E+00 0.  1.
         11    1    3    3    0    0  0.12854230488E+01  0.27098919497E+02 -0.13216728149E+02  0.30177568715E+02  0.51100000000E-03 0. -1.
        -11    1    3    3    0    0 -0.14444524467E+02 -0.70456535042E+01 -0.19590652774E+01  0.16190227219E+02  0.51100000000E-03 0.  1.
        -12    1    3    3    0    0  0.18270231553E+02 -0.23438325446E+01  0.18482140713E+02  0.26093762422E+02  0.00000000000E+00 0.  1.
</event>
<event>
 7    1  0.1891413E-013  0.7246154E+02  0.7816164E-02  0.1226708E+00
        -11   -1    0    0    0    0  0.00000000000E+00  0.00000000000E+00  0.45593999997E+02  0.45594000000E+02  0.51100000000E-03 0.  1.
         11   -1    0    0    0    0 -0.00000000000E+00 -0.00000000000E+00 -0.45593999997E+02  0.45594000000E+02  0.51100000000E-03 0. -1.
    9900012    2    1    2    0    0  0.97415377697E+01  0.15940974454E+02 -0.12915946576E+01  0.72461536334E+02  0.69999955761E+02 0.  0.
        -12    1    1    2    0    0 -0.97415377697E+01 -0.15940974454E+02  0.12915946576E+01  0.18726463666E+02  0.00000000000E+00 0.  1.
         11    1    3    3    0    0 -0.72989494144E+01 -0.47942947904E+01 -0.11674582272E+02  0.14579293418E+02  0.51100000000E-03 0. -1.
        -11    1    3    3    0    0 -0.75736420037E+01 -0.12708239807E+02  0.65553681610E+01  0.16181231850E+02  0.51100000000E-03 0.  1.
        -12    1    3    3    0    0  0.24614129188E+02  0.33443509051E+02  0.38276194533E+01  0.41701011067E+02  0.00000000000E+00 0.  1.
</event>
<event>
 7    1  0.1891413E-013  0.7246152E+02  0.7816164E-02  0.1226708E+00
        -11   -1    0    0    0    0  0.00000000000E+00  0.00000000000E+00  0.45593999997E+02  0.45594000000E+02  0.51100000000E-03 0.  1.
         11   -1    0    0    0    0 -0.00000000000E+00 -0.00000000000E+00 -0.45593999997E+02  0.45594000000E+02  0.51100000000E-03 0. -1.
    9900012    2    1    2    0    0 -0.13144620979E+02 -0.10994322448E+02  0.75514851550E+01  0.72461518354E+02  0.69999932338E+02 0.  0.
        -12    1    1    2    0    0  0.13144620979E+02  0.10994322448E+02 -0.75514851550E+01  0.18726481646E+02  0.00000000000E+00 0.  1.
         11    1    3    3    0    0 -0.18345478932E+02 -0.93955843303E+01 -0.20484538688E+02  0.29059420635E+02  0.51100000000E-03 0. -1.
        -11    1    3    3    0    0 -0.82069364205E+01  0.10520764147E+02  0.52989260114E+01  0.14356841602E+02  0.51100000000E-03 0.  1.
         12    1    3    3    0    0  0.13407794373E+02 -0.12119502265E+02  0.22737097831E+02  0.29045256117E+02  0.00000000000E+00 0. -1.
</event>
<event>
 7    1  0.1891413E-013  0.7246157E+02  0.7816164E-02  0.1226708E+00
        -11   -1    0    0    0    0  0.00000000000E+00  0.00000000000E+00  0.45593999997E+02  0.45594000000E+02  0.51100000000E-03 0. -1.
         11   -1    0    0    0    0 -0.00000000000E+00 -0.00000000000E+00 -0.45593999997E+02  0.45594000000E+02  0.51100000000E-03 0.  1.
    9900012    2    1    2    0    0  0.16448767609E+02  0.56278633874E+01  0.69601901656E+01  0.72461573504E+02  0.70000004181E+02 0.  0.
        -12    1    1    2    0    0 -0.16448767609E+02 -0.56278633874E+01 -0.69601901656E+01  0.18726426496E+02  0.00000000000E+00 0.  1.
         11    1    3    3    0    0  0.13652757260E+02  0.14135366506E+01 -0.61891197361E+00  0.13739684093E+02  0.51100000000E-03 0. -1.
        -11    1    3    3    0    0  0.40766530363E+01  0.17311660090E+02 -0.20843801373E+02  0.27400305308E+02  0.51100000000E-03 0.  1.
         12    1    3    3    0    0 -0.12806426876E+01 -0.13097333353E+02  0.28422903513E+02  0.31321584103E+02  0.00000000000E+00 0. -1.
</event>
<event>
 7    1  0.1891413E-013  0.7246157E+02  0.7816164E-02  0.1226708E+00
        -11   -1    0    0    0    0  0.00000000000E+00  0.00000000000E+00  0.45593999997E+02  0.45594000000E+02  0.51100000000E-03 0.  1.
         11   -1    0    0    0    0 -0.00000000000E+00 -0.00000000000E+00 -0.45593999997E+02  0.45594000000E+02  0.51100000000E-03 0. -1.
    9900012    2    1    2    0    0  0.19747214126E+00  0.47398542078E+01 -0.18115572221E+02  0.72461570281E+02  0.69999999982E+02 0.  0.
        -12    1    1    2    0    0 -0.19747214126E+00 -0.47398542078E+01  0.18115572221E+02  0.18726429719E+02  0.00000000000E+00 0.  1.
         11    1    3    3    0    0  0.30495462471E+01 -0.31005649440E+01 -0.14507470558E+01  0.45845286090E+01  0.51100000000E-03 0. -1.
        -11    1    3    3    0    0  0.22835176762E+02  0.23751096222E+02 -0.18166312591E+02  0.37624125011E+02  0.51100000000E-03 0.  1.
         12    1    3    3    0    0 -0.25687250868E+02 -0.15910677070E+02  0.15014874261E+01  0.30252916660E+02  0.00000000000E+00 0. -1.
</event>
<event>
 7    1  0.1891413E-013  0.7246159E+02  0.7816164E-02  0.1226708E+00
        -11   -1    0    0    0    0  0.00000000000E+00  0.00000000000E+00  0.45593999997E+02  0.45594000000E+02  0.51100000000E-03 0. -1.
         11   -1    0    0    0    0 -0.00000000000E+00 -0.00000000000E+00 -0.45593999997E+02  0.45594000000E+02  0.51100000000E-03 0.  1.
    9900012    2    1    2    0    0  0.18340708106E+02  0.55629446687E+00 -0.37399508714E+01  0.72461594315E+02  0.70000031292E+02 0.  0.
        -12    1    1    2    0    0 -0.18340708106E+02 -0.55629446687E+00  0.37399508714E+01  0.18726405685E+02  0.00000000000E+00 0.  1.
         11    1    3    3    0    0  0.91792991451E+01 -0.18738482802E+02  0.19816692737E+02  0.28776580440E+02  0.51100000000E-03 0. -1.
        -11    1    3    3    0    0  0.23670842374E+00 -0.13928363333E-01  0.66973228878E+01  0.67015191562E+01  0.51100000000E-03 0.  1.
        -12    1    3    3    0    0  0.89247005369E+01  0.19308705632E+02 -0.30253966496E+02  0.36983494719E+02  0.00000000000E+00 0.  1.
</event>
<event>
 7    1  0.1891413E-013  0.7246174E+02  0.7816164E-02  0.1226708E+00
        -11   -1    0    0    0    0  0.00000000000E+00  0.00000000000E+00  0.45593999997E+02  0.45594000000E+02  0.51100000000E-03 0. -1.
         11   -1    0    0    0    0 -0.00000000000E+00 -0.00000000000E+00 -0.45593999997E+02  0.45594000000E+02  0.51100000000E-03 0.  1.
    9900012    2    1    2    0    0  0.77409227094E+01 -0.35307718719E+01  0.16681859054E+02  0.72461744210E+02  0.70000226557E+02 0.  0.
        -12    1    1    2    0    0 -0.77409227094E+01  0.35307718719E+01 -0.16681859054E+02  0.18726255790E+02  0.00000000000E+00 0.  1.
         11    1    3    3    0    0  0.83616536109E+01 -0.13029689844E+02 -0.23550469372E+01  0.15660022825E+02  0.51100000000E-03 0. -1.
        -11    1    3    3    0    0 -0.17981832675E+02 -0.58910571522E+01 -0.85429748693E+01  0.20761341012E+02  0.51100000000E-03 0.  1.
         12    1    3    3    0    0  0.17361101774E+02  0.15389975125E+02  0.27579880861E+02  0.36040380373E+02  0.00000000000E+00 0. -1.
</event>
<event>
 7    1  0.1891413E-013  0.7246143E+02  0.7816164E-02  0.1226708E+00
        -11   -1    0    0    0    0  0.00000000000E+00  0.00000000000E+00  0.45593999997E+02  0.45594000000E+02  0.51100000000E-03 0.  1.
         11   -1    0    0    0    0 -0.00000000000E+00 -0.00000000000E+00 -0.45593999997E+02  0.45594000000E+02  0.51100000000E-03 0. -1.
    9900012    2    1    2    0    0 -0.75191748315E+01 -0.14771294175E+01 -0.17086964601E+02  0.72461434358E+02  0.69999822917E+02 0.  0.
        -12    1    1    2    0    0  0.75191748315E+01  0.14771294175E+01  0.17086964601E+02  0.18726565642E+02  0.00000000000E+00 0.  1.
         11    1    3    3    0    0  0.14402480287E+02 -0.28386552660E+01  0.51161863239E+01  0.15545570588E+02  0.51100000000E-03 0. -1.
        -11    1    3    3    0    0  0.31870431799E+01  0.78997310961E+01  0.11544523737E+02  0.14347091140E+02  0.51100000000E-03 0.  1.
         12    1    3    3    0    0 -0.25108698299E+02 -0.65382052476E+01 -0.33747674662E+02  0.42568772630E+02  0.00000000000E+00 0. -1.
</event>
<event>
 7    1  0.1891413E-013  0.7246155E+02  0.7816164E-02  0.1226708E+00
        -11   -1    0    0    0    0  0.00000000000E+00  0.00000000000E+00  0.45593999997E+02  0.45594000000E+02  0.51100000000E-03 0.  1.
         11   -1    0    0    0    0 -0.00000000000E+00 -0.00000000000E+00 -0.45593999997E+02  0.45594000000E+02  0.51100000000E-03 0. -1.
    9900012    2    1    2    0    0  0.77266072377E+00 -0.38678175893E+01 -0.18306364795E+02  0.72461547866E+02  0.69999970783E+02 0.  0.
        -12    1    1    2    0    0 -0.77266072377E+00  0.38678175893E+01  0.18306364795E+02  0.18726452134E+02  0.00000000000E+00 0.  1.
         11    1    3    3    0    0 -0.23882912707E+02  0.62954794153E+01 -0.38480173904E+01  0.24996676150E+02  0.51100000000E-03 0. -1.
        -11    1    3    3    0    0 -0.71856981574E+01 -0.10664208975E+02 -0.10176445559E+01  0.12899426800E+02  0.51100000000E-03 0.  1.
        -12    1    3    3    0    0  0.31841271589E+02  0.50091197004E+00 -0.13440702849E+02  0.34565444916E+02  0.00000000000E+00 0.  1.
</event>
<event>
 7    1  0.1891413E-013  0.7246155E+02  0.7816164E-02  0.1226708E+00
        -11   -1    0    0    0    0  0.00000000000E+00  0.00000000000E+00  0.45593999997E+02  0.45594000000E+02  0.51100000000E-03 0.  1.
         11   -1    0    0    0    0 -0.00000000000E+00 -0.00000000000E+00 -0.45593999997E+02  0.45594000000E+02  0.51100000000E-03 0. -1.
    9900012    2    1    2    0    0 -0.12430468331E+02  0.13927443506E+02  0.14797689612E+01  0.72461549677E+02  0.69999973141E+02 0.  0.
        -12    1    1    2    0    0  0.12430468331E+02 -0.13927443506E+02 -0.14797689612E+01  0.18726450323E+02  0.00000000000E+00 0.  1.
         11    1    3    3    0    0 -0.54665924083E+01  0.34716884750E+02 -0.25366983903E+01  0.35236068996E+02  0.51100000000E-03 0. -1.
        -11    1    3    3    0    0 -0.31846220759E+01 -0.38397307953E+01  0.15581798457E+02  0.16360861645E+02  0.51100000000E-03 0.  1.
        -12    1    3    3    0    0 -0.37792538467E+01 -0.16949710449E+02 -0.11565331105E+02  0.20864619036E+02  0.00000000000E+00 0.  1.
</event>
<event>
 7    1  0.1891413E-013  0.7246151E+02  0.7816164E-02  0.1226708E+00
        -11   -1    0    0    0    0  0.00000000000E+00  0.00000000000E+00  0.45593999997E+02  0.45594000000E+02  0.51100000000E-03 0.  1.
         11   -1    0    0    0    0 -0.00000000000E+00 -0.00000000000E+00 -0.45593999997E+02  0.45594000000E+02  0.51100000000E-03 0. -1.
    9900012    2    1    2    0    0  0.10899459125E+02  0.11090551137E+02 -0.10434702818E+02  0.72461506557E+02  0.69999916971E+02 0.  0.
        -12    1    1    2    0    0 -0.10899459125E+02 -0.11090551137E+02  0.10434702818E+02  0.18726493443E+02  0.00000000000E+00 0.  1.
         11    1    3    3    0    0 -0.85904380191E+01  0.14703618217E+02  0.14931080647E+02  0.22647939941E+02  0.51100000000E-03 0. -1.
        -11    1    3    3    0    0 -0.81825015366E+01 -0.11341149357E+02 -0.10326102503E+02  0.17383998197E+02  0.51100000000E-03 0.  1.
         12    1    3    3    0    0  0.27672398681E+02  0.77280822770E+01 -0.15039680962E+02  0.32429568420E+02  0.00000000000E+00 0. -1.
</event>
<event>
 7    1  0.1891413E-013  0.7246171E+02  0.7816164E-02  0.1226708E+00
        -11   -1    0    0    0    0  0.00000000000E+00  0.00000000000E+00  0.45593999997E+02  0.45594000000E+02  0.51100000000E-03 0. -1.
         11   -1    0    0    0    0 -0.00000000000E+00 -0.00000000000E+00 -0.45593999997E+02  0.45594000000E+02  0.51100000000E-03 0.  1.
    9900012    2    1    2    0    0 -0.33920108590E+01 -0.13571203239E+02  0.12449520684E+02  0.72461712053E+02  0.70000184666E+02 0.  0.
        -12    1    1    2    0    0  0.33920108590E+01  0.13571203239E+02 -0.12449520684E+02  0.18726287947E+02  0.00000000000E+00 0.  1.
         11    1    3    3    0    0 -0.21839823463E+02  0.12962734214E+02  0.20158239463E+01  0.25476929047E+02  0.51100000000E-03 0. -1.
        -11    1    3    3    0    0  0.48114266608E+01 -0.41134754842E+01 -0.11273083864E+02  0.12928763558E+02  0.51100000000E-03 0.  1.
         12    1    3    3    0    0  0.13636385943E+02 -0.22420461970E+02  0.21706780602E+02  0.34056019448E+02  0.00000000000E+00 0. -1.
</event>
<event>
 7    1  0.1891413E-013  0.7246201E+02  0.7816164E-02  0.1226707E+00
        -11   -1    0    0    0    0  0.00000000000E+00  0.00000000000E+00  0.45593999997E+02  0.45594000000E+02  0.51100000000E-03 0.  1.
         11   -1    0    0    0    0 -0.00000000000E+00 -0.00000000000E+00 -0.45593999997E+02  0.45594000000E+02  0.51100000000E-03 0. -1.
    9900012    2    1    2    0    0  0.13615799021E+01 -0.94341042953E+01 -0.16118509953E+02  0.72462013062E+02  0.70000576785E+02 0.  0.
        -12    1    1    2    0    0 -0.13615799021E+01  0.94341042953E+01  0.16118509953E+02  0.18725986938E+02  0.00000000000E+00 0.  1.
         11    1    3    3    0    0  0.17552453613E+02 -0.12156635891E+02  0.23985611235E+01  0.21485472295E+02  0.51100000000E-03 0. -1.
        -11    1    3    3    0    0  0.13286144404E+02 -0.83339997968E+01 -0.90218884797E+01  0.18093414762E+02  0.51100000000E-03 0.  1.
        -12    1    3    3    0    0 -0.29477018115E+02  0.11056531393E+02 -0.94951825970E+01  0.32883126006E+02  0.00000000000E+00 0.  1.
</event>
<event>
 7    1  0.1891413E-013  0.7246158E+02  0.7816164E-02  0.1226708E+00
        -11   -1    0    0    0    0  0.00000000000E+00  0.00000000000E+00  0.45593999997E+02  0.45594000000E+02  0.51100000000E-03 0. -1.
         11   -1    0    0    0    0 -0.00000000000E+00 -0.00000000000E+00 -0.45593999997E+02  0.45594000000E+02  0.51100000000E-03 0.  1.
    9900012    2    1    2    0    0  0.11253170439E+02 -0.69849866638E+01  0.13238394738E+02  0.72461575385E+02  0.70000006631E+02 0.  0.
        -12    1    1    2    0    0 -0.11253170439E+02  0.69849866638E+01 -0.13238394738E+02  0.18726424615E+02  0.00000000000E+00 0.  1.
         11    1    3    3    0    0 -0.32929919520E+00  0.81221103921E+01  0.43942363196E+01  0.92404777082E+01  0.51100000000E-03 0. -1.
        -11    1    3    3    0    0 -0.16327086286E+02  0.10609723563E+02  0.15250496887E+02  0.24732926156E+02  0.51100000000E-03 0.  1.
         12    1    3    3    0    0  0.27909555920E+02 -0.25716820619E+02 -0.64063384687E+01  0.38488171520E+02  0.00000000000E+00 0. -1.
</event>
<event>
 7    1  0.1891413E-013  0.7246158E+02  0.7816164E-02  0.1226708E+00
        -11   -1    0    0    0    0  0.00000000000E+00  0.00000000000E+00  0.45593999997E+02  0.45594000000E+02  0.51100000000E-03 0. -1.
         11   -1    0    0    0    0 -0.00000000000E+00 -0.00000000000E+00 -0.45593999997E+02  0.45594000000E+02  0.51100000000E-03 0.  1.
    9900012    2    1    2    0    0 -0.17896036150E+02 -0.53594665754E+01 -0.12987469049E+01  0.72461581887E+02  0.70000015101E+02 0.  0.
        -12    1    1    2    0    0  0.17896036150E+02  0.53594665754E+01  0.12987469049E+01  0.18726418113E+02  0.00000000000E+00 0.  1.
         11    1    3    3    0    0 -0.28806236826E+01  0.10765436843E+02  0.79467550575E+00  0.11172472092E+02  0.51100000000E-03 0. -1.
        -11    1    3    3    0    0 -0.24864136925E+02  0.13874987683E+02 -0.70347338190E+01  0.29329644874E+02  0.51100000000E-03 0.  1.
         12    1    3    3    0    0  0.98487244586E+01 -0.29999891102E+02  0.49413114083E+01  0.31959464921E+02  0.00000000000E+00 0. -1.
</event>
<event>
 7    1  0.1891413E-013  0.7246160E+02  0.7816164E-02  0.1226708E+00
        -11   -1    0    0    0    0  0.00000000000E+00  0.00000000000E+00  0.45593999997E+02  0.45594000000E+02  0.51100000000E-03 0. -1.
         11   -1    0    0    0    0 -0.00000000000E+00 -0.00000000000E+00 -0.45593999997E+02  0.45594000000E+02  0.51100000000E-03 0.  1.
    9900012    2    1    2    0    0 -0.34921645660E+01 -0.13499763240E+02  0.12499572090E+02  0.72461598228E+02  0.70000036389E+02 0.  0.
        -12    1    1    2    0    0  0.34921645660E+01  0.13499763240E+02 -0.12499572090E+02  0.18726401772E+02  0.00000000000E+00 0.  1.
         11    1    3    3    0    0 -0.96546573150E+01 -0.38586678627E+01  0.21020686944E+02  0.23451460624E+02  0.51100000000E-03 0. -1.
        -11    1    3    3    0    0  0.50755239443E+01  0.18385705636E+02 -0.86947664130E+01  0.20961728895E+02  0.51100000000E-03 0.  1.
        -12    1    3    3    0    0  0.10869688047E+01 -0.28026801013E+02  0.17365155888E+00  0.28048408709E+02  0.00000000000E+00 0.  1.
</event>
<event>
 7    1  0.1891413E-013  0.7246157E+02  0.7816164E-02  0.1226708E+00
        -11   -1    0    0    0    0  0.00000000000E+00  0.00000000000E+00  0.45593999997E+02  0.45594000000E+02  0.51100000000E-03 0.  1.
         11   -1    0    0    0    0 -0.00000000000E+00 -0.00000000000E+00 -0.45593999997E+02  0.45594000000E+02  0.51100000000E-03 0. -1.
    9900012    2    1    2    0    0 -0.45539037048E+01 -0.29763376010E+01 -0.17918780428E+02  0.72461566370E+02  0.69999994887E+02 0.  0.
        -12    1    1    2    0    0  0.45539037048E+01  0.29763376010E+01  0.17918780428E+02  0.18726433630E+02  0.00000000000E+00 0.  1.
         11    1    3    3    0    0 -0.63229996304E+01  0.21864874084E+02 -0.17881321896E+02  0.28944683727E+02  0.51100000000E-03 0. -1.
        -11    1    3    3    0    0 -0.20734376421E+01 -0.51645979134E+01  0.16572387656E+02  0.17481883427E+02  0.51100000000E-03 0.  1.
        -12    1    3    3    0    0  0.38425335677E+01 -0.19676613772E+02 -0.16609846189E+02  0.26034999216E+02  0.00000000000E+00 0.  1.
</event>
<event>
 7    1  0.1891413E-013  0.7246148E+02  0.7816164E-02  0.1226708E+00
        -11   -1    0    0    0    0  0.00000000000E+00  0.00000000000E+00  0.45593999997E+02  0.45594000000E+02  0.51100000000E-03 0. -1.
         11   -1    0    0    0    0 -0.00000000000E+00 -0.00000000000E+00 -0.45593999997E+02  0.45594000000E+02  0.51100000000E-03 0.  1.
    9900012    2    1    2    0    0  0.11171082988E+02 -0.87938479623E+01 -0.12188429817E+02  0.72461476604E+02  0.69999877951E+02 0.  0.
        -12    1    1    2    0    0 -0.11171082988E+02  0.87938479623E+01  0.12188429817E+02  0.18726523396E+02  0.00000000000E+00 0.  1.
         11    1    3    3    0    0  0.27095239044E+02 -0.25046788659E+01  0.18437706618E+02  0.32869049585E+02  0.51100000000E-03 0. -1.
        -11    1    3    3    0    0 -0.53624086064E+00  0.27112382768E+01  0.12785261337E+01  0.30451595344E+01  0.51100000000E-03 0.  1.
        -12    1    3    3    0    0 -0.15387915195E+02 -0.90004073732E+01 -0.31904662569E+02  0.36547267484E+02  0.00000000000E+00 0.  1.
</event>
<event>
 7    1  0.1891413E-013  0.7246164E+02  0.7816164E-02  0.1226708E+00
        -11   -1    0    0    0    0  0.00000000000E+00  0.00000000000E+00  0.45593999997E+02  0.45594000000E+02  0.51100000000E-03 0.  1.
         11   -1    0    0    0    0 -0.00000000000E+00 -0.00000000000E+00 -0.45593999997E+02  0.45594000000E+02  0.51100000000E-03 0. -1.
    9900012    2    1    2    0    0 -0.16801023670E+02  0.82705612933E+01  0.21798695191E-02  0.72461639296E+02  0.70000089887E+02 0.  0.
        -12    1    1    2    0    0  0.16801023670E+02 -0.82705612933E+01 -0.21798695191E-02  0.18726360704E+02  0.00000000000E+00 0.  1.
         11    1    3    3    0    0 -0.17569295137E+02 -0.22032926050E+01  0.60114621479E-01  0.17707011153E+02  0.51100000000E-03 0. -1.
        -11    1    3    3    0    0  0.23447060997E+02 -0.87413921999E+01  0.39230412729E+00  0.25026596049E+02  0.51100000000E-03 0.  1.
         12    1    3    3    0    0 -0.22678789530E+02  0.19215246098E+02 -0.45023887925E+00  0.29728032094E+02  0.00000000000E+00 0. -1.
</event>
<event>
 7    1  0.1891413E-013  0.7246155E+02  0.7816164E-02  0.1226708E+00
        -11   -1    0    0    0    0  0.00000000000E+00  0.00000000000E+00  0.45593999997E+02  0.45594000000E+02  0.51100000000E-03 0.  1.
         11   -1    0    0    0    0 -0.00000000000E+00 -0.00000000000E+00 -0.45593999997E+02  0.45594000000E+02  0.51100000000E-03 0. -1.
    9900012    2    1    2    0    0 -0.76797322473E+01 -0.65017930751E+01 -0.15793298328E+02  0.72461551520E+02  0.69999975543E+02 0.  0.
        -12    1    1    2    0    0  0.76797322473E+01  0.65017930751E+01  0.15793298328E+02  0.18726448480E+02  0.00000000000E+00 0.  1.
         11    1    3    3    0    0 -0.15256914474E+02  0.32141242054E+01 -0.11591851355E+02  0.19428717193E+02  0.51100000000E-03 0. -1.
        -11    1    3    3    0    0 -0.15027318370E+02 -0.22277890823E+02 -0.25972602442E+00  0.26873633450E+02  0.51100000000E-03 0.  1.
         12    1    3    3    0    0  0.22604500597E+02  0.12561973542E+02 -0.39417209491E+01  0.26159200878E+02  0.00000000000E+00 0. -1.
</event>
<event>
 7    1  0.1891413E-013  0.7246157E+02  0.7816164E-02  0.1226708E+00
        -11   -1    0    0    0    0  0.00000000000E+00  0.00000000000E+00  0.45593999997E+02  0.45594000000E+02  0.51100000000E-03 0.  1.
         11   -1    0    0    0    0 -0.00000000000E+00 -0.00000000000E+00 -0.45593999997E+02  0.45594000000E+02  0.51100000000E-03 0. -1.
    9900012    2    1    2    0    0  0.61788075197E+01  0.69492695067E+01 -0.16254508633E+02  0.72461573220E+02  0.70000003812E+02 0.  0.
        -12    1    1    2    0    0 -0.61788075197E+01 -0.69492695067E+01  0.16254508633E+02  0.18726426780E+02  0.00000000000E+00 0.  1.
         11    1    3    3    0    0  0.62396596671E+01 -0.26508247474E+02 -0.37303344124E+01  0.27487013879E+02  0.51100000000E-03 0. -1.
        -11    1    3    3    0    0  0.19192353555E+00 -0.31507153568E+01 -0.73531684842E+01  0.80020577929E+01  0.51100000000E-03 0.  1.
        -12    1    3    3    0    0 -0.25277568294E+00  0.36608232338E+02 -0.51710057360E+01  0.36972501548E+02  0.00000000000E+00 0.  1.
</event>
<event>
 7    1  0.1891413E-013  0.7246156E+02  0.7816164E-02  0.1226708E+00
        -11   -1    0    0    0    0  0.00000000000E+00  0.00000000000E+00  0.45593999997E+02  0.45594000000E+02  0.51100000000E-03 0.  1.
         11   -1    0    0    0    0 -0.00000000000E+00 -0.00000000000E+00 -0.45593999997E+02  0.45594000000E+02  0.51100000000E-03 0. -1.
    9900012    2    1    2    0    0 -0.24388178926E+01  0.29458906221E+01 -0.18331763180E+02  0.72461557584E+02  0.69999983442E+02 0.  0.
        -12    1    1    2    0    0  0.24388178926E+01 -0.29458906221E+01  0.18331763180E+02  0.18726442416E+02  0.00000000000E+00 0.  1.
         11    1    3    3    0    0  0.31408479055E+02 -0.72036515689E+01 -0.10790526703E+02  0.33982651740E+02  0.51100000000E-03 0. -1.
        -11    1    3    3    0    0 -0.11925290051E+00  0.18619026694E+01  0.17161705634E+01  0.25349841160E+01  0.51100000000E-03 0.  1.
        -12    1    3    3    0    0 -0.33728044047E+02  0.82876395217E+01 -0.92574070408E+01  0.35943921728E+02  0.00000000000E+00 0.  1.
</event>
<event>
 7    1  0.1891413E-013  0.7246151E+02  0.7816164E-02  0.1226708E+00
        -11   -1    0    0    0    0  0.00000000000E+00  0.00000000000E+00  0.45593999997E+02  0.45594000000E+02  0.51100000000E-03 0. -1.
         11   -1    0    0    0    0 -0.00000000000E+00 -0.00000000000E+00 -0.45593999997E+02  0.45594000000E+02  0.51100000000E-03 0.  1.
    9900012    2    1    2    0    0  0.34230285016E+01  0.11630340592E+02  0.14272327527E+02  0.72461513959E+02  0.69999926612E+02 0.  0.
        -12    1    1    2    0    0 -0.34230285016E+01 -0.11630340592E+02 -0.14272327527E+02  0.18726486041E+02  0.00000000000E+00 0.  1.
         11    1    3    3    0    0 -0.11819173930E+01  0.28815162410E+01  0.11701519067E+00  0.31166901333E+01  0.51100000000E-03 0. -1.
        -11    1    3    3    0    0  0.24790202225E+02  0.29213475911E+02  0.13401583527E+02  0.40590439052E+02  0.51100000000E-03 0.  1.
         12    1    3    3    0    0 -0.20185256330E+02 -0.20464651560E+02  0.75372880981E+00  0.28754384773E+02  0.00000000000E+00 0. -1.
</event>
<event>
 7    1  0.1891413E-013  0.7246158E+02  0.7816164E-02  0.1226708E+00
        -11   -1    0    0    0    0  0.00000000000E+00  0.00000000000E+00  0.45593999997E+02  0.45594000000E+02  0.51100000000E-03 0. -1.
         11   -1    0    0    0    0 -0.00000000000E+00 -0.00000000000E+00 -0.45593999997E+02  0.45594000000E+02  0.51100000000E-03 0.  1.
    9900012    2    1    2    0    0  0.76791144304E+01  0.39088343283E+01  0.16626217719E+02  0.72461577494E+02  0.70000009379E+02 0.  0.
        -12    1    1    2    0    0 -0.76791144304E+01 -0.39088343283E+01 -0.16626217719E+02  0.18726422506E+02  0.00000000000E+00 0.  1.
         11    1    3    3    0    0  0.19581966143E+01  0.52149985852E+01 -0.46741091667E+01  0.72717288857E+01  0.51100000000E-03 0. -1.
        -11    1    3    3    0    0 -0.45388457404E+00  0.29767672664E+02  0.12661700587E+02  0.32351800708E+02  0.51100000000E-03 0.  1.
         12    1    3    3    0    0  0.61748023902E+01 -0.31073836921E+02  0.86386262989E+01  0.32838047900E+02  0.00000000000E+00 0. -1.
</event>
<event>
 7    1  0.1891413E-013  0.7246161E+02  0.7816164E-02  0.1226708E+00
        -11   -1    0    0    0    0  0.00000000000E+00  0.00000000000E+00  0.45593999997E+02  0.45594000000E+02  0.51100000000E-03 0.  1.
         11   -1    0    0    0    0 -0.00000000000E+00 -0.00000000000E+00 -0.45593999997E+02  0.45594000000E+02  0.51100000000E-03 0. -1.
    9900012    2    1    2    0    0 -0.16091839673E+02 -0.93715829092E+01  0.19758368082E+01  0.72461606824E+02  0.70000047587E+02 0.  0.
        -12    1    1    2    0    0  0.16091839673E+02  0.93715829092E+01 -0.19758368082E+01  0.18726393176E+02  0.00000000000E+00 0.  1.
         11    1    3    3    0    0 -0.26345129923E+02  0.77924861392E+01 -0.37420354108E+01  0.27727090366E+02  0.51100000000E-03 0. -1.
        -11    1    3    3    0    0 -0.56168026915E+01 -0.10349805917E+02 -0.14150112824E+02  0.18409037134E+02  0.51100000000E-03 0.  1.
        -12    1    3    3    0    0  0.15870092942E+02 -0.68142631314E+01  0.19867985043E+02  0.26325479324E+02  0.00000000000E+00 0.  1.
</event>
<event>
 7    1  0.1891413E-013  0.7246158E+02  0.7816164E-02  0.1226708E+00
        -11   -1    0    0    0    0  0.00000000000E+00  0.00000000000E+00  0.45593999997E+02  0.45594000000E+02  0.51100000000E-03 0.  1.
         11   -1    0    0    0    0 -0.00000000000E+00 -0.00000000000E+00 -0.45593999997E+02  0.45594000000E+02  0.51100000000E-03 0. -1.
    9900012    2    1    2    0    0 -0.84618642151E+01  0.16617254810E+02  0.17153739467E+01  0.72461579862E+02  0.70000012463E+02 0.  0.
        -12    1    1    2    0    0  0.84618642151E+01 -0.16617254810E+02 -0.17153739467E+01  0.18726420138E+02  0.00000000000E+00 0.  1.
         11    1    3    3    0    0  0.12144733106E+01  0.29966189820E+01 -0.12141994547E+02  0.12565138383E+02  0.51100000000E-03 0. -1.
        -11    1    3    3    0    0  0.20082365578E+02  0.12147030635E+02 -0.58312594753E+01  0.24183782743E+02  0.51100000000E-03 0.  1.
        -12    1    3    3    0    0 -0.29758703104E+02  0.14736051934E+01  0.19688627969E+02  0.35712658736E+02  0.00000000000E+00 0.  1.
</event>
<event>
 7    1  0.1891413E-013  0.7246162E+02  0.7816164E-02  0.1226708E+00
        -11   -1    0    0    0    0  0.00000000000E+00  0.00000000000E+00  0.45593999997E+02  0.45594000000E+02  0.51100000000E-03 0.  1.
         11   -1    0    0    0    0 -0.00000000000E+00 -0.00000000000E+00 -0.45593999997E+02  0.45594000000E+02  0.51100000000E-03 0. -1.
    9900012    2    1    2    0    0 -0.14744796202E+02  0.97493503936E+01 -0.61821090403E+01  0.72461619668E+02  0.70000064319E+02 0.  0.
        -12    1    1    2    0    0  0.14744796202E+02 -0.97493503936E+01  0.61821090403E+01  0.18726380332E+02  0.00000000000E+00 0.  1.
         11    1    3    3    0    0 -0.10493021293E+02 -0.59274765023E+01 -0.19236143744E+02  0.22699508804E+02  0.51100000000E-03 0. -1.
        -11    1    3    3    0    0 -0.51487592907E+01 -0.10980535425E+02  0.18900079463E+02  0.22456510958E+02  0.51100000000E-03 0.  1.
        -12    1    3    3    0    0  0.89698438114E+00  0.26657362321E+02 -0.58460447590E+01  0.27305599906E+02  0.00000000000E+00 0.  1.
</event>
<event>
 7    1  0.1891413E-013  0.7246150E+02  0.7816164E-02  0.1226708E+00
        -11   -1    0    0    0    0  0.00000000000E+00  0.00000000000E+00  0.45593999997E+02  0.45594000000E+02  0.51100000000E-03 0.  1.
         11   -1    0    0    0    0 -0.00000000000E+00 -0.00000000000E+00 -0.45593999997E+02  0.45594000000E+02  0.51100000000E-03 0. -1.
    9900012    2    1    2    0    0  0.10248448251E+02  0.12957492334E+02 -0.88178530170E+01  0.72461499233E+02  0.69999907429E+02 0.  0.
        -12    1    1    2    0    0 -0.10248448251E+02 -0.12957492334E+02  0.88178530170E+01  0.18726500767E+02  0.00000000000E+00 0.  1.
         11    1    3    3    0    0  0.24094514295E+01  0.97345426079E+01  0.76554593500E+01  0.12616371669E+02  0.51100000000E-03 0. -1.
        -11    1    3    3    0    0  0.23543292756E+02 -0.11166549970E+02  0.81363495702E+01  0.27297960668E+02  0.51100000000E-03 0.  1.
        -12    1    3    3    0    0 -0.15704295935E+02  0.14389499696E+02 -0.24609661937E+02  0.32547166896E+02  0.00000000000E+00 0.  1.
</event>
<event>
 7    1  0.1891413E-013  0.7246158E+02  0.7816164E-02  0.1226708E+00
        -11   -1    0    0    0    0  0.00000000000E+00  0.00000000000E+00  0.45593999997E+02  0.45594000000E+02  0.51100000000E-03 0.  1.
         11   -1    0    0    0    0 -0.00000000000E+00 -0.00000000000E+00 -0.45593999997E+02  0.45594000000E+02  0.51100000000E-03 0. -1.
    9900012    2    1    2    0    0 -0.14821888747E+02  0.53073336301E+01 -0.10140152449E+02  0.72461578345E+02  0.70000010488E+02 0.  0.
        -12    1    1    2    0    0  0.14821888747E+02 -0.53073336301E+01  0.10140152449E+02  0.18726421655E+02  0.00000000000E+00 0.  1.
         11    1    3    3    0    0 -0.17903705297E+02  0.71219223753E+01 -0.30962249382E+02  0.36468141284E+02  0.51100000000E-03 0. -1.
        -11    1    3    3    0    0 -0.59805436947E+01 -0.38158071562E+01 -0.49174700709E+01  0.86318479653E+01  0.51100000000E-03 0.  1.
        -12    1    3    3    0    0  0.90623602443E+01  0.20012184109E+01  0.25739567004E+02  0.27361589096E+02  0.00000000000E+00 0.  1.
</event>
<event>
 7    1  0.1891413E-013  0.7246157E+02  0.7816164E-02  0.1226708E+00
        -11   -1    0    0    0    0  0.00000000000E+00  0.00000000000E+00  0.45593999997E+02  0.45594000000E+02  0.51100000000E-03 0. -1.
         11   -1    0    0    0    0 -0.00000000000E+00 -0.00000000000E+00 -0.45593999997E+02  0.45594000000E+02  0.51100000000E-03 0.  1.
    9900012    2    1    2    0    0 -0.45550136995E+01  0.17595208913E+02 -0.45099674849E+01  0.72461565924E+02  0.69999994307E+02 0.  0.
        -12    1    1    2    0    0  0.45550136995E+01 -0.17595208913E+02  0.45099674849E+01  0.18726434076E+02  0.00000000000E+00 0.  1.
         11    1    3    3    0    0 -0.67696168960E+01  0.11601730549E+02  0.17414890055E+02  0.21993323090E+02  0.51100000000E-03 0. -1.
        -11    1    3    3    0    0  0.63301368875E+00 -0.11170371857E+02  0.94666320602E+01  0.14655887438E+02  0.51100000000E-03 0.  1.
        -12    1    3    3    0    0  0.15815895077E+01  0.17163850221E+02 -0.31391489600E+02  0.35812355397E+02  0.00000000000E+00 0.  1.
</event>
<event>
 7    1  0.1891413E-013  0.7246161E+02  0.7816164E-02  0.1226708E+00
        -11   -1    0    0    0    0  0.00000000000E+00  0.00000000000E+00  0.45593999997E+02  0.45594000000E+02  0.51100000000E-03 0.  1.
         11   -1    0    0    0    0 -0.00000000000E+00 -0.00000000000E+00 -0.45593999997E+02  0.45594000000E+02  0.51100000000E-03 0. -1.
    9900012    2    1    2    0    0  0.17796781581E+02  0.57654880912E+01 -0.84339896543E+00  0.72461611950E+02  0.70000054264E+02 0.  0.
        -12    1    1    2    0    0 -0.17796781581E+02 -0.57654880912E+01  0.84339896543E+00  0.18726388050E+02  0.00000000000E+00 0.  1.
         11    1    3    3    0    0 -0.18330400081E+02 -0.11961939028E+01 -0.20695937647E+02  0.27672301717E+02  0.51100000000E-03 0. -1.
        -11    1    3    3    0    0  0.17840864133E+02  0.11095124884E+02  0.73629172746E+01  0.22262317496E+02  0.51100000000E-03 0.  1.
        -12    1    3    3    0    0  0.18286317529E+02 -0.41334428904E+01  0.12489621407E+02  0.22526992737E+02  0.00000000000E+00 0.  1.
</event>
<event>
 7    1  0.1891413E-013  0.7246145E+02  0.7816164E-02  0.1226708E+00
        -11   -1    0    0    0    0  0.00000000000E+00  0.00000000000E+00  0.45593999997E+02  0.45594000000E+02  0.51100000000E-03 0.  1.
         11   -1    0    0    0    0 -0.00000000000E+00 -0.00000000000E+00 -0.45593999997E+02  0.45594000000E+02  0.51100000000E-03 0. -1.
    9900012    2    1    2    0    0  0.12230735363E+02  0.97866824413E+01 -0.10262237560E+02  0.72461453056E+02  0.69999847275E+02 0.  0.
        -12    1    1    2    0    0 -0.12230735363E+02 -0.97866824413E+01  0.10262237560E+02  0.18726546944E+02  0.00000000000E+00 0.  1.
         11    1    3    3    0    0 -0.54961522928E+00  0.37259507904E+01  0.40662784088E+01  0.55425090484E+01  0.51100000000E-03 0. -1.
        -11    1    3    3    0    0  0.21582296248E+02 -0.23218532701E+02  0.28875009297E+01  0.31831327870E+02  0.51100000000E-03 0.  1.
         12    1    3    3    0    0 -0.88019456558E+01  0.29279264352E+02 -0.17216016899E+02  0.35087616137E+02  0.00000000000E+00 0. -1.
</event>
<event>
 7    1  0.1891413E-013  0.7246156E+02  0.7816164E-02  0.1226708E+00
        -11   -1    0    0    0    0  0.00000000000E+00  0.00000000000E+00  0.45593999997E+02  0.45594000000E+02  0.51100000000E-03 0.  1.
         11   -1    0    0    0    0 -0.00000000000E+00 -0.00000000000E+00 -0.45593999997E+02  0.45594000000E+02  0.51100000000E-03 0. -1.
    9900012    2    1    2    0    0 -0.15225235314E+02  0.94213231677E+01 -0.54872957008E+01  0.72461560544E+02  0.69999987298E+02 0.  0.
        -12    1    1    2    0    0  0.15225235314E+02 -0.94213231677E+01  0.54872957008E+01  0.18726439456E+02  0.00000000000E+00 0.  1.
         11    1    3    3    0    0 -0.64759045398E+01 -0.12187510938E+02  0.91026309920E+01  0.16532714650E+02  0.51100000000E-03 0. -1.
        -11    1    3    3    0    0  0.45869535747E+01 -0.13770003183E+02  0.19800006467E+01  0.14648328696E+02  0.51100000000E-03 0.  1.
        -12    1    3    3    0    0 -0.13336284349E+02  0.35378837288E+02 -0.16569927339E+02  0.41280517198E+02  0.00000000000E+00 0.  1.
</event>
<event>
 7    1  0.1891413E-013  0.7246157E+02  0.7816164E-02  0.1226708E+00
        -11   -1    0    0    0    0  0.00000000000E+00  0.00000000000E+00  0.45593999997E+02  0.45594000000E+02  0.51100000000E-03 0.  1.
         11   -1    0    0    0    0 -0.00000000000E+00 -0.00000000000E+00 -0.45593999997E+02  0.45594000000E+02  0.51100000000E-03 0. -1.
    9900012    2    1    2    0    0  0.66376425616E+01  0.16698657013E+02 -0.52702748581E+01  0.72461568362E+02  0.69999997483E+02 0.  0.
        -12    1    1    2    0    0 -0.66376425616E+01 -0.16698657013E+02  0.52702748581E+01  0.18726431638E+02  0.00000000000E+00 0.  1.
         11    1    3    3    0    0 -0.58958659221E+01  0.59667090946E+01 -0.16358100670E+02  0.18383424877E+02  0.51100000000E-03 0. -1.
        -11    1    3    3    0    0 -0.17881694962E+02  0.46311058566E+01 -0.49960690252E+01  0.19135382466E+02  0.51100000000E-03 0.  1.
        -12    1    3    3    0    0  0.30415203445E+02  0.61008420619E+01  0.16083894837E+02  0.34942761019E+02  0.00000000000E+00 0.  1.
</event>
<event>
 7    1  0.1891413E-013  0.7246137E+02  0.7816164E-02  0.1226709E+00
        -11   -1    0    0    0    0  0.00000000000E+00  0.00000000000E+00  0.45593999997E+02  0.45594000000E+02  0.51100000000E-03 0.  1.
         11   -1    0    0    0    0 -0.00000000000E+00 -0.00000000000E+00 -0.45593999997E+02  0.45594000000E+02  0.51100000000E-03 0. -1.
    9900012    2    1    2    0    0  0.25760237209E+01  0.17695829253E+02  0.55595395622E+01  0.72461367860E+02  0.69999736292E+02 0.  0.
        -12    1    1    2    0    0 -0.25760237209E+01 -0.17695829253E+02 -0.55595395622E+01  0.18726632140E+02  0.00000000000E+00 0.  1.
         11    1    3    3    0    0  0.15142780011E+02  0.22329021909E+02  0.23226374556E+02  0.35599908443E+02  0.51100000000E-03 0. -1.
        -11    1    3    3    0    0 -0.21702303978E+01  0.89984802305E+01  0.32555632500E+01  0.98123003814E+01  0.51100000000E-03 0.  1.
         12    1    3    3    0    0 -0.10396525892E+02 -0.13631672887E+02 -0.20922398243E+02  0.27049159036E+02  0.00000000000E+00 0. -1.
</event>
<event>
 7    1  0.1891413E-013  0.7246160E+02  0.7816164E-02  0.1226708E+00
        -11   -1    0    0    0    0  0.00000000000E+00  0.00000000000E+00  0.45593999997E+02  0.45594000000E+02  0.51100000000E-03 0. -1.
         11   -1    0    0    0    0 -0.00000000000E+00 -0.00000000000E+00 -0.45593999997E+02  0.45594000000E+02  0.51100000000E-03 0.  1.
    9900012    2    1    2    0    0 -0.88062451885E+01  0.80558703253E+01  0.14430212579E+02  0.72461600557E+02  0.70000039423E+02 0.  0.
        -12    1    1    2    0    0  0.88062451885E+01 -0.80558703253E+01 -0.14430212579E+02  0.18726399443E+02  0.00000000000E+00 0.  1.
         11    1    3    3    0    0  0.25250723811E+01 -0.49947323098E+01 -0.30952286049E+01  0.63956064415E+01  0.51100000000E-03 0. -1.
        -11    1    3    3    0    0  0.12906507772E+02  0.30964641235E+02  0.85680425259E+01  0.34623666800E+02  0.51100000000E-03 0.  1.
         12    1    3    3    0    0 -0.24237825342E+02 -0.17914038600E+02  0.89573986583E+01  0.31442327315E+02  0.00000000000E+00 0. -1.
</event>
<event>
 7    1  0.1891413E-013  0.7246157E+02  0.7816164E-02  0.1226708E+00
        -11   -1    0    0    0    0  0.00000000000E+00  0.00000000000E+00  0.45593999997E+02  0.45594000000E+02  0.51100000000E-03 0.  1.
         11   -1    0    0    0    0 -0.00000000000E+00 -0.00000000000E+00 -0.45593999997E+02  0.45594000000E+02  0.51100000000E-03 0. -1.
    9900012    2    1    2    0    0 -0.85118829282E+01  0.16658621581E+02  0.84704835487E+00  0.72461566413E+02  0.69999994944E+02 0.  0.
        -12    1    1    2    0    0  0.85118829282E+01 -0.16658621581E+02 -0.84704835487E+00  0.18726433587E+02  0.00000000000E+00 0.  1.
         11    1    3    3    0    0 -0.38419757658E+01  0.63657257793E+01  0.53309910820E+01  0.91489184421E+01  0.51100000000E-03 0. -1.
        -11    1    3    3    0    0  0.13154990169E+02 -0.21832742714E+02 -0.71592322225E+01  0.26475970748E+02  0.51100000000E-03 0.  1.
         12    1    3    3    0    0 -0.17824897331E+02  0.32125638516E+02  0.26752894953E+01  0.36836677223E+02  0.00000000000E+00 0. -1.
</event>
<event>
 7    1  0.1891413E-013  0.7246158E+02  0.7816164E-02  0.1226708E+00
        -11   -1    0    0    0    0  0.00000000000E+00  0.00000000000E+00  0.45593999997E+02  0.45594000000E+02  0.51100000000E-03 0.  1.
         11   -1    0    0    0    0 -0.00000000000E+00 -0.00000000000E+00 -0.45593999997E+02  0.45594000000E+02  0.51100000000E-03 0. -1.
    9900012    2    1    2    0    0  0.15644474283E+02 -0.35381235630E+01 -0.96649365579E+01  0.72461577688E+02  0.70000009632E+02 0.  0.
        -12    1    1    2    0    0 -0.15644474283E+02  0.35381235630E+01  0.96649365579E+01  0.18726422312E+02  0.00000000000E+00 0.  1.
         11    1    3    3    0    0  0.99759140456E+01  0.15621081340E+02 -0.28506225691E+02  0.34002087387E+02  0.51100000000E-03 0. -1.
        -11    1    3    3    0    0  0.32517788201E+01  0.58085695352E+01 -0.65563878105E+00  0.66890513537E+01  0.51100000000E-03 0.  1.
        -12    1    3    3    0    0  0.24167814170E+01 -0.24967774438E+02  0.19496927914E+02  0.31770438947E+02  0.00000000000E+00 0.  1.
</event>
<event>
 7    1  0.1891413E-013  0.7246152E+02  0.7816164E-02  0.1226708E+00
        -11   -1    0    0    0    0  0.00000000000E+00  0.00000000000E+00  0.45593999997E+02  0.45594000000E+02  0.51100000000E-03 0. -1.
         11   -1    0    0    0    0 -0.00000000000E+00 -0.00000000000E+00 -0.45593999997E+02  0.45594000000E+02  0.51100000000E-03 0.  1.
    9900012    2    1    2    0    0 -0.14950946877E+02  0.80167894966E+01  0.79297838926E+01  0.72461516109E+02  0.69999929413E+02 0.  0.
        -12    1    1    2    0    0  0.14950946877E+02 -0.80167894966E+01 -0.79297838926E+01  0.18726483891E+02  0.00000000000E+00 0.  1.
         11    1    3    3    0    0  0.14822648902E+00  0.30703450055E+01  0.28310890232E+00  0.30869305882E+01  0.51100000000E-03 0. -1.
        -11    1    3    3    0    0  0.40592474695E+01 -0.89610776632E+01 -0.26247864781E+02  0.28030854584E+02  0.51100000000E-03 0.  1.
         12    1    3    3    0    0 -0.19158420836E+02  0.13907522154E+02  0.33894539771E+02  0.41343730936E+02  0.00000000000E+00 0. -1.
</event>
<event>
 7    1  0.1891413E-013  0.7246149E+02  0.7816164E-02  0.1226708E+00
        -11   -1    0    0    0    0  0.00000000000E+00  0.00000000000E+00  0.45593999997E+02  0.45594000000E+02  0.51100000000E-03 0. -1.
         11   -1    0    0    0    0 -0.00000000000E+00 -0.00000000000E+00 -0.45593999997E+02  0.45594000000E+02  0.51100000000E-03 0.  1.
    9900012    2    1    2    0    0  0.12435925457E+02 -0.15762446290E+01  0.13912063183E+02  0.72461486947E+02  0.69999891425E+02 0.  0.
        -12    1    1    2    0    0 -0.12435925457E+02  0.15762446290E+01 -0.13912063183E+02  0.18726513053E+02  0.00000000000E+00 0.  1.
         11    1    3    3    0    0  0.90451786773E+01  0.12236382639E+01  0.25653680692E+02  0.27229099898E+02  0.51100000000E-03 0. -1.
        -11    1    3    3    0    0  0.16077302934E+02  0.14273509850E+02 -0.13039904899E+01  0.21538643052E+02  0.51100000000E-03 0.  1.
        -12    1    3    3    0    0 -0.12686556154E+02 -0.17073392743E+02 -0.10437627020E+02  0.23693743997E+02  0.00000000000E+00 0.  1.
</event>
<event>
 7    1  0.1891413E-013  0.7246158E+02  0.7816164E-02  0.1226708E+00
        -11   -1    0    0    0    0  0.00000000000E+00  0.00000000000E+00  0.45593999997E+02  0.45594000000E+02  0.51100000000E-03 0.  1.
         11   -1    0    0    0    0 -0.00000000000E+00 -0.00000000000E+00 -0.45593999997E+02  0.45594000000E+02  0.51100000000E-03 0. -1.
    9900012    2    1    2    0    0  0.75710535029E+01  0.96804974106E+01 -0.14129610447E+02  0.72461580891E+02  0.70000013804E+02 0.  0.
        -12    1    1    2    0    0 -0.75710535029E+01 -0.96804974106E+01  0.14129610447E+02  0.18726419109E+02  0.00000000000E+00 0.  1.
         11    1    3    3    0    0  0.56265264551E+01  0.17890004691E+01 -0.14403129822E+02  0.15566260680E+02  0.51100000000E-03 0. -1.
        -11    1    3    3    0    0 -0.18142718284E+02  0.53529436260E+01 -0.20495358361E+02  0.27890355803E+02  0.51100000000E-03 0.  1.
         12    1    3    3    0    0  0.20087245332E+02  0.25385533155E+01  0.20768877735E+02  0.29004964409E+02  0.00000000000E+00 0. -1.
</event>
<event>
 7    1  0.1891413E-013  0.7246160E+02  0.7816164E-02  0.1226708E+00
        -11   -1    0    0    0    0  0.00000000000E+00  0.00000000000E+00  0.45593999997E+02  0.45594000000E+02  0.51100000000E-03 0.  1.
         11   -1    0    0    0    0 -0.00000000000E+00 -0.00000000000E+00 -0.45593999997E+02  0.45594000000E+02  0.51100000000E-03 0. -1.
    9900012    2    1    2    0    0 -0.31166963310E+01 -0.46160754521E+01 -0.17878928646E+02  0.72461600503E+02  0.70000039352E+02 0.  0.
        -12    1    1    2    0    0  0.31166963310E+01  0.46160754521E+01  0.17878928646E+02  0.18726399497E+02  0.00000000000E+00 0.  1.
         11    1    3    3    0    0  0.15562163911E+02  0.37390701349E+01 -0.29471788468E+01  0.16274134524E+02  0.51100000000E-03 0. -1.
        -11    1    3    3    0    0 -0.14876222897E+02  0.20281333105E+02 -0.88704186436E+01  0.26670560687E+02  0.51100000000E-03 0.  1.
        -12    1    3    3    0    0 -0.38026373456E+01 -0.28636478692E+02 -0.60613311557E+01  0.29516905292E+02  0.00000000000E+00 0.  1.
</event>
<event>
 7    1  0.1891413E-013  0.7246163E+02  0.7816164E-02  0.1226708E+00
        -11   -1    0    0    0    0  0.00000000000E+00  0.00000000000E+00  0.45593999997E+02  0.45594000000E+02  0.51100000000E-03 0.  1.
         11   -1    0    0    0    0 -0.00000000000E+00 -0.00000000000E+00 -0.45593999997E+02  0.45594000000E+02  0.51100000000E-03 0. -1.
    9900012    2    1    2    0    0  0.78020167519E+01 -0.35599844433E+01 -0.16647284991E+02  0.72461626827E+02  0.70000073644E+02 0.  0.
        -12    1    1    2    0    0 -0.78020167519E+01  0.35599844433E+01  0.16647284991E+02  0.18726373173E+02  0.00000000000E+00 0.  1.
         11    1    3    3    0    0  0.12160261889E+02 -0.41185998423E+00 -0.98141508935E+01  0.15631991424E+02  0.51100000000E-03 0. -1.
        -11    1    3    3    0    0  0.57988179535E+01 -0.26549755335E+02  0.66463326649E+01  0.27976589073E+02  0.51100000000E-03 0.  1.
         12    1    3    3    0    0 -0.10157063091E+02  0.23401630876E+02 -0.13479466763E+02  0.28853046330E+02  0.00000000000E+00 0. -1.
</event>
<event>
 7    1  0.1891413E-013  0.7246157E+02  0.7816164E-02  0.1226708E+00
        -11   -1    0    0    0    0  0.00000000000E+00  0.00000000000E+00  0.45593999997E+02  0.45594000000E+02  0.51100000000E-03 0.  1.
         11   -1    0    0    0    0 -0.00000000000E+00 -0.00000000000E+00 -0.45593999997E+02  0.45594000000E+02  0.51100000000E-03 0. -1.
    9900012    2    1    2    0    0 -0.18272356240E+02 -0.40243551000E+01  0.77769611329E+00  0.72461568205E+02  0.69999997278E+02 0.  0.
        -12    1    1    2    0    0  0.18272356240E+02  0.40243551000E+01 -0.77769611329E+00  0.18726431795E+02  0.00000000000E+00 0.  1.
         11    1    3    3    0    0  0.22757029171E+01  0.23154618703E+02 -0.96521807645E+01  0.25188882167E+02  0.51100000000E-03 0. -1.
        -11    1    3    3    0    0  0.82557591804E+01 -0.46706925882E+01  0.11254899040E+01  0.95519451780E+01  0.51100000000E-03 0.  1.
        -12    1    3    3    0    0 -0.28803818338E+02 -0.22508281215E+02  0.93043869738E+01  0.37720740860E+02  0.00000000000E+00 0.  1.
</event>
<event>
 7    1  0.1891413E-013  0.7246152E+02  0.7816164E-02  0.1226708E+00
        -11   -1    0    0    0    0  0.00000000000E+00  0.00000000000E+00  0.45593999997E+02  0.45594000000E+02  0.51100000000E-03 0.  1.
         11   -1    0    0    0    0 -0.00000000000E+00 -0.00000000000E+00 -0.45593999997E+02  0.45594000000E+02  0.51100000000E-03 0. -1.
    9900012    2    1    2    0    0  0.25913772677E+01 -0.24308188132E+01 -0.18386325131E+02  0.72461519602E+02  0.69999933964E+02 0.  0.
        -12    1    1    2    0    0 -0.25913772677E+01  0.24308188132E+01  0.18386325131E+02  0.18726480398E+02  0.00000000000E+00 0.  1.
         11    1    3    3    0    0 -0.24903315799E+00  0.16595189831E+01 -0.43031363561E+01  0.46187664510E+01  0.51100000000E-03 0. -1.
        -11    1    3    3    0    0  0.26934250373E+02  0.16734743812E+02 -0.16791762381E+02  0.35881315162E+02  0.51100000000E-03 0.  1.
         12    1    3    3    0    0 -0.24093839947E+02 -0.20825081608E+02  0.27085736062E+01  0.31961437990E+02  0.00000000000E+00 0. -1.
</event>
<event>
 7    1  0.1891413E-013  0.7246156E+02  0.7816164E-02  0.1226708E+00
        -11   -1    0    0    0    0  0.00000000000E+00  0.00000000000E+00  0.45593999997E+02  0.45594000000E+02  0.51100000000E-03 0.  1.
         11   -1    0    0    0    0 -0.00000000000E+00 -0.00000000000E+00 -0.45593999997E+02  0.45594000000E+02  0.51100000000E-03 0. -1.
    9900012    2    1    2    0    0 -0.90378962215E+01 -0.89133978874E+01 -0.13767622760E+02  0.72461557026E+02  0.69999982715E+02 0.  0.
        -12    1    1    2    0    0  0.90378962215E+01  0.89133978874E+01  0.13767622760E+02  0.18726442974E+02  0.00000000000E+00 0.  1.
         11    1    3    3    0    0 -0.18908568998E+00 -0.24386169995E+02 -0.82651712330E+01  0.25749448464E+02  0.51100000000E-03 0. -1.
        -11    1    3    3    0    0  0.12410902716E+02 -0.11115341983E+01 -0.13710889517E+02  0.18527128922E+02  0.51100000000E-03 0.  1.
         12    1    3    3    0    0 -0.21259713248E+02  0.16584306306E+02  0.82084379899E+01  0.28184979639E+02  0.00000000000E+00 0. -1.
</event>
<event>
 7    1  0.1891413E-013  0.7246152E+02  0.7816164E-02  0.1226708E+00
        -11   -1    0    0    0    0  0.00000000000E+00  0.00000000000E+00  0.45593999997E+02  0.45594000000E+02  0.51100000000E-03 0.  1.
         11   -1    0    0    0    0 -0.00000000000E+00 -0.00000000000E+00 -0.45593999997E+02  0.45594000000E+02  0.51100000000E-03 0. -1.
    9900012    2    1    2    0    0 -0.59773459211E+01  0.53527932023E+01 -0.16920401840E+02  0.72461519878E+02  0.69999934323E+02 0.  0.
        -12    1    1    2    0    0  0.59773459211E+01 -0.53527932023E+01  0.16920401840E+02  0.18726480122E+02  0.00000000000E+00 0.  1.
         11    1    3    3    0    0 -0.20099902050E+02 -0.16138352318E+02 -0.26507510427E+02  0.36974323351E+02  0.51100000000E-03 0. -1.
        -11    1    3    3    0    0 -0.95604430297E+00 -0.42385567859E+01  0.12487225834E+01  0.45209172396E+01  0.51100000000E-03 0.  1.
        -12    1    3    3    0    0  0.15078600432E+02  0.25729702306E+02  0.83383860037E+01  0.30966279287E+02  0.00000000000E+00 0.  1.
</event>
<event>
 7    1  0.1891413E-013  0.7246162E+02  0.7816164E-02  0.1226708E+00
        -11   -1    0    0    0    0  0.00000000000E+00  0.00000000000E+00  0.45593999997E+02  0.45594000000E+02  0.51100000000E-03 0.  1.
         11   -1    0    0    0    0 -0.00000000000E+00 -0.00000000000E+00 -0.45593999997E+02  0.45594000000E+02  0.51100000000E-03 0. -1.
    9900012    2    1    2    0    0 -0.98212763972E+01  0.74690950146E+00 -0.15926767115E+02  0.72461621423E+02  0.70000066604E+02 0.  0.
        -12    1    1    2    0    0  0.98212763972E+01 -0.74690950146E+00  0.15926767115E+02  0.18726378577E+02  0.00000000000E+00 0.  1.
         11    1    3    3    0    0 -0.52799641986E+01  0.11182650143E+02 -0.10528961307E+02  0.16241573588E+02  0.51100000000E-03 0. -1.
        -11    1    3    3    0    0 -0.17508853799E+02  0.80383817924E+01 -0.21215836418E+02  0.28658109819E+02  0.51100000000E-03 0.  1.
        -12    1    3    3    0    0  0.12967541600E+02 -0.18474122434E+02  0.15818030609E+02  0.27561938016E+02  0.00000000000E+00 0.  1.
</event>
<event>
 7    1  0.1891413E-013  0.7246199E+02  0.7816164E-02  0.1226707E+00
        -11   -1    0    0    0    0  0.00000000000E+00  0.00000000000E+00  0.45593999997E+02  0.45594000000E+02  0.51100000000E-03 0. -1.
         11   -1    0    0    0    0 -0.00000000000E+00 -0.00000000000E+00 -0.45593999997E+02  0.45594000000E+02  0.51100000000E-03 0.  1.
    9900012    2    1    2    0    0 -0.44725187518E+01 -0.13274573499E+02 -0.12427615404E+02  0.72461992679E+02  0.70000550232E+02 0.  0.
        -12    1    1    2    0    0  0.44725187518E+01  0.13274573499E+02  0.12427615404E+02  0.18726007321E+02  0.00000000000E+00 0.  1.
         11    1    3    3    0    0  0.84516776773E+01  0.51463634413E+01 -0.26978105555E+00  0.98989238966E+01  0.51100000000E-03 0. -1.
        -11    1    3    3    0    0 -0.28303090403E+01  0.47248330153E+01  0.20531170752E+02  0.21257085148E+02  0.51100000000E-03 0.  1.
        -12    1    3    3    0    0 -0.10093887389E+02 -0.23145769955E+02 -0.32689005101E+02  0.41305983634E+02  0.00000000000E+00 0.  1.
</event>
<event>
 7    1  0.1891413E-013  0.7246150E+02  0.7816164E-02  0.1226708E+00
        -11   -1    0    0    0    0  0.00000000000E+00  0.00000000000E+00  0.45593999997E+02  0.45594000000E+02  0.51100000000E-03 0.  1.
         11   -1    0    0    0    0 -0.00000000000E+00 -0.00000000000E+00 -0.45593999997E+02  0.45594000000E+02  0.51100000000E-03 0. -1.
    9900012    2    1    2    0    0  0.13329080228E+02  0.90370031798E+01 -0.95577155134E+01  0.72461501875E+02  0.69999910871E+02 0.  0.
        -12    1    1    2    0    0 -0.13329080228E+02 -0.90370031798E+01  0.95577155134E+01  0.18726498125E+02  0.00000000000E+00 0.  1.
         11    1    3    3    0    0 -0.20684023977E+02  0.10225733338E+02 -0.18748329128E+02  0.29730360165E+02  0.51100000000E-03 0. -1.
        -11    1    3    3    0    0  0.26656516230E+01 -0.42958061734E+01 -0.59270306511E+01  0.77903364404E+01  0.51100000000E-03 0.  1.
        -12    1    3    3    0    0  0.31347452582E+02  0.31070760151E+01  0.15117644265E+02  0.34940805270E+02  0.00000000000E+00 0.  1.
</event>
<event>
 7    1  0.1891413E-013  0.7246162E+02  0.7816164E-02  0.1226708E+00
        -11   -1    0    0    0    0  0.00000000000E+00  0.00000000000E+00  0.45593999997E+02  0.45594000000E+02  0.51100000000E-03 0. -1.
         11   -1    0    0    0    0 -0.00000000000E+00 -0.00000000000E+00 -0.45593999997E+02  0.45594000000E+02  0.51100000000E-03 0.  1.
    9900012    2    1    2    0    0  0.13741012841E+02 -0.12002123192E+02  0.42203174481E+01  0.72461615555E+02  0.70000058961E+02 0.  0.
        -12    1    1    2    0    0 -0.13741012841E+02  0.12002123192E+02 -0.42203174481E+01  0.18726384445E+02  0.00000000000E+00 0.  1.
         11    1    3    3    0    0  0.14116677784E+02  0.49527282320E+01  0.88801943767E+01  0.17397355001E+02  0.51100000000E-03 0. -1.
        -11    1    3    3    0    0  0.17953831165E+02  0.11157617767E+02  0.29420241114E+00  0.21140459859E+02  0.51100000000E-03 0.  1.
        -12    1    3    3    0    0 -0.18329496108E+02 -0.28112469190E+02 -0.49540793397E+01  0.33923800696E+02  0.00000000000E+00 0.  1.
</event>
<event>
 7    1  0.1891413E-013  0.7246157E+02  0.7816164E-02  0.1226708E+00
        -11   -1    0    0    0    0  0.00000000000E+00  0.00000000000E+00  0.45593999997E+02  0.45594000000E+02  0.51100000000E-03 0.  1.
         11   -1    0    0    0    0 -0.00000000000E+00 -0.00000000000E+00 -0.45593999997E+02  0.45594000000E+02  0.51100000000E-03 0. -1.
    9900012    2    1    2    0    0  0.79330626950E+01  0.98994264111E+00 -0.16934162487E+02  0.72461566029E+02  0.69999994443E+02 0.  0.
        -12    1    1    2    0    0 -0.79330626950E+01 -0.98994264111E+00  0.16934162487E+02  0.18726433971E+02  0.00000000000E+00 0.  1.
         11    1    3    3    0    0 -0.16794183914E+02 -0.11257549495E+01 -0.10163956172E+02  0.19662602647E+02  0.51100000000E-03 0. -1.
        -11    1    3    3    0    0  0.11252403836E+02  0.24039344001E+02 -0.49580482152E+01  0.27001646144E+02  0.51100000000E-03 0.  1.
        -12    1    3    3    0    0  0.13474842773E+02 -0.21923646411E+02 -0.18121580999E+01  0.25797317238E+02  0.00000000000E+00 0.  1.
</event>
<event>
 7    1  0.1891413E-013  0.7246162E+02  0.7816164E-02  0.1226708E+00
        -11   -1    0    0    0    0  0.00000000000E+00  0.00000000000E+00  0.45593999997E+02  0.45594000000E+02  0.51100000000E-03 0.  1.
         11   -1    0    0    0    0 -0.00000000000E+00 -0.00000000000E+00 -0.45593999997E+02  0.45594000000E+02  0.51100000000E-03 0. -1.
    9900012    2    1    2    0    0  0.12975806142E+02 -0.10662219047E+02  0.82838905532E+01  0.72461620138E+02  0.70000064931E+02 0.  0.
        -12    1    1    2    0    0 -0.12975806142E+02  0.10662219047E+02 -0.82838905532E+01  0.18726379862E+02  0.00000000000E+00 0.  1.
         11    1    3    3    0    0  0.97744830632E+01  0.73044887688E+01  0.70934752391E+01  0.14114300073E+02  0.51100000000E-03 0. -1.
        -11    1    3    3    0    0  0.25524886936E+02 -0.15424547791E+02  0.13490767532E+02  0.32732817424E+02  0.51100000000E-03 0.  1.
         12    1    3    3    0    0 -0.22323563857E+02 -0.25421600251E+01 -0.12300352217E+02  0.25614502641E+02  0.00000000000E+00 0. -1.
</event>
<event>
 7    1  0.1891413E-013  0.7246157E+02  0.7816164E-02  0.1226708E+00
        -11   -1    0    0    0    0  0.00000000000E+00  0.00000000000E+00  0.45593999997E+02  0.45594000000E+02  0.51100000000E-03 0.  1.
         11   -1    0    0    0    0 -0.00000000000E+00 -0.00000000000E+00 -0.45593999997E+02  0.45594000000E+02  0.51100000000E-03 0. -1.
    9900012    2    1    2    0    0  0.76236764160E+01  0.23900866925E+01 -0.16936540434E+02  0.72461565252E+02  0.69999993431E+02 0.  0.
        -12    1    1    2    0    0 -0.76236764160E+01 -0.23900866925E+01  0.16936540434E+02  0.18726434748E+02  0.00000000000E+00 0.  1.
         11    1    3    3    0    0 -0.53639019393E+01  0.23274043398E+02 -0.47057718112E+01  0.24343311786E+02  0.51100000000E-03 0. -1.
        -11    1    3    3    0    0 -0.90937738217E+01  0.34973119575E+01  0.50359144608E+01  0.10967604477E+02  0.51100000000E-03 0.  1.
        -12    1    3    3    0    0  0.22081352177E+02 -0.24381268663E+02 -0.17266683084E+02  0.37150648989E+02  0.00000000000E+00 0.  1.
</event>
<event>
 7    1  0.1891413E-013  0.7246157E+02  0.7816164E-02  0.1226708E+00
        -11   -1    0    0    0    0  0.00000000000E+00  0.00000000000E+00  0.45593999997E+02  0.45594000000E+02  0.51100000000E-03 0. -1.
         11   -1    0    0    0    0 -0.00000000000E+00 -0.00000000000E+00 -0.45593999997E+02  0.45594000000E+02  0.51100000000E-03 0.  1.
    9900012    2    1    2    0    0 -0.10793504788E+01  0.18487067028E+02  0.27825506591E+01  0.72461568602E+02  0.69999997795E+02 0.  0.
        -12    1    1    2    0    0  0.10793504788E+01 -0.18487067028E+02 -0.27825506591E+01  0.18726431398E+02  0.00000000000E+00 0.  1.
         11    1    3    3    0    0 -0.20732353319E+01  0.52403162514E+01  0.46488088755E+01  0.73055214310E+01  0.51100000000E-03 0. -1.
        -11    1    3    3    0    0 -0.16755822527E+02 -0.18698147886E+02 -0.11117093492E+02  0.27458479399E+02  0.51100000000E-03 0.  1.
         12    1    3    3    0    0  0.17749707380E+02  0.31944898662E+02  0.92508352754E+01  0.37697567772E+02  0.00000000000E+00 0. -1.
</event>
<event>
 7    1  0.1891413E-013  0.7246162E+02  0.7816164E-02  0.1226708E+00
        -11   -1    0    0    0    0  0.00000000000E+00  0.00000000000E+00  0.45593999997E+02  0.45594000000E+02  0.51100000000E-03 0. -1.
         11   -1    0    0    0    0 -0.00000000000E+00 -0.00000000000E+00 -0.45593999997E+02  0.45594000000E+02  0.51100000000E-03 0.  1.
    9900012    2    1    2    0    0  0.86864204977E+01  0.59635331464E+01  0.15480950448E+02  0.72461616061E+02  0.70000059619E+02 0.  0.
        -12    1    1    2    0    0 -0.86864204977E+01 -0.59635331464E+01 -0.15480950448E+02  0.18726383939E+02  0.00000000000E+00 0.  1.
         11    1    3    3    0    0 -0.76356488303E+01 -0.17157996643E+02  0.11286210872E+02  0.21910694603E+02  0.51100000000E-03 0. -1.
        -11    1    3    3    0    0 -0.65623980907E+01  0.83589839443E+01 -0.14164151369E+02  0.17707649916E+02  0.51100000000E-03 0.  1.
        -12    1    3    3    0    0  0.22884467419E+02  0.14762545845E+02  0.18358890945E+02  0.32843271542E+02  0.00000000000E+00 0.  1.
</event>
<event>
 7    1  0.1891413E-013  0.7246158E+02  0.7816164E-02  0.1226708E+00
        -11   -1    0    0    0    0  0.00000000000E+00  0.00000000000E+00  0.45593999997E+02  0.45594000000E+02  0.51100000000E-03 0. -1.
         11   -1    0    0    0    0 -0.00000000000E+00 -0.00000000000E+00 -0.45593999997E+02  0.45594000000E+02  0.51100000000E-03 0.  1.
    9900012    2    1    2    0    0 -0.56849985374E+01 -0.36358548736E+01  0.17468264782E+02  0.72461576862E+02  0.70000008556E+02 0.  0.
        -12    1    1    2    0    0  0.56849985374E+01  0.36358548736E+01 -0.17468264782E+02  0.18726423138E+02  0.00000000000E+00 0.  1.
         11    1    3    3    0    0 -0.25705493270E+02  0.20777264092E+02  0.10226664791E+02  0.34598435809E+02  0.51100000000E-03 0. -1.
        -11    1    3    3    0    0  0.62583815268E+01  0.14206949345E+01 -0.26825350008E+01  0.69556960632E+01  0.51100000000E-03 0.  1.
        -12    1    3    3    0    0  0.13762113206E+02 -0.25833813900E+02  0.99241349922E+01  0.30907444991E+02  0.00000000000E+00 0.  1.
</event>
<event>
 7    1  0.1891413E-013  0.7246157E+02  0.7816164E-02  0.1226708E+00
        -11   -1    0    0    0    0  0.00000000000E+00  0.00000000000E+00  0.45593999997E+02  0.45594000000E+02  0.51100000000E-03 0. -1.
         11   -1    0    0    0    0 -0.00000000000E+00 -0.00000000000E+00 -0.45593999997E+02  0.45594000000E+02  0.51100000000E-03 0.  1.
    9900012    2    1    2    0    0 -0.13042886152E+02 -0.77898675854E+01  0.10948982668E+02  0.72461571145E+02  0.70000001108E+02 0.  0.
        -12    1    1    2    0    0  0.13042886152E+02  0.77898675854E+01 -0.10948982668E+02  0.18726428855E+02  0.00000000000E+00 0.  1.
         11    1    3    3    0    0 -0.18568931025E+02  0.19600015832E+02 -0.37865029656E+01  0.27263591565E+02  0.51100000000E-03 0. -1.
        -11    1    3    3    0    0  0.34606867505E+01 -0.70634783013E+01 -0.10251503025E+02  0.12921392844E+02  0.51100000000E-03 0.  1.
         12    1    3    3    0    0  0.20653581225E+01 -0.20326405116E+02  0.24986988659E+02  0.32276586736E+02  0.00000000000E+00 0. -1.
</event>
<event>
 7    1  0.1891413E-013  0.7246112E+02  0.7816164E-02  0.1226709E+00
        -11   -1    0    0    0    0  0.00000000000E+00  0.00000000000E+00  0.45593999997E+02  0.45594000000E+02  0.51100000000E-03 0. -1.
         11   -1    0    0    0    0 -0.00000000000E+00 -0.00000000000E+00 -0.45593999997E+02  0.45594000000E+02  0.51100000000E-03 0.  1.
    9900012    2    1    2    0    0 -0.14448683528E+02  0.51452276038E+01 -0.10745156218E+02  0.72461115450E+02  0.69999407478E+02 0.  0.
        -12    1    1    2    0    0  0.14448683528E+02 -0.51452276038E+01  0.10745156218E+02  0.18726884550E+02  0.00000000000E+00 0.  1.
         11    1    3    3    0    0 -0.40934276547E+01 -0.28130318381E+01  0.51200314855E+01  0.71333036358E+01  0.51100000000E-03 0. -1.
        -11    1    3    3    0    0  0.92672203158E+01 -0.23643590376E+02 -0.14574219810E+01  0.25436682514E+02  0.51100000000E-03 0.  1.
         12    1    3    3    0    0 -0.19622476189E+02  0.31601849818E+02 -0.14407765722E+02  0.39891129300E+02  0.00000000000E+00 0. -1.
</event>
<event>
 7    1  0.1891413E-013  0.7246153E+02  0.7816164E-02  0.1226708E+00
        -11   -1    0    0    0    0  0.00000000000E+00  0.00000000000E+00  0.45593999997E+02  0.45594000000E+02  0.51100000000E-03 0. -1.
         11   -1    0    0    0    0 -0.00000000000E+00 -0.00000000000E+00 -0.45593999997E+02  0.45594000000E+02  0.51100000000E-03 0.  1.
    9900012    2    1    2    0    0  0.60655386900E+01 -0.16587303191E+02  0.62250554375E+01  0.72461529378E+02  0.69999946699E+02 0.  0.
        -12    1    1    2    0    0 -0.60655386900E+01  0.16587303191E+02 -0.62250554375E+01  0.18726470622E+02  0.00000000000E+00 0.  1.
         11    1    3    3    0    0 -0.16867247552E+02 -0.13903931544E+02 -0.71650580063E+01  0.23003508620E+02  0.51100000000E-03 0. -1.
        -11    1    3    3    0    0  0.34827613769E+01  0.16109463121E+02 -0.44332908298E+01  0.17067468960E+02  0.51100000000E-03 0.  1.
         12    1    3    3    0    0  0.19450024865E+02 -0.18792834768E+02  0.17823404274E+02  0.32390551798E+02  0.00000000000E+00 0. -1.
</event>
<event>
 7    1  0.1891413E-013  0.7246135E+02  0.7816164E-02  0.1226709E+00
        -11   -1    0    0    0    0  0.00000000000E+00  0.00000000000E+00  0.45593999997E+02  0.45594000000E+02  0.51100000000E-03 0. -1.
         11   -1    0    0    0    0 -0.00000000000E+00 -0.00000000000E+00 -0.45593999997E+02  0.45594000000E+02  0.51100000000E-03 0.  1.
    9900012    2    1    2    0    0 -0.10634445241E+02  0.10862022832E+02  0.10936745462E+02  0.72461351424E+02  0.69999714880E+02 0.  0.
        -12    1    1    2    0    0  0.10634445241E+02 -0.10862022832E+02 -0.10936745462E+02  0.18726648576E+02  0.00000000000E+00 0.  1.
         11    1    3    3    0    0 -0.78865710690E+01  0.11354795570E+02  0.11819973200E+02  0.18189039347E+02  0.51100000000E-03 0. -1.
        -11    1    3    3    0    0 -0.26421168165E+02  0.57606817056E+01 -0.89626231492E+01  0.28488457222E+02  0.51100000000E-03 0.  1.
         12    1    3    3    0    0  0.23673293993E+02 -0.62534544431E+01  0.80793954113E+01  0.25783854855E+02  0.00000000000E+00 0. -1.
</event>
<event>
 7    1  0.1891413E-013  0.7246156E+02  0.7816164E-02  0.1226708E+00
        -11   -1    0    0    0    0  0.00000000000E+00  0.00000000000E+00  0.45593999997E+02  0.45594000000E+02  0.51100000000E-03 0. -1.
         11   -1    0    0    0    0 -0.00000000000E+00 -0.00000000000E+00 -0.45593999997E+02  0.45594000000E+02  0.51100000000E-03 0.  1.
    9900012    2    1    2    0    0  0.55243619680E+01 -0.93193267332E+01  0.15274519765E+02  0.72461564675E+02  0.69999992680E+02 0.  0.
        -12    1    1    2    0    0 -0.55243619680E+01  0.93193267332E+01 -0.15274519765E+02  0.18726435325E+02  0.00000000000E+00 0.  1.
         11    1    3    3    0    0  0.72911579924E+01 -0.39365105877E+01  0.37478903665E+02  0.38383920080E+02  0.51100000000E-03 0. -1.
        -11    1    3    3    0    0 -0.43828092332E+01 -0.43129364667E+01  0.42486491319E+01  0.74740522776E+01  0.51100000000E-03 0.  1.
         12    1    3    3    0    0  0.26160132089E+01 -0.10698796788E+01 -0.26453033032E+02  0.26603592318E+02  0.00000000000E+00 0. -1.
</event>
<event>
 7    1  0.1891413E-013  0.7246160E+02  0.7816164E-02  0.1226708E+00
        -11   -1    0    0    0    0  0.00000000000E+00  0.00000000000E+00  0.45593999997E+02  0.45594000000E+02  0.51100000000E-03 0.  1.
         11   -1    0    0    0    0 -0.00000000000E+00 -0.00000000000E+00 -0.45593999997E+02  0.45594000000E+02  0.51100000000E-03 0. -1.
    9900012    2    1    2    0    0  0.17265088379E+02 -0.28390797178E+01  0.66733984034E+01  0.72461604281E+02  0.70000044274E+02 0.  0.
        -12    1    1    2    0    0 -0.17265088379E+02  0.28390797178E+01 -0.66733984034E+01  0.18726395719E+02  0.00000000000E+00 0.  1.
         11    1    3    3    0    0 -0.70481604605E-01  0.75643326541E+00 -0.11950550733E+02  0.11974674193E+02  0.51100000000E-03 0. -1.
        -11    1    3    3    0    0 -0.35417871175E+01 -0.25834516630E+02  0.30970886367E+01  0.26259445230E+02  0.51100000000E-03 0.  1.
         12    1    3    3    0    0  0.20877357101E+02  0.22239003647E+02  0.15526860500E+02  0.34227484858E+02  0.00000000000E+00 0. -1.
</event>
<event>
 7    1  0.1891413E-013  0.7246198E+02  0.7816164E-02  0.1226707E+00
        -11   -1    0    0    0    0  0.00000000000E+00  0.00000000000E+00  0.45593999997E+02  0.45594000000E+02  0.51100000000E-03 0.  1.
         11   -1    0    0    0    0 -0.00000000000E+00 -0.00000000000E+00 -0.45593999997E+02  0.45594000000E+02  0.51100000000E-03 0. -1.
    9900012    2    1    2    0    0  0.17793876809E+02  0.29022890093E+01 -0.50614834353E+01  0.72461976718E+02  0.70000529440E+02 0.  0.
        -12    1    1    2    0    0 -0.17793876809E+02 -0.29022890093E+01  0.50614834353E+01  0.18726023282E+02  0.00000000000E+00 0.  1.
         11    1    3    3    0    0 -0.14322507993E+02 -0.42160602500E+01 -0.21279900336E+02  0.25995067951E+02  0.51100000000E-03 0. -1.
        -11    1    3    3    0    0  0.57381630077E+01 -0.67299912209E+01 -0.47464646117E+01  0.10037341436E+02  0.51100000000E-03 0.  1.
        -12    1    3    3    0    0  0.26378221794E+02  0.13848340480E+02  0.20964881512E+02  0.36429567331E+02  0.00000000000E+00 0.  1.
</event>
<event>
 7    1  0.1891413E-013  0.7246126E+02  0.7816164E-02  0.1226709E+00
        -11   -1    0    0    0    0  0.00000000000E+00  0.00000000000E+00  0.45593999997E+02  0.45594000000E+02  0.51100000000E-03 0.  1.
         11   -1    0    0    0    0 -0.00000000000E+00 -0.00000000000E+00 -0.45593999997E+02  0.45594000000E+02  0.51100000000E-03 0. -1.
    9900012    2    1    2    0    0 -0.76150657541E+01  0.10101264574E+01 -0.17078680166E+02  0.72461257140E+02  0.69999592058E+02 0.  0.
        -12    1    1    2    0    0  0.76150657541E+01 -0.10101264574E+01  0.17078680166E+02  0.18726742860E+02  0.00000000000E+00 0.  1.
         11    1    3    3    0    0  0.49317903437E+01  0.19477793334E+02 -0.18086416648E+02  0.27033783616E+02  0.51100000000E-03 0. -1.
        -11    1    3    3    0    0  0.32528442233E+01  0.10960170221E+02  0.34372363161E+01  0.11938212620E+02  0.51100000000E-03 0.  1.
         12    1    3    3    0    0 -0.15799700321E+02 -0.29427837098E+02 -0.24294998344E+01  0.33489260904E+02  0.00000000000E+00 0. -1.
</event>
<event>
 7    1  0.1891413E-013  0.7246145E+02  0.7816164E-02  0.1226708E+00
        -11   -1    0    0    0    0  0.00000000000E+00  0.00000000000E+00  0.45593999997E+02  0.45594000000E+02  0.51100000000E-03 0.  1.
         11   -1    0    0    0    0 -0.00000000000E+00 -0.00000000000E+00 -0.45593999997E+02  0.45594000000E+02  0.51100000000E-03 0. -1.
    9900012    2    1    2    0    0  0.67158777003E+01  0.17404124284E+02 -0.16361593016E+01  0.72461452731E+02  0.69999846851E+02 0.  0.
        -12    1    1    2    0    0 -0.67158777003E+01 -0.17404124284E+02  0.16361593016E+01  0.18726547269E+02  0.00000000000E+00 0.  1.
         11    1    3    3    0    0  0.55025706027E+01  0.24702549017E+01  0.28143947813E+01  0.66559192275E+01  0.51100000000E-03 0. -1.
        -11    1    3    3    0    0  0.14335122810E+02  0.32575609130E+02  0.12838909862E+02  0.37835217230E+02  0.51100000000E-03 0.  1.
         12    1    3    3    0    0 -0.13121815712E+02 -0.17641739748E+02 -0.17289463945E+02  0.27970316273E+02  0.00000000000E+00 0. -1.
</event>
<event>
 7    1  0.1891413E-013  0.7246157E+02  0.7816164E-02  0.1226708E+00
        -11   -1    0    0    0    0  0.00000000000E+00  0.00000000000E+00  0.45593999997E+02  0.45594000000E+02  0.51100000000E-03 0.  1.
         11   -1    0    0    0    0 -0.00000000000E+00 -0.00000000000E+00 -0.45593999997E+02  0.45594000000E+02  0.51100000000E-03 0. -1.
    9900012    2    1    2    0    0  0.89005319833E+01 -0.13310247503E+02 -0.97106578537E+01  0.72461573909E+02  0.70000004709E+02 0.  0.
        -12    1    1    2    0    0 -0.89005319833E+01  0.13310247503E+02  0.97106578537E+01  0.18726426091E+02  0.00000000000E+00 0.  1.
         11    1    3    3    0    0  0.12801672536E+02 -0.17081175985E+02 -0.19208394327E+02  0.28716054841E+02  0.51100000000E-03 0. -1.
        -11    1    3    3    0    0 -0.22068603920E+01 -0.18214529604E+02  0.11419632486E+02  0.21611277793E+02  0.51100000000E-03 0.  1.
         12    1    3    3    0    0 -0.16942801606E+01  0.21985458086E+02 -0.19218960122E+01  0.22134241275E+02  0.00000000000E+00 0. -1.
</event>
<event>
 7    1  0.1891413E-013  0.7246145E+02  0.7816164E-02  0.1226708E+00
        -11   -1    0    0    0    0  0.00000000000E+00  0.00000000000E+00  0.45593999997E+02  0.45594000000E+02  0.51100000000E-03 0.  1.
         11   -1    0    0    0    0 -0.00000000000E+00 -0.00000000000E+00 -0.45593999997E+02  0.45594000000E+02  0.51100000000E-03 0. -1.
    9900012    2    1    2    0    0 -0.16295026195E+01  0.95138122271E+01 -0.16047295704E+02  0.72461451966E+02  0.69999845855E+02 0.  0.
        -12    1    1    2    0    0  0.16295026195E+01 -0.95138122271E+01  0.16047295704E+02  0.18726548034E+02  0.00000000000E+00 0.  1.
         11    1    3    3    0    0 -0.15796585742E+02  0.30869971962E+02 -0.24297849599E+02  0.42342328531E+02  0.51100000000E-03 0. -1.
        -11    1    3    3    0    0  0.19017561164E+01  0.15627786629E+01 -0.80912590613E+00  0.25910689818E+01  0.51100000000E-03 0.  1.
        -12    1    3    3    0    0  0.12265327006E+02 -0.22918938398E+02  0.90596798011E+01  0.27528054453E+02  0.00000000000E+00 0.  1.
</event>
<event>
 7    1  0.1891413E-013  0.7246157E+02  0.7816164E-02  0.1226708E+00
        -11   -1    0    0    0    0  0.00000000000E+00  0.00000000000E+00  0.45593999997E+02  0.45594000000E+02  0.51100000000E-03 0.  1.
         11   -1    0    0    0    0 -0.00000000000E+00 -0.00000000000E+00 -0.45593999997E+02  0.45594000000E+02  0.51100000000E-03 0. -1.
    9900012    2    1    2    0    0 -0.18395019884E+02  0.22295827407E+01  0.27076869298E+01  0.72461565095E+02  0.69999993227E+02 0.  0.
        -12    1    1    2    0    0  0.18395019884E+02 -0.22295827407E+01 -0.27076869298E+01  0.18726434905E+02  0.00000000000E+00 0.  1.
         11    1    3    3    0    0 -0.24310630103E+02  0.48403778595E+01 -0.15522558950E+02  0.29246979852E+02  0.51100000000E-03 0. -1.
        -11    1    3    3    0    0 -0.11865303510E+02 -0.96781467129E+01 -0.19146222623E+01  0.15431063795E+02  0.51100000000E-03 0.  1.
        -12    1    3    3    0    0  0.17780913729E+02  0.70673515941E+01  0.20144868142E+02  0.27783521448E+02  0.00000000000E+00 0.  1.
</event>
<event>
 7    1  0.1891413E-013  0.7246159E+02  0.7816164E-02  0.1226708E+00
        -11   -1    0    0    0    0  0.00000000000E+00  0.00000000000E+00  0.45593999997E+02  0.45594000000E+02  0.51100000000E-03 0.  1.
         11   -1    0    0    0    0 -0.00000000000E+00 -0.00000000000E+00 -0.45593999997E+02  0.45594000000E+02  0.51100000000E-03 0. -1.
    9900012    2    1    2    0    0  0.10767819013E+02  0.21950009502E+01 -0.15162935923E+02  0.72461586001E+02  0.70000020460E+02 0.  0.
        -12    1    1    2    0    0 -0.10767819013E+02 -0.21950009502E+01  0.15162935923E+02  0.18726413999E+02  0.00000000000E+00 0.  1.
         11    1    3    3    0    0  0.76848922809E+01 -0.21463781609E+02 -0.17046094597E+02  0.28466134820E+02  0.51100000000E-03 0. -1.
        -11    1    3    3    0    0 -0.85093718357E+01  0.67814329223E+01 -0.14249174951E+02  0.17928642686E+02  0.51100000000E-03 0.  1.
        -12    1    3    3    0    0  0.11592298568E+02  0.16877349637E+02  0.16132333625E+02  0.26066808494E+02  0.00000000000E+00 0.  1.
</event>
<event>
 7    1  0.1891413E-013  0.7246150E+02  0.7816164E-02  0.1226708E+00
        -11   -1    0    0    0    0  0.00000000000E+00  0.00000000000E+00  0.45593999997E+02  0.45594000000E+02  0.51100000000E-03 0.  1.
         11   -1    0    0    0    0 -0.00000000000E+00 -0.00000000000E+00 -0.45593999997E+02  0.45594000000E+02  0.51100000000E-03 0. -1.
    9900012    2    1    2    0    0 -0.56325772653E+01 -0.17320187559E+02  0.43551034806E+01  0.72461501393E+02  0.69999910244E+02 0.  0.
        -12    1    1    2    0    0  0.56325772653E+01  0.17320187559E+02 -0.43551034806E+01  0.18726498607E+02  0.00000000000E+00 0.  1.
         11    1    3    3    0    0  0.20185620265E+02  0.17491290009E+02  0.77050308027E+01  0.27798776800E+02  0.51100000000E-03 0.  1.
        -11    1    3    3    0    0 -0.11882762973E+01 -0.77310328707E+01 -0.17882949003E+01  0.80236443539E+01  0.51100000000E-03 0. -1.
        -12    1    3    3    0    0 -0.24629921233E+02 -0.27080444697E+02 -0.15616324218E+01  0.36639080239E+02  0.00000000000E+00 0.  1.
</event>
<event>
 7    1  0.1891413E-013  0.7246155E+02  0.7816164E-02  0.1226708E+00
        -11   -1    0    0    0    0  0.00000000000E+00  0.00000000000E+00  0.45593999997E+02  0.45594000000E+02  0.51100000000E-03 0.  1.
         11   -1    0    0    0    0 -0.00000000000E+00 -0.00000000000E+00 -0.45593999997E+02  0.45594000000E+02  0.51100000000E-03 0. -1.
    9900012    2    1    2    0    0  0.72276469677E+01 -0.14940902023E+02 -0.86724060178E+01  0.72461546516E+02  0.69999969024E+02 0.  0.
        -12    1    1    2    0    0 -0.72276469677E+01  0.14940902023E+02  0.86724060178E+01  0.18726453484E+02  0.00000000000E+00 0.  1.
         11    1    3    3    0    0 -0.14080964673E+02  0.14779674505E+01 -0.25560791432E+02  0.29220061821E+02  0.51100000000E-03 0. -1.
        -11    1    3    3    0    0 -0.61128478226E+01 -0.92662574855E+01  0.74624427511E+01  0.13376041581E+02  0.51100000000E-03 0.  1.
        -12    1    3    3    0    0  0.27421459463E+02 -0.71526119885E+01  0.94259426631E+01  0.29865443115E+02  0.00000000000E+00 0.  1.
</event>
<event>
 7    1  0.1891413E-013  0.7246120E+02  0.7816164E-02  0.1226709E+00
        -11   -1    0    0    0    0  0.00000000000E+00  0.00000000000E+00  0.45593999997E+02  0.45594000000E+02  0.51100000000E-03 0.  1.
         11   -1    0    0    0    0 -0.00000000000E+00 -0.00000000000E+00 -0.45593999997E+02  0.45594000000E+02  0.51100000000E-03 0. -1.
    9900012    2    1    2    0    0  0.70639776566E+01 -0.14086481084E+02 -0.10117526107E+02  0.72461199307E+02  0.69999516718E+02 0.  0.
        -12    1    1    2    0    0 -0.70639776566E+01  0.14086481084E+02  0.10117526107E+02  0.18726800693E+02  0.00000000000E+00 0.  1.
         11    1    3    3    0    0  0.26178678408E+02 -0.10186038295E+02  0.66120927371E+01  0.28858245788E+02  0.51100000000E-03 0. -1.
        -11    1    3    3    0    0 -0.19305346325E+02 -0.87370260075E+01  0.46396439612E+01  0.21692356178E+02  0.51100000000E-03 0.  1.
         12    1    3    3    0    0  0.19064557338E+00  0.48365832184E+01 -0.21369262806E+02  0.21910597341E+02  0.00000000000E+00 0. -1.
</event>
<event>
 7    1  0.1916217E-013  0.7246164E+02  0.7816164E-02  0.1226708E+00
        -11   -1    0    0    0    0  0.00000000000E+00  0.00000000000E+00  0.45593999997E+02  0.45594000000E+02  0.51100000000E-03 0. -1.
         11   -1    0    0    0    0 -0.00000000000E+00 -0.00000000000E+00 -0.45593999997E+02  0.45594000000E+02  0.51100000000E-03 0.  1.
    9900012    2    1    2    0    0 -0.18063432480E+01 -0.15992163670E+02  0.95741495356E+01  0.72461641195E+02  0.70000092361E+02 0.  0.
        -12    1    1    2    0    0  0.18063432480E+01  0.15992163670E+02 -0.95741495356E+01  0.18726358805E+02  0.00000000000E+00 0.  1.
         11    1    3    3    0    0  0.43118740049E+01  0.10094057208E+02 -0.33107339727E-03  0.10976440621E+02  0.51100000000E-03 0. -1.
        -11    1    3    3    0    0 -0.10181633546E+02  0.41246745130E+01 -0.17534673155E+02  0.20691625466E+02  0.51100000000E-03 0.  1.
         12    1    3    3    0    0  0.40634162926E+01 -0.30210895390E+02  0.27109153764E+02  0.40793575108E+02  0.00000000000E+00 0. -1.
</event>
<event>
 7    1  0.1891413E-013  0.7246159E+02  0.7816164E-02  0.1226708E+00
        -11   -1    0    0    0    0  0.00000000000E+00  0.00000000000E+00  0.45593999997E+02  0.45594000000E+02  0.51100000000E-03 0.  1.
         11   -1    0    0    0    0 -0.00000000000E+00 -0.00000000000E+00 -0.45593999997E+02  0.45594000000E+02  0.51100000000E-03 0. -1.
    9900012    2    1    2    0    0  0.14667640675E+02  0.33980893543E+01 -0.11135158831E+02  0.72461589334E+02  0.70000024803E+02 0.  0.
        -12    1    1    2    0    0 -0.14667640675E+02 -0.33980893543E+01  0.11135158831E+02  0.18726410666E+02  0.00000000000E+00 0.  1.
         11    1    3    3    0    0 -0.71669667357E+00 -0.10136886446E+02  0.57550179489E+01  0.11678628035E+02  0.51100000000E-03 0. -1.
        -11    1    3    3    0    0  0.21783513592E+02  0.18196766330E+02  0.12008347909E+02  0.30819542323E+02  0.51100000000E-03 0.  1.
         12    1    3    3    0    0 -0.63991762427E+01 -0.46617905298E+01 -0.28898524688E+02  0.29963418975E+02  0.00000000000E+00 0. -1.
</event>
<event>
 7    1  0.1891413E-013  0.7246144E+02  0.7816164E-02  0.1226708E+00
        -11   -1    0    0    0    0  0.00000000000E+00  0.00000000000E+00  0.45593999997E+02  0.45594000000E+02  0.51100000000E-03 0. -1.
         11   -1    0    0    0    0 -0.00000000000E+00 -0.00000000000E+00 -0.45593999997E+02  0.45594000000E+02  0.51100000000E-03 0.  1.
    9900012    2    1    2    0    0  0.10447184146E+02 -0.56656087768E+01  0.14472089681E+02  0.72461437071E+02  0.69999826452E+02 0.  0.
        -12    1    1    2    0    0 -0.10447184146E+02  0.56656087768E+01 -0.14472089681E+02  0.18726562929E+02  0.00000000000E+00 0.  1.
         11    1    3    3    0    0 -0.43082961876E+01 -0.10559857374E+02  0.64170301167E+01  0.13086263011E+02  0.51100000000E-03 0. -1.
        -11    1    3    3    0    0 -0.19172523346E+02 -0.62032335272E+01 -0.59779739919E+01  0.21019084922E+02  0.51100000000E-03 0.  1.
         12    1    3    3    0    0  0.33928003680E+02  0.11097482125E+02  0.14033033556E+02  0.38356089138E+02  0.00000000000E+00 0. -1.
</event>
<event>
 7    1  0.1891413E-013  0.7246141E+02  0.7816164E-02  0.1226708E+00
        -11   -1    0    0    0    0  0.00000000000E+00  0.00000000000E+00  0.45593999997E+02  0.45594000000E+02  0.51100000000E-03 0.  1.
         11   -1    0    0    0    0 -0.00000000000E+00 -0.00000000000E+00 -0.45593999997E+02  0.45594000000E+02  0.51100000000E-03 0. -1.
    9900012    2    1    2    0    0  0.14112616981E+02  0.11812584350E+02 -0.34615155328E+01  0.72461409364E+02  0.69999790357E+02 0.  0.
        -12    1    1    2    0    0 -0.14112616981E+02 -0.11812584350E+02  0.34615155328E+01  0.18726590636E+02  0.00000000000E+00 0.  1.
         11    1    3    3    0    0  0.17502542232E+02  0.17427877516E+02 -0.57915940888E+01  0.25369518357E+02  0.51100000000E-03 0. -1.
        -11    1    3    3    0    0  0.35821082214E+01  0.43286142566E+01  0.22695300569E+02  0.23380442017E+02  0.51100000000E-03 0.  1.
         12    1    3    3    0    0 -0.69720334728E+01 -0.99439074221E+01 -0.20365222013E+02  0.23711448990E+02  0.00000000000E+00 0. -1.
</event>
<event>
 7    1  0.1891413E-013  0.7246162E+02  0.7816164E-02  0.1226708E+00
        -11   -1    0    0    0    0  0.00000000000E+00  0.00000000000E+00  0.45593999997E+02  0.45594000000E+02  0.51100000000E-03 0. -1.
         11   -1    0    0    0    0 -0.00000000000E+00 -0.00000000000E+00 -0.45593999997E+02  0.45594000000E+02  0.51100000000E-03 0.  1.
    9900012    2    1    2    0    0 -0.15273295456E+01  0.11282534850E+02  0.14867719060E+02  0.72461617588E+02  0.70000061609E+02 0.  0.
        -12    1    1    2    0    0  0.15273295456E+01 -0.11282534850E+02 -0.14867719060E+02  0.18726382412E+02  0.00000000000E+00 0.  1.
         11    1    3    3    0    0 -0.27962325888E+01 -0.18692433495E+02 -0.85109468656E+01  0.20728294756E+02  0.51100000000E-03 0. -1.
        -11    1    3    3    0    0 -0.42389540981E+00 -0.18760983366E+01 -0.72571220426E+01  0.75076795942E+01  0.51100000000E-03 0.  1.
         12    1    3    3    0    0  0.16927984530E+01  0.31851066682E+02  0.30635787968E+02  0.44225643238E+02  0.00000000000E+00 0. -1.
</event>
<event>
 7    1  0.1891413E-013  0.7246157E+02  0.7816164E-02  0.1226708E+00
        -11   -1    0    0    0    0  0.00000000000E+00  0.00000000000E+00  0.45593999997E+02  0.45594000000E+02  0.51100000000E-03 0. -1.
         11   -1    0    0    0    0 -0.00000000000E+00 -0.00000000000E+00 -0.45593999997E+02  0.45594000000E+02  0.51100000000E-03 0.  1.
    9900012    2    1    2    0    0  0.43818499332E+01  0.13573598948E+02  0.12134078869E+02  0.72461573026E+02  0.70000003558E+02 0.  0.
        -12    1    1    2    0    0 -0.43818499332E+01 -0.13573598948E+02 -0.12134078869E+02  0.18726426974E+02  0.00000000000E+00 0.  1.
         11    1    3    3    0    0 -0.26901134550E+01 -0.20583332564E+02  0.23471254761E+02  0.31333848952E+02  0.51100000000E-03 0. -1.
        -11    1    3    3    0    0 -0.35912388966E+01  0.72202304817E+01  0.32471945762E+01  0.86932731407E+01  0.51100000000E-03 0.  1.
        -12    1    3    3    0    0  0.10663202285E+02  0.26936701030E+02 -0.14584370468E+02  0.32434450933E+02  0.00000000000E+00 0.  1.
</event>
<event>
 7    1  0.1891413E-013  0.7246155E+02  0.7816164E-02  0.1226708E+00
        -11   -1    0    0    0    0  0.00000000000E+00  0.00000000000E+00  0.45593999997E+02  0.45594000000E+02  0.51100000000E-03 0. -1.
         11   -1    0    0    0    0 -0.00000000000E+00 -0.00000000000E+00 -0.45593999997E+02  0.45594000000E+02  0.51100000000E-03 0.  1.
    9900012    2    1    2    0    0 -0.80792407890E+01  0.15670087883E+02  0.63130202405E+01  0.72461547839E+02  0.69999970748E+02 0.  0.
        -12    1    1    2    0    0  0.80792407890E+01 -0.15670087883E+02 -0.63130202405E+01  0.18726452161E+02  0.00000000000E+00 0.  1.
         11    1    3    3    0    0  0.34304472345E+01 -0.73912604654E+01  0.99295832526E+00  0.82088163576E+01  0.51100000000E-03 0. -1.
        -11    1    3    3    0    0 -0.20375293851E+02 -0.12968807846E+02 -0.70161105245E+01  0.25150912182E+02  0.51100000000E-03 0.  1.
        -12    1    3    3    0    0  0.88656058273E+01  0.36030156194E+02  0.12336172440E+02  0.39101819299E+02  0.00000000000E+00 0.  1.
</event>
<event>
 7    1  0.1891413E-013  0.7246154E+02  0.7816164E-02  0.1226708E+00
        -11   -1    0    0    0    0  0.00000000000E+00  0.00000000000E+00  0.45593999997E+02  0.45594000000E+02  0.51100000000E-03 0. -1.
         11   -1    0    0    0    0 -0.00000000000E+00 -0.00000000000E+00 -0.45593999997E+02  0.45594000000E+02  0.51100000000E-03 0.  1.
    9900012    2    1    2    0    0 -0.61997077912E+01  0.81063791794E+01  0.15701292784E+02  0.72461538637E+02  0.69999958761E+02 0.  0.
        -12    1    1    2    0    0  0.61997077912E+01 -0.81063791794E+01 -0.15701292784E+02  0.18726461363E+02  0.00000000000E+00 0.  1.
         11    1    3    3    0    0 -0.50606215219E+01  0.13145999193E+02 -0.91815743230E+01  0.16814532176E+02  0.51100000000E-03 0. -1.
        -11    1    3    3    0    0 -0.85753712268E+01  0.16437043410E+02 -0.39277421103E+01  0.18951003828E+02  0.51100000000E-03 0.  1.
         12    1    3    3    0    0  0.74362849575E+01 -0.21476663424E+02  0.28810609217E+02  0.36696002633E+02  0.00000000000E+00 0. -1.
</event>
<event>
 7    1  0.1891413E-013  0.7246156E+02  0.7816164E-02  0.1226708E+00
        -11   -1    0    0    0    0  0.00000000000E+00  0.00000000000E+00  0.45593999997E+02  0.45594000000E+02  0.51100000000E-03 0.  1.
         11   -1    0    0    0    0 -0.00000000000E+00 -0.00000000000E+00 -0.45593999997E+02  0.45594000000E+02  0.51100000000E-03 0. -1.
    9900012    2    1    2    0    0 -0.62181122955E+01  0.12844048843E+02 -0.12126216073E+02  0.72461558068E+02  0.69999984073E+02 0.  0.
        -12    1    1    2    0    0  0.62181122955E+01 -0.12844048843E+02  0.12126216073E+02  0.18726441932E+02  0.00000000000E+00 0.  1.
         11    1    3    3    0    0 -0.11821959916E+02 -0.12987237057E+02  0.13034901651E+02  0.21870887589E+02  0.51100000000E-03 0. -1.
        -11    1    3    3    0    0 -0.77524802681E+01 -0.21207818425E+01 -0.16610926246E+02  0.18453225652E+02  0.51100000000E-03 0.  1.
        -12    1    3    3    0    0  0.13356327888E+02  0.27952067742E+02 -0.85501914776E+01  0.32137444827E+02  0.00000000000E+00 0.  1.
</event>
<event>
 7    1  0.1891413E-013  0.7246154E+02  0.7816164E-02  0.1226708E+00
        -11   -1    0    0    0    0  0.00000000000E+00  0.00000000000E+00  0.45593999997E+02  0.45594000000E+02  0.51100000000E-03 0. -1.
         11   -1    0    0    0    0 -0.00000000000E+00 -0.00000000000E+00 -0.45593999997E+02  0.45594000000E+02  0.51100000000E-03 0.  1.
    9900012    2    1    2    0    0  0.32193623140E+01 -0.32708302653E+01  0.18155374785E+02  0.72461541234E+02  0.69999962144E+02 0.  0.
        -12    1    1    2    0    0 -0.32193623140E+01  0.32708302653E+01 -0.18155374785E+02  0.18726458766E+02  0.00000000000E+00 0.  1.
         11    1    3    3    0    0  0.63682744659E+01 -0.76276051990E+01  0.15736397408E+02  0.18611004389E+02  0.51100000000E-03 0. -1.
        -11    1    3    3    0    0 -0.14583952008E+02 -0.20412169185E+02 -0.49964508443E+01  0.25579539251E+02  0.51100000000E-03 0.  1.
         12    1    3    3    0    0  0.11435039856E+02  0.24768944119E+02  0.74154282213E+01  0.28270997594E+02  0.00000000000E+00 0. -1.
</event>
<event>
 7    1  0.1891413E-013  0.7246152E+02  0.7816164E-02  0.1226708E+00
        -11   -1    0    0    0    0  0.00000000000E+00  0.00000000000E+00  0.45593999997E+02  0.45594000000E+02  0.51100000000E-03 0.  1.
         11   -1    0    0    0    0 -0.00000000000E+00 -0.00000000000E+00 -0.45593999997E+02  0.45594000000E+02  0.51100000000E-03 0. -1.
    9900012    2    1    2    0    0  0.14751930283E+02 -0.82402906462E+01 -0.80721306730E+01  0.72461517933E+02  0.69999931789E+02 0.  0.
        -12    1    1    2    0    0 -0.14751930283E+02  0.82402906462E+01  0.80721306730E+01  0.18726482067E+02  0.00000000000E+00 0.  1.
         11    1    3    3    0    0 -0.28456400802E+01  0.15585251562E+02 -0.14516037198E+02  0.21487509626E+02  0.51100000000E-03 0. -1.
        -11    1    3    3    0    0  0.11267600199E+02  0.98373996847E+01  0.74415183212E+01  0.16706568827E+02  0.51100000000E-03 0.  1.
         12    1    3    3    0    0  0.63299701651E+01 -0.33662941893E+02 -0.99761179633E+00  0.34267439480E+02  0.00000000000E+00 0. -1.
</event>
<event>
 7    1  0.1891413E-013  0.7246157E+02  0.7816164E-02  0.1226708E+00
        -11   -1    0    0    0    0  0.00000000000E+00  0.00000000000E+00  0.45593999997E+02  0.45594000000E+02  0.51100000000E-03 0.  1.
         11   -1    0    0    0    0 -0.00000000000E+00 -0.00000000000E+00 -0.45593999997E+02  0.45594000000E+02  0.51100000000E-03 0. -1.
    9900012    2    1    2    0    0  0.17922992383E+02 -0.21908159529E+01 -0.49644562984E+01  0.72461570633E+02  0.70000000441E+02 0.  0.
        -12    1    1    2    0    0 -0.17922992383E+02  0.21908159529E+01  0.49644562984E+01  0.18726429367E+02  0.00000000000E+00 0.  1.
         11    1    3    3    0    0  0.67745218457E+01  0.26326284194E+02 -0.23740551216E+02  0.36091289227E+02  0.51100000000E-03 0. -1.
        -11    1    3    3    0    0 -0.48105640808E+00 -0.19843984561E+01  0.44991401693E+00  0.20908551801E+01  0.51100000000E-03 0.  1.
        -12    1    3    3    0    0  0.11629526945E+02 -0.26532701691E+02  0.18326180901E+02  0.34279426226E+02  0.00000000000E+00 0.  1.
</event>
<event>
 7    1  0.1891413E-013  0.7246200E+02  0.7816164E-02  0.1226707E+00
        -11   -1    0    0    0    0  0.00000000000E+00  0.00000000000E+00  0.45593999997E+02  0.45594000000E+02  0.51100000000E-03 0. -1.
         11   -1    0    0    0    0 -0.00000000000E+00 -0.00000000000E+00 -0.45593999997E+02  0.45594000000E+02  0.51100000000E-03 0.  1.
    9900012    2    1    2    0    0  0.15495461616E+02 -0.87632666589E+01 -0.58102447727E+01  0.72461998891E+02  0.70000558324E+02 0.  0.
        -12    1    1    2    0    0 -0.15495461616E+02  0.87632666589E+01  0.58102447727E+01  0.18726001109E+02  0.00000000000E+00 0.  1.
         11    1    3    3    0    0 -0.54447450170E+00  0.13979571851E+01 -0.45044159634E+01  0.47476836675E+01  0.51100000000E-03 0. -1.
        -11    1    3    3    0    0 -0.34681282662E+01  0.17915815717E+02 -0.21347457933E+02  0.28084129450E+02  0.51100000000E-03 0.  1.
         12    1    3    3    0    0  0.19508064384E+02 -0.28077039561E+02  0.20041629124E+02  0.39630185774E+02  0.00000000000E+00 0. -1.
</event>
<event>
 7    1  0.1891413E-013  0.7246163E+02  0.7816164E-02  0.1226708E+00
        -11   -1    0    0    0    0  0.00000000000E+00  0.00000000000E+00  0.45593999997E+02  0.45594000000E+02  0.51100000000E-03 0. -1.
         11   -1    0    0    0    0 -0.00000000000E+00 -0.00000000000E+00 -0.45593999997E+02  0.45594000000E+02  0.51100000000E-03 0.  1.
    9900012    2    1    2    0    0 -0.11785970492E+02 -0.60798133130E+01  0.13221341742E+02  0.72461625342E+02  0.70000071710E+02 0.  0.
        -12    1    1    2    0    0  0.11785970492E+02  0.60798133130E+01 -0.13221341742E+02  0.18726374658E+02  0.00000000000E+00 0.  1.
         11    1    3    3    0    0 -0.42605370109E+00 -0.24168408901E+02  0.21187178601E+02  0.32143273758E+02  0.51100000000E-03 0. -1.
        -11    1    3    3    0    0 -0.13324370257E+02 -0.46123365954E+01  0.38980552924E+01  0.14628989265E+02  0.51100000000E-03 0.  1.
        -12    1    3    3    0    0  0.19644534657E+01  0.22700932183E+02 -0.11863892151E+02  0.25689362319E+02  0.00000000000E+00 0.  1.
</event>
<event>
 7    1  0.1891413E-013  0.7246163E+02  0.7816164E-02  0.1226708E+00
        -11   -1    0    0    0    0  0.00000000000E+00  0.00000000000E+00  0.45593999997E+02  0.45594000000E+02  0.51100000000E-03 0. -1.
         11   -1    0    0    0    0 -0.00000000000E+00 -0.00000000000E+00 -0.45593999997E+02  0.45594000000E+02  0.51100000000E-03 0.  1.
    9900012    2    1    2    0    0 -0.12997940695E+02  0.15362280438E+01  0.13392925889E+02  0.72461630283E+02  0.70000078147E+02 0.  0.
        -12    1    1    2    0    0  0.12997940695E+02 -0.15362280438E+01 -0.13392925889E+02  0.18726369717E+02  0.00000000000E+00 0.  1.
         11    1    3    3    0    0  0.14879242448E+02 -0.28067529529E+01  0.37112394625E+01  0.15589836964E+02  0.51100000000E-03 0.  1.
        -11    1    3    3    0    0 -0.20726732426E+02 -0.19793976495E+02  0.13017633017E+02  0.31477892435E+02  0.51100000000E-03 0. -1.
         12    1    3    3    0    0 -0.71504507172E+01  0.24136957492E+02 -0.33359465907E+01  0.25393900884E+02  0.00000000000E+00 0. -1.
</event>
<event>
 7    1  0.1891413E-013  0.7246163E+02  0.7816164E-02  0.1226708E+00
        -11   -1    0    0    0    0  0.00000000000E+00  0.00000000000E+00  0.45593999997E+02  0.45594000000E+02  0.51100000000E-03 0.  1.
         11   -1    0    0    0    0 -0.00000000000E+00 -0.00000000000E+00 -0.45593999997E+02  0.45594000000E+02  0.51100000000E-03 0. -1.
    9900012    2    1    2    0    0  0.40864981625E+01 -0.21523263433E+01 -0.18147859850E+02  0.72461633747E+02  0.70000082659E+02 0.  0.
        -12    1    1    2    0    0 -0.40864981625E+01  0.21523263433E+01  0.18147859850E+02  0.18726366253E+02  0.00000000000E+00 0.  1.
         11    1    3    3    0    0 -0.11338729090E+02  0.10308936239E+02 -0.24255242508E+01  0.15515286394E+02  0.51100000000E-03 0. -1.
        -11    1    3    3    0    0 -0.16123465496E+01 -0.14219421065E+02  0.15647799081E+02  0.21204839380E+02  0.51100000000E-03 0.  1.
         12    1    3    3    0    0  0.17037573802E+02  0.17581584830E+01 -0.31370134680E+02  0.35741507972E+02  0.00000000000E+00 0. -1.
</event>
<event>
 7    1  0.1891413E-013  0.7246162E+02  0.7816164E-02  0.1226708E+00
        -11   -1    0    0    0    0  0.00000000000E+00  0.00000000000E+00  0.45593999997E+02  0.45594000000E+02  0.51100000000E-03 0.  1.
         11   -1    0    0    0    0 -0.00000000000E+00 -0.00000000000E+00 -0.45593999997E+02  0.45594000000E+02  0.51100000000E-03 0. -1.
    9900012    2    1    2    0    0 -0.17117475840E+02  0.57446861162E+01 -0.49666984297E+01  0.72461615112E+02  0.70000058383E+02 0.  0.
        -12    1    1    2    0    0  0.17117475840E+02 -0.57446861162E+01  0.49666984297E+01  0.18726384888E+02  0.00000000000E+00 0.  1.
         11    1    3    3    0    0 -0.13691960394E+02 -0.82155193856E+01 -0.14556496332E+02  0.21606853633E+02  0.51100000000E-03 0. -1.
        -11    1    3    3    0    0 -0.30526593538E+01 -0.17132653505E+02 -0.23208994227E+01  0.17556569131E+02  0.51100000000E-03 0.  1.
        -12    1    3    3    0    0 -0.37285609219E+00  0.31092859007E+02  0.11910697325E+02  0.33298192348E+02  0.00000000000E+00 0.  1.
</event>
<event>
 7    1  0.1891413E-013  0.7246165E+02  0.7816164E-02  0.1226708E+00
        -11   -1    0    0    0    0  0.00000000000E+00  0.00000000000E+00  0.45593999997E+02  0.45594000000E+02  0.51100000000E-03 0.  1.
         11   -1    0    0    0    0 -0.00000000000E+00 -0.00000000000E+00 -0.45593999997E+02  0.45594000000E+02  0.51100000000E-03 0. -1.
    9900012    2    1    2    0    0  0.10145035177E+02 -0.14927104814E+02 -0.49936051615E+01  0.72461647195E+02  0.70000100178E+02 0.  0.
        -12    1    1    2    0    0 -0.10145035177E+02  0.14927104814E+02  0.49936051615E+01  0.18726352805E+02  0.00000000000E+00 0.  1.
         11    1    3    3    0    0  0.11552931378E+02 -0.32180927568E+01 -0.10623665716E+02  0.16021504858E+02  0.51100000000E-03 0. -1.
        -11    1    3    3    0    0 -0.66695599665E+00  0.22097160022E+02  0.47642954992E+01  0.22614770024E+02  0.51100000000E-03 0.  1.
         12    1    3    3    0    0 -0.74094020442E+00 -0.33806172079E+02  0.86576505526E+00  0.33825372314E+02  0.00000000000E+00 0. -1.
</event>
<event>
 7    1  0.1891413E-013  0.7246159E+02  0.7816164E-02  0.1226708E+00
        -11   -1    0    0    0    0  0.00000000000E+00  0.00000000000E+00  0.45593999997E+02  0.45594000000E+02  0.51100000000E-03 0.  1.
         11   -1    0    0    0    0 -0.00000000000E+00 -0.00000000000E+00 -0.45593999997E+02  0.45594000000E+02  0.51100000000E-03 0. -1.
    9900012    2    1    2    0    0  0.15893467350E+02 -0.27854627604E+01  0.95035472648E+01  0.72461587695E+02  0.70000022667E+02 0.  0.
        -12    1    1    2    0    0 -0.15893467350E+02  0.27854627604E+01 -0.95035472648E+01  0.18726412305E+02  0.00000000000E+00 0.  1.
         11    1    3    3    0    0 -0.91343549138E+01 -0.10073029015E+02  0.15149270607E+02  0.20356884669E+02  0.51100000000E-03 0. -1.
        -11    1    3    3    0    0  0.11079500622E+02  0.17927228201E+02  0.14355974943E+02  0.25499703171E+02  0.51100000000E-03 0.  1.
         12    1    3    3    0    0  0.13948321642E+02 -0.10639661946E+02 -0.20001698285E+02  0.26604999854E+02  0.00000000000E+00 0. -1.
</event>
<event>
 7    1  0.1891413E-013  0.7246156E+02  0.7816164E-02  0.1226708E+00
        -11   -1    0    0    0    0  0.00000000000E+00  0.00000000000E+00  0.45593999997E+02  0.45594000000E+02  0.51100000000E-03 0. -1.
         11   -1    0    0    0    0 -0.00000000000E+00 -0.00000000000E+00 -0.45593999997E+02  0.45594000000E+02  0.51100000000E-03 0.  1.
    9900012    2    1    2    0    0  0.77464970039E+01  0.16747578506E+02  0.31921954807E+01  0.72461555766E+02  0.69999981074E+02 0.  0.
        -12    1    1    2    0    0 -0.77464970039E+01 -0.16747578506E+02 -0.31921954807E+01  0.18726444234E+02  0.00000000000E+00 0.  1.
         11    1    3    3    0    0  0.21886972387E+02  0.15102916211E+02  0.17727186170E+02  0.31959204748E+02  0.51100000000E-03 0. -1.
        -11    1    3    3    0    0 -0.49026341877E+00 -0.10276902970E+02  0.69336651397E+01  0.12406885403E+02  0.51100000000E-03 0.  1.
        -12    1    3    3    0    0 -0.13650211964E+02  0.11921565265E+02 -0.21468655829E+02  0.28095465615E+02  0.00000000000E+00 0.  1.
</event>
<event>
 7    1  0.1891413E-013  0.7246156E+02  0.7816164E-02  0.1226708E+00
        -11   -1    0    0    0    0  0.00000000000E+00  0.00000000000E+00  0.45593999997E+02  0.45594000000E+02  0.51100000000E-03 0. -1.
         11   -1    0    0    0    0 -0.00000000000E+00 -0.00000000000E+00 -0.45593999997E+02  0.45594000000E+02  0.51100000000E-03 0.  1.
    9900012    2    1    2    0    0  0.43972244988E+01 -0.16648341090E+02  0.73604861535E+01  0.72461558780E+02  0.69999985000E+02 0.  0.
        -12    1    1    2    0    0 -0.43972244988E+01  0.16648341090E+02 -0.73604861535E+01  0.18726441220E+02  0.00000000000E+00 0.  1.
         11    1    3    3    0    0  0.65312971444E+01 -0.20901690317E+02 -0.15631206724E+01  0.21954084972E+02  0.51100000000E-03 0. -1.
        -11    1    3    3    0    0 -0.40386984972E+01 -0.22183008994E+02  0.21811518466E-01  0.22547670602E+02  0.51100000000E-03 0.  1.
         12    1    3    3    0    0  0.19046258517E+01  0.26436358220E+02  0.89017953074E+01  0.27959803205E+02  0.00000000000E+00 0. -1.
</event>
<event>
 7    1  0.1891413E-013  0.7246161E+02  0.7816164E-02  0.1226708E+00
        -11   -1    0    0    0    0  0.00000000000E+00  0.00000000000E+00  0.45593999997E+02  0.45594000000E+02  0.51100000000E-03 0. -1.
         11   -1    0    0    0    0 -0.00000000000E+00 -0.00000000000E+00 -0.45593999997E+02  0.45594000000E+02  0.51100000000E-03 0.  1.
    9900012    2    1    2    0    0 -0.15791389026E+02  0.69234344858E+01  0.73058729055E+01  0.72461609762E+02  0.70000051414E+02 0.  0.
        -12    1    1    2    0    0  0.15791389026E+02 -0.69234344858E+01 -0.73058729055E+01  0.18726390238E+02  0.00000000000E+00 0.  1.
         11    1    3    3    0    0  0.10575725116E+02  0.23269892759E+02  0.32169005693E+01  0.25762032533E+02  0.51100000000E-03 0. -1.
        -11    1    3    3    0    0  0.48110131990E+01 -0.27006495955E+01 -0.87338541797E+01  0.10330516218E+02  0.51100000000E-03 0.  1.
         12    1    3    3    0    0 -0.31178127340E+02 -0.13645808677E+02  0.12822826516E+02  0.36369061010E+02  0.00000000000E+00 0. -1.
</event>
<event>
 7    1  0.1891413E-013  0.7246159E+02  0.7816164E-02  0.1226708E+00
        -11   -1    0    0    0    0  0.00000000000E+00  0.00000000000E+00  0.45593999997E+02  0.45594000000E+02  0.51100000000E-03 0. -1.
         11   -1    0    0    0    0 -0.00000000000E+00 -0.00000000000E+00 -0.45593999997E+02  0.45594000000E+02  0.51100000000E-03 0.  1.
    9900012    2    1    2    0    0  0.66331670131E+01 -0.57687926303E+01  0.16534827652E+02  0.72461590880E+02  0.70000026817E+02 0.  0.
        -12    1    1    2    0    0 -0.66331670131E+01  0.57687926303E+01 -0.16534827652E+02  0.18726409120E+02  0.00000000000E+00 0.  1.
         11    1    3    3    0    0  0.12602479528E+02  0.31566920442E+01 -0.20468616026E+02  0.24243585485E+02  0.51100000000E-03 0. -1.
        -11    1    3    3    0    0  0.89539187052E+01  0.18253580433E+01  0.31047505659E+01  0.96511174743E+01  0.51100000000E-03 0.  1.
        -12    1    3    3    0    0 -0.14923231220E+02 -0.10750842718E+02  0.33898693112E+02  0.38566887921E+02  0.00000000000E+00 0.  1.
</event>
<event>
 7    1  0.1891413E-013  0.7246159E+02  0.7816164E-02  0.1226708E+00
        -11   -1    0    0    0    0  0.00000000000E+00  0.00000000000E+00  0.45593999997E+02  0.45594000000E+02  0.51100000000E-03 0.  1.
         11   -1    0    0    0    0 -0.00000000000E+00 -0.00000000000E+00 -0.45593999997E+02  0.45594000000E+02  0.51100000000E-03 0. -1.
    9900012    2    1    2    0    0  0.89392392497E-01  0.58485321253E+01 -0.17789468193E+02  0.72461588234E+02  0.70000023370E+02 0.  0.
        -12    1    1    2    0    0 -0.89392392497E-01 -0.58485321253E+01  0.17789468193E+02  0.18726411766E+02  0.00000000000E+00 0.  1.
         11    1    3    3    0    0  0.16081892359E+02  0.24076934765E+02 -0.36646668919E+01  0.29184856231E+02  0.51100000000E-03 0. -1.
        -11    1    3    3    0    0 -0.17310216431E+02 -0.55653758025E+01  0.62706638627E+01  0.19233778262E+02  0.51100000000E-03 0.  1.
         12    1    3    3    0    0  0.13177164641E+01 -0.12663026837E+02 -0.20395465164E+02  0.24042953742E+02  0.00000000000E+00 0. -1.
</event>
<event>
 7    1  0.1891413E-013  0.7246155E+02  0.7816164E-02  0.1226708E+00
        -11   -1    0    0    0    0  0.00000000000E+00  0.00000000000E+00  0.45593999997E+02  0.45594000000E+02  0.51100000000E-03 0.  1.
         11   -1    0    0    0    0 -0.00000000000E+00 -0.00000000000E+00 -0.45593999997E+02  0.45594000000E+02  0.51100000000E-03 0. -1.
    9900012    2    1    2    0    0 -0.18155652639E+02 -0.22902760418E+01  0.39757688497E+01  0.72461552792E+02  0.69999977200E+02 0.  0.
        -12    1    1    2    0    0  0.18155652639E+02  0.22902760418E+01 -0.39757688497E+01  0.18726447208E+02  0.00000000000E+00 0.  1.
         11    1    3    3    0    0 -0.14067720556E+02  0.25571176436E+00  0.51665704974E+01  0.14988649076E+02  0.51100000000E-03 0. -1.
        -11    1    3    3    0    0 -0.14861028454E+02 -0.18013533583E+02  0.18812674515E+02  0.29987568783E+02  0.51100000000E-03 0.  1.
        -12    1    3    3    0    0  0.10773096371E+02  0.15467545776E+02 -0.20003476163E+02  0.27485334933E+02  0.00000000000E+00 0.  1.
</event>
<event>
 7    1  0.1891413E-013  0.7246162E+02  0.7816164E-02  0.1226708E+00
        -11   -1    0    0    0    0  0.00000000000E+00  0.00000000000E+00  0.45593999997E+02  0.45594000000E+02  0.51100000000E-03 0.  1.
         11   -1    0    0    0    0 -0.00000000000E+00 -0.00000000000E+00 -0.45593999997E+02  0.45594000000E+02  0.51100000000E-03 0. -1.
    9900012    2    1    2    0    0  0.14213143718E+02 -0.99960568593E+01 -0.69815892757E+01  0.72461622991E+02  0.70000068647E+02 0.  0.
        -12    1    1    2    0    0 -0.14213143718E+02  0.99960568593E+01  0.69815892757E+01  0.18726377009E+02  0.00000000000E+00 0.  1.
         11    1    3    3    0    0  0.25243593968E+02 -0.73129014786E+01 -0.11415065194E+02  0.28653468867E+02  0.51100000000E-03 0. -1.
        -11    1    3    3    0    0 -0.15927666552E+02  0.59779183135E+01 -0.14543065121E+02  0.22381394339E+02  0.51100000000E-03 0.  1.
         12    1    3    3    0    0  0.48972163022E+01 -0.86610736943E+01  0.18976541040E+02  0.21426759785E+02  0.00000000000E+00 0. -1.
</event>
<event>
 7    1  0.1891413E-013  0.7246156E+02  0.7816164E-02  0.1226708E+00
        -11   -1    0    0    0    0  0.00000000000E+00  0.00000000000E+00  0.45593999997E+02  0.45594000000E+02  0.51100000000E-03 0.  1.
         11   -1    0    0    0    0 -0.00000000000E+00 -0.00000000000E+00 -0.45593999997E+02  0.45594000000E+02  0.51100000000E-03 0. -1.
    9900012    2    1    2    0    0 -0.72467452676E+01 -0.15276350891E+02 -0.80496879674E+01  0.72461556400E+02  0.69999981900E+02 0.  0.
        -12    1    1    2    0    0  0.72467452676E+01  0.15276350891E+02  0.80496879674E+01  0.18726443600E+02  0.00000000000E+00 0.  1.
         11    1    3    3    0    0 -0.63600027613E+01 -0.21512397776E+02 -0.19904331340E+02  0.29990253410E+02  0.51100000000E-03 0. -1.
        -11    1    3    3    0    0  0.89352713049E+01 -0.14709408890E+02  0.20024687805E+01  0.17326732660E+02  0.51100000000E-03 0.  1.
        -12    1    3    3    0    0 -0.98220138111E+01  0.20945455775E+02  0.98521745923E+01  0.25144570331E+02  0.00000000000E+00 0.  1.
</event>
<event>
 7    1  0.1891413E-013  0.7246159E+02  0.7816164E-02  0.1226708E+00
        -11   -1    0    0    0    0  0.00000000000E+00  0.00000000000E+00  0.45593999997E+02  0.45594000000E+02  0.51100000000E-03 0.  1.
         11   -1    0    0    0    0 -0.00000000000E+00 -0.00000000000E+00 -0.45593999997E+02  0.45594000000E+02  0.51100000000E-03 0. -1.
    9900012    2    1    2    0    0 -0.14673716534E+02  0.10559142773E+02  0.48851795144E+01  0.72461589989E+02  0.70000025656E+02 0.  0.
        -12    1    1    2    0    0  0.14673716534E+02 -0.10559142773E+02 -0.48851795144E+01  0.18726410011E+02  0.00000000000E+00 0.  1.
         11    1    3    3    0    0  0.35392769619E+01  0.25266963714E+02 -0.21529455827E+02  0.33383579874E+02  0.51100000000E-03 0. -1.
        -11    1    3    3    0    0 -0.59745707540E+01  0.15231605181E+00 -0.48864748091E+00  0.59964549941E+01  0.51100000000E-03 0.  1.
        -12    1    3    3    0    0 -0.12238422741E+02 -0.14860136993E+02  0.26903282822E+02  0.33081555121E+02  0.00000000000E+00 0.  1.
</event>
<event>
 7    1  0.1891413E-013  0.7246157E+02  0.7816164E-02  0.1226708E+00
        -11   -1    0    0    0    0  0.00000000000E+00  0.00000000000E+00  0.45593999997E+02  0.45594000000E+02  0.51100000000E-03 0.  1.
         11   -1    0    0    0    0 -0.00000000000E+00 -0.00000000000E+00 -0.45593999997E+02  0.45594000000E+02  0.51100000000E-03 0. -1.
    9900012    2    1    2    0    0  0.10319350776E+02 -0.11816789947E+02 -0.10225155924E+02  0.72461565776E+02  0.69999994114E+02 0.  0.
        -12    1    1    2    0    0 -0.10319350776E+02  0.11816789947E+02  0.10225155924E+02  0.18726434224E+02  0.00000000000E+00 0.  1.
         11    1    3    3    0    0 -0.54537276439E+01  0.52646243790E+01 -0.28911299662E+02  0.29888503868E+02  0.51100000000E-03 0. -1.
        -11    1    3    3    0    0  0.16562302519E+01 -0.45769268050E+01 -0.83169446843E+01  0.96365412244E+01  0.51100000000E-03 0.  1.
        -12    1    3    3    0    0  0.14116848168E+02 -0.12504487521E+02  0.27003088423E+02  0.32936520683E+02  0.00000000000E+00 0.  1.
</event>
<event>
 7    1  0.1891413E-013  0.7246160E+02  0.7816164E-02  0.1226708E+00
        -11   -1    0    0    0    0  0.00000000000E+00  0.00000000000E+00  0.45593999997E+02  0.45594000000E+02  0.51100000000E-03 0.  1.
         11   -1    0    0    0    0 -0.00000000000E+00 -0.00000000000E+00 -0.45593999997E+02  0.45594000000E+02  0.51100000000E-03 0. -1.
    9900012    2    1    2    0    0 -0.40247966963E+00  0.77632189742E+01 -0.17036676531E+02  0.72461604032E+02  0.70000043950E+02 0.  0.
        -12    1    1    2    0    0  0.40247966963E+00 -0.77632189742E+01  0.17036676531E+02  0.18726395968E+02  0.00000000000E+00 0.  1.
         11    1    3    3    0    0 -0.33573292801E+01  0.80170531830E+01  0.14818594555E+02  0.17179509495E+02  0.51100000000E-03 0.  1.
        -11    1    3    3    0    0  0.22620294353E+02  0.70024908745E+01 -0.21129135096E+02  0.31735673070E+02  0.51100000000E-03 0. -1.
         12    1    3    3    0    0 -0.19665444743E+02 -0.72563250833E+01 -0.10726135990E+02  0.23546421467E+02  0.00000000000E+00 0. -1.
</event>
<event>
 7    1  0.2202401E-013  0.7246154E+02  0.7816164E-02  0.1226708E+00
        -11   -1    0    0    0    0  0.00000000000E+00  0.00000000000E+00  0.45593999997E+02  0.45594000000E+02  0.51100000000E-03 0. -1.
         11   -1    0    0    0    0 -0.00000000000E+00 -0.00000000000E+00 -0.45593999997E+02  0.45594000000E+02  0.51100000000E-03 0.  1.
    9900012    2    1    2    0    0 -0.84184053302E+01 -0.45604993126E+01  0.16093872548E+02  0.72461536483E+02  0.69999955954E+02 0.  0.
        -12    1    1    2    0    0  0.84184053302E+01  0.45604993126E+01 -0.16093872548E+02  0.18726463517E+02  0.00000000000E+00 0.  1.
         11    1    3    3    0    0 -0.32070159823E+01 -0.33769670327E+01  0.27458617888E+01  0.54063495147E+01  0.51100000000E-03 0. -1.
        -11    1    3    3    0    0 -0.12960762203E+02 -0.70336128949E+01 -0.24163326137E+02  0.28307585512E+02  0.51100000000E-03 0.  1.
         12    1    3    3    0    0  0.77493728550E+01  0.58500806150E+01  0.37511336896E+02  0.38747601456E+02  0.00000000000E+00 0. -1.
</event>
<event>
 7    1  0.1891413E-013  0.7246217E+02  0.7816164E-02  0.1226706E+00
        -11   -1    0    0    0    0  0.00000000000E+00  0.00000000000E+00  0.45593999997E+02  0.45594000000E+02  0.51100000000E-03 0.  1.
         11   -1    0    0    0    0 -0.00000000000E+00 -0.00000000000E+00 -0.45593999997E+02  0.45594000000E+02  0.51100000000E-03 0. -1.
    9900012    2    1    2    0    0  0.15598226993E+02 -0.97694423024E+01  0.34510922471E+01  0.72462169553E+02  0.70000780641E+02 0.  0.
        -12    1    1    2    0    0 -0.15598226993E+02  0.97694423024E+01 -0.34510922471E+01  0.18725830447E+02  0.00000000000E+00 0.  1.
         11    1    3    3    0    0 -0.23943715265E+02 -0.15207465270E+02  0.21805495325E+01  0.28448608000E+02  0.51100000000E-03 0. -1.
        -11    1    3    3    0    0 -0.13511980762E+01  0.16446904573E+01  0.20250155715E+01  0.29379297588E+01  0.51100000000E-03 0.  1.
         12    1    3    3    0    0  0.40893140335E+02  0.37933325106E+01 -0.75447285688E+00  0.41075631794E+02  0.00000000000E+00 0. -1.
</event>
<event>
 7    1  0.1891413E-013  0.7246159E+02  0.7816164E-02  0.1226708E+00
        -11   -1    0    0    0    0  0.00000000000E+00  0.00000000000E+00  0.45593999997E+02  0.45594000000E+02  0.51100000000E-03 0. -1.
         11   -1    0    0    0    0 -0.00000000000E+00 -0.00000000000E+00 -0.45593999997E+02  0.45594000000E+02  0.51100000000E-03 0.  1.
    9900012    2    1    2    0    0  0.13889930199E+02  0.34766877946E+01  0.12069000322E+02  0.72461593838E+02  0.70000030670E+02 0.  0.
        -12    1    1    2    0    0 -0.13889930199E+02 -0.34766877946E+01 -0.12069000322E+02  0.18726406162E+02  0.00000000000E+00 0.  1.
         11    1    3    3    0    0  0.20638190131E+02  0.24628636681E+00 -0.13995316396E+02  0.24937209750E+02  0.51100000000E-03 0. -1.
        -11    1    3    3    0    0  0.44062337635E+01 -0.10850259234E+02 -0.41072054833E+01  0.12410163519E+02  0.51100000000E-03 0.  1.
        -12    1    3    3    0    0 -0.11154493695E+02  0.14080660662E+02  0.30171522201E+02  0.35114220569E+02  0.00000000000E+00 0.  1.
</event>
<event>
 7    1  0.1891413E-013  0.7246150E+02  0.7816164E-02  0.1226708E+00
        -11   -1    0    0    0    0  0.00000000000E+00  0.00000000000E+00  0.45593999997E+02  0.45594000000E+02  0.51100000000E-03 0.  1.
         11   -1    0    0    0    0 -0.00000000000E+00 -0.00000000000E+00 -0.45593999997E+02  0.45594000000E+02  0.51100000000E-03 0. -1.
    9900012    2    1    2    0    0  0.12018770666E+02  0.30630461633E+01 -0.14030281562E+02  0.72461497368E+02  0.69999905000E+02 0.  0.
        -12    1    1    2    0    0 -0.12018770666E+02 -0.30630461633E+01  0.14030281562E+02  0.18726502632E+02  0.00000000000E+00 0.  1.
         11    1    3    3    0    0  0.97619258296E+01 -0.43481875392E+01 -0.16586137203E+02  0.19730734360E+02  0.51100000000E-03 0. -1.
        -11    1    3    3    0    0  0.19888711212E+02  0.94343661321E+01  0.18590270588E+02  0.28812605901E+02  0.51100000000E-03 0.  1.
         12    1    3    3    0    0 -0.17631866376E+02 -0.20231324296E+01 -0.16034414947E+02  0.23918157108E+02  0.00000000000E+00 0. -1.
</event>
<event>
 7    1  0.1891413E-013  0.7246174E+02  0.7816164E-02  0.1226708E+00
        -11   -1    0    0    0    0  0.00000000000E+00  0.00000000000E+00  0.45593999997E+02  0.45594000000E+02  0.51100000000E-03 0.  1.
         11   -1    0    0    0    0 -0.00000000000E+00 -0.00000000000E+00 -0.45593999997E+02  0.45594000000E+02  0.51100000000E-03 0. -1.
    9900012    2    1    2    0    0  0.93193559708E+00 -0.18700035286E+02 -0.33590766447E+00  0.72461744165E+02  0.70000226498E+02 0.  0.
        -12    1    1    2    0    0 -0.93193559708E+00  0.18700035286E+02  0.33590766447E+00  0.18726255835E+02  0.00000000000E+00 0.  1.
         11    1    3    3    0    0 -0.30897954608E+02  0.13585875850E+00 -0.20186856388E+01  0.30964126800E+02  0.51100000000E-03 0. -1.
        -11    1    3    3    0    0  0.90488909587E+01 -0.17616762009E+00  0.71658202173E+01  0.11543935302E+02  0.51100000000E-03 0.  1.
        -12    1    3    3    0    0  0.22780999246E+02 -0.18659726424E+02 -0.54830422430E+01  0.29953682062E+02  0.00000000000E+00 0.  1.
</event>
<event>
 7    1  0.1891413E-013  0.7246158E+02  0.7816164E-02  0.1226708E+00
        -11   -1    0    0    0    0  0.00000000000E+00  0.00000000000E+00  0.45593999997E+02  0.45594000000E+02  0.51100000000E-03 0. -1.
         11   -1    0    0    0    0 -0.00000000000E+00 -0.00000000000E+00 -0.45593999997E+02  0.45594000000E+02  0.51100000000E-03 0.  1.
    9900012    2    1    2    0    0  0.65550365184E+01 -0.16042154326E+02  0.70964392132E+01  0.72461583667E+02  0.70000017420E+02 0.  0.
        -12    1    1    2    0    0 -0.65550365184E+01  0.16042154326E+02 -0.70964392132E+01  0.18726416333E+02  0.00000000000E+00 0.  1.
         11    1    3    3    0    0  0.94855331559E+01 -0.10093109938E+02 -0.12808040307E+01  0.13909948479E+02  0.51100000000E-03 0. -1.
        -11    1    3    3    0    0  0.23661991000E+02  0.10197180214E+02 -0.17744628230E+01  0.25826750105E+02  0.51100000000E-03 0.  1.
        -12    1    3    3    0    0 -0.26592487637E+02 -0.16146224602E+02  0.10151706067E+02  0.32724885083E+02  0.00000000000E+00 0.  1.
</event>
<event>
 7    1  0.1891413E-013  0.7246151E+02  0.7816164E-02  0.1226708E+00
        -11   -1    0    0    0    0  0.00000000000E+00  0.00000000000E+00  0.45593999997E+02  0.45594000000E+02  0.51100000000E-03 0.  1.
         11   -1    0    0    0    0 -0.00000000000E+00 -0.00000000000E+00 -0.45593999997E+02  0.45594000000E+02  0.51100000000E-03 0. -1.
    9900012    2    1    2    0    0 -0.13137322101E+02 -0.11830639154E+02  0.61747971609E+01  0.72461511414E+02  0.69999923298E+02 0.  0.
        -12    1    1    2    0    0  0.13137322101E+02  0.11830639154E+02 -0.61747971609E+01  0.18726488586E+02  0.00000000000E+00 0.  1.
         11    1    3    3    0    0  0.20045498528E+01 -0.15268598942E+02 -0.11842718150E+02  0.19426742064E+02  0.51100000000E-03 0. -1.
        -11    1    3    3    0    0 -0.13379250955E+02 -0.55622900547E+01 -0.13746819778E+02  0.19972943725E+02  0.51100000000E-03 0.  1.
        -12    1    3    3    0    0 -0.17626209987E+01  0.90002498431E+01  0.31764335089E+02  0.33061825625E+02  0.00000000000E+00 0.  1.
</event>
<event>
 7    1  0.1891413E-013  0.7246166E+02  0.7816164E-02  0.1226708E+00
        -11   -1    0    0    0    0  0.00000000000E+00  0.00000000000E+00  0.45593999997E+02  0.45594000000E+02  0.51100000000E-03 0. -1.
         11   -1    0    0    0    0 -0.00000000000E+00 -0.00000000000E+00 -0.45593999997E+02  0.45594000000E+02  0.51100000000E-03 0.  1.
    9900012    2    1    2    0    0  0.79532763957E+01  0.16409995064E+02 -0.42583086355E+01  0.72461661974E+02  0.70000119429E+02 0.  0.
        -12    1    1    2    0    0 -0.79532763957E+01 -0.16409995064E+02  0.42583086355E+01  0.18726338026E+02  0.00000000000E+00 0.  1.
         11    1    3    3    0    0 -0.15745175903E+02  0.17130128749E+02 -0.21212900463E+02  0.31485536703E+02  0.51100000000E-03 0. -1.
        -11    1    3    3    0    0  0.32072131024E+01  0.60285401071E+01 -0.62747980847E+01  0.92737588373E+01  0.51100000000E-03 0.  1.
         12    1    3    3    0    0  0.20491239196E+02 -0.67486737921E+01  0.23229389913E+02  0.31702366433E+02  0.00000000000E+00 0. -1.
</event>
<event>
 7    1  0.1891413E-013  0.7246158E+02  0.7816164E-02  0.1226708E+00
        -11   -1    0    0    0    0  0.00000000000E+00  0.00000000000E+00  0.45593999997E+02  0.45594000000E+02  0.51100000000E-03 0.  1.
         11   -1    0    0    0    0 -0.00000000000E+00 -0.00000000000E+00 -0.45593999997E+02  0.45594000000E+02  0.51100000000E-03 0. -1.
    9900012    2    1    2    0    0  0.16052970799E+02 -0.26787476372E+01 -0.92631039168E+01  0.72461584044E+02  0.70000017911E+02 0.  0.
        -12    1    1    2    0    0 -0.16052970799E+02  0.26787476372E+01  0.92631039168E+01  0.18726415956E+02  0.00000000000E+00 0.  1.
         11    1    3    3    0    0 -0.79925038665E+01 -0.11171602718E+02 -0.11758272727E+01  0.13786493222E+02  0.51100000000E-03 0. -1.
        -11    1    3    3    0    0 -0.21705308103E+01 -0.12096123510E+02  0.14044843453E+02  0.18662396305E+02  0.51100000000E-03 0.  1.
         12    1    3    3    0    0  0.26216005476E+02  0.20588978590E+02 -0.22132120097E+02  0.40012694517E+02  0.00000000000E+00 0. -1.
</event>
<event>
 7    1  0.1891413E-013  0.7246157E+02  0.7816164E-02  0.1226708E+00
        -11   -1    0    0    0    0  0.00000000000E+00  0.00000000000E+00  0.45593999997E+02  0.45594000000E+02  0.51100000000E-03 0. -1.
         11   -1    0    0    0    0 -0.00000000000E+00 -0.00000000000E+00 -0.45593999997E+02  0.45594000000E+02  0.51100000000E-03 0.  1.
    9900012    2    1    2    0    0  0.13325528287E+02  0.79352761911E+01  0.10494796507E+02  0.72461573056E+02  0.70000003598E+02 0.  0.
        -12    1    1    2    0    0 -0.13325528287E+02 -0.79352761911E+01 -0.10494796507E+02  0.18726426944E+02  0.00000000000E+00 0.  1.
         11    1    3    3    0    0  0.96142825284E+01  0.24477119814E+02  0.31630630317E+01  0.26487143880E+02  0.51100000000E-03 0. -1.
        -11    1    3    3    0    0 -0.16606644390E+02  0.33510159258E+01  0.31999033892E+01  0.17240920149E+02  0.51100000000E-03 0.  1.
        -12    1    3    3    0    0  0.20317890149E+02 -0.19892859549E+02  0.41318300863E+01  0.28733509027E+02  0.00000000000E+00 0.  1.
</event>
<event>
 7    1  0.1891413E-013  0.7246157E+02  0.7816164E-02  0.1226708E+00
        -11   -1    0    0    0    0  0.00000000000E+00  0.00000000000E+00  0.45593999997E+02  0.45594000000E+02  0.51100000000E-03 0.  1.
         11   -1    0    0    0    0 -0.00000000000E+00 -0.00000000000E+00 -0.45593999997E+02  0.45594000000E+02  0.51100000000E-03 0. -1.
    9900012    2    1    2    0    0  0.11110528194E+02  0.97682917571E+01 -0.11481103727E+02  0.72461572060E+02  0.70000002300E+02 0.  0.
        -12    1    1    2    0    0 -0.11110528194E+02 -0.97682917571E+01  0.11481103727E+02  0.18726427940E+02  0.00000000000E+00 0.  1.
         11    1    3    3    0    0  0.12885847812E+02  0.15108696741E+02 -0.12589577765E+01  0.19897305496E+02  0.51100000000E-03 0. -1.
        -11    1    3    3    0    0 -0.25933745439E+01 -0.77529943319E+01  0.20326840967E+02  0.21909244090E+02  0.51100000000E-03 0.  1.
         12    1    3    3    0    0  0.81805492540E+00  0.24125893476E+01 -0.30548986917E+02  0.30655022474E+02  0.00000000000E+00 0. -1.
</event>
<event>
 7    1  0.1891413E-013  0.7246169E+02  0.7816164E-02  0.1226708E+00
        -11   -1    0    0    0    0  0.00000000000E+00  0.00000000000E+00  0.45593999997E+02  0.45594000000E+02  0.51100000000E-03 0.  1.
         11   -1    0    0    0    0 -0.00000000000E+00 -0.00000000000E+00 -0.45593999997E+02  0.45594000000E+02  0.51100000000E-03 0. -1.
    9900012    2    1    2    0    0  0.12838603185E+01  0.13167513440E+02 -0.13253037218E+02  0.72461689551E+02  0.70000155354E+02 0.  0.
        -12    1    1    2    0    0 -0.12838603185E+01 -0.13167513440E+02  0.13253037218E+02  0.18726310449E+02  0.00000000000E+00 0.  1.
         11    1    3    3    0    0  0.82892241090E+01 -0.59215625863E+01 -0.17998230219E+02  0.20681209614E+02  0.51100000000E-03 0. -1.
        -11    1    3    3    0    0 -0.11991950021E+02  0.13108019702E+02 -0.19462123705E+02  0.26351495312E+02  0.51100000000E-03 0.  1.
        -12    1    3    3    0    0  0.49865862302E+01  0.59810563248E+01  0.24207316706E+02  0.25428984626E+02  0.00000000000E+00 0.  1.
</event>
<event>
 7    1  0.1891413E-013  0.7246155E+02  0.7816164E-02  0.1226708E+00
        -11   -1    0    0    0    0  0.00000000000E+00  0.00000000000E+00  0.45593999997E+02  0.45594000000E+02  0.51100000000E-03 0.  1.
         11   -1    0    0    0    0 -0.00000000000E+00 -0.00000000000E+00 -0.45593999997E+02  0.45594000000E+02  0.51100000000E-03 0. -1.
    9900012    2    1    2    0    0  0.14916000941E+02  0.11135682154E+02  0.20467768867E+01  0.72461553548E+02  0.69999978185E+02 0.  0.
        -12    1    1    2    0    0 -0.14916000941E+02 -0.11135682154E+02 -0.20467768867E+01  0.18726446452E+02  0.00000000000E+00 0.  1.
         11    1    3    3    0    0 -0.33138555276E+00 -0.68153671974E+00 -0.27588687347E+02  0.27599093798E+02  0.51100000000E-03 0. -1.
        -11    1    3    3    0    0  0.68065955201E+01 -0.46800249610E+01 -0.17226976074E+01  0.84380130077E+01  0.51100000000E-03 0.  1.
        -12    1    3    3    0    0  0.84407909736E+01  0.16497243835E+02  0.31358161841E+02  0.36424446742E+02  0.00000000000E+00 0.  1.
</event>
<event>
 7    1  0.1891413E-013  0.7246143E+02  0.7816164E-02  0.1226708E+00
        -11   -1    0    0    0    0  0.00000000000E+00  0.00000000000E+00  0.45593999997E+02  0.45594000000E+02  0.51100000000E-03 0. -1.
         11   -1    0    0    0    0 -0.00000000000E+00 -0.00000000000E+00 -0.45593999997E+02  0.45594000000E+02  0.51100000000E-03 0.  1.
    9900012    2    1    2    0    0  0.13843517131E+02  0.50558753345E+01  0.11553331617E+02  0.72461432951E+02  0.69999821085E+02 0.  0.
        -12    1    1    2    0    0 -0.13843517131E+02 -0.50558753345E+01 -0.11553331617E+02  0.18726567049E+02  0.00000000000E+00 0.  1.
         11    1    3    3    0    0  0.15859996579E+02 -0.26974179572E+01 -0.84714068183E+01  0.18181867034E+02  0.51100000000E-03 0. -1.
        -11    1    3    3    0    0 -0.25882364685E+02  0.46125172332E+01  0.12061338989E+02  0.28924868459E+02  0.51100000000E-03 0.  1.
         12    1    3    3    0    0  0.23865885238E+02  0.31407760584E+01  0.79633994466E+01  0.25354697458E+02  0.00000000000E+00 0. -1.
</event>
<event>
 7    1  0.1891413E-013  0.7246159E+02  0.7816164E-02  0.1226708E+00
        -11   -1    0    0    0    0  0.00000000000E+00  0.00000000000E+00  0.45593999997E+02  0.45594000000E+02  0.51100000000E-03 0.  1.
         11   -1    0    0    0    0 -0.00000000000E+00 -0.00000000000E+00 -0.45593999997E+02  0.45594000000E+02  0.51100000000E-03 0. -1.
    9900012    2    1    2    0    0 -0.16233426211E+02 -0.92469150072E+01 -0.12841399517E+01  0.72461586059E+02  0.70000020536E+02 0.  0.
        -12    1    1    2    0    0  0.16233426211E+02  0.92469150072E+01  0.12841399517E+01  0.18726413941E+02  0.00000000000E+00 0.  1.
         11    1    3    3    0    0 -0.18872343812E+01  0.11870989547E+02 -0.37302362835E+01  0.12585575450E+02  0.51100000000E-03 0. -1.
        -11    1    3    3    0    0 -0.19663043109E+02  0.49854605713E+01  0.19587205557E+02  0.28198381217E+02  0.51100000000E-03 0.  1.
         12    1    3    3    0    0  0.53168512800E+01 -0.26103365125E+02 -0.17141109226E+02  0.31677629392E+02  0.00000000000E+00 0. -1.
</event>
<event>
 7    1  0.1891413E-013  0.7246150E+02  0.7816164E-02  0.1226708E+00
        -11   -1    0    0    0    0  0.00000000000E+00  0.00000000000E+00  0.45593999997E+02  0.45594000000E+02  0.51100000000E-03 0. -1.
         11   -1    0    0    0    0 -0.00000000000E+00 -0.00000000000E+00 -0.45593999997E+02  0.45594000000E+02  0.51100000000E-03 0.  1.
    9900012    2    1    2    0    0 -0.64926966074E+00 -0.18557047630E+02 -0.24282194576E+01  0.72461499591E+02  0.69999907896E+02 0.  0.
        -12    1    1    2    0    0  0.64926966074E+00  0.18557047630E+02  0.24282194576E+01  0.18726500409E+02  0.00000000000E+00 0.  1.
         11    1    3    3    0    0  0.27305769470E+02 -0.11391214531E+01  0.40944266120E+01  0.27634525029E+02  0.51100000000E-03 0. -1.
        -11    1    3    3    0    0 -0.12145280025E+02  0.98070467213E+00 -0.14822778514E+02  0.19188131010E+02  0.51100000000E-03 0.  1.
        -12    1    3    3    0    0 -0.15809759106E+02 -0.18398630849E+02  0.83001324442E+01  0.25638843552E+02  0.00000000000E+00 0.  1.
</event>
<event>
 7    1  0.1891413E-013  0.7246153E+02  0.7816164E-02  0.1226708E+00
        -11   -1    0    0    0    0  0.00000000000E+00  0.00000000000E+00  0.45593999997E+02  0.45594000000E+02  0.51100000000E-03 0.  1.
         11   -1    0    0    0    0 -0.00000000000E+00 -0.00000000000E+00 -0.45593999997E+02  0.45594000000E+02  0.51100000000E-03 0. -1.
    9900012    2    1    2    0    0  0.32862247195E+01 -0.15088364118E+02 -0.10593525620E+02  0.72461527035E+02  0.69999943646E+02 0.  0.
        -12    1    1    2    0    0 -0.32862247195E+01  0.15088364118E+02  0.10593525620E+02  0.18726472965E+02  0.00000000000E+00 0.  1.
         11    1    3    3    0    0  0.63997475684E+01 -0.13125805284E+02  0.97379706623E+01  0.17551968727E+02  0.51100000000E-03 0. -1.
        -11    1    3    3    0    0  0.18982355715E+02 -0.58876932527E+01  0.55680636123E+01  0.20639721243E+02  0.51100000000E-03 0.  1.
         12    1    3    3    0    0 -0.22095878564E+02  0.39251344192E+01 -0.25899559894E+02  0.34269837065E+02  0.00000000000E+00 0. -1.
</event>
<event>
 7    1  0.1891413E-013  0.7246154E+02  0.7816164E-02  0.1226708E+00
        -11   -1    0    0    0    0  0.00000000000E+00  0.00000000000E+00  0.45593999997E+02  0.45594000000E+02  0.51100000000E-03 0. -1.
         11   -1    0    0    0    0 -0.00000000000E+00 -0.00000000000E+00 -0.45593999997E+02  0.45594000000E+02  0.51100000000E-03 0.  1.
    9900012    2    1    2    0    0 -0.25800626363E+00  0.18724572390E+02 -0.64036855495E-01  0.72461540667E+02  0.69999961405E+02 0.  0.
        -12    1    1    2    0    0  0.25800626363E+00 -0.18724572390E+02  0.64036855495E-01  0.18726459333E+02  0.00000000000E+00 0.  1.
         11    1    3    3    0    0  0.13856668563E+01 -0.12565766870E+02 -0.62839354558E+01  0.14117592384E+02  0.51100000000E-03 0. -1.
        -11    1    3    3    0    0 -0.19264989196E+02  0.27843709162E+01 -0.91099360638E+01  0.21491474250E+02  0.51100000000E-03 0.  1.
        -12    1    3    3    0    0  0.17621316076E+02  0.28505968344E+02  0.15329834664E+02  0.36852474032E+02  0.00000000000E+00 0.  1.
</event>
<event>
 7    1  0.1891413E-013  0.7246156E+02  0.7816164E-02  0.1226708E+00
        -11   -1    0    0    0    0  0.00000000000E+00  0.00000000000E+00  0.45593999997E+02  0.45594000000E+02  0.51100000000E-03 0.  1.
         11   -1    0    0    0    0 -0.00000000000E+00 -0.00000000000E+00 -0.45593999997E+02  0.45594000000E+02  0.51100000000E-03 0. -1.
    9900012    2    1    2    0    0 -0.42522420529E+01  0.35188029506E+01 -0.17894576874E+02  0.72461563655E+02  0.69999991350E+02 0.  0.
        -12    1    1    2    0    0  0.42522420529E+01 -0.35188029506E+01  0.17894576874E+02  0.18726436345E+02  0.00000000000E+00 0.  1.
         11    1    3    3    0    0  0.41804234013E+01 -0.25020353946E+02 -0.13514786884E+02  0.28742712401E+02  0.51100000000E-03 0. -1.
        -11    1    3    3    0    0 -0.42417761640E+01  0.40857035150E+01  0.12427141240E+02  0.13752071768E+02  0.51100000000E-03 0.  1.
        -12    1    3    3    0    0 -0.41908892901E+01  0.24453453382E+02 -0.16806931231E+02  0.29966779486E+02  0.00000000000E+00 0.  1.
</event>
<event>
 7    1  0.1891413E-013  0.7246153E+02  0.7816164E-02  0.1226708E+00
        -11   -1    0    0    0    0  0.00000000000E+00  0.00000000000E+00  0.45593999997E+02  0.45594000000E+02  0.51100000000E-03 0. -1.
         11   -1    0    0    0    0 -0.00000000000E+00 -0.00000000000E+00 -0.45593999997E+02  0.45594000000E+02  0.51100000000E-03 0.  1.
    9900012    2    1    2    0    0 -0.16580039733E+02  0.14860875401E+01  0.85775591857E+01  0.72461529556E+02  0.69999946931E+02 0.  0.
        -12    1    1    2    0    0  0.16580039733E+02 -0.14860875401E+01 -0.85775591857E+01  0.18726470444E+02  0.00000000000E+00 0.  1.
         11    1    3    3    0    0  0.10707859648E+02 -0.10586524544E+02  0.22592159176E+02  0.27150293123E+02  0.51100000000E-03 0. -1.
        -11    1    3    3    0    0 -0.56240961350E+01  0.89805304264E+01  0.87442557403E+01  0.13738354806E+02  0.51100000000E-03 0.  1.
        -12    1    3    3    0    0 -0.21663803245E+02  0.30920816581E+01 -0.22758855731E+02  0.31572881626E+02  0.00000000000E+00 0.  1.
</event>
<event>
 7    1  0.1891413E-013  0.7246152E+02  0.7816164E-02  0.1226708E+00
        -11   -1    0    0    0    0  0.00000000000E+00  0.00000000000E+00  0.45593999997E+02  0.45594000000E+02  0.51100000000E-03 0.  1.
         11   -1    0    0    0    0 -0.00000000000E+00 -0.00000000000E+00 -0.45593999997E+02  0.45594000000E+02  0.51100000000E-03 0. -1.
    9900012    2    1    2    0    0 -0.14620963150E+02 -0.88405666563E+01 -0.76650372148E+01  0.72461522015E+02  0.69999937107E+02 0.  0.
        -12    1    1    2    0    0  0.14620963150E+02  0.88405666563E+01  0.76650372148E+01  0.18726477985E+02  0.00000000000E+00 0.  1.
         11    1    3    3    0    0 -0.32615744226E+01  0.53135833351E+01 -0.48158615174E+01  0.78781062438E+01  0.51100000000E-03 0. -1.
        -11    1    3    3    0    0 -0.81004582453E+01  0.24161634832E+02  0.31021387054E+01  0.25671487810E+02  0.51100000000E-03 0.  1.
         12    1    3    3    0    0 -0.32589304817E+01 -0.38315784824E+02 -0.59513144029E+01  0.38911927961E+02  0.00000000000E+00 0. -1.
</event>
<event>
 7    1  0.1891413E-013  0.7246159E+02  0.7816164E-02  0.1226708E+00
        -11   -1    0    0    0    0  0.00000000000E+00  0.00000000000E+00  0.45593999997E+02  0.45594000000E+02  0.51100000000E-03 0. -1.
         11   -1    0    0    0    0 -0.00000000000E+00 -0.00000000000E+00 -0.45593999997E+02  0.45594000000E+02  0.51100000000E-03 0.  1.
    9900012    2    1    2    0    0  0.12290528577E+02  0.42375676921E+01  0.13478295977E+02  0.72461587234E+02  0.70000022066E+02 0.  0.
        -12    1    1    2    0    0 -0.12290528577E+02 -0.42375676921E+01 -0.13478295977E+02  0.18726412766E+02  0.00000000000E+00 0.  1.
         11    1    3    3    0    0  0.27305110570E+02 -0.15036047467E+01  0.30527251029E+02  0.40984667208E+02  0.51100000000E-03 0. -1.
        -11    1    3    3    0    0  0.44505881772E+01 -0.26245642362E+01 -0.22620317381E+01  0.56402890350E+01  0.51100000000E-03 0.  1.
        -12    1    3    3    0    0 -0.19465170171E+02  0.83657366749E+01 -0.14786923313E+02  0.25836630991E+02  0.00000000000E+00 0.  1.
</event>
<event>
 7    1  0.1891413E-013  0.7246162E+02  0.7816164E-02  0.1226708E+00
        -11   -1    0    0    0    0  0.00000000000E+00  0.00000000000E+00  0.45593999997E+02  0.45594000000E+02  0.51100000000E-03 0.  1.
         11   -1    0    0    0    0 -0.00000000000E+00 -0.00000000000E+00 -0.45593999997E+02  0.45594000000E+02  0.51100000000E-03 0. -1.
    9900012    2    1    2    0    0 -0.13565631295E+02  0.14867712496E+01 -0.12823436941E+02  0.72461618178E+02  0.70000062377E+02 0.  0.
        -12    1    1    2    0    0  0.13565631295E+02 -0.14867712496E+01  0.12823436941E+02  0.18726381822E+02  0.00000000000E+00 0.  1.
         11    1    3    3    0    0 -0.15311070431E+02 -0.14890726784E+02  0.22244028950E+01  0.21473485754E+02  0.51100000000E-03 0. -1.
        -11    1    3    3    0    0  0.51534076868E+01 -0.15025777687E+02  0.25918697471E+00  0.15887063417E+02  0.51100000000E-03 0.  1.
        -12    1    3    3    0    0 -0.34079685506E+01  0.31403275721E+02 -0.15307026810E+02  0.35101069007E+02  0.00000000000E+00 0.  1.
</event>
<event>
 7    1  0.1891413E-013  0.7246155E+02  0.7816164E-02  0.1226708E+00
        -11   -1    0    0    0    0  0.00000000000E+00  0.00000000000E+00  0.45593999997E+02  0.45594000000E+02  0.51100000000E-03 0. -1.
         11   -1    0    0    0    0 -0.00000000000E+00 -0.00000000000E+00 -0.45593999997E+02  0.45594000000E+02  0.51100000000E-03 0.  1.
    9900012    2    1    2    0    0 -0.11120078363E+02  0.54150443250E+01  0.14060619226E+02  0.72461551835E+02  0.69999975954E+02 0.  0.
        -12    1    1    2    0    0  0.11120078363E+02 -0.54150443250E+01 -0.14060619226E+02  0.18726448165E+02  0.00000000000E+00 0.  1.
         11    1    3    3    0    0 -0.18708683800E+02 -0.24913184625E+02  0.19088453171E+02  0.36538345097E+02  0.51100000000E-03 0. -1.
        -11    1    3    3    0    0  0.65250805317E+01  0.10189478282E+02  0.53652254732E+01  0.13235852381E+02  0.51100000000E-03 0.  1.
        -12    1    3    3    0    0  0.10635249052E+01  0.20138750668E+02 -0.10393059418E+02  0.22687354358E+02  0.00000000000E+00 0.  1.
</event>
<event>
 7    1  0.1891413E-013  0.7246161E+02  0.7816164E-02  0.1226708E+00
        -11   -1    0    0    0    0  0.00000000000E+00  0.00000000000E+00  0.45593999997E+02  0.45594000000E+02  0.51100000000E-03 0. -1.
         11   -1    0    0    0    0 -0.00000000000E+00 -0.00000000000E+00 -0.45593999997E+02  0.45594000000E+02  0.51100000000E-03 0.  1.
    9900012    2    1    2    0    0  0.15980766430E+02 -0.29733435128E+01 -0.92979575913E+01  0.72461609992E+02  0.70000051714E+02 0.  0.
        -12    1    1    2    0    0 -0.15980766430E+02  0.29733435128E+01  0.92979575913E+01  0.18726390008E+02  0.00000000000E+00 0.  1.
         11    1    3    3    0    0  0.63933886124E+00  0.11025450919E+02  0.68440378221E+01  0.12992697030E+02  0.51100000000E-03 0. -1.
        -11    1    3    3    0    0  0.20021057775E+02  0.11628373749E+02  0.74509581333E+01  0.24322389024E+02  0.51100000000E-03 0.  1.
        -12    1    3    3    0    0 -0.46796302062E+01 -0.25627168181E+02 -0.23592953547E+02  0.35146523938E+02  0.00000000000E+00 0.  1.
</event>
<event>
 7    1  0.1891413E-013  0.7246229E+02  0.7816164E-02  0.1226706E+00
        -11   -1    0    0    0    0  0.00000000000E+00  0.00000000000E+00  0.45593999997E+02  0.45594000000E+02  0.51100000000E-03 0.  1.
         11   -1    0    0    0    0 -0.00000000000E+00 -0.00000000000E+00 -0.45593999997E+02  0.45594000000E+02  0.51100000000E-03 0. -1.
    9900012    2    1    2    0    0  0.12637013986E+02  0.13696816039E+02 -0.18317745194E+01  0.72462287998E+02  0.70000934936E+02 0.  0.
        -12    1    1    2    0    0 -0.12637013986E+02 -0.13696816039E+02  0.18317745194E+01  0.18725712002E+02  0.00000000000E+00 0.  1.
         11    1    3    3    0    0  0.50038152063E+01 -0.16353380875E+02  0.13564915477E+02  0.21828379803E+02  0.51100000000E-03 0. -1.
        -11    1    3    3    0    0  0.16076565535E+01  0.67261875702E+01  0.12186610497E+02  0.14012124553E+02  0.51100000000E-03 0.  1.
         12    1    3    3    0    0  0.60255422261E+01  0.23324009344E+02 -0.27583300494E+02  0.36621783642E+02  0.00000000000E+00 0. -1.
</event>
<event>
 7    1  0.1891413E-013  0.7246164E+02  0.7816164E-02  0.1226708E+00
        -11   -1    0    0    0    0  0.00000000000E+00  0.00000000000E+00  0.45593999997E+02  0.45594000000E+02  0.51100000000E-03 0. -1.
         11   -1    0    0    0    0 -0.00000000000E+00 -0.00000000000E+00 -0.45593999997E+02  0.45594000000E+02  0.51100000000E-03 0.  1.
    9900012    2    1    2    0    0  0.13703257805E+02  0.12640375959E+02  0.17658767919E+01  0.72461636239E+02  0.70000085906E+02 0.  0.
        -12    1    1    2    0    0 -0.13703257805E+02 -0.12640375959E+02 -0.17658767919E+01  0.18726363761E+02  0.00000000000E+00 0.  1.
         11    1    3    3    0    0  0.63982461938E+01 -0.95591539563E+01  0.92643791454E+01  0.14769688552E+02  0.51100000000E-03 0. -1.
        -11    1    3    3    0    0  0.29150302559E+02  0.71099178317E+01 -0.82931861918E+01  0.31129857185E+02  0.51100000000E-03 0.  1.
         12    1    3    3    0    0 -0.21845290948E+02  0.15089612084E+02  0.79468383826E+00  0.26562090502E+02  0.00000000000E+00 0. -1.
</event>
<event>
 7    1  0.1891413E-013  0.7246153E+02  0.7816164E-02  0.1226708E+00
        -11   -1    0    0    0    0  0.00000000000E+00  0.00000000000E+00  0.45593999997E+02  0.45594000000E+02  0.51100000000E-03 0.  1.
         11   -1    0    0    0    0 -0.00000000000E+00 -0.00000000000E+00 -0.45593999997E+02  0.45594000000E+02  0.51100000000E-03 0. -1.
    9900012    2    1    2    0    0 -0.30029587839E+01 -0.60356911386E+01 -0.17470929456E+02  0.72461529296E+02  0.69999946592E+02 0.  0.
        -12    1    1    2    0    0  0.30029587839E+01  0.60356911386E+01  0.17470929456E+02  0.18726470704E+02  0.00000000000E+00 0.  1.
         11    1    3    3    0    0 -0.14330555789E+01 -0.52718882578E+01 -0.74329362889E+01  0.92246949126E+01  0.51100000000E-03 0. -1.
        -11    1    3    3    0    0  0.10628373089E+02 -0.20033089054E+02  0.16648654120E+02  0.28132981638E+02  0.51100000000E-03 0.  1.
         12    1    3    3    0    0 -0.12198276294E+02  0.19269286173E+02 -0.26686647287E+02  0.35103852746E+02  0.00000000000E+00 0. -1.
</event>
<event>
 7    1  0.1891413E-013  0.7246158E+02  0.7816164E-02  0.1226708E+00
        -11   -1    0    0    0    0  0.00000000000E+00  0.00000000000E+00  0.45593999997E+02  0.45594000000E+02  0.51100000000E-03 0.  1.
         11   -1    0    0    0    0 -0.00000000000E+00 -0.00000000000E+00 -0.45593999997E+02  0.45594000000E+02  0.51100000000E-03 0. -1.
    9900012    2    1    2    0    0 -0.10493678280E+02 -0.15483650728E+02  0.90456218320E+00  0.72461575983E+02  0.70000007411E+02 0.  0.
        -12    1    1    2    0    0  0.10493678280E+02  0.15483650728E+02 -0.90456218320E+00  0.18726424017E+02  0.00000000000E+00 0.  1.
         11    1    3    3    0    0 -0.28302915144E+00  0.90520356043E+01  0.21688609871E+01  0.93125405945E+01  0.51100000000E-03 0. -1.
        -11    1    3    3    0    0  0.13086747384E+01  0.80979072204E+01  0.20627770950E+02  0.22198956407E+02  0.51100000000E-03 0.  1.
        -12    1    3    3    0    0 -0.11519323867E+02 -0.32633593553E+02 -0.21892069754E+02  0.40950078982E+02  0.00000000000E+00 0.  1.
</event>
<event>
 7    1  0.1891413E-013  0.7246130E+02  0.7816164E-02  0.1226709E+00
        -11   -1    0    0    0    0  0.00000000000E+00  0.00000000000E+00  0.45593999997E+02  0.45594000000E+02  0.51100000000E-03 0.  1.
         11   -1    0    0    0    0 -0.00000000000E+00 -0.00000000000E+00 -0.45593999997E+02  0.45594000000E+02  0.51100000000E-03 0. -1.
    9900012    2    1    2    0    0 -0.33107707052E+01  0.16592545294E+02  0.80259291283E+01  0.72461299800E+02  0.69999647630E+02 0.  0.
        -12    1    1    2    0    0  0.33107707052E+01 -0.16592545294E+02 -0.80259291283E+01  0.18726700200E+02  0.00000000000E+00 0.  1.
         11    1    3    3    0    0  0.30366256626E+01 -0.18434042035E+02  0.14509721776E+02  0.23655169148E+02  0.51100000000E-03 0. -1.
        -11    1    3    3    0    0 -0.17805927082E+01 -0.57945751686E+01 -0.47368091516E+01  0.76931770406E+01  0.51100000000E-03 0.  1.
        -12    1    3    3    0    0 -0.45668036595E+01  0.40821162498E+02 -0.17469834958E+01  0.41112953612E+02  0.00000000000E+00 0.  1.
</event>
<event>
 7    1  0.1891413E-013  0.7246157E+02  0.7816164E-02  0.1226708E+00
        -11   -1    0    0    0    0  0.00000000000E+00  0.00000000000E+00  0.45593999997E+02  0.45594000000E+02  0.51100000000E-03 0.  1.
         11   -1    0    0    0    0 -0.00000000000E+00 -0.00000000000E+00 -0.45593999997E+02  0.45594000000E+02  0.51100000000E-03 0. -1.
    9900012    2    1    2    0    0  0.89645432493E+01  0.11780788292E+02 -0.11468617626E+02  0.72461569515E+02  0.69999998985E+02 0.  0.
        -12    1    1    2    0    0 -0.89645432493E+01 -0.11780788292E+02  0.11468617626E+02  0.18726430485E+02  0.00000000000E+00 0.  1.
         11    1    3    3    0    0  0.73968683562E+00  0.14282420056E+02 -0.24332668696E+01  0.14507082656E+02  0.51100000000E-03 0. -1.
        -11    1    3    3    0    0 -0.16977005592E+02  0.12162315710E+02 -0.17872014339E+02  0.27487261397E+02  0.51100000000E-03 0.  1.
         12    1    3    3    0    0  0.25201862006E+02 -0.14663947474E+02  0.88366635826E+01  0.30467225462E+02  0.00000000000E+00 0. -1.
</event>
<event>
 7    1  0.1891413E-013  0.7246161E+02  0.7816164E-02  0.1226708E+00
        -11   -1    0    0    0    0  0.00000000000E+00  0.00000000000E+00  0.45593999997E+02  0.45594000000E+02  0.51100000000E-03 0. -1.
         11   -1    0    0    0    0 -0.00000000000E+00 -0.00000000000E+00 -0.45593999997E+02  0.45594000000E+02  0.51100000000E-03 0.  1.
    9900012    2    1    2    0    0  0.17490573448E+02  0.51275859404E+01  0.42971379420E+01  0.72461609755E+02  0.70000051405E+02 0.  0.
        -12    1    1    2    0    0 -0.17490573448E+02 -0.51275859404E+01 -0.42971379420E+01  0.18726390245E+02  0.00000000000E+00 0.  1.
         11    1    3    3    0    0  0.18957323189E+02  0.66334810629E+01  0.15480868021E+02  0.25358242219E+02  0.51100000000E-03 0. -1.
        -11    1    3    3    0    0 -0.28966504494E+01  0.11419235667E+02  0.14279366958E+02  0.18511883967E+02  0.51100000000E-03 0.  1.
        -12    1    3    3    0    0  0.14299007083E+01 -0.12925130790E+02 -0.25463097036E+02  0.28591483569E+02  0.00000000000E+00 0.  1.
</event>
<event>
 7    1  0.1891413E-013  0.7246158E+02  0.7816164E-02  0.1226708E+00
        -11   -1    0    0    0    0  0.00000000000E+00  0.00000000000E+00  0.45593999997E+02  0.45594000000E+02  0.51100000000E-03 0.  1.
         11   -1    0    0    0    0 -0.00000000000E+00 -0.00000000000E+00 -0.45593999997E+02  0.45594000000E+02  0.51100000000E-03 0. -1.
    9900012    2    1    2    0    0  0.16922472477E+02  0.79715489709E+01 -0.87352543864E+00  0.72461582446E+02  0.70000015829E+02 0.  0.
        -12    1    1    2    0    0 -0.16922472477E+02 -0.79715489709E+01  0.87352543864E+00  0.18726417554E+02  0.00000000000E+00 0.  1.
         11    1    3    3    0    0 -0.11520307799E+01  0.14611206358E+02 -0.16456776352E+02  0.22037241531E+02  0.51100000000E-03 0. -1.
        -11    1    3    3    0    0 -0.10819792664E+02  0.46141210882E+01  0.15446834691E+02  0.19415528037E+02  0.51100000000E-03 0.  1.
        -12    1    3    3    0    0  0.28894295920E+02 -0.11253778475E+02  0.13641622164E+00  0.31008812878E+02  0.00000000000E+00 0.  1.
</event>
<event>
 7    1  0.1891413E-013  0.7246153E+02  0.7816164E-02  0.1226708E+00
        -11   -1    0    0    0    0  0.00000000000E+00  0.00000000000E+00  0.45593999997E+02  0.45594000000E+02  0.51100000000E-03 0. -1.
         11   -1    0    0    0    0 -0.00000000000E+00 -0.00000000000E+00 -0.45593999997E+02  0.45594000000E+02  0.51100000000E-03 0.  1.
    9900012    2    1    2    0    0 -0.54900009557E+01 -0.73052916033E+01  0.16345436321E+02  0.72461529846E+02  0.69999947308E+02 0.  0.
        -12    1    1    2    0    0  0.54900009557E+01  0.73052916033E+01 -0.16345436321E+02  0.18726470154E+02  0.00000000000E+00 0.  1.
         11    1    3    3    0    0  0.16089795021E+02  0.18771933444E+02  0.16377389218E+02  0.29656126971E+02  0.51100000000E-03 0. -1.
        -11    1    3    3    0    0  0.27112939891E+01 -0.22396668734E+00 -0.62256879378E+01  0.67941494488E+01  0.51100000000E-03 0.  1.
         12    1    3    3    0    0 -0.24291089966E+02 -0.25853258360E+02  0.61937350406E+01  0.36011253426E+02  0.00000000000E+00 0. -1.
</event>
<event>
 7    1  0.1891413E-013  0.7246102E+02  0.7816164E-02  0.1226709E+00
        -11   -1    0    0    0    0  0.00000000000E+00  0.00000000000E+00  0.45593999997E+02  0.45594000000E+02  0.51100000000E-03 0. -1.
         11   -1    0    0    0    0 -0.00000000000E+00 -0.00000000000E+00 -0.45593999997E+02  0.45594000000E+02  0.51100000000E-03 0.  1.
    9900012    2    1    2    0    0  0.13425714612E+02 -0.26502320713E+01  0.12783828722E+02  0.72461018938E+02  0.69999281753E+02 0.  0.
        -12    1    1    2    0    0 -0.13425714612E+02  0.26502320713E+01 -0.12783828722E+02  0.18726981062E+02  0.00000000000E+00 0.  1.
         11    1    3    3    0    0  0.47521440859E+00  0.32645507314E+02  0.26433813676E+01  0.32755800125E+02  0.51100000000E-03 0.  1.
        -11    1    3    3    0    0  0.12697673911E+01 -0.13971085861E+02  0.27812249657E+01  0.14301704861E+02  0.51100000000E-03 0. -1.
        -12    1    3    3    0    0  0.11680732812E+02 -0.21324653524E+02  0.73592223889E+01  0.25403513953E+02  0.00000000000E+00 0.  1.
</event>
<event>
 7    1  0.1891413E-013  0.7246160E+02  0.7816164E-02  0.1226708E+00
        -11   -1    0    0    0    0  0.00000000000E+00  0.00000000000E+00  0.45593999997E+02  0.45594000000E+02  0.51100000000E-03 0. -1.
         11   -1    0    0    0    0 -0.00000000000E+00 -0.00000000000E+00 -0.45593999997E+02  0.45594000000E+02  0.51100000000E-03 0.  1.
    9900012    2    1    2    0    0 -0.50342649687E+01 -0.16125890369E+02  0.80802161394E+01  0.72461600004E+02  0.70000038702E+02 0.  0.
        -12    1    1    2    0    0  0.50342649687E+01  0.16125890369E+02 -0.80802161394E+01  0.18726399996E+02  0.00000000000E+00 0.  1.
         11    1    3    3    0    0 -0.16012535050E+02 -0.15684820252E+02 -0.17728941515E+02  0.28578492483E+02  0.51100000000E-03 0. -1.
        -11    1    3    3    0    0  0.11561390866E+02  0.37644269199E+01 -0.47328011289E+01  0.13047454755E+02  0.51100000000E-03 0.  1.
         12    1    3    3    0    0 -0.58312078417E+00 -0.42054970361E+01  0.30541958784E+02  0.30835652766E+02  0.00000000000E+00 0. -1.
</event>
<event>
 7    1  0.1891413E-013  0.7246156E+02  0.7816164E-02  0.1226708E+00
        -11   -1    0    0    0    0  0.00000000000E+00  0.00000000000E+00  0.45593999997E+02  0.45594000000E+02  0.51100000000E-03 0. -1.
         11   -1    0    0    0    0 -0.00000000000E+00 -0.00000000000E+00 -0.45593999997E+02  0.45594000000E+02  0.51100000000E-03 0.  1.
    9900012    2    1    2    0    0  0.16433806267E+02 -0.21934386321E+00  0.89756094236E+01  0.72461557074E+02  0.69999982778E+02 0.  0.
        -12    1    1    2    0    0 -0.16433806267E+02  0.21934386321E+00 -0.89756094236E+01  0.18726442926E+02  0.00000000000E+00 0.  1.
         11    1    3    3    0    0  0.16448522955E+02  0.22449526267E+01  0.71438962193E+01  0.18072879492E+02  0.51100000000E-03 0. -1.
        -11    1    3    3    0    0 -0.45429904701E+01  0.94528436604E+01  0.25462795547E+02  0.27538136702E+02  0.51100000000E-03 0.  1.
        -12    1    3    3    0    0  0.45282737823E+01 -0.11917140150E+02 -0.23631082343E+02  0.26850540879E+02  0.00000000000E+00 0.  1.
</event>
<event>
 7    1  0.1891413E-013  0.7246142E+02  0.7816164E-02  0.1226708E+00
        -11   -1    0    0    0    0  0.00000000000E+00  0.00000000000E+00  0.45593999997E+02  0.45594000000E+02  0.51100000000E-03 0. -1.
         11   -1    0    0    0    0 -0.00000000000E+00 -0.00000000000E+00 -0.45593999997E+02  0.45594000000E+02  0.51100000000E-03 0.  1.
    9900012    2    1    2    0    0 -0.14449560316E+02 -0.31146226872E+01  0.11497564869E+02  0.72461423545E+02  0.69999808831E+02 0.  0.
        -12    1    1    2    0    0  0.14449560316E+02  0.31146226872E+01 -0.11497564869E+02  0.18726576455E+02  0.00000000000E+00 0.  1.
         11    1    3    3    0    0  0.66364616102E+01  0.14222335811E+02 -0.31868900023E+01  0.16014797119E+02  0.51100000000E-03 0. -1.
        -11    1    3    3    0    0 -0.20145288705E+02  0.78418992018E+01 -0.74937584200E+01  0.22879782683E+02  0.51100000000E-03 0.  1.
        -12    1    3    3    0    0 -0.94073322148E+00 -0.25178857700E+02  0.22178213291E+02  0.33566843743E+02  0.00000000000E+00 0.  1.
</event>
<event>
 7    1  0.1891413E-013  0.7246157E+02  0.7816164E-02  0.1226708E+00
        -11   -1    0    0    0    0  0.00000000000E+00  0.00000000000E+00  0.45593999997E+02  0.45594000000E+02  0.51100000000E-03 0.  1.
         11   -1    0    0    0    0 -0.00000000000E+00 -0.00000000000E+00 -0.45593999997E+02  0.45594000000E+02  0.51100000000E-03 0. -1.
    9900012    2    1    2    0    0  0.14764492920E+02 -0.17513821079E+01 -0.11385147222E+02  0.72461570342E+02  0.70000000062E+02 0.  0.
        -12    1    1    2    0    0 -0.14764492920E+02  0.17513821079E+01  0.11385147222E+02  0.18726429658E+02  0.00000000000E+00 0.  1.
         11    1    3    3    0    0  0.18344569159E+02  0.14648024336E+02  0.14099809117E+02  0.27384164255E+02  0.51100000000E-03 0. -1.
        -11    1    3    3    0    0  0.40964434477E+01 -0.54606074190E+00  0.69973726051E+01  0.81266385972E+01  0.51100000000E-03 0.  1.
        -12    1    3    3    0    0 -0.76765196861E+01 -0.15853345702E+02 -0.32482328944E+02  0.36950767489E+02  0.00000000000E+00 0.  1.
</event>
<event>
 7    1  0.1891413E-013  0.7246155E+02  0.7816164E-02  0.1226708E+00
        -11   -1    0    0    0    0  0.00000000000E+00  0.00000000000E+00  0.45593999997E+02  0.45594000000E+02  0.51100000000E-03 0.  1.
         11   -1    0    0    0    0 -0.00000000000E+00 -0.00000000000E+00 -0.45593999997E+02  0.45594000000E+02  0.51100000000E-03 0. -1.
    9900012    2    1    2    0    0 -0.37358315072E+01  0.32953129833E+00 -0.18347072683E+02  0.72461545344E+02  0.69999967498E+02 0.  0.
        -12    1    1    2    0    0  0.37358315072E+01 -0.32953129833E+00  0.18347072683E+02  0.18726454656E+02  0.00000000000E+00 0.  1.
         11    1    3    3    0    0  0.12459404743E+01  0.48000715675E+01  0.99649726565E+01  0.11130756265E+02  0.51100000000E-03 0. -1.
        -11    1    3    3    0    0  0.18145806096E+02  0.30689807679E+01  0.59233583850E+01  0.19333263993E+02  0.51100000000E-03 0.  1.
         12    1    3    3    0    0 -0.23127578077E+02 -0.75395210370E+01 -0.34235403725E+02  0.41997525086E+02  0.00000000000E+00 0. -1.
</event>
<event>
 7    1  0.1891413E-013  0.7246135E+02  0.7816164E-02  0.1226709E+00
        -11   -1    0    0    0    0  0.00000000000E+00  0.00000000000E+00  0.45593999997E+02  0.45594000000E+02  0.51100000000E-03 0.  1.
         11   -1    0    0    0    0 -0.00000000000E+00 -0.00000000000E+00 -0.45593999997E+02  0.45594000000E+02  0.51100000000E-03 0. -1.
    9900012    2    1    2    0    0 -0.59498012175E+01 -0.17729499089E+02  0.97581192514E+00  0.72461348367E+02  0.69999710898E+02 0.  0.
        -12    1    1    2    0    0  0.59498012175E+01  0.17729499089E+02 -0.97581192514E+00  0.18726651633E+02  0.00000000000E+00 0.  1.
         11    1    3    3    0    0  0.44135550244E+01 -0.10514865257E+02  0.11241382545E+02  0.16012824271E+02  0.51100000000E-03 0. -1.
        -11    1    3    3    0    0 -0.32289139665E+02 -0.43182976483E+01 -0.13552085602E+01  0.32604797583E+02  0.51100000000E-03 0.  1.
         12    1    3    3    0    0  0.21925783423E+02 -0.28963361832E+01 -0.89103620601E+01  0.23843726514E+02  0.00000000000E+00 0. -1.
</event>
<event>
 7    1  0.1891413E-013  0.7246167E+02  0.7816164E-02  0.1226708E+00
        -11   -1    0    0    0    0  0.00000000000E+00  0.00000000000E+00  0.45593999997E+02  0.45594000000E+02  0.51100000000E-03 0.  1.
         11   -1    0    0    0    0 -0.00000000000E+00 -0.00000000000E+00 -0.45593999997E+02  0.45594000000E+02  0.51100000000E-03 0. -1.
    9900012    2    1    2    0    0 -0.83066495197E+01 -0.67188027343E+01 -0.15379616271E+02  0.72461672729E+02  0.70000133440E+02 0.  0.
        -12    1    1    2    0    0  0.83066495197E+01  0.67188027343E+01  0.15379616271E+02  0.18726327271E+02  0.00000000000E+00 0.  1.
         11    1    3    3    0    0 -0.19889179062E+00  0.55606753155E+01  0.82504741554E+01  0.99514316537E+01  0.51100000000E-03 0. -1.
        -11    1    3    3    0    0 -0.14933140957E+02 -0.10555408522E+02  0.14747305348E+02  0.23492517175E+02  0.51100000000E-03 0.  1.
         12    1    3    3    0    0  0.68253832279E+01 -0.17240695277E+01 -0.38377395774E+02  0.39017723901E+02  0.00000000000E+00 0. -1.
</event>
<event>
 7    1  0.1891413E-013  0.7246177E+02  0.7816164E-02  0.1226707E+00
        -11   -1    0    0    0    0  0.00000000000E+00  0.00000000000E+00  0.45593999997E+02  0.45594000000E+02  0.51100000000E-03 0.  1.
         11   -1    0    0    0    0 -0.00000000000E+00 -0.00000000000E+00 -0.45593999997E+02  0.45594000000E+02  0.51100000000E-03 0. -1.
    9900012    2    1    2    0    0  0.12407165940E+02  0.82281633384E+01 -0.11359199459E+02  0.72461765703E+02  0.70000254556E+02 0.  0.
        -12    1    1    2    0    0 -0.12407165940E+02 -0.82281633384E+01  0.11359199459E+02  0.18726234297E+02  0.00000000000E+00 0.  1.
         11    1    3    3    0    0 -0.83781635101E+01  0.18390189539E+02 -0.41921599409E+00  0.20213075901E+02  0.51100000000E-03 0. -1.
        -11    1    3    3    0    0  0.14315141702E+02 -0.87052482596E+01  0.16800268160E+02  0.23726644088E+02  0.51100000000E-03 0.  1.
         12    1    3    3    0    0  0.64701877490E+01 -0.14567779408E+01 -0.27740251625E+02  0.28522045713E+02  0.00000000000E+00 0. -1.
</event>
<event>
 7    1  0.1891413E-013  0.7246152E+02  0.7816164E-02  0.1226708E+00
        -11   -1    0    0    0    0  0.00000000000E+00  0.00000000000E+00  0.45593999997E+02  0.45594000000E+02  0.51100000000E-03 0. -1.
         11   -1    0    0    0    0 -0.00000000000E+00 -0.00000000000E+00 -0.45593999997E+02  0.45594000000E+02  0.51100000000E-03 0.  1.
    9900012    2    1    2    0    0 -0.16469514192E+02  0.88744396626E+01  0.82498424400E+00  0.72461516720E+02  0.69999930209E+02 0.  0.
        -12    1    1    2    0    0  0.16469514192E+02 -0.88744396626E+01 -0.82498424400E+00  0.18726483280E+02  0.00000000000E+00 0.  1.
         11    1    3    3    0    0  0.12052701186E+02  0.17981654054E+02  0.33180002886E+01  0.21900151017E+02  0.51100000000E-03 0. -1.
        -11    1    3    3    0    0  0.83236334202E+01  0.11739586552E+01 -0.83661915661E+01  0.11859772924E+02  0.51100000000E-03 0.  1.
        -12    1    3    3    0    0 -0.36845848798E+02 -0.10281173047E+02  0.58731755214E+01  0.38701592778E+02  0.00000000000E+00 0.  1.
</event>
<event>
 7    1  0.1891413E-013  0.7246156E+02  0.7816164E-02  0.1226708E+00
        -11   -1    0    0    0    0  0.00000000000E+00  0.00000000000E+00  0.45593999997E+02  0.45594000000E+02  0.51100000000E-03 0. -1.
         11   -1    0    0    0    0 -0.00000000000E+00 -0.00000000000E+00 -0.45593999997E+02  0.45594000000E+02  0.51100000000E-03 0.  1.
    9900012    2    1    2    0    0  0.16032715729E+02  0.48346841808E+01  0.83819624349E+01  0.72461563098E+02  0.69999990626E+02 0.  0.
        -12    1    1    2    0    0 -0.16032715729E+02 -0.48346841808E+01 -0.83819624349E+01  0.18726436902E+02  0.00000000000E+00 0.  1.
         11    1    3    3    0    0 -0.32571841999E+01 -0.22887122871E+00  0.12033618961E+02  0.12468745587E+02  0.51100000000E-03 0.  1.
        -11    1    3    3    0    0 -0.11575755342E+02 -0.10708387532E+02  0.14007215115E+02  0.21091935682E+02  0.51100000000E-03 0. -1.
        -12    1    3    3    0    0  0.30865655271E+02  0.15771942941E+02 -0.17658871641E+02  0.38900881829E+02  0.00000000000E+00 0.  1.
</event>
<event>
 7    1  0.1891413E-013  0.7246159E+02  0.7816164E-02  0.1226708E+00
        -11   -1    0    0    0    0  0.00000000000E+00  0.00000000000E+00  0.45593999997E+02  0.45594000000E+02  0.51100000000E-03 0. -1.
         11   -1    0    0    0    0 -0.00000000000E+00 -0.00000000000E+00 -0.45593999997E+02  0.45594000000E+02  0.51100000000E-03 0.  1.
    9900012    2    1    2    0    0  0.10831541312E+02  0.69686261595E+01  0.13593913677E+02  0.72461587455E+02  0.70000022354E+02 0.  0.
        -12    1    1    2    0    0 -0.10831541312E+02 -0.69686261595E+01 -0.13593913677E+02  0.18726412545E+02  0.00000000000E+00 0.  1.
         11    1    3    3    0    0  0.17455430716E+02  0.28525585002E+02  0.17877868680E+02  0.37921224268E+02  0.51100000000E-03 0. -1.
        -11    1    3    3    0    0  0.40271733246E+01  0.39896142860E+00  0.66620218467E+01  0.77948592389E+01  0.51100000000E-03 0.  1.
        -12    1    3    3    0    0 -0.10651062729E+02 -0.21955920271E+02 -0.10945976849E+02  0.26745503947E+02  0.00000000000E+00 0.  1.
</event>
<event>
 7    1  0.1891413E-013  0.7246145E+02  0.7816164E-02  0.1226708E+00
        -11   -1    0    0    0    0  0.00000000000E+00  0.00000000000E+00  0.45593999997E+02  0.45594000000E+02  0.51100000000E-03 0.  1.
         11   -1    0    0    0    0 -0.00000000000E+00 -0.00000000000E+00 -0.45593999997E+02  0.45594000000E+02  0.51100000000E-03 0. -1.
    9900012    2    1    2    0    0  0.10735225473E+02  0.14775465678E+02 -0.41381447771E+01  0.72461449486E+02  0.69999842625E+02 0.  0.
        -12    1    1    2    0    0 -0.10735225473E+02 -0.14775465678E+02  0.41381447771E+01  0.18726550514E+02  0.00000000000E+00 0.  1.
         11    1    3    3    0    0  0.55038007763E+00  0.38835688102E+01  0.13887084775E+02  0.14430389764E+02  0.51100000000E-03 0. -1.
        -11    1    3    3    0    0  0.30336674494E+01  0.23332807047E+02  0.10755849566E+02  0.25871051835E+02  0.51100000000E-03 0.  1.
         12    1    3    3    0    0  0.71511779461E+01 -0.12440910180E+02 -0.28781079118E+02  0.32160007887E+02  0.00000000000E+00 0. -1.
</event>
<event>
 7    1  0.1891413E-013  0.7246155E+02  0.7816164E-02  0.1226708E+00
        -11   -1    0    0    0    0  0.00000000000E+00  0.00000000000E+00  0.45593999997E+02  0.45594000000E+02  0.51100000000E-03 0.  1.
         11   -1    0    0    0    0 -0.00000000000E+00 -0.00000000000E+00 -0.45593999997E+02  0.45594000000E+02  0.51100000000E-03 0. -1.
    9900012    2    1    2    0    0  0.16327607937E+02  0.13708600726E+01 -0.90669742502E+01  0.72461546509E+02  0.69999969016E+02 0.  0.
        -12    1    1    2    0    0 -0.16327607937E+02 -0.13708600726E+01  0.90669742502E+01  0.18726453491E+02  0.00000000000E+00 0.  1.
         11    1    3    3    0    0 -0.25116673141E+01  0.11319019290E+02 -0.95808280143E+01  0.15040642808E+02  0.51100000000E-03 0. -1.
        -11    1    3    3    0    0 -0.14925600662E+02  0.97678343365E+01  0.36080279728E+01  0.18198956257E+02  0.51100000000E-03 0.  1.
        -12    1    3    3    0    0  0.33764875913E+02 -0.19715993554E+02 -0.30941742086E+01  0.39221947444E+02  0.00000000000E+00 0.  1.
</event>
<event>
 7    1  0.1891413E-013  0.7246158E+02  0.7816164E-02  0.1226708E+00
        -11   -1    0    0    0    0  0.00000000000E+00  0.00000000000E+00  0.45593999997E+02  0.45594000000E+02  0.51100000000E-03 0. -1.
         11   -1    0    0    0    0 -0.00000000000E+00 -0.00000000000E+00 -0.45593999997E+02  0.45594000000E+02  0.51100000000E-03 0.  1.
    9900012    2    1    2    0    0  0.13442986123E+02  0.38346232862E+01  0.12460366799E+02  0.72461576091E+02  0.70000007551E+02 0.  0.
        -12    1    1    2    0    0 -0.13442986123E+02 -0.38346232862E+01 -0.12460366799E+02  0.18726423909E+02  0.00000000000E+00 0.  1.
         11    1    3    3    0    0  0.10015389904E+00  0.10749944679E+02 -0.13987974707E+01  0.10841032056E+02  0.51100000000E-03 0. -1.
        -11    1    3    3    0    0 -0.51987649814E+01  0.75271496716E+01 -0.19077970182E+02  0.21157837462E+02  0.51100000000E-03 0.  1.
        -12    1    3    3    0    0  0.18541597206E+02 -0.14442471065E+02  0.32937134452E+02  0.40462706574E+02  0.00000000000E+00 0.  1.
</event>
<event>
 7    1  0.1891413E-013  0.7246153E+02  0.7816164E-02  0.1226708E+00
        -11   -1    0    0    0    0  0.00000000000E+00  0.00000000000E+00  0.45593999997E+02  0.45594000000E+02  0.51100000000E-03 0.  1.
         11   -1    0    0    0    0 -0.00000000000E+00 -0.00000000000E+00 -0.45593999997E+02  0.45594000000E+02  0.51100000000E-03 0. -1.
    9900012    2    1    2    0    0  0.69053799522E+01  0.34438890844E+01 -0.17062711062E+02  0.72461528012E+02  0.69999944920E+02 0.  0.
        -12    1    1    2    0    0 -0.69053799522E+01 -0.34438890844E+01  0.17062711062E+02  0.18726471988E+02  0.00000000000E+00 0.  1.
         11    1    3    3    0    0 -0.22326635420E+02  0.18765324854E+02 -0.85440960849E+01  0.30391078365E+02  0.51100000000E-03 0. -1.
        -11    1    3    3    0    0 -0.11280795247E+01  0.40890206120E+01  0.17691613398E+01  0.45959313623E+01  0.51100000000E-03 0.  1.
        -12    1    3    3    0    0  0.30360094897E+02 -0.19410456382E+02 -0.10287776317E+02  0.37474518284E+02  0.00000000000E+00 0.  1.
</event>
<event>
 7    1  0.1891413E-013  0.7246156E+02  0.7816164E-02  0.1226708E+00
        -11   -1    0    0    0    0  0.00000000000E+00  0.00000000000E+00  0.45593999997E+02  0.45594000000E+02  0.51100000000E-03 0. -1.
         11   -1    0    0    0    0 -0.00000000000E+00 -0.00000000000E+00 -0.45593999997E+02  0.45594000000E+02  0.51100000000E-03 0.  1.
    9900012    2    1    2    0    0 -0.36545787095E-01 -0.18650339866E+02  0.16861715281E+01  0.72461556474E+02  0.69999981997E+02 0.  0.
        -12    1    1    2    0    0  0.36545787095E-01  0.18650339866E+02 -0.16861715281E+01  0.18726443526E+02  0.00000000000E+00 0.  1.
         11    1    3    3    0    0 -0.12143654194E+02  0.12356935366E+01  0.16813255276E+02  0.20776930210E+02  0.51100000000E-03 0. -1.
        -11    1    3    3    0    0 -0.63891153761E+01  0.84375781896E+01  0.56380434920E+01  0.11991707788E+02  0.51100000000E-03 0.  1.
        -12    1    3    3    0    0  0.18496223783E+02 -0.28323611592E+02 -0.20765127240E+02  0.39692918476E+02  0.00000000000E+00 0.  1.
</event>
<event>
 7    1  0.1891413E-013  0.7246163E+02  0.7816164E-02  0.1226708E+00
        -11   -1    0    0    0    0  0.00000000000E+00  0.00000000000E+00  0.45593999997E+02  0.45594000000E+02  0.51100000000E-03 0. -1.
         11   -1    0    0    0    0 -0.00000000000E+00 -0.00000000000E+00 -0.45593999997E+02  0.45594000000E+02  0.51100000000E-03 0.  1.
    9900012    2    1    2    0    0  0.11723831340E+02  0.88459125769E+01  0.11618025755E+02  0.72461630543E+02  0.70000078485E+02 0.  0.
        -12    1    1    2    0    0 -0.11723831340E+02 -0.88459125769E+01 -0.11618025755E+02  0.18726369457E+02  0.00000000000E+00 0.  1.
         11    1    3    3    0    0  0.27758186917E+02 -0.57258728863E+01 -0.77171187251E+00  0.28353096845E+02  0.51100000000E-03 0.  1.
        -11    1    3    3    0    0 -0.68246924725E+01 -0.10270936987E+02  0.12575737201E+02  0.17612999186E+02  0.51100000000E-03 0. -1.
         12    1    3    3    0    0 -0.92096631047E+01  0.24842722450E+02 -0.18599957290E+00  0.26495534512E+02  0.00000000000E+00 0. -1.
</event>
<event>
 7    1  0.1891413E-013  0.7246156E+02  0.7816164E-02  0.1226708E+00
        -11   -1    0    0    0    0  0.00000000000E+00  0.00000000000E+00  0.45593999997E+02  0.45594000000E+02  0.51100000000E-03 0.  1.
         11   -1    0    0    0    0 -0.00000000000E+00 -0.00000000000E+00 -0.45593999997E+02  0.45594000000E+02  0.51100000000E-03 0. -1.
    9900012    2    1    2    0    0 -0.11861125471E+02 -0.37272401142E+01 -0.14003603691E+02  0.72461560599E+02  0.69999987369E+02 0.  0.
        -12    1    1    2    0    0  0.11861125471E+02  0.37272401142E+01  0.14003603691E+02  0.18726439401E+02  0.00000000000E+00 0.  1.
         11    1    3    3    0    0 -0.24370938313E+02 -0.46768599006E+01 -0.29477810043E+01  0.24990099358E+02  0.51100000000E-03 0. -1.
        -11    1    3    3    0    0 -0.13875015281E+02 -0.23640677602E+01  0.66063189572E+01  0.15548257647E+02  0.51100000000E-03 0.  1.
         12    1    3    3    0    0  0.26384828123E+02  0.33136875466E+01 -0.17662141644E+02  0.31923203594E+02  0.00000000000E+00 0. -1.
</event>
<event>
 7    1  0.1891413E-013  0.7246155E+02  0.7816164E-02  0.1226708E+00
        -11   -1    0    0    0    0  0.00000000000E+00  0.00000000000E+00  0.45593999997E+02  0.45594000000E+02  0.51100000000E-03 0. -1.
         11   -1    0    0    0    0 -0.00000000000E+00 -0.00000000000E+00 -0.45593999997E+02  0.45594000000E+02  0.51100000000E-03 0.  1.
    9900012    2    1    2    0    0 -0.71020637529E+01  0.13682342403E+02  0.10631746984E+02  0.72461552203E+02  0.69999976432E+02 0.  0.
        -12    1    1    2    0    0  0.71020637529E+01 -0.13682342403E+02 -0.10631746984E+02  0.18726447797E+02  0.00000000000E+00 0.  1.
         11    1    3    3    0    0 -0.19133605606E+02  0.95316714578E+01 -0.15665794504E+02  0.26502164854E+02  0.51100000000E-03 0. -1.
        -11    1    3    3    0    0  0.14050400811E+02 -0.97390299173E+00 -0.44126414776E+01  0.14759188834E+02  0.51100000000E-03 0.  1.
         12    1    3    3    0    0 -0.20188589576E+01  0.51245739368E+01  0.30710182966E+02  0.31200198514E+02  0.00000000000E+00 0. -1.
</event>
<event>
 7    1  0.1891413E-013  0.7246158E+02  0.7816164E-02  0.1226708E+00
        -11   -1    0    0    0    0  0.00000000000E+00  0.00000000000E+00  0.45593999997E+02  0.45594000000E+02  0.51100000000E-03 0. -1.
         11   -1    0    0    0    0 -0.00000000000E+00 -0.00000000000E+00 -0.45593999997E+02  0.45594000000E+02  0.51100000000E-03 0.  1.
    9900012    2    1    2    0    0 -0.11661217929E+02  0.91468315705E+01  0.11446840638E+02  0.72461583045E+02  0.70000016610E+02 0.  0.
        -12    1    1    2    0    0  0.11661217929E+02 -0.91468315705E+01 -0.11446840638E+02  0.18726416955E+02  0.00000000000E+00 0.  1.
         11    1    3    3    0    0  0.11253340470E+02  0.23442441561E+02  0.16860991847E+02  0.30991592157E+02  0.51100000000E-03 0. -1.
        -11    1    3    3    0    0  0.58029936559E+01  0.83958822829E+00  0.46504049531E+01  0.74837096585E+01  0.51100000000E-03 0.  1.
         12    1    3    3    0    0 -0.28717552054E+02 -0.15135198219E+02 -0.10064556162E+02  0.33986281230E+02  0.00000000000E+00 0. -1.
</event>
<event>
 7    1  0.1891413E-013  0.7246152E+02  0.7816164E-02  0.1226708E+00
        -11   -1    0    0    0    0  0.00000000000E+00  0.00000000000E+00  0.45593999997E+02  0.45594000000E+02  0.51100000000E-03 0. -1.
         11   -1    0    0    0    0 -0.00000000000E+00 -0.00000000000E+00 -0.45593999997E+02  0.45594000000E+02  0.51100000000E-03 0.  1.
    9900012    2    1    2    0    0  0.12864995659E+02  0.13569810218E+02 -0.10164840078E+01  0.72461518686E+02  0.69999932771E+02 0.  0.
        -12    1    1    2    0    0 -0.12864995659E+02 -0.13569810218E+02  0.10164840078E+01  0.18726481314E+02  0.00000000000E+00 0.  1.
         11    1    3    3    0    0 -0.65346490695E+01 -0.85561769332E+01 -0.85972542565E+01  0.13777611665E+02  0.51100000000E-03 0. -1.
        -11    1    3    3    0    0 -0.42073015724E+01  0.52892770971E+01 -0.18492796349E+02  0.19689117700E+02  0.51100000000E-03 0.  1.
         12    1    3    3    0    0  0.23606946301E+02  0.16836710054E+02  0.26073566598E+02  0.38994789321E+02  0.00000000000E+00 0. -1.
</event>
<event>
 7    1  0.1891413E-013  0.7246156E+02  0.7816164E-02  0.1226708E+00
        -11   -1    0    0    0    0  0.00000000000E+00  0.00000000000E+00  0.45593999997E+02  0.45594000000E+02  0.51100000000E-03 0. -1.
         11   -1    0    0    0    0 -0.00000000000E+00 -0.00000000000E+00 -0.45593999997E+02  0.45594000000E+02  0.51100000000E-03 0.  1.
    9900012    2    1    2    0    0 -0.14888513618E+02  0.17763880294E+01 -0.11218566153E+02  0.72461558300E+02  0.69999984376E+02 0.  0.
        -12    1    1    2    0    0  0.14888513618E+02 -0.17763880294E+01  0.11218566153E+02  0.18726441700E+02  0.00000000000E+00 0.  1.
         11    1    3    3    0    0 -0.28756612090E+01  0.19150570599E+02 -0.19829908551E+01  0.19466536278E+02  0.51100000000E-03 0. -1.
        -11    1    3    3    0    0 -0.23484092290E+02  0.65246590336E+01  0.14416675316E+01  0.24416227631E+02  0.51100000000E-03 0.  1.
        -12    1    3    3    0    0  0.11471239881E+02 -0.23898841604E+02 -0.10677242830E+02  0.28578794391E+02  0.00000000000E+00 0.  1.
</event>
<event>
 7    1  0.1891413E-013  0.7246158E+02  0.7816164E-02  0.1226708E+00
        -11   -1    0    0    0    0  0.00000000000E+00  0.00000000000E+00  0.45593999997E+02  0.45594000000E+02  0.51100000000E-03 0.  1.
         11   -1    0    0    0    0 -0.00000000000E+00 -0.00000000000E+00 -0.45593999997E+02  0.45594000000E+02  0.51100000000E-03 0. -1.
    9900012    2    1    2    0    0  0.81624498938E+01  0.14968864649E+02 -0.77450816271E+01  0.72461580519E+02  0.70000013320E+02 0.  0.
        -12    1    1    2    0    0 -0.81624498938E+01 -0.14968864649E+02  0.77450816271E+01  0.18726419481E+02  0.00000000000E+00 0.  1.
         11    1    3    3    0    0 -0.80196597617E+01  0.61882289604E+01  0.90695490053E+01  0.13596537787E+02  0.51100000000E-03 0. -1.
        -11    1    3    3    0    0  0.20961045278E+01  0.23804062352E+02  0.92694682989E+01  0.25631037464E+02  0.51100000000E-03 0.  1.
         12    1    3    3    0    0  0.14086005128E+02 -0.15023426663E+02 -0.26084098931E+02  0.33234005269E+02  0.00000000000E+00 0. -1.
</event>
<event>
 7    1  0.1891413E-013  0.7246159E+02  0.7816164E-02  0.1226708E+00
        -11   -1    0    0    0    0  0.00000000000E+00  0.00000000000E+00  0.45593999997E+02  0.45594000000E+02  0.51100000000E-03 0. -1.
         11   -1    0    0    0    0 -0.00000000000E+00 -0.00000000000E+00 -0.45593999997E+02  0.45594000000E+02  0.51100000000E-03 0.  1.
    9900012    2    1    2    0    0  0.67877410242E+01 -0.74495588804E+01  0.15783190796E+02  0.72461589041E+02  0.70000024421E+02 0.  0.
        -12    1    1    2    0    0 -0.67877410242E+01  0.74495588804E+01 -0.15783190796E+02  0.18726410959E+02  0.00000000000E+00 0.  1.
         11    1    3    3    0    0 -0.13226095206E+02 -0.19878808160E+02  0.21582022715E+02  0.32185094578E+02  0.51100000000E-03 0. -1.
        -11    1    3    3    0    0 -0.88140276099E+01  0.12575044958E+01 -0.20197691906E+01  0.91295053595E+01  0.51100000000E-03 0.  1.
         12    1    3    3    0    0  0.28827863840E+02  0.11171744784E+02 -0.37790627291E+01  0.31146989103E+02  0.00000000000E+00 0. -1.
</event>
<event>
 7    1  0.1891413E-013  0.7246137E+02  0.7816164E-02  0.1226709E+00
        -11   -1    0    0    0    0  0.00000000000E+00  0.00000000000E+00  0.45593999997E+02  0.45594000000E+02  0.51100000000E-03 0. -1.
         11   -1    0    0    0    0 -0.00000000000E+00 -0.00000000000E+00 -0.45593999997E+02  0.45594000000E+02  0.51100000000E-03 0.  1.
    9900012    2    1    2    0    0  0.14101791333E+01  0.16344814376E+02  0.90302340351E+01  0.72461369526E+02  0.69999738462E+02 0.  0.
        -12    1    1    2    0    0 -0.14101791333E+01 -0.16344814376E+02 -0.90302340351E+01  0.18726630474E+02  0.00000000000E+00 0.  1.
         11    1    3    3    0    0 -0.20049182589E+02  0.16327233128E+02  0.16043825525E+02  0.30429469299E+02  0.51100000000E-03 0. -1.
        -11    1    3    3    0    0 -0.33731432790E+01  0.88942769101E+00  0.10871002886E+02  0.11416999659E+02  0.51100000000E-03 0.  1.
        -12    1    3    3    0    0  0.24832505001E+02 -0.87184644307E+00 -0.17884594376E+02  0.30614900569E+02  0.00000000000E+00 0.  1.
</event>
<event>
 7    1  0.1891413E-013  0.7246159E+02  0.7816164E-02  0.1226708E+00
        -11   -1    0    0    0    0  0.00000000000E+00  0.00000000000E+00  0.45593999997E+02  0.45594000000E+02  0.51100000000E-03 0.  1.
         11   -1    0    0    0    0 -0.00000000000E+00 -0.00000000000E+00 -0.45593999997E+02  0.45594000000E+02  0.51100000000E-03 0. -1.
    9900012    2    1    2    0    0 -0.11741512617E+02 -0.21116104343E-01 -0.14588178824E+02  0.72461587481E+02  0.70000022388E+02 0.  0.
        -12    1    1    2    0    0  0.11741512617E+02  0.21116104343E-01  0.14588178824E+02  0.18726412519E+02  0.00000000000E+00 0.  1.
         11    1    3    3    0    0 -0.14767922730E+02 -0.11281176743E+02  0.11523367678E+02  0.21866515346E+02  0.51100000000E-03 0. -1.
        -11    1    3    3    0    0  0.81347204374E+01 -0.91784128735E+01  0.48141720908E+01  0.13175476942E+02  0.51100000000E-03 0.  1.
         12    1    3    3    0    0 -0.51083103242E+01  0.20438473512E+02 -0.30925718593E+02  0.37419595193E+02  0.00000000000E+00 0. -1.
</event>
<event>
 7    1  0.1891413E-013  0.7246161E+02  0.7816164E-02  0.1226708E+00
        -11   -1    0    0    0    0  0.00000000000E+00  0.00000000000E+00  0.45593999997E+02  0.45594000000E+02  0.51100000000E-03 0.  1.
         11   -1    0    0    0    0 -0.00000000000E+00 -0.00000000000E+00 -0.45593999997E+02  0.45594000000E+02  0.51100000000E-03 0. -1.
    9900012    2    1    2    0    0 -0.15831174932E+02 -0.90289147575E+01 -0.43046916593E+01  0.72461607617E+02  0.70000048619E+02 0.  0.
        -12    1    1    2    0    0  0.15831174932E+02  0.90289147575E+01  0.43046916593E+01  0.18726392383E+02  0.00000000000E+00 0.  1.
         11    1    3    3    0    0 -0.86624869230E+01 -0.63565407845E+01 -0.29769988920E+02  0.31649589744E+02  0.51100000000E-03 0. -1.
        -11    1    3    3    0    0  0.94131588544E+00  0.52529502567E+01 -0.56037586506E+01  0.77383249655E+01  0.51100000000E-03 0.  1.
        -12    1    3    3    0    0 -0.81100038941E+01 -0.79253242297E+01  0.31069055911E+02  0.33073692907E+02  0.00000000000E+00 0.  1.
</event>
<event>
 7    1  0.1891413E-013  0.7246157E+02  0.7816164E-02  0.1226708E+00
        -11   -1    0    0    0    0  0.00000000000E+00  0.00000000000E+00  0.45593999997E+02  0.45594000000E+02  0.51100000000E-03 0.  1.
         11   -1    0    0    0    0 -0.00000000000E+00 -0.00000000000E+00 -0.45593999997E+02  0.45594000000E+02  0.51100000000E-03 0. -1.
    9900012    2    1    2    0    0 -0.13542588053E+02  0.12791205177E+02  0.19137374937E+01  0.72461574494E+02  0.70000005470E+02 0.  0.
        -12    1    1    2    0    0  0.13542588053E+02 -0.12791205177E+02 -0.19137374937E+01  0.18726425506E+02  0.00000000000E+00 0.  1.
         11    1    3    3    0    0 -0.27078193420E+01  0.58222089164E+01 -0.22229550457E+02  0.23138351628E+02  0.51100000000E-03 0. -1.
        -11    1    3    3    0    0 -0.64569625300E+01  0.22988794685E+02  0.57874698785E+01  0.24569734513E+02  0.51100000000E-03 0.  1.
        -12    1    3    3    0    0 -0.43778061806E+01 -0.16019798424E+02  0.18355818073E+02  0.24753488353E+02  0.00000000000E+00 0.  1.
</event>
<event>
 7    1  0.1891413E-013  0.7246148E+02  0.7816164E-02  0.1226708E+00
        -11   -1    0    0    0    0  0.00000000000E+00  0.00000000000E+00  0.45593999997E+02  0.45594000000E+02  0.51100000000E-03 0. -1.
         11   -1    0    0    0    0 -0.00000000000E+00 -0.00000000000E+00 -0.45593999997E+02  0.45594000000E+02  0.51100000000E-03 0.  1.
    9900012    2    1    2    0    0  0.10684724552E+02  0.51873164601E+01  0.14477946133E+02  0.72461480968E+02  0.69999883636E+02 0.  0.
        -12    1    1    2    0    0 -0.10684724552E+02 -0.51873164601E+01 -0.14477946133E+02  0.18726519032E+02  0.00000000000E+00 0.  1.
         11    1    3    3    0    0  0.18142063182E+02  0.66195899396E+01 -0.16488949186E+01  0.19382267209E+02  0.51100000000E-03 0. -1.
        -11    1    3    3    0    0  0.16676964887E+02  0.59082000389E+01 -0.68357545380E+01  0.18967222409E+02  0.51100000000E-03 0.  1.
         12    1    3    3    0    0 -0.24134303516E+02 -0.73404735184E+01  0.22962595590E+02  0.34111991350E+02  0.00000000000E+00 0. -1.
</event>
<event>
 7    1  0.1891413E-013  0.7246158E+02  0.7816164E-02  0.1226708E+00
        -11   -1    0    0    0    0  0.00000000000E+00  0.00000000000E+00  0.45593999997E+02  0.45594000000E+02  0.51100000000E-03 0.  1.
         11   -1    0    0    0    0 -0.00000000000E+00 -0.00000000000E+00 -0.45593999997E+02  0.45594000000E+02  0.51100000000E-03 0. -1.
    9900012    2    1    2    0    0  0.10200563026E+02  0.74742833975E+01 -0.13811683041E+02  0.72461575174E+02  0.70000006356E+02 0.  0.
        -12    1    1    2    0    0 -0.10200563026E+02 -0.74742833975E+01  0.13811683041E+02  0.18726424826E+02  0.00000000000E+00 0.  1.
         11    1    3    3    0    0  0.21950431967E+01  0.67504415022E+01  0.47136610201E+01  0.85208729355E+01  0.51100000000E-03 0. -1.
        -11    1    3    3    0    0  0.30929862756E+02 -0.59515992781E+01  0.32000909150E+01  0.31659414495E+02  0.51100000000E-03 0.  1.
         12    1    3    3    0    0 -0.22924342926E+02  0.66754411734E+01 -0.21725434976E+02  0.32281287743E+02  0.00000000000E+00 0. -1.
</event>
<event>
 7    1  0.1891413E-013  0.7246159E+02  0.7816164E-02  0.1226708E+00
        -11   -1    0    0    0    0  0.00000000000E+00  0.00000000000E+00  0.45593999997E+02  0.45594000000E+02  0.51100000000E-03 0.  1.
         11   -1    0    0    0    0 -0.00000000000E+00 -0.00000000000E+00 -0.45593999997E+02  0.45594000000E+02  0.51100000000E-03 0. -1.
    9900012    2    1    2    0    0  0.15571213899E+02 -0.66492429820E+01 -0.80001997538E+01  0.72461592693E+02  0.70000029178E+02 0.  0.
        -12    1    1    2    0    0 -0.15571213899E+02  0.66492429820E+01  0.80001997538E+01  0.18726407307E+02  0.00000000000E+00 0.  1.
         11    1    3    3    0    0  0.17533525841E+02 -0.52086373326E+01 -0.15578826104E+02  0.24026116089E+02  0.51100000000E-03 0. -1.
        -11    1    3    3    0    0  0.14928953974E+02 -0.18300880058E+02  0.67156039520E+01  0.24553924622E+02  0.51100000000E-03 0.  1.
        -12    1    3    3    0    0 -0.16891265916E+02  0.16860274409E+02  0.86302239791E+00  0.23881551981E+02  0.00000000000E+00 0.  1.
</event>
<event>
 7    1  0.1891413E-013  0.7246165E+02  0.7816164E-02  0.1226708E+00
        -11   -1    0    0    0    0  0.00000000000E+00  0.00000000000E+00  0.45593999997E+02  0.45594000000E+02  0.51100000000E-03 0.  1.
         11   -1    0    0    0    0 -0.00000000000E+00 -0.00000000000E+00 -0.45593999997E+02  0.45594000000E+02  0.51100000000E-03 0. -1.
    9900012    2    1    2    0    0 -0.79829461879E+01  0.16774188107E+02 -0.23612358064E+01  0.72461648219E+02  0.70000101511E+02 0.  0.
        -12    1    1    2    0    0  0.79829461879E+01 -0.16774188107E+02  0.23612358064E+01  0.18726351781E+02  0.00000000000E+00 0.  1.
         11    1    3    3    0    0 -0.30305965325E+01  0.40683697372E+02  0.34815794064E+01  0.40944708359E+02  0.51100000000E-03 0. -1.
        -11    1    3    3    0    0  0.29821357043E+01 -0.17569809055E+00 -0.57636668416E+01  0.64918301657E+01  0.51100000000E-03 0.  1.
        -12    1    3    3    0    0 -0.79344853597E+01 -0.23733811174E+02 -0.79148371265E-01  0.25025109694E+02  0.00000000000E+00 0.  1.
</event>
<event>
 7    1  0.1891413E-013  0.7246139E+02  0.7816164E-02  0.1226708E+00
        -11   -1    0    0    0    0  0.00000000000E+00  0.00000000000E+00  0.45593999997E+02  0.45594000000E+02  0.51100000000E-03 0. -1.
         11   -1    0    0    0    0 -0.00000000000E+00 -0.00000000000E+00 -0.45593999997E+02  0.45594000000E+02  0.51100000000E-03 0.  1.
    9900012    2    1    2    0    0  0.43541046435E+00 -0.18512935175E+02 -0.27870183651E+01  0.72461392661E+02  0.69999768599E+02 0.  0.
        -12    1    1    2    0    0 -0.43541046435E+00  0.18512935175E+02  0.27870183651E+01  0.18726607339E+02  0.00000000000E+00 0.  1.
         11    1    3    3    0    0 -0.65806371349E+01 -0.20676897101E+02  0.13558967681E+01  0.21741143372E+02  0.51100000000E-03 0. -1.
        -11    1    3    3    0    0  0.24681547153E+02 -0.12108875947E+02 -0.52233416356E+01  0.27983690691E+02  0.51100000000E-03 0.  1.
         12    1    3    3    0    0 -0.17665499554E+02  0.14272837874E+02  0.10804265024E+01  0.22736558598E+02  0.00000000000E+00 0. -1.
</event>
<event>
 7    1  0.1891413E-013  0.7246155E+02  0.7816164E-02  0.1226708E+00
        -11   -1    0    0    0    0  0.00000000000E+00  0.00000000000E+00  0.45593999997E+02  0.45594000000E+02  0.51100000000E-03 0. -1.
         11   -1    0    0    0    0 -0.00000000000E+00 -0.00000000000E+00 -0.45593999997E+02  0.45594000000E+02  0.51100000000E-03 0.  1.
    9900012    2    1    2    0    0  0.12954960491E+02 -0.12138366231E+02  0.59589549336E+01  0.72461545985E+02  0.69999968332E+02 0.  0.
        -12    1    1    2    0    0 -0.12954960491E+02  0.12138366231E+02 -0.59589549336E+01  0.18726454015E+02  0.00000000000E+00 0.  1.
         11    1    3    3    0    0  0.12403614946E+02 -0.15205828874E+02  0.17821090301E+02  0.26507699924E+02  0.51100000000E-03 0. -1.
        -11    1    3    3    0    0  0.72743146179E+01 -0.19154356510E+02 -0.15425560429E+01  0.20547128896E+02  0.51100000000E-03 0.  1.
        -12    1    3    3    0    0 -0.67229690735E+01  0.22221819153E+02 -0.10319579325E+02  0.25406717164E+02  0.00000000000E+00 0.  1.
</event>
<event>
 7    1  0.1891413E-013  0.7246162E+02  0.7816164E-02  0.1226708E+00
        -11   -1    0    0    0    0  0.00000000000E+00  0.00000000000E+00  0.45593999997E+02  0.45594000000E+02  0.51100000000E-03 0.  1.
         11   -1    0    0    0    0 -0.00000000000E+00 -0.00000000000E+00 -0.45593999997E+02  0.45594000000E+02  0.51100000000E-03 0. -1.
    9900012    2    1    2    0    0 -0.17444876902E+02 -0.65200621877E+01  0.19601904097E+01  0.72461620544E+02  0.70000065460E+02 0.  0.
        -12    1    1    2    0    0  0.17444876902E+02  0.65200621877E+01 -0.19601904097E+01  0.18726379456E+02  0.00000000000E+00 0.  1.
         11    1    3    3    0    0 -0.46398439092E+01  0.44251043467E+01 -0.95676569339E+01  0.11517367731E+02  0.51100000000E-03 0. -1.
        -11    1    3    3    0    0 -0.20255972191E+02  0.18176166141E+02 -0.33210548971E+01  0.27417272492E+02  0.51100000000E-03 0.  1.
        -12    1    3    3    0    0  0.74509391979E+01 -0.29121332676E+02  0.14848902241E+02  0.33526980322E+02  0.00000000000E+00 0.  1.
</event>
<event>
 7    1  0.1891413E-013  0.7246154E+02  0.7816164E-02  0.1226708E+00
        -11   -1    0    0    0    0  0.00000000000E+00  0.00000000000E+00  0.45593999997E+02  0.45594000000E+02  0.51100000000E-03 0. -1.
         11   -1    0    0    0    0 -0.00000000000E+00 -0.00000000000E+00 -0.45593999997E+02  0.45594000000E+02  0.51100000000E-03 0.  1.
    9900012    2    1    2    0    0 -0.29933148156E+01 -0.46134512348E+01  0.17900733684E+02  0.72461544587E+02  0.69999966512E+02 0.  0.
        -12    1    1    2    0    0  0.29933148156E+01  0.46134512348E+01 -0.17900733684E+02  0.18726455413E+02  0.00000000000E+00 0.  1.
         11    1    3    3    0    0  0.10940877115E+01  0.26154795587E+02  0.11011043206E+02  0.28399180144E+02  0.51100000000E-03 0. -1.
        -11    1    3    3    0    0 -0.12981859038E+02 -0.17156026484E+01  0.11897782837E+01  0.13148670243E+02  0.51100000000E-03 0.  1.
         12    1    3    3    0    0  0.88944565106E+01 -0.29052644174E+02  0.56999121947E+01  0.30913694200E+02  0.00000000000E+00 0. -1.
</event>
<event>
 7    1  0.1891413E-013  0.7246160E+02  0.7816164E-02  0.1226708E+00
        -11   -1    0    0    0    0  0.00000000000E+00  0.00000000000E+00  0.45593999997E+02  0.45594000000E+02  0.51100000000E-03 0. -1.
         11   -1    0    0    0    0 -0.00000000000E+00 -0.00000000000E+00 -0.45593999997E+02  0.45594000000E+02  0.51100000000E-03 0.  1.
    9900012    2    1    2    0    0 -0.14258926627E+02  0.59750839131E+01 -0.10566907620E+02  0.72461597436E+02  0.70000035357E+02 0.  0.
        -12    1    1    2    0    0  0.14258926627E+02 -0.59750839131E+01  0.10566907620E+02  0.18726402564E+02  0.00000000000E+00 0.  1.
         11    1    3    3    0    0  0.17146423278E+02 -0.13580583916E+01  0.12623970889E+02  0.21335622679E+02  0.51100000000E-03 0. -1.
        -11    1    3    3    0    0  0.49430745617E+01  0.55107197164E+01  0.93476223482E+00  0.74616217146E+01  0.51100000000E-03 0.  1.
        -12    1    3    3    0    0 -0.36348424467E+02  0.18224225883E+01 -0.24125640744E+02  0.43664353043E+02  0.00000000000E+00 0.  1.
</event>
<event>
 7    1  0.1891413E-013  0.7246157E+02  0.7816164E-02  0.1226708E+00
        -11   -1    0    0    0    0  0.00000000000E+00  0.00000000000E+00  0.45593999997E+02  0.45594000000E+02  0.51100000000E-03 0.  1.
         11   -1    0    0    0    0 -0.00000000000E+00 -0.00000000000E+00 -0.45593999997E+02  0.45594000000E+02  0.51100000000E-03 0. -1.
    9900012    2    1    2    0    0 -0.80426750498E+01 -0.78059236445E+01 -0.15002066046E+02  0.72461573444E+02  0.70000004103E+02 0.  0.
        -12    1    1    2    0    0  0.80426750498E+01  0.78059236445E+01  0.15002066046E+02  0.18726426556E+02  0.00000000000E+00 0.  1.
         11    1    3    3    0    0  0.19408330551E+02 -0.16085412227E+02 -0.60388916500E+01  0.25920879497E+02  0.51100000000E-03 0. -1.
        -11    1    3    3    0    0  0.85762067816E+01  0.59732306133E+00 -0.35786956861E+01  0.93120986182E+01  0.51100000000E-03 0.  1.
        -12    1    3    3    0    0 -0.36027212383E+02  0.76821655213E+01 -0.53844787100E+01  0.37228595328E+02  0.00000000000E+00 0.  1.
</event>
<event>
 7    1  0.1891413E-013  0.7246160E+02  0.7816164E-02  0.1226708E+00
        -11   -1    0    0    0    0  0.00000000000E+00  0.00000000000E+00  0.45593999997E+02  0.45594000000E+02  0.51100000000E-03 0.  1.
         11   -1    0    0    0    0 -0.00000000000E+00 -0.00000000000E+00 -0.45593999997E+02  0.45594000000E+02  0.51100000000E-03 0. -1.
    9900012    2    1    2    0    0  0.30596193213E+01  0.27577508850E+01 -0.18267775078E+02  0.72461599742E+02  0.70000038361E+02 0.  0.
        -12    1    1    2    0    0 -0.30596193213E+01 -0.27577508850E+01  0.18267775078E+02  0.18726400258E+02  0.00000000000E+00 0.  1.
         11    1    3    3    0    0  0.93380484456E+01 -0.75856325012E+01  0.11516028113E+01  0.12085824693E+02  0.51100000000E-03 0. -1.
        -11    1    3    3    0    0 -0.10584197737E+02  0.27821905905E+01  0.18487103341E+02  0.21483454481E+02  0.51100000000E-03 0.  1.
         12    1    3    3    0    0  0.43057686131E+01  0.75611927958E+01 -0.37906481231E+02  0.38892320568E+02  0.00000000000E+00 0. -1.
</event>
<event>
 7    1  0.1891413E-013  0.7246157E+02  0.7816164E-02  0.1226708E+00
        -11   -1    0    0    0    0  0.00000000000E+00  0.00000000000E+00  0.45593999997E+02  0.45594000000E+02  0.51100000000E-03 0.  1.
         11   -1    0    0    0    0 -0.00000000000E+00 -0.00000000000E+00 -0.45593999997E+02  0.45594000000E+02  0.51100000000E-03 0. -1.
    9900012    2    1    2    0    0 -0.17848682325E+02 -0.54266948065E+01  0.16293201436E+01  0.72461570511E+02  0.70000000283E+02 0.  0.
        -12    1    1    2    0    0  0.17848682325E+02  0.54266948065E+01 -0.16293201436E+01  0.18726429489E+02  0.00000000000E+00 0.  1.
         11    1    3    3    0    0  0.95279808368E+00 -0.17697705096E+02 -0.38466384677E+01  0.18135964756E+02  0.51100000000E-03 0. -1.
        -11    1    3    3    0    0 -0.10183855959E+02 -0.10601693540E+02 -0.16043531599E+02  0.21760095003E+02  0.51100000000E-03 0.  1.
        -12    1    3    3    0    0 -0.86176244494E+01  0.22872703830E+02  0.21519490211E+02  0.32565510752E+02  0.00000000000E+00 0.  1.
</event>
<event>
 7    1  0.1891413E-013  0.7246164E+02  0.7816164E-02  0.1226708E+00
        -11   -1    0    0    0    0  0.00000000000E+00  0.00000000000E+00  0.45593999997E+02  0.45594000000E+02  0.51100000000E-03 0. -1.
         11   -1    0    0    0    0 -0.00000000000E+00 -0.00000000000E+00 -0.45593999997E+02  0.45594000000E+02  0.51100000000E-03 0.  1.
    9900012    2    1    2    0    0  0.14690250159E+02  0.12703749294E+01  0.11543802886E+02  0.72461636572E+02  0.70000086339E+02 0.  0.
        -12    1    1    2    0    0 -0.14690250159E+02 -0.12703749294E+01 -0.11543802886E+02  0.18726363428E+02  0.00000000000E+00 0.  1.
         11    1    3    3    0    0 -0.11215652872E+02  0.24855022624E+01  0.71359039088E+01  0.13523672419E+02  0.51100000000E-03 0. -1.
        -11    1    3    3    0    0 -0.12771874921E+02  0.30979190201E+00 -0.11404070953E+02  0.17125115900E+02  0.51100000000E-03 0.  1.
         12    1    3    3    0    0  0.38677777951E+02 -0.15249192350E+01  0.15811969930E+02  0.41812848253E+02  0.00000000000E+00 0. -1.
</event>
<event>
 7    1  0.1891413E-013  0.7246156E+02  0.7816164E-02  0.1226708E+00
        -11   -1    0    0    0    0  0.00000000000E+00  0.00000000000E+00  0.45593999997E+02  0.45594000000E+02  0.51100000000E-03 0.  1.
         11   -1    0    0    0    0 -0.00000000000E+00 -0.00000000000E+00 -0.45593999997E+02  0.45594000000E+02  0.51100000000E-03 0. -1.
    9900012    2    1    2    0    0  0.30245858557E+01  0.14827043458E+02 -0.11031333061E+02  0.72461557562E+02  0.69999983413E+02 0.  0.
        -12    1    1    2    0    0 -0.30245858557E+01 -0.14827043458E+02  0.11031333061E+02  0.18726442438E+02  0.00000000000E+00 0.  1.
         11    1    3    3    0    0 -0.12830164642E+00 -0.10784592881E+02  0.12875845073E+02  0.16796168954E+02  0.51100000000E-03 0. -1.
        -11    1    3    3    0    0  0.20177345661E+02  0.13002494206E+02 -0.38206709977E+00  0.24007001250E+02  0.51100000000E-03 0.  1.
        -12    1    3    3    0    0 -0.17024458159E+02  0.12609142133E+02 -0.23525111034E+02  0.31658387358E+02  0.00000000000E+00 0.  1.
</event>
<event>
 7    1  0.1891413E-013  0.7246156E+02  0.7816164E-02  0.1226708E+00
        -11   -1    0    0    0    0  0.00000000000E+00  0.00000000000E+00  0.45593999997E+02  0.45594000000E+02  0.51100000000E-03 0. -1.
         11   -1    0    0    0    0 -0.00000000000E+00 -0.00000000000E+00 -0.45593999997E+02  0.45594000000E+02  0.51100000000E-03 0.  1.
    9900012    2    1    2    0    0  0.16790592499E+02 -0.41058392066E+01  0.72039986170E+01  0.72461561253E+02  0.69999988222E+02 0.  0.
        -12    1    1    2    0    0 -0.16790592499E+02  0.41058392066E+01 -0.72039986170E+01  0.18726438747E+02  0.00000000000E+00 0.  1.
         11    1    3    3    0    0  0.21847423820E+02  0.13419343523E+02  0.13037478674E+02  0.28763945463E+02  0.51100000000E-03 0. -1.
        -11    1    3    3    0    0  0.80298405950E+01  0.99557294576E+01 -0.29291204362E+01  0.13121533287E+02  0.51100000000E-03 0.  1.
        -12    1    3    3    0    0 -0.13086671916E+02 -0.27480912187E+02 -0.29043596210E+01  0.30576082504E+02  0.00000000000E+00 0.  1.
</event>
<event>
 7    1  0.1891413E-013  0.7246159E+02  0.7816164E-02  0.1226708E+00
        -11   -1    0    0    0    0  0.00000000000E+00  0.00000000000E+00  0.45593999997E+02  0.45594000000E+02  0.51100000000E-03 0.  1.
         11   -1    0    0    0    0 -0.00000000000E+00 -0.00000000000E+00 -0.45593999997E+02  0.45594000000E+02  0.51100000000E-03 0. -1.
    9900012    2    1    2    0    0 -0.94011048615E+01  0.13313818172E+02 -0.92216985412E+01  0.72461594821E+02  0.70000031951E+02 0.  0.
        -12    1    1    2    0    0  0.94011048615E+01 -0.13313818172E+02  0.92216985412E+01  0.18726405179E+02  0.00000000000E+00 0.  1.
         11    1    3    3    0    0  0.15719427289E+02  0.65147290302E+01  0.20137587317E+02  0.26364076162E+02  0.51100000000E-03 0. -1.
        -11    1    3    3    0    0  0.45525322516E+01 -0.13822361681E+01 -0.40422587535E+01  0.62430747887E+01  0.51100000000E-03 0.  1.
        -12    1    3    3    0    0 -0.29673064402E+02  0.81813253099E+01 -0.25317027105E+02  0.39854443871E+02  0.00000000000E+00 0.  1.
</event>
<event>
 7    1  0.1891413E-013  0.7246159E+02  0.7816164E-02  0.1226708E+00
        -11   -1    0    0    0    0  0.00000000000E+00  0.00000000000E+00  0.45593999997E+02  0.45594000000E+02  0.51100000000E-03 0.  1.
         11   -1    0    0    0    0 -0.00000000000E+00 -0.00000000000E+00 -0.45593999997E+02  0.45594000000E+02  0.51100000000E-03 0. -1.
    9900012    2    1    2    0    0 -0.94912581664E+01  0.16100348183E+02  0.11718123263E+01  0.72461592514E+02  0.70000028945E+02 0.  0.
        -12    1    1    2    0    0  0.94912581664E+01 -0.16100348183E+02 -0.11718123263E+01  0.18726407486E+02  0.00000000000E+00 0.  1.
         11    1    3    3    0    0  0.73784927168E+01  0.12778891092E+02  0.17209184809E+02  0.22669324083E+02  0.51100000000E-03 0. -1.
        -11    1    3    3    0    0 -0.30772481918E+02  0.79962312027E+01 -0.14806634063E+02  0.35073091814E+02  0.51100000000E-03 0.  1.
         12    1    3    3    0    0  0.13902731035E+02 -0.46747741117E+01 -0.12307384196E+01  0.14719176617E+02  0.00000000000E+00 0. -1.
</event>
<event>
 7    1  0.1891413E-013  0.7246157E+02  0.7816164E-02  0.1226708E+00
        -11   -1    0    0    0    0  0.00000000000E+00  0.00000000000E+00  0.45593999997E+02  0.45594000000E+02  0.51100000000E-03 0.  1.
         11   -1    0    0    0    0 -0.00000000000E+00 -0.00000000000E+00 -0.45593999997E+02  0.45594000000E+02  0.51100000000E-03 0. -1.
    9900012    2    1    2    0    0 -0.83092796403E+01 -0.15523119175E+02 -0.63771407850E+01  0.72461567301E+02  0.69999996100E+02 0.  0.
        -12    1    1    2    0    0  0.83092796403E+01  0.15523119175E+02  0.63771407850E+01  0.18726432699E+02  0.00000000000E+00 0.  1.
         11    1    3    3    0    0 -0.34201399708E+01 -0.28933177315E+02  0.19903434072E+02  0.35284172019E+02  0.51100000000E-03 0. -1.
        -11    1    3    3    0    0 -0.26142786163E+01  0.69114040341E+00  0.36700144251E+01  0.45586328962E+01  0.51100000000E-03 0.  1.
        -12    1    3    3    0    0 -0.22748610532E+01  0.12718917737E+02 -0.29950589282E+02  0.32618762385E+02  0.00000000000E+00 0.  1.
</event>
<event>
 7    1  0.1891413E-013  0.7246162E+02  0.7816164E-02  0.1226708E+00
        -11   -1    0    0    0    0  0.00000000000E+00  0.00000000000E+00  0.45593999997E+02  0.45594000000E+02  0.51100000000E-03 0. -1.
         11   -1    0    0    0    0 -0.00000000000E+00 -0.00000000000E+00 -0.45593999997E+02  0.45594000000E+02  0.51100000000E-03 0.  1.
    9900012    2    1    2    0    0 -0.56108937615E+01 -0.67502074892E+01 -0.16541764363E+02  0.72461617589E+02  0.70000061610E+02 0.  0.
        -12    1    1    2    0    0  0.56108937615E+01  0.67502074892E+01  0.16541764363E+02  0.18726382411E+02  0.00000000000E+00 0.  1.
         11    1    3    3    0    0  0.67782651885E+01  0.78819847042E+01  0.17382066426E+02  0.20253562534E+02  0.51100000000E-03 0.  1.
        -11    1    3    3    0    0  0.95343161324E+01  0.23502252517E+01 -0.21833414035E+01  0.10059509073E+02  0.51100000000E-03 0. -1.
        -12    1    3    3    0    0 -0.21923475082E+02 -0.16982417445E+02 -0.31740489385E+02  0.42148545982E+02  0.00000000000E+00 0.  1.
</event>
<event>
 7    1  0.1891413E-013  0.7246157E+02  0.7816164E-02  0.1226708E+00
        -11   -1    0    0    0    0  0.00000000000E+00  0.00000000000E+00  0.45593999997E+02  0.45594000000E+02  0.51100000000E-03 0.  1.
         11   -1    0    0    0    0 -0.00000000000E+00 -0.00000000000E+00 -0.45593999997E+02  0.45594000000E+02  0.51100000000E-03 0. -1.
    9900012    2    1    2    0    0 -0.11841044441E+02 -0.14306251534E+02 -0.24083054161E+01  0.72461572114E+02  0.70000002371E+02 0.  0.
        -12    1    1    2    0    0  0.11841044441E+02  0.14306251534E+02  0.24083054161E+01  0.18726427886E+02  0.00000000000E+00 0.  1.
         11    1    3    3    0    0 -0.70238344452E-01  0.48428205733E+01 -0.43314408744E+01  0.64976322487E+01  0.51100000000E-03 0. -1.
        -11    1    3    3    0    0 -0.30824666598E+02  0.65724441424E+01 -0.78774974223E+01  0.32487106039E+02  0.51100000000E-03 0.  1.
         12    1    3    3    0    0  0.19053860502E+02 -0.25721516249E+02  0.98006328807E+01  0.33476833826E+02  0.00000000000E+00 0. -1.
</event>
<event>
 7    1  0.1891413E-013  0.7246150E+02  0.7816164E-02  0.1226708E+00
        -11   -1    0    0    0    0  0.00000000000E+00  0.00000000000E+00  0.45593999997E+02  0.45594000000E+02  0.51100000000E-03 0. -1.
         11   -1    0    0    0    0 -0.00000000000E+00 -0.00000000000E+00 -0.45593999997E+02  0.45594000000E+02  0.51100000000E-03 0.  1.
    9900012    2    1    2    0    0 -0.15057303567E+02  0.94312882055E+01  0.59169331753E+01  0.72461503101E+02  0.69999912468E+02 0.  0.
        -12    1    1    2    0    0  0.15057303567E+02 -0.94312882055E+01 -0.59169331753E+01  0.18726496899E+02  0.00000000000E+00 0.  1.
         11    1    3    3    0    0 -0.73266146103E+01  0.61963320169E+01 -0.91187539103E+01  0.13237276353E+02  0.51100000000E-03 0. -1.
        -11    1    3    3    0    0 -0.11561211382E+02  0.31606159094E+01 -0.20357816524E+02  0.23623966548E+02  0.51100000000E-03 0.  1.
         12    1    3    3    0    0  0.38305224257E+01  0.74340279208E-01  0.35393503610E+02  0.35600260200E+02  0.00000000000E+00 0. -1.
</event>
<event>
 7    1  0.1891413E-013  0.7246186E+02  0.7816164E-02  0.1226707E+00
        -11   -1    0    0    0    0  0.00000000000E+00  0.00000000000E+00  0.45593999997E+02  0.45594000000E+02  0.51100000000E-03 0. -1.
         11   -1    0    0    0    0 -0.00000000000E+00 -0.00000000000E+00 -0.45593999997E+02  0.45594000000E+02  0.51100000000E-03 0.  1.
    9900012    2    1    2    0    0  0.28283057226E+01 -0.12911563063E+02  0.13265015915E+02  0.72461857279E+02  0.70000373850E+02 0.  0.
        -12    1    1    2    0    0 -0.28283057226E+01  0.12911563063E+02 -0.13265015915E+02  0.18726142721E+02  0.00000000000E+00 0.  1.
         11    1    3    3    0    0  0.50302182064E+01 -0.12653711346E+01  0.12891815704E+02  0.13896156725E+02  0.51100000000E-03 0. -1.
        -11    1    3    3    0    0  0.31265376681E+01  0.19327812356E+02  0.14243734690E+02  0.24212053743E+02  0.51100000000E-03 0.  1.
        -12    1    3    3    0    0 -0.53284501519E+01 -0.30974004285E+02 -0.13870534480E+02  0.34353646811E+02  0.00000000000E+00 0.  1.
</event>
<event>
 7    1  0.1891413E-013  0.7246160E+02  0.7816164E-02  0.1226708E+00
        -11   -1    0    0    0    0  0.00000000000E+00  0.00000000000E+00  0.45593999997E+02  0.45594000000E+02  0.51100000000E-03 0.  1.
         11   -1    0    0    0    0 -0.00000000000E+00 -0.00000000000E+00 -0.45593999997E+02  0.45594000000E+02  0.51100000000E-03 0. -1.
    9900012    2    1    2    0    0  0.17737785896E+02 -0.38603935732E+01 -0.45985304029E+01  0.72461597012E+02  0.70000034804E+02 0.  0.
        -12    1    1    2    0    0 -0.17737785896E+02  0.38603935732E+01  0.45985304029E+01  0.18726402988E+02  0.00000000000E+00 0.  1.
         11    1    3    3    0    0  0.22134820415E+02 -0.14139176924E+02 -0.83046005555E-01  0.26265442997E+02  0.51100000000E-03 0. -1.
        -11    1    3    3    0    0  0.25108381822E+01  0.27077601748E+01  0.19625406605E+02  0.19969798653E+02  0.51100000000E-03 0.  1.
         12    1    3    3    0    0 -0.69078727018E+01  0.75710231759E+01 -0.24140891003E+02  0.26226355362E+02  0.00000000000E+00 0. -1.
</event>
<event>
 7    1  0.1891413E-013  0.7246153E+02  0.7816164E-02  0.1226708E+00
        -11   -1    0    0    0    0  0.00000000000E+00  0.00000000000E+00  0.45593999997E+02  0.45594000000E+02  0.51100000000E-03 0.  1.
         11   -1    0    0    0    0 -0.00000000000E+00 -0.00000000000E+00 -0.45593999997E+02  0.45594000000E+02  0.51100000000E-03 0. -1.
    9900012    2    1    2    0    0 -0.14725295715E+02 -0.94260894458E+01 -0.67078474988E+01  0.72461529051E+02  0.69999946273E+02 0.  0.
        -12    1    1    2    0    0  0.14725295715E+02  0.94260894458E+01  0.67078474988E+01  0.18726470949E+02  0.00000000000E+00 0.  1.
         11    1    3    3    0    0 -0.12663437113E+02 -0.15745686456E+01 -0.76898420487E+01  0.14898844819E+02  0.51100000000E-03 0. -1.
        -11    1    3    3    0    0  0.25072692610E+01  0.21517773628E+01  0.28103127665E+02  0.28296684078E+02  0.51100000000E-03 0.  1.
         12    1    3    3    0    0 -0.45691278630E+01 -0.10003298163E+02 -0.27121133115E+02  0.29266000154E+02  0.00000000000E+00 0. -1.
</event>
<event>
 7    1  0.1891413E-013  0.7246157E+02  0.7816164E-02  0.1226708E+00
        -11   -1    0    0    0    0  0.00000000000E+00  0.00000000000E+00  0.45593999997E+02  0.45594000000E+02  0.51100000000E-03 0.  1.
         11   -1    0    0    0    0 -0.00000000000E+00 -0.00000000000E+00 -0.45593999997E+02  0.45594000000E+02  0.51100000000E-03 0. -1.
    9900012    2    1    2    0    0 -0.11102853258E+02 -0.15524962838E+01 -0.14999846761E+02  0.72461574873E+02  0.70000005964E+02 0.  0.
        -12    1    1    2    0    0  0.11102853258E+02  0.15524962838E+01  0.14999846761E+02  0.18726425127E+02  0.00000000000E+00 0.  1.
         11    1    3    3    0    0  0.61209741433E+01 -0.27695399418E+01 -0.35633151963E+02  0.36260973443E+02  0.51100000000E-03 0. -1.
        -11    1    3    3    0    0 -0.13488526045E+02 -0.10598899584E+02  0.98995338153E+01  0.19806003567E+02  0.51100000000E-03 0.  1.
        -12    1    3    3    0    0 -0.37353013563E+01  0.11815943242E+02  0.10733771386E+02  0.16394597863E+02  0.00000000000E+00 0.  1.
</event>
<event>
 7    1  0.1891413E-013  0.7246139E+02  0.7816164E-02  0.1226708E+00
        -11   -1    0    0    0    0  0.00000000000E+00  0.00000000000E+00  0.45593999997E+02  0.45594000000E+02  0.51100000000E-03 0. -1.
         11   -1    0    0    0    0 -0.00000000000E+00 -0.00000000000E+00 -0.45593999997E+02  0.45594000000E+02  0.51100000000E-03 0.  1.
    9900012    2    1    2    0    0 -0.84078550245E+01 -0.15654673746E+02  0.59097323553E+01  0.72461393988E+02  0.69999770328E+02 0.  0.
        -12    1    1    2    0    0  0.84078550245E+01  0.15654673746E+02 -0.59097323553E+01  0.18726606012E+02  0.00000000000E+00 0.  1.
         11    1    3    3    0    0 -0.21413452341E+02 -0.12305705850E+02 -0.25895407400E+01  0.24832882618E+02  0.51100000000E-03 0. -1.
        -11    1    3    3    0    0 -0.11392497322E+02 -0.10406265294E+02  0.14885530045E+02  0.21439644530E+02  0.51100000000E-03 0.  1.
        -12    1    3    3    0    0  0.24398094638E+02  0.70572973982E+01 -0.63862569499E+01  0.26188866840E+02  0.00000000000E+00 0.  1.
</event>
<event>
 7    1  0.1891413E-013  0.7246162E+02  0.7816164E-02  0.1226708E+00
        -11   -1    0    0    0    0  0.00000000000E+00  0.00000000000E+00  0.45593999997E+02  0.45594000000E+02  0.51100000000E-03 0.  1.
         11   -1    0    0    0    0 -0.00000000000E+00 -0.00000000000E+00 -0.45593999997E+02  0.45594000000E+02  0.51100000000E-03 0. -1.
    9900012    2    1    2    0    0  0.12723900834E+02  0.10145078746E+02 -0.92659077556E+01  0.72461619631E+02  0.70000064270E+02 0.  0.
        -12    1    1    2    0    0 -0.12723900834E+02 -0.10145078746E+02  0.92659077556E+01  0.18726380369E+02  0.00000000000E+00 0.  1.
         11    1    3    3    0    0  0.81379413761E+01 -0.21292159135E+01  0.49418303562E+01  0.97560923416E+01  0.51100000000E-03 0. -1.
        -11    1    3    3    0    0  0.24908609051E+00  0.18227823608E+00  0.23175036756E+02  0.23177092099E+02  0.51100000000E-03 0.  1.
         12    1    3    3    0    0  0.43368733669E+01  0.12092016423E+02 -0.37382774868E+02  0.39528435191E+02  0.00000000000E+00 0. -1.
</event>
<event>
 7    1  0.2202640E-013  0.7246151E+02  0.7816164E-02  0.1226708E+00
        -11   -1    0    0    0    0  0.00000000000E+00  0.00000000000E+00  0.45593999997E+02  0.45594000000E+02  0.51100000000E-03 0. -1.
         11   -1    0    0    0    0 -0.00000000000E+00 -0.00000000000E+00 -0.45593999997E+02  0.45594000000E+02  0.51100000000E-03 0.  1.
    9900012    2    1    2    0    0  0.44361748518E+01  0.92413927072E+01  0.15671579858E+02  0.72461510694E+02  0.69999922359E+02 0.  0.
        -12    1    1    2    0    0 -0.44361748518E+01 -0.92413927072E+01 -0.15671579858E+02  0.18726489306E+02  0.00000000000E+00 0.  1.
         11    1    3    3    0    0 -0.14735614402E+02 -0.69797573610E+01  0.10370768461E+02  0.19323772493E+02  0.51100000000E-03 0. -1.
        -11    1    3    3    0    0  0.13298086481E+02 -0.14530404717E+02 -0.47404254482E+01  0.20259402730E+02  0.51100000000E-03 0.  1.
         12    1    3    3    0    0  0.58737027726E+01  0.30751554785E+02  0.10041236845E+02  0.32878335471E+02  0.00000000000E+00 0. -1.
</event>
<event>
 7    1  0.1891413E-013  0.7246163E+02  0.7816164E-02  0.1226708E+00
        -11   -1    0    0    0    0  0.00000000000E+00  0.00000000000E+00  0.45593999997E+02  0.45594000000E+02  0.51100000000E-03 0.  1.
         11   -1    0    0    0    0 -0.00000000000E+00 -0.00000000000E+00 -0.45593999997E+02  0.45594000000E+02  0.51100000000E-03 0. -1.
    9900012    2    1    2    0    0 -0.64281106613E+01 -0.41655349653E+01 -0.17088142616E+02  0.72461630723E+02  0.70000078720E+02 0.  0.
        -12    1    1    2    0    0  0.64281106613E+01  0.41655349653E+01  0.17088142616E+02  0.18726369277E+02  0.00000000000E+00 0.  1.
         11    1    3    3    0    0 -0.78545981364E+01 -0.12792091990E+01 -0.36137128553E+02  0.37003015396E+02  0.51100000000E-03 0. -1.
        -11    1    3    3    0    0 -0.49885795218E+01 -0.15146908555E+02  0.85936197661E+01  0.18115326808E+02  0.51100000000E-03 0.  1.
        -12    1    3    3    0    0  0.64150669969E+01  0.12260582789E+02  0.10455366171E+02  0.17343288519E+02  0.00000000000E+00 0.  1.
</event>
<event>
 7    1  0.1891413E-013  0.7246159E+02  0.7816164E-02  0.1226708E+00
        -11   -1    0    0    0    0  0.00000000000E+00  0.00000000000E+00  0.45593999997E+02  0.45594000000E+02  0.51100000000E-03 0. -1.
         11   -1    0    0    0    0 -0.00000000000E+00 -0.00000000000E+00 -0.45593999997E+02  0.45594000000E+02  0.51100000000E-03 0.  1.
    9900012    2    1    2    0    0  0.64096008697E+01  0.17138932579E+02  0.39815210661E+01  0.72461588084E+02  0.70000023174E+02 0.  0.
        -12    1    1    2    0    0 -0.64096008697E+01 -0.17138932579E+02 -0.39815210661E+01  0.18726411916E+02  0.00000000000E+00 0.  1.
         11    1    3    3    0    0 -0.11050046134E+02 -0.42851039235E+01 -0.66273683339E+00  0.11870335107E+02  0.51100000000E-03 0. -1.
        -11    1    3    3    0    0 -0.21282649170E+01 -0.69693091573E+01  0.21136183377E+02  0.22357080080E+02  0.51100000000E-03 0.  1.
         12    1    3    3    0    0  0.19587911920E+02  0.28393345660E+02 -0.16491925477E+02  0.38234172897E+02  0.00000000000E+00 0. -1.
</event>
<event>
 7    1  0.1891413E-013  0.7246156E+02  0.7816164E-02  0.1226708E+00
        -11   -1    0    0    0    0  0.00000000000E+00  0.00000000000E+00  0.45593999997E+02  0.45594000000E+02  0.51100000000E-03 0. -1.
         11   -1    0    0    0    0 -0.00000000000E+00 -0.00000000000E+00 -0.45593999997E+02  0.45594000000E+02  0.51100000000E-03 0.  1.
    9900012    2    1    2    0    0 -0.14337525496E+02 -0.11998821884E+02  0.10692815255E+01  0.72461555411E+02  0.69999980612E+02 0.  0.
        -12    1    1    2    0    0  0.14337525496E+02  0.11998821884E+02 -0.10692815255E+01  0.18726444589E+02  0.00000000000E+00 0.  1.
         11    1    3    3    0    0 -0.16729679931E+02 -0.91405244954E+00 -0.82887551146E+01  0.18692809957E+02  0.51100000000E-03 0. -1.
        -11    1    3    3    0    0  0.72053138399E+01  0.19918625005E+02  0.58244284476E+00  0.21189794939E+02  0.51100000000E-03 0.  1.
        -12    1    3    3    0    0 -0.48131594057E+01 -0.31003394439E+02  0.87755937954E+01  0.32578950516E+02  0.00000000000E+00 0.  1.
</event>
<event>
 7    1  0.1891413E-013  0.7246160E+02  0.7816164E-02  0.1226708E+00
        -11   -1    0    0    0    0  0.00000000000E+00  0.00000000000E+00  0.45593999997E+02  0.45594000000E+02  0.51100000000E-03 0. -1.
         11   -1    0    0    0    0 -0.00000000000E+00 -0.00000000000E+00 -0.45593999997E+02  0.45594000000E+02  0.51100000000E-03 0.  1.
    9900012    2    1    2    0    0  0.14424021482E+02 -0.12178708380E+01  0.11880334349E+02  0.72461602873E+02  0.70000042440E+02 0.  0.
        -12    1    1    2    0    0 -0.14424021482E+02  0.12178708380E+01 -0.11880334349E+02  0.18726397127E+02  0.00000000000E+00 0.  1.
         11    1    3    3    0    0 -0.27679500724E+01 -0.90649326776E+01  0.14429923807E+02  0.17264334722E+02  0.51100000000E-03 0. -1.
        -11    1    3    3    0    0 -0.95784519227E+01  0.22265779195E+02 -0.47935224112E+01  0.24708086161E+02  0.51100000000E-03 0.  1.
         12    1    3    3    0    0  0.26770423477E+02 -0.14418717355E+02  0.22439329532E+01  0.30489181990E+02  0.00000000000E+00 0. -1.
</event>
<event>
 7    1  0.1891413E-013  0.7246158E+02  0.7816164E-02  0.1226708E+00
        -11   -1    0    0    0    0  0.00000000000E+00  0.00000000000E+00  0.45593999997E+02  0.45594000000E+02  0.51100000000E-03 0.  1.
         11   -1    0    0    0    0 -0.00000000000E+00 -0.00000000000E+00 -0.45593999997E+02  0.45594000000E+02  0.51100000000E-03 0. -1.
    9900012    2    1    2    0    0 -0.75715700191E+01 -0.16738310085E+02  0.36303054381E+01  0.72461579770E+02  0.70000012344E+02 0.  0.
        -12    1    1    2    0    0  0.75715700191E+01  0.16738310085E+02 -0.36303054381E+01  0.18726420230E+02  0.00000000000E+00 0.  1.
         11    1    3    3    0    0  0.11878627155E+02 -0.25259846071E+02 -0.17646355599E+02  0.33023559360E+02  0.51100000000E-03 0. -1.
        -11    1    3    3    0    0  0.24686010418E+01  0.79722324132E+01 -0.72441511953E+00  0.83770674033E+01  0.51100000000E-03 0.  1.
        -12    1    3    3    0    0 -0.21918798216E+02  0.54930357258E+00  0.22001076157E+02  0.31060953007E+02  0.00000000000E+00 0.  1.
</event>
<event>
 7    1  0.1891413E-013  0.7246151E+02  0.7816164E-02  0.1226708E+00
        -11   -1    0    0    0    0  0.00000000000E+00  0.00000000000E+00  0.45593999997E+02  0.45594000000E+02  0.51100000000E-03 0. -1.
         11   -1    0    0    0    0 -0.00000000000E+00 -0.00000000000E+00 -0.45593999997E+02  0.45594000000E+02  0.51100000000E-03 0.  1.
    9900012    2    1    2    0    0  0.39539564271E+01 -0.15961475925E+02  0.89598544784E+01  0.72461508673E+02  0.69999919727E+02 0.  0.
        -12    1    1    2    0    0 -0.39539564271E+01  0.15961475925E+02 -0.89598544784E+01  0.18726491327E+02  0.00000000000E+00 0.  1.
         11    1    3    3    0    0 -0.55849146252E+01 -0.87522032727E+01 -0.57324009832E+01  0.11859711413E+02  0.51100000000E-03 0. -1.
        -11    1    3    3    0    0 -0.12189883993E+01 -0.67503118127E+01 -0.21643339964E+02  0.22704334550E+02  0.51100000000E-03 0.  1.
         12    1    3    3    0    0  0.10757859452E+02 -0.45896083960E+00  0.36335595425E+02  0.37897462711E+02  0.00000000000E+00 0. -1.
</event>
<event>
 7    1  0.1891413E-013  0.7246153E+02  0.7816164E-02  0.1226708E+00
        -11   -1    0    0    0    0  0.00000000000E+00  0.00000000000E+00  0.45593999997E+02  0.45594000000E+02  0.51100000000E-03 0.  1.
         11   -1    0    0    0    0 -0.00000000000E+00 -0.00000000000E+00 -0.45593999997E+02  0.45594000000E+02  0.51100000000E-03 0. -1.
    9900012    2    1    2    0    0 -0.93691784802E+01  0.13547964460E+02  0.89079600876E+01  0.72461532118E+02  0.69999950268E+02 0.  0.
        -12    1    1    2    0    0  0.93691784802E+01 -0.13547964460E+02 -0.89079600876E+01  0.18726467882E+02  0.00000000000E+00 0.  1.
         11    1    3    3    0    0 -0.14133657705E+02  0.73681170739E+01 -0.17291795546E+02  0.23517134664E+02  0.51100000000E-03 0. -1.
        -11    1    3    3    0    0 -0.15905409458E+02 -0.42943079588E+01  0.42218605360E+01  0.17007270137E+02  0.51100000000E-03 0.  1.
        -12    1    3    3    0    0  0.20669888683E+02  0.10474155345E+02  0.21977895097E+02  0.31937127317E+02  0.00000000000E+00 0.  1.
</event>
<event>
 7    1  0.1891413E-013  0.7246158E+02  0.7816164E-02  0.1226708E+00
        -11   -1    0    0    0    0  0.00000000000E+00  0.00000000000E+00  0.45593999997E+02  0.45594000000E+02  0.51100000000E-03 0. -1.
         11   -1    0    0    0    0 -0.00000000000E+00 -0.00000000000E+00 -0.45593999997E+02  0.45594000000E+02  0.51100000000E-03 0.  1.
    9900012    2    1    2    0    0 -0.59609945151E+00 -0.71869182168E+01  0.17282122358E+02  0.72461577993E+02  0.70000010028E+02 0.  0.
        -12    1    1    2    0    0  0.59609945151E+00  0.71869182168E+01 -0.17282122358E+02  0.18726422007E+02  0.00000000000E+00 0.  1.
         11    1    3    3    0    0  0.86529828238E+01 -0.21913601484E+02  0.96129589298E+01  0.25445805576E+02  0.51100000000E-03 0. -1.
        -11    1    3    3    0    0  0.10820004704E+02  0.89665392194E+01 -0.11888861750E+02  0.18406965023E+02  0.51100000000E-03 0.  1.
         12    1    3    3    0    0 -0.20069086980E+02  0.57601440481E+01  0.19558025178E+02  0.28608807394E+02  0.00000000000E+00 0. -1.
</event>
<event>
 7    1  0.1891413E-013  0.7246159E+02  0.7816164E-02  0.1226708E+00
        -11   -1    0    0    0    0  0.00000000000E+00  0.00000000000E+00  0.45593999997E+02  0.45594000000E+02  0.51100000000E-03 0.  1.
         11   -1    0    0    0    0 -0.00000000000E+00 -0.00000000000E+00 -0.45593999997E+02  0.45594000000E+02  0.51100000000E-03 0. -1.
    9900012    2    1    2    0    0  0.18592417060E+02 -0.11712385165E+00  0.22331143355E+01  0.72461588444E+02  0.70000023643E+02 0.  0.
        -12    1    1    2    0    0 -0.18592417060E+02  0.11712385165E+00 -0.22331143355E+01  0.18726411556E+02  0.00000000000E+00 0.  1.
         11    1    3    3    0    0  0.80350133526E+01 -0.25356474204E+02  0.17406117166E+02  0.31788128896E+02  0.51100000000E-03 0.  1.
        -11    1    3    3    0    0  0.97083996565E+01 -0.10681677956E+01 -0.97476183454E+01  0.13798915537E+02  0.51100000000E-03 0. -1.
        -12    1    3    3    0    0  0.84900405103E+00  0.26307518148E+02 -0.54253844855E+01  0.26874544011E+02  0.00000000000E+00 0.  1.
</event>
<event>
 7    1  0.1891413E-013  0.7246158E+02  0.7816164E-02  0.1226708E+00
        -11   -1    0    0    0    0  0.00000000000E+00  0.00000000000E+00  0.45593999997E+02  0.45594000000E+02  0.51100000000E-03 0.  1.
         11   -1    0    0    0    0 -0.00000000000E+00 -0.00000000000E+00 -0.45593999997E+02  0.45594000000E+02  0.51100000000E-03 0. -1.
    9900012    2    1    2    0    0 -0.10522396596E+02 -0.15479117016E+02  0.59576495670E+00  0.72461579371E+02  0.70000011824E+02 0.  0.
        -12    1    1    2    0    0  0.10522396596E+02  0.15479117016E+02 -0.59576495670E+00  0.18726420629E+02  0.00000000000E+00 0.  1.
         11    1    3    3    0    0  0.78970622869E+01  0.61008885418E+01 -0.27099422494E+02  0.28878419859E+02  0.51100000000E-03 0. -1.
        -11    1    3    3    0    0 -0.71835461892E+01 -0.19798941124E+02  0.12134185942E+02  0.24307197992E+02  0.51100000000E-03 0.  1.
        -12    1    3    3    0    0 -0.11235912693E+02 -0.17810644337E+01  0.15561001509E+02  0.19275961520E+02  0.00000000000E+00 0.  1.
</event>
<event>
 7    1  0.1891413E-013  0.7246177E+02  0.7816164E-02  0.1226707E+00
        -11   -1    0    0    0    0  0.00000000000E+00  0.00000000000E+00  0.45593999997E+02  0.45594000000E+02  0.51100000000E-03 0. -1.
         11   -1    0    0    0    0 -0.00000000000E+00 -0.00000000000E+00 -0.45593999997E+02  0.45594000000E+02  0.51100000000E-03 0.  1.
    9900012    2    1    2    0    0 -0.90133927749E+01 -0.13736258841E+02  0.89858580588E+01  0.72461769699E+02  0.70000259760E+02 0.  0.
        -12    1    1    2    0    0  0.90133927749E+01  0.13736258841E+02 -0.89858580588E+01  0.18726230301E+02  0.00000000000E+00 0.  1.
         11    1    3    3    0    0  0.98426713848E+01  0.86367192928E+00  0.72222744651E+01  0.12238682850E+02  0.51100000000E-03 0. -1.
        -11    1    3    3    0    0  0.57737221505E+01 -0.93504324654E+01 -0.22633466221E+02  0.25160291099E+02  0.51100000000E-03 0.  1.
         12    1    3    3    0    0 -0.24629786310E+02 -0.52494983045E+01  0.24397049814E+02  0.35062795750E+02  0.00000000000E+00 0. -1.
</event>
<event>
 7    1  0.1891413E-013  0.7246155E+02  0.7816164E-02  0.1226708E+00
        -11   -1    0    0    0    0  0.00000000000E+00  0.00000000000E+00  0.45593999997E+02  0.45594000000E+02  0.51100000000E-03 0.  1.
         11   -1    0    0    0    0 -0.00000000000E+00 -0.00000000000E+00 -0.45593999997E+02  0.45594000000E+02  0.51100000000E-03 0. -1.
    9900012    2    1    2    0    0  0.42320611419E+01  0.39413732941E+00 -0.18237714421E+02  0.72461550442E+02  0.69999974138E+02 0.  0.
        -12    1    1    2    0    0 -0.42320611419E+01 -0.39413732941E+00  0.18237714421E+02  0.18726449558E+02  0.00000000000E+00 0.  1.
         11    1    3    3    0    0  0.62965598240E+00  0.23476953336E+02 -0.15105953591E+02  0.27924069165E+02  0.51100000000E-03 0. -1.
        -11    1    3    3    0    0 -0.12820942173E+02 -0.18078652004E+00  0.69766840931E+01  0.14597375215E+02  0.51100000000E-03 0.  1.
         12    1    3    3    0    0  0.16423347332E+02 -0.22902029487E+02 -0.10108444924E+02  0.29940106062E+02  0.00000000000E+00 0. -1.
</event>
<event>
 7    1  0.1891413E-013  0.7246158E+02  0.7816164E-02  0.1226708E+00
        -11   -1    0    0    0    0  0.00000000000E+00  0.00000000000E+00  0.45593999997E+02  0.45594000000E+02  0.51100000000E-03 0. -1.
         11   -1    0    0    0    0 -0.00000000000E+00 -0.00000000000E+00 -0.45593999997E+02  0.45594000000E+02  0.51100000000E-03 0.  1.
    9900012    2    1    2    0    0  0.85575149047E+01 -0.15954783739E+02  0.47846237658E+01  0.72461579891E+02  0.70000012502E+02 0.  0.
        -12    1    1    2    0    0 -0.85575149047E+01  0.15954783739E+02 -0.47846237658E+01  0.18726420109E+02  0.00000000000E+00 0.  1.
         11    1    3    3    0    0 -0.30428578841E+01 -0.18448485318E+02  0.24106632480E+02  0.30507955101E+02  0.51100000000E-03 0. -1.
        -11    1    3    3    0    0 -0.90141864581E+01 -0.93762698286E+01 -0.99923536923E+01  0.16401741553E+02  0.51100000000E-03 0.  1.
        -12    1    3    3    0    0  0.20614559247E+02  0.11869971407E+02 -0.93296550223E+01  0.25551883238E+02  0.00000000000E+00 0.  1.
</event>
<event>
 7    1  0.1891413E-013  0.7246152E+02  0.7816164E-02  0.1226708E+00
        -11   -1    0    0    0    0  0.00000000000E+00  0.00000000000E+00  0.45593999997E+02  0.45594000000E+02  0.51100000000E-03 0. -1.
         11   -1    0    0    0    0 -0.00000000000E+00 -0.00000000000E+00 -0.45593999997E+02  0.45594000000E+02  0.51100000000E-03 0.  1.
    9900012    2    1    2    0    0  0.12984332303E+02  0.12111191527E+02 -0.59503983782E+01  0.72461519113E+02  0.69999933327E+02 0.  0.
        -12    1    1    2    0    0 -0.12984332303E+02 -0.12111191527E+02  0.59503983782E+01  0.18726480887E+02  0.00000000000E+00 0.  1.
         11    1    3    3    0    0 -0.22061272091E+02  0.95824027836E+01  0.75239071638E+01  0.25201812408E+02  0.51100000000E-03 0. -1.
        -11    1    3    3    0    0 -0.59927185581E+00 -0.74551785932E+01 -0.57785702136E+01  0.94514913420E+01  0.51100000000E-03 0.  1.
         12    1    3    3    0    0  0.35644876250E+02  0.99839673367E+01 -0.76957353283E+01  0.37808215363E+02  0.00000000000E+00 0. -1.
</event>
<event>
 7    1  0.1891413E-013  0.7246148E+02  0.7816164E-02  0.1226708E+00
        -11   -1    0    0    0    0  0.00000000000E+00  0.00000000000E+00  0.45593999997E+02  0.45594000000E+02  0.51100000000E-03 0. -1.
         11   -1    0    0    0    0 -0.00000000000E+00 -0.00000000000E+00 -0.45593999997E+02  0.45594000000E+02  0.51100000000E-03 0.  1.
    9900012    2    1    2    0    0  0.18685303077E+02  0.10990843367E+01 -0.57791620647E+00  0.72461480713E+02  0.69999883304E+02 0.  0.
        -12    1    1    2    0    0 -0.18685303077E+02 -0.10990843367E+01  0.57791620647E+00  0.18726519287E+02  0.00000000000E+00 0.  1.
         11    1    3    3    0    0  0.10730843206E+02 -0.11379887100E+02  0.20632289802E+02  0.25891006335E+02  0.51100000000E-03 0. -1.
        -11    1    3    3    0    0  0.19236995403E+02  0.12125849318E+01  0.91707365493E+00  0.19296978486E+02  0.51100000000E-03 0.  1.
        -12    1    3    3    0    0 -0.11282535532E+02  0.11266386504E+02 -0.22127279663E+02  0.27273495892E+02  0.00000000000E+00 0.  1.
</event>
<event>
 7    1  0.1891413E-013  0.7246159E+02  0.7816164E-02  0.1226708E+00
        -11   -1    0    0    0    0  0.00000000000E+00  0.00000000000E+00  0.45593999997E+02  0.45594000000E+02  0.51100000000E-03 0.  1.
         11   -1    0    0    0    0 -0.00000000000E+00 -0.00000000000E+00 -0.45593999997E+02  0.45594000000E+02  0.51100000000E-03 0. -1.
    9900012    2    1    2    0    0  0.60060733685E+01  0.14585069785E+02 -0.10093633538E+02  0.72461585075E+02  0.70000019255E+02 0.  0.
        -12    1    1    2    0    0 -0.60060733685E+01 -0.14585069785E+02  0.10093633538E+02  0.18726414925E+02  0.00000000000E+00 0.  1.
         11    1    3    3    0    0  0.65093842406E+01 -0.14596441321E+02  0.16153769950E+02  0.22723830361E+02  0.51100000000E-03 0. -1.
        -11    1    3    3    0    0 -0.32078578011E+01  0.36188153876E+01  0.65030961090E+01  0.81040999343E+01  0.51100000000E-03 0.  1.
         12    1    3    3    0    0  0.27045469289E+01  0.25562695718E+02 -0.32750499597E+02  0.41633654780E+02  0.00000000000E+00 0. -1.
</event>
<event>
 7    1  0.1891413E-013  0.7246157E+02  0.7816164E-02  0.1226708E+00
        -11   -1    0    0    0    0  0.00000000000E+00  0.00000000000E+00  0.45593999997E+02  0.45594000000E+02  0.51100000000E-03 0.  1.
         11   -1    0    0    0    0 -0.00000000000E+00 -0.00000000000E+00 -0.45593999997E+02  0.45594000000E+02  0.51100000000E-03 0. -1.
    9900012    2    1    2    0    0 -0.10493886343E+02  0.42514063709E+00 -0.15504088639E+02  0.72461570557E+02  0.70000000342E+02 0.  0.
        -12    1    1    2    0    0  0.10493886343E+02 -0.42514063709E+00  0.15504088639E+02  0.18726429443E+02  0.00000000000E+00 0.  1.
         11    1    3    3    0    0 -0.23781829134E+01 -0.34819109602E+01  0.90127142058E+01  0.99503002729E+01  0.51100000000E-03 0. -1.
        -11    1    3    3    0    0  0.13527118004E+01  0.13056566188E+02  0.15542343498E+02  0.20343750675E+02  0.51100000000E-03 0.  1.
         12    1    3    3    0    0 -0.94684152300E+01 -0.91495145908E+01 -0.40059146344E+02  0.42167519609E+02  0.00000000000E+00 0. -1.
</event>
<event>
 7    1  0.1891413E-013  0.7246174E+02  0.7816164E-02  0.1226708E+00
        -11   -1    0    0    0    0  0.00000000000E+00  0.00000000000E+00  0.45593999997E+02  0.45594000000E+02  0.51100000000E-03 0.  1.
         11   -1    0    0    0    0 -0.00000000000E+00 -0.00000000000E+00 -0.45593999997E+02  0.45594000000E+02  0.51100000000E-03 0. -1.
    9900012    2    1    2    0    0  0.46447098428E+01 -0.12309014419E+02  0.13326205163E+02  0.72461737438E+02  0.70000217735E+02 0.  0.
        -12    1    1    2    0    0 -0.46447098428E+01  0.12309014419E+02 -0.13326205163E+02  0.18726262562E+02  0.00000000000E+00 0.  1.
         11    1    3    3    0    0 -0.14173158458E+01  0.22708017588E+01  0.89546164580E+00  0.28226187583E+01  0.51100000000E-03 0. -1.
        -11    1    3    3    0    0  0.12159655987E+02 -0.12100706922E+01  0.38127331678E+02  0.40037668838E+02  0.51100000000E-03 0.  1.
         12    1    3    3    0    0 -0.60976302986E+01 -0.13369745486E+02 -0.25696588161E+02  0.29601449842E+02  0.00000000000E+00 0. -1.
</event>
<event>
 7    1  0.1891413E-013  0.7246157E+02  0.7816164E-02  0.1226708E+00
        -11   -1    0    0    0    0  0.00000000000E+00  0.00000000000E+00  0.45593999997E+02  0.45594000000E+02  0.51100000000E-03 0. -1.
         11   -1    0    0    0    0 -0.00000000000E+00 -0.00000000000E+00 -0.45593999997E+02  0.45594000000E+02  0.51100000000E-03 0.  1.
    9900012    2    1    2    0    0 -0.91954761088E+01 -0.13321780799E+02  0.94155482033E+01  0.72461570215E+02  0.69999999896E+02 0.  0.
        -12    1    1    2    0    0  0.91954761088E+01  0.13321780799E+02 -0.94155482033E+01  0.18726429785E+02  0.00000000000E+00 0.  1.
         11    1    3    3    0    0 -0.13242920931E+02 -0.90009039355E+01  0.23212898853E+02  0.28199820919E+02  0.51100000000E-03 0. -1.
        -11    1    3    3    0    0 -0.17107061663E+02 -0.83310277911E+01 -0.66041407528E+00  0.19039268100E+02  0.51100000000E-03 0.  1.
        -12    1    3    3    0    0  0.21154506485E+02  0.40101509273E+01 -0.13136936574E+02  0.25222481195E+02  0.00000000000E+00 0.  1.
</event>
<event>
 7    1  0.1891413E-013  0.7246156E+02  0.7816164E-02  0.1226708E+00
        -11   -1    0    0    0    0  0.00000000000E+00  0.00000000000E+00  0.45593999997E+02  0.45594000000E+02  0.51100000000E-03 0. -1.
         11   -1    0    0    0    0 -0.00000000000E+00 -0.00000000000E+00 -0.45593999997E+02  0.45594000000E+02  0.51100000000E-03 0.  1.
    9900012    2    1    2    0    0 -0.16313863060E+02  0.52839390101E+01  0.75244580672E+01  0.72461558571E+02  0.69999984728E+02 0.  0.
        -12    1    1    2    0    0  0.16313863060E+02 -0.52839390101E+01 -0.75244580672E+01  0.18726441429E+02  0.00000000000E+00 0.  1.
         11    1    3    3    0    0 -0.89205997398E+01 -0.54099293823E+01  0.15324248394E+02  0.18538528117E+02  0.51100000000E-03 0. -1.
        -11    1    3    3    0    0 -0.43444567860E+00 -0.19595558890E+02  0.51324646561E+01  0.20261215782E+02  0.51100000000E-03 0.  1.
         12    1    3    3    0    0 -0.69588176413E+01  0.30289427282E+02 -0.12932254983E+02  0.33661814672E+02  0.00000000000E+00 0. -1.
</event>
<event>
 7    1  0.1891413E-013  0.7246156E+02  0.7816164E-02  0.1226708E+00
        -11   -1    0    0    0    0  0.00000000000E+00  0.00000000000E+00  0.45593999997E+02  0.45594000000E+02  0.51100000000E-03 0. -1.
         11   -1    0    0    0    0 -0.00000000000E+00 -0.00000000000E+00 -0.45593999997E+02  0.45594000000E+02  0.51100000000E-03 0.  1.
    9900012    2    1    2    0    0 -0.15465398966E+02  0.97049374910E+01  0.41611479405E+01  0.72461560695E+02  0.69999987495E+02 0.  0.
        -12    1    1    2    0    0  0.15465398966E+02 -0.97049374910E+01 -0.41611479405E+01  0.18726439305E+02  0.00000000000E+00 0.  1.
         11    1    3    3    0    0 -0.12564853742E+02 -0.59768718893E+01 -0.14594205821E+02  0.20164061866E+02  0.51100000000E-03 0. -1.
        -11    1    3    3    0    0 -0.24455174150E+02  0.10487141251E+02  0.11256670526E+02  0.28892011109E+02  0.51100000000E-03 0.  1.
         12    1    3    3    0    0  0.21554628926E+02  0.51946681295E+01  0.74986832358E+01  0.23405487720E+02  0.00000000000E+00 0. -1.
</event>
<event>
 7    1  0.1891413E-013  0.7246153E+02  0.7816164E-02  0.1226708E+00
        -11   -1    0    0    0    0  0.00000000000E+00  0.00000000000E+00  0.45593999997E+02  0.45594000000E+02  0.51100000000E-03 0. -1.
         11   -1    0    0    0    0 -0.00000000000E+00 -0.00000000000E+00 -0.45593999997E+02  0.45594000000E+02  0.51100000000E-03 0.  1.
    9900012    2    1    2    0    0  0.18513105412E+02  0.23711140088E+01  0.15242252169E+01  0.72461534339E+02  0.69999953161E+02 0.  0.
        -12    1    1    2    0    0 -0.18513105412E+02 -0.23711140088E+01 -0.15242252169E+01  0.18726465661E+02  0.00000000000E+00 0.  1.
         11    1    3    3    0    0 -0.26778843613E+01  0.17959335536E+01 -0.15078932025E+02  0.15419813010E+02  0.51100000000E-03 0. -1.
        -11    1    3    3    0    0  0.16721320232E+01 -0.23453148178E+02  0.54440730343E+01  0.24134707713E+02  0.51100000000E-03 0.  1.
         12    1    3    3    0    0  0.19518857750E+02  0.24028328633E+02  0.11159084208E+02  0.32907013616E+02  0.00000000000E+00 0. -1.
</event>
<event>
 7    1  0.1891413E-013  0.7246156E+02  0.7816164E-02  0.1226708E+00
        -11   -1    0    0    0    0  0.00000000000E+00  0.00000000000E+00  0.45593999997E+02  0.45594000000E+02  0.51100000000E-03 0. -1.
         11   -1    0    0    0    0 -0.00000000000E+00 -0.00000000000E+00 -0.45593999997E+02  0.45594000000E+02  0.51100000000E-03 0.  1.
    9900012    2    1    2    0    0  0.12937333943E+02  0.62060247221E+01  0.12032878338E+02  0.72461561110E+02  0.69999988036E+02 0.  0.
        -12    1    1    2    0    0 -0.12937333943E+02 -0.62060247221E+01 -0.12032878338E+02  0.18726438890E+02  0.00000000000E+00 0.  1.
         11    1    3    3    0    0  0.13981411785E+02  0.21630234953E+02  0.22741564651E+02  0.34358779121E+02  0.51100000000E-03 0. -1.
        -11    1    3    3    0    0 -0.78951909960E+01  0.83345642037E+01 -0.94895882411E+00  0.11519527961E+02  0.51100000000E-03 0.  1.
        -12    1    3    3    0    0  0.68511131540E+01 -0.23758774435E+02 -0.97597274887E+01  0.26583254029E+02  0.00000000000E+00 0.  1.
</event>
<event>
 7    1  0.1891413E-013  0.7246151E+02  0.7816164E-02  0.1226708E+00
        -11   -1    0    0    0    0  0.00000000000E+00  0.00000000000E+00  0.45593999997E+02  0.45594000000E+02  0.51100000000E-03 0. -1.
         11   -1    0    0    0    0 -0.00000000000E+00 -0.00000000000E+00 -0.45593999997E+02  0.45594000000E+02  0.51100000000E-03 0.  1.
    9900012    2    1    2    0    0 -0.20379340888E+01 -0.17956915228E+02  0.49068902900E+01  0.72461506677E+02  0.69999917127E+02 0.  0.
        -12    1    1    2    0    0  0.20379340888E+01  0.17956915228E+02 -0.49068902900E+01  0.18726493323E+02  0.00000000000E+00 0.  1.
         11    1    3    3    0    0 -0.25927958295E+02 -0.46461530484E+01  0.15691027463E+02  0.30660301737E+02  0.51100000000E-03 0. -1.
        -11    1    3    3    0    0  0.23470190002E+02 -0.26800393216E+01  0.36153322190E+01  0.23897762590E+02  0.51100000000E-03 0.  1.
        -12    1    3    3    0    0  0.41983420401E+00 -0.10630722858E+02 -0.14399469392E+02  0.17903442351E+02  0.00000000000E+00 0.  1.
</event>
<event>
 7    1  0.1891413E-013  0.7246157E+02  0.7816164E-02  0.1226708E+00
        -11   -1    0    0    0    0  0.00000000000E+00  0.00000000000E+00  0.45593999997E+02  0.45594000000E+02  0.51100000000E-03 0. -1.
         11   -1    0    0    0    0 -0.00000000000E+00 -0.00000000000E+00 -0.45593999997E+02  0.45594000000E+02  0.51100000000E-03 0.  1.
    9900012    2    1    2    0    0 -0.15604750597E+02  0.58118598645E+01  0.85669857286E+01  0.72461569460E+02  0.69999998914E+02 0.  0.
        -12    1    1    2    0    0  0.15604750597E+02 -0.58118598645E+01 -0.85669857286E+01  0.18726430540E+02  0.00000000000E+00 0.  1.
         11    1    3    3    0    0 -0.10213153974E+01  0.92472622297E+01 -0.81789931842E+01  0.12387528957E+02  0.51100000000E-03 0. -1.
        -11    1    3    3    0    0 -0.24991947308E+02  0.12098272047E+02 -0.81504799072E+01  0.28937794313E+02  0.51100000000E-03 0.  1.
         12    1    3    3    0    0  0.10408512108E+02 -0.15533674412E+02  0.24896458820E+02  0.31136246190E+02  0.00000000000E+00 0. -1.
</event>
<event>
 7    1  0.1891413E-013  0.7246155E+02  0.7816164E-02  0.1226708E+00
        -11   -1    0    0    0    0  0.00000000000E+00  0.00000000000E+00  0.45593999997E+02  0.45594000000E+02  0.51100000000E-03 0. -1.
         11   -1    0    0    0    0 -0.00000000000E+00 -0.00000000000E+00 -0.45593999997E+02  0.45594000000E+02  0.51100000000E-03 0.  1.
    9900012    2    1    2    0    0  0.55065806829E+01  0.16456861280E+02 -0.70377038485E+01  0.72461548402E+02  0.69999971481E+02 0.  0.
        -12    1    1    2    0    0 -0.55065806829E+01 -0.16456861280E+02  0.70377038485E+01  0.18726451598E+02  0.00000000000E+00 0.  1.
         11    1    3    3    0    0  0.19895445436E+02  0.39245157367E+02 -0.73662193191E+01  0.44612468136E+02  0.51100000000E-03 0. -1.
        -11    1    3    3    0    0 -0.56911460691E+01 -0.65068052756E+01 -0.28832668143E+01  0.91126772278E+01  0.51100000000E-03 0.  1.
        -12    1    3    3    0    0 -0.86977186836E+01 -0.16281490812E+02  0.32117822850E+01  0.18736403038E+02  0.00000000000E+00 0.  1.
</event>
<event>
 7    1  0.1891413E-013  0.7246160E+02  0.7816164E-02  0.1226708E+00
        -11   -1    0    0    0    0  0.00000000000E+00  0.00000000000E+00  0.45593999997E+02  0.45594000000E+02  0.51100000000E-03 0.  1.
         11   -1    0    0    0    0 -0.00000000000E+00 -0.00000000000E+00 -0.45593999997E+02  0.45594000000E+02  0.51100000000E-03 0. -1.
    9900012    2    1    2    0    0  0.40915954019E+01 -0.16482312662E+02  0.78911538216E+01  0.72461599057E+02  0.70000037469E+02 0.  0.
        -12    1    1    2    0    0 -0.40915954019E+01  0.16482312662E+02 -0.78911538216E+01  0.18726400943E+02  0.00000000000E+00 0.  1.
         11    1    3    3    0    0 -0.12654878188E+02  0.30683898201E+00  0.61928027903E+01  0.14092228311E+02  0.51100000000E-03 0. -1.
        -11    1    3    3    0    0  0.12449485480E+02  0.13932529968E+02  0.15633793306E+02  0.24362277673E+02  0.51100000000E-03 0.  1.
         12    1    3    3    0    0  0.42969881101E+01 -0.30721681612E+02 -0.13935442275E+02  0.34007093073E+02  0.00000000000E+00 0. -1.
</event>
<event>
 7    1  0.1891413E-013  0.7246150E+02  0.7816164E-02  0.1226708E+00
        -11   -1    0    0    0    0  0.00000000000E+00  0.00000000000E+00  0.45593999997E+02  0.45594000000E+02  0.51100000000E-03 0. -1.
         11   -1    0    0    0    0 -0.00000000000E+00 -0.00000000000E+00 -0.45593999997E+02  0.45594000000E+02  0.51100000000E-03 0.  1.
    9900012    2    1    2    0    0 -0.11493954503E+01  0.16845577293E+02 -0.80986020553E+01  0.72461496336E+02  0.69999903656E+02 0.  0.
        -12    1    1    2    0    0  0.11493954503E+01 -0.16845577293E+02  0.80986020553E+01  0.18726503664E+02  0.00000000000E+00 0.  1.
         11    1    3    3    0    0 -0.13113474565E+01  0.35494158117E+02  0.20270889077E+01  0.35576171552E+02  0.51100000000E-03 0. -1.
        -11    1    3    3    0    0  0.10529734978E+02 -0.73813450245E+00  0.45711065450E+01  0.11502833414E+02  0.51100000000E-03 0.  1.
        -12    1    3    3    0    0 -0.10367782972E+02 -0.17910446322E+02 -0.14696797508E+02  0.25382491371E+02  0.00000000000E+00 0.  1.
</event>
<event>
 7    1  0.1891413E-013  0.7246158E+02  0.7816164E-02  0.1226708E+00
        -11   -1    0    0    0    0  0.00000000000E+00  0.00000000000E+00  0.45593999997E+02  0.45594000000E+02  0.51100000000E-03 0.  1.
         11   -1    0    0    0    0 -0.00000000000E+00 -0.00000000000E+00 -0.45593999997E+02  0.45594000000E+02  0.51100000000E-03 0. -1.
    9900012    2    1    2    0    0 -0.80358425084E+01  0.16908961270E+02  0.43715835429E+00  0.72461579000E+02  0.70000011341E+02 0.  0.
        -12    1    1    2    0    0  0.80358425084E+01 -0.16908961270E+02 -0.43715835429E+00  0.18726421000E+02  0.00000000000E+00 0.  1.
         11    1    3    3    0    0  0.24290567856E+02  0.20343950026E+01 -0.69528737206E+01  0.25347838232E+02  0.51100000000E-03 0. -1.
        -11    1    3    3    0    0  0.31435639220E+01  0.63845832668E+01  0.79073375937E+01  0.10638180564E+02  0.51100000000E-03 0.  1.
        -12    1    3    3    0    0 -0.35469974286E+02  0.84899830005E+01 -0.51730551881E+00  0.36475560204E+02  0.00000000000E+00 0.  1.
</event>
<event>
 7    1  0.1891413E-013  0.7246160E+02  0.7816164E-02  0.1226708E+00
        -11   -1    0    0    0    0  0.00000000000E+00  0.00000000000E+00  0.45593999997E+02  0.45594000000E+02  0.51100000000E-03 0.  1.
         11   -1    0    0    0    0 -0.00000000000E+00 -0.00000000000E+00 -0.45593999997E+02  0.45594000000E+02  0.51100000000E-03 0. -1.
    9900012    2    1    2    0    0  0.12808131131E+02 -0.13658117244E+02 -0.29300149141E+00  0.72461595123E+02  0.70000032344E+02 0.  0.
        -12    1    1    2    0    0 -0.12808131131E+02  0.13658117244E+02  0.29300149141E+00  0.18726404877E+02  0.00000000000E+00 0.  1.
         11    1    3    3    0    0 -0.24763178244E+01  0.26794844411E+01  0.41275612177E+01  0.55089516883E+01  0.51100000000E-03 0. -1.
        -11    1    3    3    0    0  0.75000836485E+01  0.89101132198E+00  0.28230380785E+02  0.29223270786E+02  0.51100000000E-03 0.  1.
         12    1    3    3    0    0  0.77843653069E+01 -0.17228613007E+02 -0.32650943494E+02  0.37729372649E+02  0.00000000000E+00 0. -1.
</event>
<event>
 7    1  0.1891413E-013  0.7246160E+02  0.7816164E-02  0.1226708E+00
        -11   -1    0    0    0    0  0.00000000000E+00  0.00000000000E+00  0.45593999997E+02  0.45594000000E+02  0.51100000000E-03 0. -1.
         11   -1    0    0    0    0 -0.00000000000E+00 -0.00000000000E+00 -0.45593999997E+02  0.45594000000E+02  0.51100000000E-03 0.  1.
    9900012    2    1    2    0    0  0.63318960723E+01  0.33392404432E+01  0.17304180075E+02  0.72461599313E+02  0.70000037802E+02 0.  0.
        -12    1    1    2    0    0 -0.63318960723E+01 -0.33392404432E+01 -0.17304180075E+02  0.18726400687E+02  0.00000000000E+00 0.  1.
         11    1    3    3    0    0 -0.19167890194E+02  0.11247996860E+02  0.13730041357E+02  0.26123542711E+02  0.51100000000E-03 0. -1.
        -11    1    3    3    0    0 -0.24059112544E+01 -0.21006630181E+01 -0.12985940450E+02  0.13372951945E+02  0.51100000000E-03 0.  1.
        -12    1    3    3    0    0  0.27905697520E+02 -0.58080933985E+01  0.16560079169E+02  0.32965104658E+02  0.00000000000E+00 0.  1.
</event>
<event>
 7    1  0.1891413E-013  0.7246156E+02  0.7816164E-02  0.1226708E+00
        -11   -1    0    0    0    0  0.00000000000E+00  0.00000000000E+00  0.45593999997E+02  0.45594000000E+02  0.51100000000E-03 0. -1.
         11   -1    0    0    0    0 -0.00000000000E+00 -0.00000000000E+00 -0.45593999997E+02  0.45594000000E+02  0.51100000000E-03 0.  1.
    9900012    2    1    2    0    0  0.12667507267E+02 -0.85677819639E+01  0.10807721753E+02  0.72461562068E+02  0.69999989284E+02 0.  0.
        -12    1    1    2    0    0 -0.12667507267E+02  0.85677819639E+01 -0.10807721753E+02  0.18726437932E+02  0.00000000000E+00 0.  1.
         11    1    3    3    0    0  0.10848517623E+02  0.17829916939E+02  0.79984474207E+01  0.22351094695E+02  0.51100000000E-03 0. -1.
        -11    1    3    3    0    0  0.20943310754E+02 -0.17631906718E+02  0.78443345377E+01  0.28478763745E+02  0.51100000000E-03 0.  1.
        -12    1    3    3    0    0 -0.19124321111E+02 -0.87657921848E+01 -0.50350602055E+01  0.21631703628E+02  0.00000000000E+00 0.  1.
</event>
<event>
 7    1  0.1891413E-013  0.7246157E+02  0.7816164E-02  0.1226708E+00
        -11   -1    0    0    0    0  0.00000000000E+00  0.00000000000E+00  0.45593999997E+02  0.45594000000E+02  0.51100000000E-03 0.  1.
         11   -1    0    0    0    0 -0.00000000000E+00 -0.00000000000E+00 -0.45593999997E+02  0.45594000000E+02  0.51100000000E-03 0. -1.
    9900012    2    1    2    0    0 -0.50656578055E+01 -0.14088493862E+02 -0.11248674611E+02  0.72461568711E+02  0.69999997937E+02 0.  0.
        -12    1    1    2    0    0  0.50656578055E+01  0.14088493862E+02  0.11248674611E+02  0.18726431289E+02  0.00000000000E+00 0.  1.
         11    1    3    3    0    0  0.36795945664E+01 -0.33393659865E+02 -0.11320803368E+02  0.35451890281E+02  0.51100000000E-03 0. -1.
        -11    1    3    3    0    0 -0.36344362455E+01 -0.16948088537E+01  0.11769778799E+02  0.12434194671E+02  0.51100000000E-03 0.  1.
        -12    1    3    3    0    0 -0.51108161265E+01  0.20999974856E+02 -0.11697650042E+02  0.24575483758E+02  0.00000000000E+00 0.  1.
</event>
<event>
 7    1  0.1891413E-013  0.7246160E+02  0.7816164E-02  0.1226708E+00
        -11   -1    0    0    0    0  0.00000000000E+00  0.00000000000E+00  0.45593999997E+02  0.45594000000E+02  0.51100000000E-03 0.  1.
         11   -1    0    0    0    0 -0.00000000000E+00 -0.00000000000E+00 -0.45593999997E+02  0.45594000000E+02  0.51100000000E-03 0. -1.
    9900012    2    1    2    0    0 -0.15189748091E+02 -0.49917201310E+01 -0.97484610834E+01  0.72461595903E+02  0.70000033360E+02 0.  0.
        -12    1    1    2    0    0  0.15189748091E+02  0.49917201310E+01  0.97484610834E+01  0.18726404097E+02  0.00000000000E+00 0.  1.
         11    1    3    3    0    0 -0.13368091483E+02 -0.13976703965E+02 -0.13642150560E+02  0.23667750121E+02  0.51100000000E-03 0. -1.
        -11    1    3    3    0    0 -0.21064526505E+02 -0.59128055369E+01  0.94491752807E+01  0.23831962989E+02  0.51100000000E-03 0.  1.
         12    1    3    3    0    0  0.19242869897E+02  0.14897789371E+02 -0.55554858045E+01  0.24961882793E+02  0.00000000000E+00 0. -1.
</event>
<event>
 7    1  0.1891413E-013  0.7246161E+02  0.7816164E-02  0.1226708E+00
        -11   -1    0    0    0    0  0.00000000000E+00  0.00000000000E+00  0.45593999997E+02  0.45594000000E+02  0.51100000000E-03 0.  1.
         11   -1    0    0    0    0 -0.00000000000E+00 -0.00000000000E+00 -0.45593999997E+02  0.45594000000E+02  0.51100000000E-03 0. -1.
    9900012    2    1    2    0    0 -0.66063038785E+01  0.15507823717E+02 -0.81573270167E+01  0.72461606022E+02  0.70000046542E+02 0.  0.
        -12    1    1    2    0    0  0.66063038785E+01 -0.15507823717E+02  0.81573270167E+01  0.18726393978E+02  0.00000000000E+00 0.  1.
         11    1    3    3    0    0  0.22427757048E+02  0.16433041029E+02 -0.10583782982E+02  0.29750051868E+02  0.51100000000E-03 0. -1.
        -11    1    3    3    0    0 -0.92154111671E+00  0.81088424024E+01 -0.79692305173E+01  0.11406629583E+02  0.51100000000E-03 0.  1.
        -12    1    3    3    0    0 -0.28112519809E+02 -0.90340597149E+01  0.10395686483E+02  0.31304924571E+02  0.00000000000E+00 0.  1.
</event>
<event>
 7    1  0.1891413E-013  0.7246165E+02  0.7816164E-02  0.1226708E+00
        -11   -1    0    0    0    0  0.00000000000E+00  0.00000000000E+00  0.45593999997E+02  0.45594000000E+02  0.51100000000E-03 0. -1.
         11   -1    0    0    0    0 -0.00000000000E+00 -0.00000000000E+00 -0.45593999997E+02  0.45594000000E+02  0.51100000000E-03 0.  1.
    9900012    2    1    2    0    0 -0.18452694648E+02 -0.19618952884E+01 -0.25149657095E+01  0.72461654243E+02  0.70000109358E+02 0.  0.
        -12    1    1    2    0    0  0.18452694648E+02  0.19618952884E+01  0.25149657095E+01  0.18726345757E+02  0.00000000000E+00 0.  1.
         11    1    3    3    0    0 -0.26847420705E+02  0.72396084473E+01  0.15783258156E+02  0.31973538548E+02  0.51100000000E-03 0. -1.
        -11    1    3    3    0    0 -0.31316893048E+01  0.11752114722E+02 -0.52698586600E+01  0.13254851523E+02  0.51100000000E-03 0.  1.
        -12    1    3    3    0    0  0.11526415362E+02 -0.20953618458E+02 -0.13028365205E+02  0.27233264172E+02  0.00000000000E+00 0.  1.
</event>
<event>
 7    1  0.1891413E-013  0.7246161E+02  0.7816164E-02  0.1226708E+00
        -11   -1    0    0    0    0  0.00000000000E+00  0.00000000000E+00  0.45593999997E+02  0.45594000000E+02  0.51100000000E-03 0. -1.
         11   -1    0    0    0    0 -0.00000000000E+00 -0.00000000000E+00 -0.45593999997E+02  0.45594000000E+02  0.51100000000E-03 0.  1.
    9900012    2    1    2    0    0 -0.25272118789E+01  0.12220734572E+02  0.13962249261E+02  0.72461613329E+02  0.70000056060E+02 0.  0.
        -12    1    1    2    0    0  0.25272118789E+01 -0.12220734572E+02 -0.13962249261E+02  0.18726386671E+02  0.00000000000E+00 0.  1.
         11    1    3    3    0    0  0.66799796691E+01 -0.18345331655E+02  0.21250260891E+02  0.28857354524E+02  0.51100000000E-03 0. -1.
        -11    1    3    3    0    0  0.10028715850E+02  0.98662458623E+01 -0.60650631056E+01  0.15320017616E+02  0.51100000000E-03 0.  1.
         12    1    3    3    0    0 -0.19235907398E+02  0.20699820364E+02 -0.12229485249E+01  0.28284241189E+02  0.00000000000E+00 0. -1.
</event>
<event>
 7    1  0.1891413E-013  0.7246156E+02  0.7816164E-02  0.1226708E+00
        -11   -1    0    0    0    0  0.00000000000E+00  0.00000000000E+00  0.45593999997E+02  0.45594000000E+02  0.51100000000E-03 0. -1.
         11   -1    0    0    0    0 -0.00000000000E+00 -0.00000000000E+00 -0.45593999997E+02  0.45594000000E+02  0.51100000000E-03 0.  1.
    9900012    2    1    2    0    0  0.49394318255E+01 -0.17205625000E+02 -0.54998297466E+01  0.72461557581E+02  0.69999983439E+02 0.  0.
        -12    1    1    2    0    0 -0.49394318255E+01  0.17205625000E+02  0.54998297466E+01  0.18726442419E+02  0.00000000000E+00 0.  1.
         11    1    3    3    0    0 -0.28034480850E+01  0.73164040645E+01  0.16745728981E+02  0.18488064501E+02  0.51100000000E-03 0. -1.
        -11    1    3    3    0    0  0.31657345836E+01 -0.46166741153E+01  0.12484853657E+02  0.13682365528E+02  0.51100000000E-03 0.  1.
        -12    1    3    3    0    0  0.45771453268E+01 -0.19905354950E+02 -0.34730412385E+02  0.40291127553E+02  0.00000000000E+00 0.  1.
</event>
<event>
 7    1  0.1891413E-013  0.7246164E+02  0.7816164E-02  0.1226708E+00
        -11   -1    0    0    0    0  0.00000000000E+00  0.00000000000E+00  0.45593999997E+02  0.45594000000E+02  0.51100000000E-03 0.  1.
         11   -1    0    0    0    0 -0.00000000000E+00 -0.00000000000E+00 -0.45593999997E+02  0.45594000000E+02  0.51100000000E-03 0. -1.
    9900012    2    1    2    0    0 -0.62801555395E+01 -0.16374934925E+02 -0.65648949288E+01  0.72461636423E+02  0.70000086144E+02 0.  0.
        -12    1    1    2    0    0  0.62801555395E+01  0.16374934925E+02  0.65648949288E+01  0.18726363577E+02  0.00000000000E+00 0.  1.
         11    1    3    3    0    0 -0.34969092199E+01 -0.34619728977E+02  0.14541314276E+02  0.37712117810E+02  0.51100000000E-03 0. -1.
        -11    1    3    3    0    0 -0.55820293479E+01  0.39835544328E+01  0.22701858267E+01  0.72236764538E+01  0.51100000000E-03 0.  1.
        -12    1    3    3    0    0  0.27987830282E+01  0.14261239619E+02 -0.23376395031E+02  0.27525842159E+02  0.00000000000E+00 0.  1.
</event>
<event>
 7    1  0.1891413E-013  0.7246154E+02  0.7816164E-02  0.1226708E+00
        -11   -1    0    0    0    0  0.00000000000E+00  0.00000000000E+00  0.45593999997E+02  0.45594000000E+02  0.51100000000E-03 0. -1.
         11   -1    0    0    0    0 -0.00000000000E+00 -0.00000000000E+00 -0.45593999997E+02  0.45594000000E+02  0.51100000000E-03 0.  1.
    9900012    2    1    2    0    0  0.80304641333E+01 -0.13732700416E+02  0.98795213290E+01  0.72461538599E+02  0.69999958711E+02 0.  0.
        -12    1    1    2    0    0 -0.80304641333E+01  0.13732700416E+02 -0.98795213290E+01  0.18726461401E+02  0.00000000000E+00 0.  1.
         11    1    3    3    0    0 -0.10312356791E+02 -0.70930449649E+00  0.18615087188E+02  0.21292470188E+02  0.51100000000E-03 0. -1.
        -11    1    3    3    0    0 -0.11236056610E+02  0.73672651462E+01  0.22011683560E+01  0.13615091123E+02  0.51100000000E-03 0.  1.
        -12    1    3    3    0    0  0.29578877534E+02 -0.20390661066E+02 -0.10936734215E+02  0.37553977288E+02  0.00000000000E+00 0.  1.
</event>
<event>
 7    1  0.1891413E-013  0.7246160E+02  0.7816164E-02  0.1226708E+00
        -11   -1    0    0    0    0  0.00000000000E+00  0.00000000000E+00  0.45593999997E+02  0.45594000000E+02  0.51100000000E-03 0. -1.
         11   -1    0    0    0    0 -0.00000000000E+00 -0.00000000000E+00 -0.45593999997E+02  0.45594000000E+02  0.51100000000E-03 0.  1.
    9900012    2    1    2    0    0  0.13402197226E+02 -0.51213162458E+01  0.12034594390E+02  0.72461595307E+02  0.70000032584E+02 0.  0.
        -12    1    1    2    0    0 -0.13402197226E+02  0.51213162458E+01 -0.12034594390E+02  0.18726404693E+02  0.00000000000E+00 0.  1.
         11    1    3    3    0    0 -0.10544113884E+02 -0.67695452789E+01  0.20380202739E+02  0.23923999348E+02  0.51100000000E-03 0. -1.
        -11    1    3    3    0    0  0.30431567694E+02  0.82634136830E+01  0.53690297113E+01  0.31987353725E+02  0.51100000000E-03 0.  1.
         12    1    3    3    0    0 -0.64852565831E+01 -0.66151846500E+01 -0.13714638060E+02  0.16550242235E+02  0.00000000000E+00 0. -1.
</event>
<event>
 7    1  0.1891413E-013  0.7246157E+02  0.7816164E-02  0.1226708E+00
        -11   -1    0    0    0    0  0.00000000000E+00  0.00000000000E+00  0.45593999997E+02  0.45594000000E+02  0.51100000000E-03 0.  1.
         11   -1    0    0    0    0 -0.00000000000E+00 -0.00000000000E+00 -0.45593999997E+02  0.45594000000E+02  0.51100000000E-03 0. -1.
    9900012    2    1    2    0    0 -0.17143196432E+01 -0.89739675552E+01  0.16346500846E+02  0.72461572806E+02  0.70000003272E+02 0.  0.
        -12    1    1    2    0    0  0.17143196432E+01  0.89739675552E+01 -0.16346500846E+02  0.18726427194E+02  0.00000000000E+00 0.  1.
         11    1    3    3    0    0  0.14105839079E+01  0.28795844555E+02  0.25337886104E+01  0.28941501267E+02  0.51100000000E-03 0. -1.
        -11    1    3    3    0    0 -0.87307089425E+01 -0.12198064793E+02  0.64248708586E+01  0.16318609902E+02  0.51100000000E-03 0.  1.
        -12    1    3    3    0    0  0.56058053914E+01 -0.25571747318E+02  0.73878413773E+01  0.27201461637E+02  0.00000000000E+00 0.  1.
</event>
