<event>
 7    1  0.2227287E-008  0.4614232E+02  0.7816164E-02  0.1320468E+00
        -11   -1    0    0    0    0  0.00000000000E+00  0.00000000000E+00  0.45593999997E+02  0.45594000000E+02  0.51100000000E-03 0. -1.
         11   -1    0    0    0    0 -0.00000000000E+00 -0.00000000000E+00 -0.45593999997E+02  0.45594000000E+02  0.51100000000E-03 0.  1.
    9900012    2    1    2    0    0  0.27858565893E+02 -0.32827700892E+02  0.13242200671E+02  0.46142317431E+02  0.99999969929E+01 0.  0.
         12    1    1    2    0    0 -0.27858565893E+02  0.32827700892E+02 -0.13242200671E+02  0.45045682569E+02  0.00000000000E+00 0. -1.
         11    1    3    3    0    0  0.48856991159E+01 -0.53947761669E+01  0.45432518149E+01  0.85799069376E+01  0.51100000000E-03 0. -1.
        -11    1    3    3    0    0  0.40588559641E+01 -0.88785036501E+01  0.44492018753E+01  0.10728351989E+02  0.51100000000E-03 0.  1.
         12    1    3    3    0    0  0.18914010813E+02 -0.18554421074E+02  0.42497469810E+01  0.26834058505E+02  0.00000000000E+00 0. -1.
</event>
<event>
 7    1  0.2227287E-008  0.4614232E+02  0.7816164E-02  0.1320468E+00
        -11   -1    0    0    0    0  0.00000000000E+00  0.00000000000E+00  0.45593999997E+02  0.45594000000E+02  0.51100000000E-03 0.  1.
         11   -1    0    0    0    0 -0.00000000000E+00 -0.00000000000E+00 -0.45593999997E+02  0.45594000000E+02  0.51100000000E-03 0. -1.
    9900012    2    1    2    0    0  0.40143338083E+02 -0.18751768226E+02  0.81238606305E+01  0.46142317459E+02  0.99999972435E+01 0.  0.
         12    1    1    2    0    0 -0.40143338083E+02  0.18751768226E+02 -0.81238606305E+01  0.45045682541E+02  0.00000000000E+00 0. -1.
         11    1    3    3    0    0  0.58480637932E+01 -0.36927031419E+01  0.16845233659E+01  0.71185339681E+01  0.51100000000E-03 0. -1.
        -11    1    3    3    0    0  0.32734756844E+02 -0.15008328165E+02  0.79200619618E+01  0.36871962271E+02  0.51100000000E-03 0.  1.
         12    1    3    3    0    0  0.15605174461E+01 -0.50736918666E-01 -0.14807246972E+01  0.21518212201E+01  0.00000000000E+00 0. -1.
</event>
<event>
 7    1  0.2227287E-008  0.4614233E+02  0.7816164E-02  0.1320468E+00
        -11   -1    0    0    0    0  0.00000000000E+00  0.00000000000E+00  0.45593999997E+02  0.45594000000E+02  0.51100000000E-03 0.  1.
         11   -1    0    0    0    0 -0.00000000000E+00 -0.00000000000E+00 -0.45593999997E+02  0.45594000000E+02  0.51100000000E-03 0. -1.
    9900012    2    1    2    0    0  0.84342471930E+00  0.12739671928E+02  0.43198401800E+02  0.46142328464E+02  0.10000097594E+02 0.  0.
         12    1    1    2    0    0 -0.84342471930E+00 -0.12739671928E+02 -0.43198401800E+02  0.45045671536E+02  0.00000000000E+00 0. -1.
         11    1    3    3    0    0  0.31000328216E+01  0.53712842456E+01  0.17810019591E+02  0.18858889046E+02  0.51100000000E-03 0. -1.
        -11    1    3    3    0    0  0.17278748654E+01  0.40840110103E+01  0.80273256830E+01  0.91707499892E+01  0.51100000000E-03 0.  1.
         12    1    3    3    0    0 -0.39844829677E+01  0.32843766718E+01  0.17361056526E+02  0.18112689428E+02  0.00000000000E+00 0. -1.
</event>
<event>
 7    1  0.2227287E-008  0.4614232E+02  0.7816164E-02  0.1320468E+00
        -11   -1    0    0    0    0  0.00000000000E+00  0.00000000000E+00  0.45593999997E+02  0.45594000000E+02  0.51100000000E-03 0.  1.
         11   -1    0    0    0    0 -0.00000000000E+00 -0.00000000000E+00 -0.45593999997E+02  0.45594000000E+02  0.51100000000E-03 0. -1.
    9900012    2    1    2    0    0 -0.21250293314E+02  0.69841932693E+01  0.39099355573E+02  0.46142317324E+02  0.99999960133E+01 0.  0.
         12    1    1    2    0    0  0.21250293314E+02 -0.69841932693E+01 -0.39099355573E+02  0.45045682676E+02  0.00000000000E+00 0. -1.
         11    1    3    3    0    0 -0.67492965951E+01 -0.54798832849E+00  0.13183306895E+02  0.14820690831E+02  0.51100000000E-03 0. -1.
        -11    1    3    3    0    0 -0.12890816888E+02  0.36822098299E+01  0.20212366486E+02  0.24254310720E+02  0.51100000000E-03 0.  1.
         12    1    3    3    0    0 -0.16101798306E+01  0.38499717679E+01  0.57036821917E+01  0.70673157737E+01  0.00000000000E+00 0. -1.
</event>
<event>
 7    1  0.2227287E-008  0.4614232E+02  0.7816164E-02  0.1320468E+00
        -11   -1    0    0    0    0  0.00000000000E+00  0.00000000000E+00  0.45593999997E+02  0.45594000000E+02  0.51100000000E-03 0.  1.
         11   -1    0    0    0    0 -0.00000000000E+00 -0.00000000000E+00 -0.45593999997E+02  0.45594000000E+02  0.51100000000E-03 0. -1.
    9900012    2    1    2    0    0 -0.40454360939E+01  0.95297702138E+01  0.43839838781E+02  0.46142317211E+02  0.99999949874E+01 0.  0.
         12    1    1    2    0    0  0.40454360939E+01 -0.95297702138E+01 -0.43839838781E+02  0.45045682789E+02  0.00000000000E+00 0. -1.
         11    1    3    3    0    0  0.39590687468E+00  0.35426053872E+01  0.63854099695E+01  0.73130196173E+01  0.51100000000E-03 0. -1.
        -11    1    3    3    0    0 -0.26475485471E+01 -0.10692843239E+01  0.82179038467E+01  0.86998175941E+01  0.51100000000E-03 0.  1.
        -12    1    3    3    0    0 -0.17937944215E+01  0.70564491505E+01  0.29236524965E+02  0.30129480000E+02  0.00000000000E+00 0.  1.
</event>
<event>
 7    1  0.2227287E-008  0.4614232E+02  0.7816164E-02  0.1320468E+00
        -11   -1    0    0    0    0  0.00000000000E+00  0.00000000000E+00  0.45593999997E+02  0.45594000000E+02  0.51100000000E-03 0.  1.
         11   -1    0    0    0    0 -0.00000000000E+00 -0.00000000000E+00 -0.45593999997E+02  0.45594000000E+02  0.51100000000E-03 0. -1.
    9900012    2    1    2    0    0  0.26194112407E+02 -0.18962946544E+02  0.31359028289E+02  0.46142317392E+02  0.99999966336E+01 0.  0.
         12    1    1    2    0    0 -0.26194112407E+02  0.18962946544E+02 -0.31359028289E+02  0.45045682608E+02  0.00000000000E+00 0. -1.
         11    1    3    3    0    0  0.25258200375E+01 -0.43661566760E+01  0.17947507811E+01  0.53538977959E+01  0.51100000000E-03 0. -1.
        -11    1    3    3    0    0  0.14709338917E+01 -0.15903022064E+01  0.38265711192E+01  0.43971984732E+01  0.51100000000E-03 0.  1.
        -12    1    3    3    0    0  0.22197358477E+02 -0.13006487662E+02  0.25737706389E+02  0.36391221123E+02  0.00000000000E+00 0.  1.
</event>
<event>
 7    1  0.2227287E-008  0.4614232E+02  0.7816164E-02  0.1320468E+00
        -11   -1    0    0    0    0  0.00000000000E+00  0.00000000000E+00  0.45593999997E+02  0.45594000000E+02  0.51100000000E-03 0.  1.
         11   -1    0    0    0    0 -0.00000000000E+00 -0.00000000000E+00 -0.45593999997E+02  0.45594000000E+02  0.51100000000E-03 0. -1.
    9900012    2    1    2    0    0 -0.12578207852E+02  0.34332272829E+02  0.26309641012E+02  0.46142317848E+02  0.10000000790E+02 0.  0.
         12    1    1    2    0    0  0.12578207852E+02 -0.34332272829E+02 -0.26309641012E+02  0.45045682152E+02  0.00000000000E+00 0. -1.
         11    1    3    3    0    0 -0.11742421721E+01  0.38906653435E+01  0.43734371339E+01  0.59701820842E+01  0.51100000000E-03 0. -1.
        -11    1    3    3    0    0 -0.11121850122E+02  0.27050489181E+02  0.22258434030E+02  0.36754080057E+02  0.51100000000E-03 0.  1.
        -12    1    3    3    0    0 -0.28211555806E+00  0.33911183045E+01 -0.32223015221E+00  0.34180557067E+01  0.00000000000E+00 0.  1.
</event>
<event>
 7    1  0.2227287E-008  0.4614232E+02  0.7816164E-02  0.1320468E+00
        -11   -1    0    0    0    0  0.00000000000E+00  0.00000000000E+00  0.45593999997E+02  0.45594000000E+02  0.51100000000E-03 0.  1.
         11   -1    0    0    0    0 -0.00000000000E+00 -0.00000000000E+00 -0.45593999997E+02  0.45594000000E+02  0.51100000000E-03 0. -1.
    9900012    2    1    2    0    0 -0.35890136905E+02  0.13254622788E+02  0.23776596669E+02  0.46142317616E+02  0.99999986724E+01 0.  0.
         12    1    1    2    0    0  0.35890136905E+02 -0.13254622788E+02 -0.23776596669E+02  0.45045682384E+02  0.00000000000E+00 0. -1.
         11    1    3    3    0    0 -0.46333836536E+01 -0.55476098961E+00  0.31669310290E+01  0.56396326335E+01  0.51100000000E-03 0. -1.
        -11    1    3    3    0    0 -0.91304190985E+01  0.47194882672E+01  0.27187818105E+01  0.10631551966E+02  0.51100000000E-03 0.  1.
        -12    1    3    3    0    0 -0.22126334153E+02  0.90898955101E+01  0.17890883829E+02  0.29871133016E+02  0.00000000000E+00 0.  1.
</event>
<event>
 7    1  0.2227287E-008  0.4614232E+02  0.7816164E-02  0.1320468E+00
        -11   -1    0    0    0    0  0.00000000000E+00  0.00000000000E+00  0.45593999997E+02  0.45594000000E+02  0.51100000000E-03 0. -1.
         11   -1    0    0    0    0 -0.00000000000E+00 -0.00000000000E+00 -0.45593999997E+02  0.45594000000E+02  0.51100000000E-03 0.  1.
    9900012    2    1    2    0    0  0.14716494377E+02  0.17135075265E+02 -0.38973419618E+02  0.46142318211E+02  0.10000004105E+02 0.  0.
         12    1    1    2    0    0 -0.14716494377E+02 -0.17135075265E+02  0.38973419618E+02  0.45045681789E+02  0.00000000000E+00 0. -1.
         11    1    3    3    0    0  0.75049161504E+01  0.13944486819E+02 -0.22247426925E+02  0.27307883187E+02  0.51100000000E-03 0.  1.
        -11    1    3    3    0    0  0.13498570970E+01 -0.15934466379E+00 -0.90457040658E+00  0.16327133201E+01  0.51100000000E-03 0. -1.
        -12    1    3    3    0    0  0.58617211297E+01  0.33499331090E+01 -0.15821422287E+02  0.17201721705E+02  0.00000000000E+00 0.  1.
</event>
<event>
 7    1  0.2227287E-008  0.4614232E+02  0.7816164E-02  0.1320468E+00
        -11   -1    0    0    0    0  0.00000000000E+00  0.00000000000E+00  0.45593999997E+02  0.45594000000E+02  0.51100000000E-03 0.  1.
         11   -1    0    0    0    0 -0.00000000000E+00 -0.00000000000E+00 -0.45593999997E+02  0.45594000000E+02  0.51100000000E-03 0. -1.
    9900012    2    1    2    0    0  0.84515426583E+01  0.44101845068E+02  0.35653842462E+01  0.46142320113E+02  0.10000021446E+02 0.  0.
         12    1    1    2    0    0 -0.84515426583E+01 -0.44101845068E+02 -0.35653842462E+01  0.45045679887E+02  0.00000000000E+00 0. -1.
         11    1    3    3    0    0  0.21317205775E+01  0.28682953593E+02  0.66653212894E+00  0.28769781451E+02  0.51100000000E-03 0. -1.
        -11    1    3    3    0    0  0.21617270672E+01  0.99511193928E+01  0.25333031289E+01  0.10493591668E+02  0.51100000000E-03 0.  1.
         12    1    3    3    0    0  0.41580950135E+01  0.54677720822E+01  0.36554898838E+00  0.68789469941E+01  0.00000000000E+00 0. -1.
</event>
<event>
 7    1  0.2227287E-008  0.4614232E+02  0.7816164E-02  0.1320468E+00
        -11   -1    0    0    0    0  0.00000000000E+00  0.00000000000E+00  0.45593999997E+02  0.45594000000E+02  0.51100000000E-03 0.  1.
         11   -1    0    0    0    0 -0.00000000000E+00 -0.00000000000E+00 -0.45593999997E+02  0.45594000000E+02  0.51100000000E-03 0. -1.
    9900012    2    1    2    0    0  0.57190382393E+01  0.16949650519E+02  0.41341445804E+02  0.46142321047E+02  0.10000029966E+02 0.  0.
         12    1    1    2    0    0 -0.57190382393E+01 -0.16949650519E+02 -0.41341445804E+02  0.45045678953E+02  0.00000000000E+00 0. -1.
         11    1    3    3    0    0  0.17302665337E+01 -0.35375184809E+00  0.14010339032E+01  0.22542978745E+01  0.51100000000E-03 0. -1.
        -11    1    3    3    0    0  0.29804497978E+01  0.52342858952E+01  0.11675896022E+02  0.13138012712E+02  0.51100000000E-03 0.  1.
        -12    1    3    3    0    0  0.10083219077E+01  0.12069116472E+02  0.28264515879E+02  0.30750010461E+02  0.00000000000E+00 0.  1.
</event>
<event>
 7    1  0.2227287E-008  0.4614232E+02  0.7816164E-02  0.1320468E+00
        -11   -1    0    0    0    0  0.00000000000E+00  0.00000000000E+00  0.45593999997E+02  0.45594000000E+02  0.51100000000E-03 0.  1.
         11   -1    0    0    0    0 -0.00000000000E+00 -0.00000000000E+00 -0.45593999997E+02  0.45594000000E+02  0.51100000000E-03 0. -1.
    9900012    2    1    2    0    0 -0.13408629194E+01  0.88415353310E+01  0.44149097357E+02  0.46142318100E+02  0.10000003094E+02 0.  0.
         12    1    1    2    0    0  0.13408629194E+01 -0.88415353310E+01 -0.44149097357E+02  0.45045681900E+02  0.00000000000E+00 0. -1.
         11    1    3    3    0    0 -0.41430629996E+01  0.16834265206E+01  0.94327028337E+01  0.10439098566E+02  0.51100000000E-03 0. -1.
        -11    1    3    3    0    0 -0.72290645837E+00  0.15604415157E+01  0.74177774545E+01  0.76145252049E+01  0.51100000000E-03 0.  1.
        -12    1    3    3    0    0  0.35251065386E+01  0.55976672947E+01  0.27298617069E+02  0.28088694329E+02  0.00000000000E+00 0.  1.
</event>
<event>
 7    1  0.2227287E-008  0.4614232E+02  0.7816164E-02  0.1320468E+00
        -11   -1    0    0    0    0  0.00000000000E+00  0.00000000000E+00  0.45593999997E+02  0.45594000000E+02  0.51100000000E-03 0.  1.
         11   -1    0    0    0    0 -0.00000000000E+00 -0.00000000000E+00 -0.45593999997E+02  0.45594000000E+02  0.51100000000E-03 0. -1.
    9900012    2    1    2    0    0 -0.98612148904E+01  0.26639941407E+02  0.34959740827E+02  0.46142317455E+02  0.99999972088E+01 0.  0.
         12    1    1    2    0    0  0.98612148904E+01 -0.26639941407E+02 -0.34959740827E+02  0.45045682545E+02  0.00000000000E+00 0. -1.
         11    1    3    3    0    0 -0.65948463190E+01  0.16227742425E+02  0.21420373400E+02  0.27670634598E+02  0.51100000000E-03 0. -1.
        -11    1    3    3    0    0 -0.16475369003E+01  0.10116328827E+02  0.13326687588E+02  0.16812349304E+02  0.51100000000E-03 0.  1.
         12    1    3    3    0    0 -0.16188316711E+01  0.29587015452E+00  0.21267983840E+00  0.16593335534E+01  0.00000000000E+00 0. -1.
</event>
<event>
 7    1  0.2227287E-008  0.4614232E+02  0.7816164E-02  0.1320468E+00
        -11   -1    0    0    0    0  0.00000000000E+00  0.00000000000E+00  0.45593999997E+02  0.45594000000E+02  0.51100000000E-03 0.  1.
         11   -1    0    0    0    0 -0.00000000000E+00 -0.00000000000E+00 -0.45593999997E+02  0.45594000000E+02  0.51100000000E-03 0. -1.
    9900012    2    1    2    0    0  0.42158352806E+01  0.27748357389E+02  0.35233065106E+02  0.46142317835E+02  0.10000000674E+02 0.  0.
         12    1    1    2    0    0 -0.42158352806E+01 -0.27748357389E+02 -0.35233065106E+02  0.45045682165E+02  0.00000000000E+00 0. -1.
         11    1    3    3    0    0  0.59443909868E+00  0.28305620401E+01  0.28889857940E+01  0.40879919868E+01  0.51100000000E-03 0. -1.
        -11    1    3    3    0    0  0.43661622429E+01  0.20757389567E+02  0.20581927007E+02  0.29555850756E+02  0.51100000000E-03 0.  1.
         12    1    3    3    0    0 -0.74476606095E+00  0.41604057822E+01  0.11762152306E+02  0.12498475092E+02  0.00000000000E+00 0. -1.
</event>
<event>
 7    1  0.2227287E-008  0.4614232E+02  0.7816164E-02  0.1320468E+00
        -11   -1    0    0    0    0  0.00000000000E+00  0.00000000000E+00  0.45593999997E+02  0.45594000000E+02  0.51100000000E-03 0.  1.
         11   -1    0    0    0    0 -0.00000000000E+00 -0.00000000000E+00 -0.45593999997E+02  0.45594000000E+02  0.51100000000E-03 0. -1.
    9900012    2    1    2    0    0 -0.38218139526E+02  0.13803593806E+02  0.19440887385E+02  0.46142317708E+02  0.99999995186E+01 0.  0.
         12    1    1    2    0    0  0.38218139526E+02 -0.13803593806E+02 -0.19440887385E+02  0.45045682292E+02  0.00000000000E+00 0. -1.
         11    1    3    3    0    0 -0.74722447919E+00 -0.52316087137E-01  0.20155952497E+01  0.21502804159E+01  0.51100000000E-03 0. -1.
        -11    1    3    3    0    0 -0.10405112985E+02  0.16297184089E+01  0.28589705743E+01  0.10913114648E+02  0.51100000000E-03 0.  1.
         12    1    3    3    0    0 -0.27065802062E+02  0.12226191485E+02  0.14566321561E+02  0.33078922644E+02  0.00000000000E+00 0. -1.
</event>
<event>
 7    1  0.2227287E-008  0.4614232E+02  0.7816164E-02  0.1320468E+00
        -11   -1    0    0    0    0  0.00000000000E+00  0.00000000000E+00  0.45593999997E+02  0.45594000000E+02  0.51100000000E-03 0.  1.
         11   -1    0    0    0    0 -0.00000000000E+00 -0.00000000000E+00 -0.45593999997E+02  0.45594000000E+02  0.51100000000E-03 0. -1.
    9900012    2    1    2    0    0  0.20598008565E+02  0.12168656792E+02  0.38167516107E+02  0.46142318179E+02  0.10000003811E+02 0.  0.
         12    1    1    2    0    0 -0.20598008565E+02 -0.12168656792E+02 -0.38167516107E+02  0.45045681821E+02  0.00000000000E+00 0. -1.
         11    1    3    3    0    0  0.46627355847E+01  0.50219053589E+01  0.15062655994E+02  0.16548239859E+02  0.51100000000E-03 0. -1.
        -11    1    3    3    0    0  0.10723082830E+02  0.76405896875E+01  0.15163643008E+02  0.20082310268E+02  0.51100000000E-03 0.  1.
         12    1    3    3    0    0  0.52121901501E+01 -0.49383825460E+00  0.79412171043E+01  0.95117680522E+01  0.00000000000E+00 0. -1.
</event>
<event>
 7    1  0.2227287E-008  0.4614232E+02  0.7816164E-02  0.1320468E+00
        -11   -1    0    0    0    0  0.00000000000E+00  0.00000000000E+00  0.45593999997E+02  0.45594000000E+02  0.51100000000E-03 0. -1.
         11   -1    0    0    0    0 -0.00000000000E+00 -0.00000000000E+00 -0.45593999997E+02  0.45594000000E+02  0.51100000000E-03 0.  1.
    9900012    2    1    2    0    0  0.42603724945E+02 -0.12195434020E+01  0.14579056396E+02  0.46142317069E+02  0.99999936896E+01 0.  0.
         12    1    1    2    0    0 -0.42603724945E+02  0.12195434020E+01 -0.14579056396E+02  0.45045682931E+02  0.00000000000E+00 0. -1.
         11    1    3    3    0    0  0.65623105647E+01 -0.32072510373E+01  0.24503514446E+01  0.77041937688E+01  0.51100000000E-03 0. -1.
        -11    1    3    3    0    0  0.68368065862E+01 -0.29032595017E+00  0.44240274767E+01  0.81485110806E+01  0.51100000000E-03 0.  1.
        -12    1    3    3    0    0  0.29204607794E+02  0.22780335855E+01  0.77046774750E+01  0.30289612220E+02  0.00000000000E+00 0.  1.
</event>
<event>
 7    1  0.2227287E-008  0.4614232E+02  0.7816164E-02  0.1320468E+00
        -11   -1    0    0    0    0  0.00000000000E+00  0.00000000000E+00  0.45593999997E+02  0.45594000000E+02  0.51100000000E-03 0.  1.
         11   -1    0    0    0    0 -0.00000000000E+00 -0.00000000000E+00 -0.45593999997E+02  0.45594000000E+02  0.51100000000E-03 0. -1.
    9900012    2    1    2    0    0  0.43268323366E+02 -0.87267174186E+01  0.89894428321E+01  0.46142317785E+02  0.10000000219E+02 0.  0.
         12    1    1    2    0    0 -0.43268323366E+02  0.87267174186E+01 -0.89894428321E+01  0.45045682215E+02  0.00000000000E+00 0. -1.
         11    1    3    3    0    0  0.12067720984E+02 -0.84098700570E+00 -0.13757864482E+01  0.12174971766E+02  0.51100000000E-03 0. -1.
        -11    1    3    3    0    0  0.13328194898E+02 -0.35085952513E+01  0.27541265322E+01  0.14054758379E+02  0.51100000000E-03 0.  1.
        -12    1    3    3    0    0  0.17872407484E+02 -0.43771351616E+01  0.76111027481E+01  0.19912587640E+02  0.00000000000E+00 0.  1.
</event>
<event>
 7    1  0.2227287E-008  0.4614232E+02  0.7816164E-02  0.1320468E+00
        -11   -1    0    0    0    0  0.00000000000E+00  0.00000000000E+00  0.45593999997E+02  0.45594000000E+02  0.51100000000E-03 0.  1.
         11   -1    0    0    0    0 -0.00000000000E+00 -0.00000000000E+00 -0.45593999997E+02  0.45594000000E+02  0.51100000000E-03 0. -1.
    9900012    2    1    2    0    0  0.34283557961E+02  0.27516453634E+02 -0.98283213889E+01  0.46142317983E+02  0.10000002028E+02 0.  0.
         12    1    1    2    0    0 -0.34283557961E+02 -0.27516453634E+02  0.98283213889E+01  0.45045682017E+02  0.00000000000E+00 0. -1.
         11    1    3    3    0    0  0.11420891507E+02  0.12663199627E+02 -0.73961192587E+01  0.18587521834E+02  0.51100000000E-03 0. -1.
        -11    1    3    3    0    0  0.93959264375E+01  0.79627260123E+01 -0.13210577806E+01  0.12386833053E+02  0.51100000000E-03 0.  1.
        -12    1    3    3    0    0  0.13466740016E+02  0.68905279946E+01 -0.11111443496E+01  0.15167963096E+02  0.00000000000E+00 0.  1.
</event>
<event>
 7    1  0.2227287E-008  0.4614232E+02  0.7816164E-02  0.1320468E+00
        -11   -1    0    0    0    0  0.00000000000E+00  0.00000000000E+00  0.45593999997E+02  0.45594000000E+02  0.51100000000E-03 0.  1.
         11   -1    0    0    0    0 -0.00000000000E+00 -0.00000000000E+00 -0.45593999997E+02  0.45594000000E+02  0.51100000000E-03 0. -1.
    9900012    2    1    2    0    0 -0.36364008607E+02 -0.16124373763E+02  0.21137098525E+02  0.46142317795E+02  0.10000000310E+02 0.  0.
         12    1    1    2    0    0  0.36364008607E+02  0.16124373763E+02 -0.21137098525E+02  0.45045682205E+02  0.00000000000E+00 0. -1.
         11    1    3    3    0    0 -0.13082437218E+02 -0.10417052891E+02  0.98118464930E+01  0.19389107415E+02  0.51100000000E-03 0. -1.
        -11    1    3    3    0    0 -0.14208695676E+02 -0.32731479077E+01  0.87820039774E+01  0.17021284445E+02  0.51100000000E-03 0.  1.
         12    1    3    3    0    0 -0.90728757135E+01 -0.24341729647E+01  0.25432480546E+01  0.97319259349E+01  0.00000000000E+00 0. -1.
</event>
<event>
 7    1  0.2227287E-008  0.4614232E+02  0.7816164E-02  0.1320468E+00
        -11   -1    0    0    0    0  0.00000000000E+00  0.00000000000E+00  0.45593999997E+02  0.45594000000E+02  0.51100000000E-03 0. -1.
         11   -1    0    0    0    0 -0.00000000000E+00 -0.00000000000E+00 -0.45593999997E+02  0.45594000000E+02  0.51100000000E-03 0.  1.
    9900012    2    1    2    0    0  0.35094109440E+02  0.35685079322E+01  0.28013975272E+02  0.46142316779E+02  0.99999910461E+01 0.  0.
         12    1    1    2    0    0 -0.35094109440E+02 -0.35685079322E+01 -0.28013975272E+02  0.45045683221E+02  0.00000000000E+00 0. -1.
         11    1    3    3    0    0  0.32504802159E+00  0.92991718208E+00 -0.24906619977E+00  0.10160887830E+01  0.51100000000E-03 0. -1.
        -11    1    3    3    0    0  0.87931370494E+01 -0.13431077978E+01  0.68261630324E+01  0.11212479642E+02  0.51100000000E-03 0.  1.
        -12    1    3    3    0    0  0.25975924369E+02  0.39816985479E+01  0.21436878440E+02  0.33913748354E+02  0.00000000000E+00 0.  1.
</event>
<event>
 7    1  0.2227287E-008  0.4614232E+02  0.7816164E-02  0.1320468E+00
        -11   -1    0    0    0    0  0.00000000000E+00  0.00000000000E+00  0.45593999997E+02  0.45594000000E+02  0.51100000000E-03 0.  1.
         11   -1    0    0    0    0 -0.00000000000E+00 -0.00000000000E+00 -0.45593999997E+02  0.45594000000E+02  0.51100000000E-03 0. -1.
    9900012    2    1    2    0    0  0.82514399307E+01  0.35813590511E+02  0.26046378779E+02  0.46142319034E+02  0.10000011603E+02 0.  0.
         12    1    1    2    0    0 -0.82514399307E+01 -0.35813590511E+02 -0.26046378779E+02  0.45045680966E+02  0.00000000000E+00 0. -1.
         11    1    3    3    0    0 -0.13464952595E+01  0.10080026190E+02  0.76999392267E+01  0.12755745444E+02  0.51100000000E-03 0. -1.
        -11    1    3    3    0    0  0.28582874324E+01  0.63887928324E+01  0.23079954829E+01  0.73697574120E+01  0.51100000000E-03 0.  1.
        -12    1    3    3    0    0  0.67396477579E+01  0.19344771489E+02  0.16038444070E+02  0.26016816178E+02  0.00000000000E+00 0.  1.
</event>
<event>
 7    1  0.2227287E-008  0.4614232E+02  0.7816164E-02  0.1320468E+00
        -11   -1    0    0    0    0  0.00000000000E+00  0.00000000000E+00  0.45593999997E+02  0.45594000000E+02  0.51100000000E-03 0. -1.
         11   -1    0    0    0    0 -0.00000000000E+00 -0.00000000000E+00 -0.45593999997E+02  0.45594000000E+02  0.51100000000E-03 0.  1.
    9900012    2    1    2    0    0  0.32414607093E+02  0.31021821301E+02  0.40066419183E+01  0.46142319526E+02  0.10000016098E+02 0.  0.
         12    1    1    2    0    0 -0.32414607093E+02 -0.31021821301E+02 -0.40066419183E+01  0.45045680474E+02  0.00000000000E+00 0. -1.
         11    1    3    3    0    0  0.87660730589E+01  0.78896265156E+01  0.42081185799E+01  0.12521921006E+02  0.51100000000E-03 0. -1.
        -11    1    3    3    0    0  0.21862543597E+02  0.19196607672E+02  0.10742705131E+01  0.29114165213E+02  0.51100000000E-03 0.  1.
         12    1    3    3    0    0  0.17859904376E+01  0.39355871138E+01 -0.12757471747E+01  0.45062333081E+01  0.00000000000E+00 0. -1.
</event>
<event>
 7    1  0.2227287E-008  0.4614232E+02  0.7816164E-02  0.1320468E+00
        -11   -1    0    0    0    0  0.00000000000E+00  0.00000000000E+00  0.45593999997E+02  0.45594000000E+02  0.51100000000E-03 0. -1.
         11   -1    0    0    0    0 -0.00000000000E+00 -0.00000000000E+00 -0.45593999997E+02  0.45594000000E+02  0.51100000000E-03 0.  1.
    9900012    2    1    2    0    0  0.18298435821E+02 -0.40453048702E+02  0.76047040007E+01  0.46142318457E+02  0.10000006341E+02 0.  0.
         12    1    1    2    0    0 -0.18298435821E+02  0.40453048702E+02 -0.76047040007E+01  0.45045681543E+02  0.00000000000E+00 0. -1.
         11    1    3    3    0    0 -0.73960122186E-01 -0.51678819195E+00 -0.62734357850E+00  0.81614971765E+00  0.51100000000E-03 0. -1.
        -11    1    3    3    0    0  0.13522211668E+02 -0.20912100941E+02  0.55131163449E+01  0.25506089984E+02  0.51100000000E-03 0.  1.
        -12    1    3    3    0    0  0.48501842754E+01 -0.19024159569E+02  0.27189312343E+01  0.19820078755E+02  0.00000000000E+00 0.  1.
</event>
<event>
 7    1  0.2227287E-008  0.4614232E+02  0.7816164E-02  0.1320468E+00
        -11   -1    0    0    0    0  0.00000000000E+00  0.00000000000E+00  0.45593999997E+02  0.45594000000E+02  0.51100000000E-03 0.  1.
         11   -1    0    0    0    0 -0.00000000000E+00 -0.00000000000E+00 -0.45593999997E+02  0.45594000000E+02  0.51100000000E-03 0. -1.
    9900012    2    1    2    0    0  0.21675123954E+02  0.11028663233E+02  0.37916632053E+02  0.46142318771E+02  0.10000009214E+02 0.  0.
         12    1    1    2    0    0 -0.21675123954E+02 -0.11028663233E+02 -0.37916632053E+02  0.45045681229E+02  0.00000000000E+00 0. -1.
         11    1    3    3    0    0  0.17193938786E+01  0.10929863623E+01  0.90307689132E+01  0.92577384885E+01  0.51100000000E-03 0. -1.
        -11    1    3    3    0    0  0.11516671252E+02  0.86371076152E+01  0.18390376841E+02  0.23354642050E+02  0.51100000000E-03 0.  1.
         12    1    3    3    0    0  0.84390588240E+01  0.12985692553E+01  0.10495486298E+02  0.13529938233E+02  0.00000000000E+00 0. -1.
</event>
<event>
 7    1  0.2227287E-008  0.4614232E+02  0.7816164E-02  0.1320468E+00
        -11   -1    0    0    0    0  0.00000000000E+00  0.00000000000E+00  0.45593999997E+02  0.45594000000E+02  0.51100000000E-03 0.  1.
         11   -1    0    0    0    0 -0.00000000000E+00 -0.00000000000E+00 -0.45593999997E+02  0.45594000000E+02  0.51100000000E-03 0. -1.
    9900012    2    1    2    0    0 -0.36414440684E+02 -0.11314184930E+02  0.23981060371E+02  0.46142317327E+02  0.99999960403E+01 0.  0.
         12    1    1    2    0    0  0.36414440684E+02  0.11314184930E+02 -0.23981060371E+02  0.45045682673E+02  0.00000000000E+00 0. -1.
         11    1    3    3    0    0 -0.13011097904E+02 -0.34673548190E+01  0.59112000141E+01  0.14705560308E+02  0.51100000000E-03 0. -1.
        -11    1    3    3    0    0 -0.86905560723E+01 -0.17179865309E+01  0.10659242490E+02  0.13859895140E+02  0.51100000000E-03 0.  1.
        -12    1    3    3    0    0 -0.14712786707E+02 -0.61288435804E+01  0.74106178671E+01  0.17576861879E+02  0.00000000000E+00 0.  1.
</event>
<event>
 7    1  0.2227287E-008  0.4614232E+02  0.7816164E-02  0.1320468E+00
        -11   -1    0    0    0    0  0.00000000000E+00  0.00000000000E+00  0.45593999997E+02  0.45594000000E+02  0.51100000000E-03 0. -1.
         11   -1    0    0    0    0 -0.00000000000E+00 -0.00000000000E+00 -0.45593999997E+02  0.45594000000E+02  0.51100000000E-03 0.  1.
    9900012    2    1    2    0    0  0.18571444463E+02 -0.29228522004E+01 -0.40934972205E+02  0.46142316923E+02  0.99999923613E+01 0.  0.
         12    1    1    2    0    0 -0.18571444463E+02  0.29228522004E+01  0.40934972205E+02  0.45045683077E+02  0.00000000000E+00 0. -1.
         11    1    3    3    0    0  0.36448458732E+01 -0.21969805678E+01 -0.85100357516E+01  0.95148480707E+01  0.51100000000E-03 0. -1.
        -11    1    3    3    0    0  0.48576985958E+01 -0.39256578234E+01 -0.92900170806E+01  0.11194304025E+02  0.51100000000E-03 0.  1.
         12    1    3    3    0    0  0.10068899994E+02  0.31997861908E+01 -0.23134919372E+02  0.25433164827E+02  0.00000000000E+00 0. -1.
</event>
<event>
 7    1  0.2227287E-008  0.4614232E+02  0.7816164E-02  0.1320468E+00
        -11   -1    0    0    0    0  0.00000000000E+00  0.00000000000E+00  0.45593999997E+02  0.45594000000E+02  0.51100000000E-03 0. -1.
         11   -1    0    0    0    0 -0.00000000000E+00 -0.00000000000E+00 -0.45593999997E+02  0.45594000000E+02  0.51100000000E-03 0.  1.
    9900012    2    1    2    0    0  0.11079995657E+02 -0.16852090800E+02 -0.40278456753E+02  0.46142319336E+02  0.10000014360E+02 0.  0.
         12    1    1    2    0    0 -0.11079995657E+02  0.16852090800E+02  0.40278456753E+02  0.45045680664E+02  0.00000000000E+00 0. -1.
         11    1    3    3    0    0  0.72133914530E+01 -0.87561362008E+01 -0.19608239044E+02  0.22653608456E+02  0.51100000000E-03 0. -1.
        -11    1    3    3    0    0  0.47667888296E+01 -0.74088640527E+01 -0.12808063175E+02  0.15545418131E+02  0.51100000000E-03 0.  1.
        -12    1    3    3    0    0 -0.90018462588E+00 -0.68709054615E+00 -0.78621545344E+01  0.79432927494E+01  0.00000000000E+00 0.  1.
</event>
<event>
 7    1  0.2227287E-008  0.4614232E+02  0.7816164E-02  0.1320468E+00
        -11   -1    0    0    0    0  0.00000000000E+00  0.00000000000E+00  0.45593999997E+02  0.45594000000E+02  0.51100000000E-03 0.  1.
         11   -1    0    0    0    0 -0.00000000000E+00 -0.00000000000E+00 -0.45593999997E+02  0.45594000000E+02  0.51100000000E-03 0. -1.
    9900012    2    1    2    0    0 -0.42795559546E+02 -0.53994248717E+00  0.14048559687E+02  0.46142317810E+02  0.10000000442E+02 0.  0.
         12    1    1    2    0    0  0.42795559546E+02  0.53994248717E+00 -0.14048559687E+02  0.45045682190E+02  0.00000000000E+00 0. -1.
         11    1    3    3    0    0 -0.14093623546E+02  0.16844910515E+01  0.64442065390E+01  0.15588313987E+02  0.51100000000E-03 0. -1.
        -11    1    3    3    0    0 -0.24821236139E+02 -0.39992771718E+01  0.76729098532E+01  0.26286147060E+02  0.51100000000E-03 0.  1.
        -12    1    3    3    0    0 -0.38806998606E+01  0.17748436331E+01 -0.68556705405E-01  0.42678567633E+01  0.00000000000E+00 0.  1.
</event>
<event>
 7    1  0.2227287E-008  0.4614232E+02  0.7816164E-02  0.1320468E+00
        -11   -1    0    0    0    0  0.00000000000E+00  0.00000000000E+00  0.45593999997E+02  0.45594000000E+02  0.51100000000E-03 0.  1.
         11   -1    0    0    0    0 -0.00000000000E+00 -0.00000000000E+00 -0.45593999997E+02  0.45594000000E+02  0.51100000000E-03 0. -1.
    9900012    2    1    2    0    0  0.12040799291E+02 -0.39808013991E+01  0.43223670894E+02  0.46142319265E+02  0.10000013712E+02 0.  0.
         12    1    1    2    0    0 -0.12040799291E+02  0.39808013991E+01 -0.43223670894E+02  0.45045680735E+02  0.00000000000E+00 0. -1.
         11    1    3    3    0    0 -0.41693833511E+00 -0.57216855287E-01  0.79968183121E+01  0.80078845347E+01  0.51100000000E-03 0. -1.
        -11    1    3    3    0    0  0.66303052634E+01  0.42358096901E+00  0.11104138861E+02  0.12939948564E+02  0.51100000000E-03 0.  1.
        -12    1    3    3    0    0  0.58274323623E+01 -0.43471655128E+01  0.24122713721E+02  0.25194486167E+02  0.00000000000E+00 0.  1.
</event>
<event>
 7    1  0.2227287E-008  0.4614232E+02  0.7816164E-02  0.1320468E+00
        -11   -1    0    0    0    0  0.00000000000E+00  0.00000000000E+00  0.45593999997E+02  0.45594000000E+02  0.51100000000E-03 0.  1.
         11   -1    0    0    0    0 -0.00000000000E+00 -0.00000000000E+00 -0.45593999997E+02  0.45594000000E+02  0.51100000000E-03 0. -1.
    9900012    2    1    2    0    0  0.19506598647E+02  0.36878865427E+02 -0.16986917537E+02  0.46142317928E+02  0.10000001521E+02 0.  0.
         12    1    1    2    0    0 -0.19506598647E+02 -0.36878865427E+02  0.16986917537E+02  0.45045682072E+02  0.00000000000E+00 0. -1.
         11    1    3    3    0    0  0.52456992383E+01  0.53709099978E+01 -0.20350636963E+00  0.75103561705E+01  0.51100000000E-03 0. -1.
        -11    1    3    3    0    0  0.78128816959E+00  0.46357552835E+01 -0.28397025916E+01  0.54922262629E+01  0.51100000000E-03 0.  1.
         12    1    3    3    0    0  0.13479611239E+02  0.26872200145E+02 -0.13943708576E+02  0.33139735495E+02  0.00000000000E+00 0. -1.
</event>
<event>
 7    1  0.2227287E-008  0.4614232E+02  0.7816164E-02  0.1320468E+00
        -11   -1    0    0    0    0  0.00000000000E+00  0.00000000000E+00  0.45593999997E+02  0.45594000000E+02  0.51100000000E-03 0.  1.
         11   -1    0    0    0    0 -0.00000000000E+00 -0.00000000000E+00 -0.45593999997E+02  0.45594000000E+02  0.51100000000E-03 0. -1.
    9900012    2    1    2    0    0 -0.45459059967E+01  0.43980409296E+02 -0.86123062913E+01  0.46142317823E+02  0.10000000563E+02 0.  0.
         12    1    1    2    0    0  0.45459059967E+01 -0.43980409296E+02  0.86123062913E+01  0.45045682177E+02  0.00000000000E+00 0. -1.
         11    1    3    3    0    0 -0.29419907116E+01  0.10097568639E+02  0.73000714749E-01  0.10517677079E+02  0.51100000000E-03 0. -1.
        -11    1    3    3    0    0 -0.19228631867E+01  0.14948118353E+02 -0.74425001550E+00  0.15089650542E+02  0.51100000000E-03 0.  1.
         12    1    3    3    0    0  0.31894790156E+00  0.18934722303E+02 -0.79410569906E+01  0.20534990202E+02  0.00000000000E+00 0. -1.
</event>
<event>
 7    1  0.2227287E-008  0.4614232E+02  0.7816164E-02  0.1320468E+00
        -11   -1    0    0    0    0  0.00000000000E+00  0.00000000000E+00  0.45593999997E+02  0.45594000000E+02  0.51100000000E-03 0.  1.
         11   -1    0    0    0    0 -0.00000000000E+00 -0.00000000000E+00 -0.45593999997E+02  0.45594000000E+02  0.51100000000E-03 0. -1.
    9900012    2    1    2    0    0  0.30351419996E+02 -0.20779808727E+02  0.26002002921E+02  0.46142319825E+02  0.10000018821E+02 0.  0.
         12    1    1    2    0    0 -0.30351419996E+02  0.20779808727E+02 -0.26002002921E+02  0.45045680175E+02  0.00000000000E+00 0. -1.
         11    1    3    3    0    0  0.61573448558E+01 -0.73306462915E+01  0.49898688169E+01  0.10795835391E+02  0.51100000000E-03 0. -1.
        -11    1    3    3    0    0  0.19769439479E+02 -0.12488228638E+02  0.14852239789E+02  0.27701545424E+02  0.51100000000E-03 0.  1.
         12    1    3    3    0    0  0.44246356618E+01 -0.96093379673E+00  0.61598943148E+01  0.76449390102E+01  0.00000000000E+00 0. -1.
</event>
<event>
 7    1  0.2227287E-008  0.4614232E+02  0.7816164E-02  0.1320468E+00
        -11   -1    0    0    0    0  0.00000000000E+00  0.00000000000E+00  0.45593999997E+02  0.45594000000E+02  0.51100000000E-03 0.  1.
         11   -1    0    0    0    0 -0.00000000000E+00 -0.00000000000E+00 -0.45593999997E+02  0.45594000000E+02  0.51100000000E-03 0. -1.
    9900012    2    1    2    0    0 -0.19125641845E+02 -0.36430501125E+02  0.18334173467E+02  0.46142317577E+02  0.99999983230E+01 0.  0.
         12    1    1    2    0    0  0.19125641845E+02  0.36430501125E+02 -0.18334173467E+02  0.45045682423E+02  0.00000000000E+00 0. -1.
         11    1    3    3    0    0 -0.10922000262E+02 -0.13337860201E+02  0.53705856904E+01  0.18056350555E+02  0.51100000000E-03 0. -1.
        -11    1    3    3    0    0 -0.81777219254E+01 -0.23248396664E+02  0.13069549962E+02  0.27895810077E+02  0.51100000000E-03 0.  1.
         12    1    3    3    0    0 -0.25919658123E-01  0.15575573992E+00 -0.10596218549E+00  0.19015694557E+00  0.00000000000E+00 0. -1.
</event>
<event>
 7    1  0.2227287E-008  0.4614232E+02  0.7816164E-02  0.1320468E+00
        -11   -1    0    0    0    0  0.00000000000E+00  0.00000000000E+00  0.45593999997E+02  0.45594000000E+02  0.51100000000E-03 0. -1.
         11   -1    0    0    0    0 -0.00000000000E+00 -0.00000000000E+00 -0.45593999997E+02  0.45594000000E+02  0.51100000000E-03 0.  1.
    9900012    2    1    2    0    0  0.23961657636E+02 -0.28816339146E+02 -0.24991421640E+02  0.46142316588E+02  0.99999893050E+01 0.  0.
         12    1    1    2    0    0 -0.23961657636E+02  0.28816339146E+02  0.24991421640E+02  0.45045683412E+02  0.00000000000E+00 0. -1.
         11    1    3    3    0    0 -0.49103127964E+00 -0.25491159150E+00 -0.12832028227E+01  0.13973909197E+01  0.51100000000E-03 0. -1.
        -11    1    3    3    0    0  0.15703681947E+01 -0.36730471210E+00 -0.13416605983E+01  0.20978613969E+01  0.51100000000E-03 0.  1.
        -12    1    3    3    0    0  0.22882320721E+02 -0.28194122842E+02 -0.22366558219E+02  0.42647064272E+02  0.00000000000E+00 0.  1.
</event>
<event>
 7    1  0.2227287E-008  0.4614232E+02  0.7816164E-02  0.1320468E+00
        -11   -1    0    0    0    0  0.00000000000E+00  0.00000000000E+00  0.45593999997E+02  0.45594000000E+02  0.51100000000E-03 0. -1.
         11   -1    0    0    0    0 -0.00000000000E+00 -0.00000000000E+00 -0.45593999997E+02  0.45594000000E+02  0.51100000000E-03 0.  1.
    9900012    2    1    2    0    0 -0.44399701486E+02  0.10730213152E+01 -0.75252048069E+01  0.46142316809E+02  0.99999913183E+01 0.  0.
         12    1    1    2    0    0  0.44399701486E+02 -0.10730213152E+01  0.75252048069E+01  0.45045683191E+02  0.00000000000E+00 0. -1.
         11    1    3    3    0    0 -0.20440211488E+00  0.31138814625E-01  0.75130836065E+00  0.77923960644E+00  0.51100000000E-03 0. -1.
        -11    1    3    3    0    0 -0.17743635841E+01 -0.95104522100E+00  0.30742758430E+00  0.20365080706E+01  0.51100000000E-03 0.  1.
        -12    1    3    3    0    0 -0.42420935787E+02  0.19929277216E+01 -0.85839407519E+01  0.43326569132E+02  0.00000000000E+00 0.  1.
</event>
<event>
 7    1  0.2227287E-008  0.4614232E+02  0.7816164E-02  0.1320468E+00
        -11   -1    0    0    0    0  0.00000000000E+00  0.00000000000E+00  0.45593999997E+02  0.45594000000E+02  0.51100000000E-03 0.  1.
         11   -1    0    0    0    0 -0.00000000000E+00 -0.00000000000E+00 -0.45593999997E+02  0.45594000000E+02  0.51100000000E-03 0. -1.
    9900012    2    1    2    0    0  0.20797206513E+02 -0.28445663789E+02  0.28061252706E+02  0.46142317737E+02  0.99999997792E+01 0.  0.
         12    1    1    2    0    0 -0.20797206513E+02  0.28445663789E+02 -0.28061252706E+02  0.45045682263E+02  0.00000000000E+00 0. -1.
         11    1    3    3    0    0  0.45951331029E+01 -0.58642787012E+01  0.17261470608E+01  0.76475222690E+01  0.51100000000E-03 0. -1.
        -11    1    3    3    0    0  0.10109330146E+01 -0.12072792210E+01  0.30210140717E+01  0.34067631206E+01  0.51100000000E-03 0.  1.
        -12    1    3    3    0    0  0.15191140395E+02 -0.21374105867E+02  0.23314091574E+02  0.35088032347E+02  0.00000000000E+00 0.  1.
</event>
<event>
 7    1  0.2227287E-008  0.4614232E+02  0.7816164E-02  0.1320468E+00
        -11   -1    0    0    0    0  0.00000000000E+00  0.00000000000E+00  0.45593999997E+02  0.45594000000E+02  0.51100000000E-03 0.  1.
         11   -1    0    0    0    0 -0.00000000000E+00 -0.00000000000E+00 -0.45593999997E+02  0.45594000000E+02  0.51100000000E-03 0. -1.
    9900012    2    1    2    0    0 -0.23871824177E+02 -0.23620252437E+02  0.30022210951E+02  0.46142318019E+02  0.10000002354E+02 0.  0.
         12    1    1    2    0    0  0.23871824177E+02  0.23620252437E+02 -0.30022210951E+02  0.45045681981E+02  0.00000000000E+00 0. -1.
         11    1    3    3    0    0 -0.19006092414E+02 -0.19256342074E+02  0.21345607661E+02  0.34462635210E+02  0.51100000000E-03 0. -1.
        -11    1    3    3    0    0 -0.39039308569E+01 -0.23126082406E+01  0.26811132297E+01  0.52704080887E+01  0.51100000000E-03 0.  1.
        -12    1    3    3    0    0 -0.96180090604E+00 -0.20513021218E+01  0.59954900605E+01  0.64092747205E+01  0.00000000000E+00 0.  1.
</event>
<event>
 7    1  0.2227287E-008  0.4614232E+02  0.7816164E-02  0.1320468E+00
        -11   -1    0    0    0    0  0.00000000000E+00  0.00000000000E+00  0.45593999997E+02  0.45594000000E+02  0.51100000000E-03 0. -1.
         11   -1    0    0    0    0 -0.00000000000E+00 -0.00000000000E+00 -0.45593999997E+02  0.45594000000E+02  0.51100000000E-03 0.  1.
    9900012    2    1    2    0    0  0.79500330312E+01 -0.30025276770E+02 -0.32625040239E+02  0.46142317399E+02  0.99999967017E+01 0.  0.
         12    1    1    2    0    0 -0.79500330312E+01  0.30025276770E+02  0.32625040239E+02  0.45045682601E+02  0.00000000000E+00 0. -1.
         11    1    3    3    0    0 -0.90739177932E+00 -0.73013180995E+01 -0.38439839244E+01  0.83011335673E+01  0.51100000000E-03 0. -1.
        -11    1    3    3    0    0  0.48745073869E+01 -0.12843336334E+02 -0.13928698060E+02  0.19563249739E+02  0.51100000000E-03 0.  1.
        -12    1    3    3    0    0  0.39829174236E+01 -0.98806223371E+01 -0.14852358255E+02  0.18277934093E+02  0.00000000000E+00 0.  1.
</event>
<event>
 7    1  0.2227287E-008  0.4614232E+02  0.7816164E-02  0.1320468E+00
        -11   -1    0    0    0    0  0.00000000000E+00  0.00000000000E+00  0.45593999997E+02  0.45594000000E+02  0.51100000000E-03 0.  1.
         11   -1    0    0    0    0 -0.00000000000E+00 -0.00000000000E+00 -0.45593999997E+02  0.45594000000E+02  0.51100000000E-03 0. -1.
    9900012    2    1    2    0    0  0.29800984922E+02  0.33739865926E+02  0.16235924839E+01  0.46142319768E+02  0.10000018296E+02 0.  0.
         12    1    1    2    0    0 -0.29800984922E+02 -0.33739865926E+02 -0.16235924839E+01  0.45045680232E+02  0.00000000000E+00 0. -1.
         11    1    3    3    0    0  0.10893662734E+02  0.11082334172E+02  0.46517824115E+01  0.16221254524E+02  0.51100000000E-03 0. -1.
        -11    1    3    3    0    0  0.96332753464E+01  0.14216828165E+02 -0.85809666575E+00  0.17194607502E+02  0.51100000000E-03 0.  1.
         12    1    3    3    0    0  0.92740468413E+01  0.84407035886E+01 -0.21700932618E+01  0.12726457742E+02  0.00000000000E+00 0. -1.
</event>
<event>
 7    1  0.2227287E-008  0.4614232E+02  0.7816164E-02  0.1320468E+00
        -11   -1    0    0    0    0  0.00000000000E+00  0.00000000000E+00  0.45593999997E+02  0.45594000000E+02  0.51100000000E-03 0.  1.
         11   -1    0    0    0    0 -0.00000000000E+00 -0.00000000000E+00 -0.45593999997E+02  0.45594000000E+02  0.51100000000E-03 0. -1.
    9900012    2    1    2    0    0  0.24557527991E+02 -0.37114545396E+02 -0.69679111463E+01  0.46142318223E+02  0.10000004210E+02 0.  0.
         12    1    1    2    0    0 -0.24557527991E+02  0.37114545396E+02  0.69679111463E+01  0.45045681777E+02  0.00000000000E+00 0. -1.
         11    1    3    3    0    0  0.37452285218E+01 -0.77565651974E+01 -0.46577734897E+01  0.97921343171E+01  0.51100000000E-03 0. -1.
        -11    1    3    3    0    0  0.19332617181E+01 -0.52998956847E+01 -0.10821742391E+01  0.57443447393E+01  0.51100000000E-03 0.  1.
        -12    1    3    3    0    0  0.18879037752E+02 -0.24058084514E+02 -0.12279634175E+01  0.30605839166E+02  0.00000000000E+00 0.  1.
</event>
<event>
 7    1  0.2227287E-008  0.4614232E+02  0.7816164E-02  0.1320468E+00
        -11   -1    0    0    0    0  0.00000000000E+00  0.00000000000E+00  0.45593999997E+02  0.45594000000E+02  0.51100000000E-03 0.  1.
         11   -1    0    0    0    0 -0.00000000000E+00 -0.00000000000E+00 -0.45593999997E+02  0.45594000000E+02  0.51100000000E-03 0. -1.
    9900012    2    1    2    0    0  0.19535461883E+02 -0.33775428910E+02  0.22509987497E+02  0.46142318673E+02  0.10000008319E+02 0.  0.
         12    1    1    2    0    0 -0.19535461883E+02  0.33775428910E+02 -0.22509987497E+02  0.45045681327E+02  0.00000000000E+00 0. -1.
         11    1    3    3    0    0  0.60187740221E+01 -0.17490758710E+02  0.98336330733E+01  0.20948809529E+02  0.51100000000E-03 0. -1.
        -11    1    3    3    0    0  0.59164629853E+01 -0.86076579672E+01  0.34888959954E+01  0.11012207111E+02  0.51100000000E-03 0.  1.
         12    1    3    3    0    0  0.76002248758E+01 -0.76770122325E+01  0.91874584284E+01  0.14181302033E+02  0.00000000000E+00 0. -1.
</event>
<event>
 7    1  0.2227287E-008  0.4614233E+02  0.7816164E-02  0.1320468E+00
        -11   -1    0    0    0    0  0.00000000000E+00  0.00000000000E+00  0.45593999997E+02  0.45594000000E+02  0.51100000000E-03 0.  1.
         11   -1    0    0    0    0 -0.00000000000E+00 -0.00000000000E+00 -0.45593999997E+02  0.45594000000E+02  0.51100000000E-03 0. -1.
    9900012    2    1    2    0    0  0.16746986494E+01  0.40080712762E+02  0.20490092942E+02  0.46142333617E+02  0.10000144590E+02 0.  0.
         12    1    1    2    0    0 -0.16746986494E+01 -0.40080712762E+02 -0.20490092942E+02  0.45045666383E+02  0.00000000000E+00 0. -1.
         11    1    3    3    0    0  0.40076732113E+00 -0.46992606730E+00  0.27620914252E+00  0.67656241837E+00  0.51100000000E-03 0. -1.
        -11    1    3    3    0    0  0.24151702686E+01  0.31059115145E+02  0.15938881369E+02  0.34993565417E+02  0.51100000000E-03 0.  1.
         12    1    3    3    0    0 -0.11412389403E+01  0.94915236839E+01  0.42750024305E+01  0.10472205782E+02  0.00000000000E+00 0. -1.
</event>
<event>
 7    1  0.2227287E-008  0.4614232E+02  0.7816164E-02  0.1320468E+00
        -11   -1    0    0    0    0  0.00000000000E+00  0.00000000000E+00  0.45593999997E+02  0.45594000000E+02  0.51100000000E-03 0.  1.
         11   -1    0    0    0    0 -0.00000000000E+00 -0.00000000000E+00 -0.45593999997E+02  0.45594000000E+02  0.51100000000E-03 0. -1.
    9900012    2    1    2    0    0  0.37374659913E+02 -0.16478105397E+02  0.18992634902E+02  0.46142319390E+02  0.10000014852E+02 0.  0.
         12    1    1    2    0    0 -0.37374659913E+02  0.16478105397E+02 -0.18992634902E+02  0.45045680610E+02  0.00000000000E+00 0. -1.
         11    1    3    3    0    0  0.76932479875E+01 -0.44505676262E+01  0.61801615668E+01  0.10825341290E+02  0.51100000000E-03 0. -1.
        -11    1    3    3    0    0  0.82101208552E+01 -0.70860370897E+01  0.49761148070E+01  0.11932297554E+02  0.51100000000E-03 0.  1.
         12    1    3    3    0    0  0.21471291071E+02 -0.49415006807E+01  0.78363585283E+01  0.23384680545E+02  0.00000000000E+00 0. -1.
</event>
<event>
 7    1  0.2227287E-008  0.4614232E+02  0.7816164E-02  0.1320468E+00
        -11   -1    0    0    0    0  0.00000000000E+00  0.00000000000E+00  0.45593999997E+02  0.45594000000E+02  0.51100000000E-03 0. -1.
         11   -1    0    0    0    0 -0.00000000000E+00 -0.00000000000E+00 -0.45593999997E+02  0.45594000000E+02  0.51100000000E-03 0.  1.
    9900012    2    1    2    0    0 -0.38095590239E+02 -0.23835935250E+02  0.31125118322E+01  0.46142317245E+02  0.99999952951E+01 0.  0.
         12    1    1    2    0    0  0.38095590239E+02  0.23835935250E+02 -0.31125118322E+01  0.45045682755E+02  0.00000000000E+00 0. -1.
         11    1    3    3    0    0 -0.60014459088E+00  0.56804819279E+00 -0.19194883131E+00  0.84834951185E+00  0.51100000000E-03 0. -1.
        -11    1    3    3    0    0 -0.47514274596E+01 -0.56226883262E+01  0.14332996503E+01  0.74996689971E+01  0.51100000000E-03 0.  1.
        -12    1    3    3    0    0 -0.32744018189E+02 -0.18781295117E+02  0.18711610133E+01  0.37794298736E+02  0.00000000000E+00 0.  1.
</event>
<event>
 7    1  0.2227287E-008  0.4614232E+02  0.7816164E-02  0.1320468E+00
        -11   -1    0    0    0    0  0.00000000000E+00  0.00000000000E+00  0.45593999997E+02  0.45594000000E+02  0.51100000000E-03 0.  1.
         11   -1    0    0    0    0 -0.00000000000E+00 -0.00000000000E+00 -0.45593999997E+02  0.45594000000E+02  0.51100000000E-03 0. -1.
    9900012    2    1    2    0    0  0.42032597544E+02 -0.48057198523E+01  0.15468644237E+02  0.46142321471E+02  0.10000033833E+02 0.  0.
         12    1    1    2    0    0 -0.42032597544E+02  0.48057198523E+01 -0.15468644237E+02  0.45045678529E+02  0.00000000000E+00 0. -1.
         11    1    3    3    0    0  0.57475396102E+01 -0.18226363624E+01  0.50521298865E+01  0.78663988922E+01  0.51100000000E-03 0. -1.
        -11    1    3    3    0    0  0.33157278447E+02 -0.20380342074E+01  0.10922784245E+02  0.34969499758E+02  0.51100000000E-03 0.  1.
         12    1    3    3    0    0  0.31277794868E+01 -0.94504928239E+00 -0.50626989447E+00  0.33064228209E+01  0.00000000000E+00 0. -1.
</event>
<event>
 7    1  0.2227287E-008  0.4614232E+02  0.7816164E-02  0.1320468E+00
        -11   -1    0    0    0    0  0.00000000000E+00  0.00000000000E+00  0.45593999997E+02  0.45594000000E+02  0.51100000000E-03 0. -1.
         11   -1    0    0    0    0 -0.00000000000E+00 -0.00000000000E+00 -0.45593999997E+02  0.45594000000E+02  0.51100000000E-03 0.  1.
    9900012    2    1    2    0    0  0.44510604151E+02  0.27487389951E+01 -0.63532602548E+01  0.46142319144E+02  0.10000012607E+02 0.  0.
         12    1    1    2    0    0 -0.44510604151E+02 -0.27487389951E+01  0.63532602548E+01  0.45045680856E+02  0.00000000000E+00 0. -1.
         11    1    3    3    0    0  0.35778187827E+02  0.54777739490E+01 -0.37710891422E+01  0.36391013248E+02  0.51100000000E-03 0. -1.
        -11    1    3    3    0    0  0.71537929734E+01 -0.13595558729E+01 -0.16690546099E+01  0.74706686200E+01  0.51100000000E-03 0.  1.
         12    1    3    3    0    0  0.15786233507E+01 -0.13694790810E+01 -0.91311650273E+00  0.22806372759E+01  0.00000000000E+00 0. -1.
</event>
<event>
 7    1  0.2227287E-008  0.4614232E+02  0.7816164E-02  0.1320468E+00
        -11   -1    0    0    0    0  0.00000000000E+00  0.00000000000E+00  0.45593999997E+02  0.45594000000E+02  0.51100000000E-03 0.  1.
         11   -1    0    0    0    0 -0.00000000000E+00 -0.00000000000E+00 -0.45593999997E+02  0.45594000000E+02  0.51100000000E-03 0. -1.
    9900012    2    1    2    0    0  0.26321195619E+02 -0.11897109129E+02  0.34565401114E+02  0.46142317648E+02  0.99999989664E+01 0.  0.
         12    1    1    2    0    0 -0.26321195619E+02  0.11897109129E+02 -0.34565401114E+02  0.45045682352E+02  0.00000000000E+00 0. -1.
         11    1    3    3    0    0  0.79392482577E+00 -0.13185730206E+01  0.63335448192E+00  0.16643586154E+01  0.51100000000E-03 0. -1.
        -11    1    3    3    0    0  0.18833639285E+01 -0.89734215736E+00  0.72166018821E+01  0.75120986163E+01  0.51100000000E-03 0.  1.
         12    1    3    3    0    0  0.23643906864E+02 -0.96811939511E+01  0.26715444750E+02  0.36965860416E+02  0.00000000000E+00 0. -1.
</event>
<event>
 7    1  0.2227287E-008  0.4614232E+02  0.7816164E-02  0.1320468E+00
        -11   -1    0    0    0    0  0.00000000000E+00  0.00000000000E+00  0.45593999997E+02  0.45594000000E+02  0.51100000000E-03 0. -1.
         11   -1    0    0    0    0 -0.00000000000E+00 -0.00000000000E+00 -0.45593999997E+02  0.45594000000E+02  0.51100000000E-03 0.  1.
    9900012    2    1    2    0    0  0.35283834410E+02  0.12052609224E+02 -0.25276453885E+02  0.46142317845E+02  0.10000000764E+02 0.  0.
         12    1    1    2    0    0 -0.35283834410E+02 -0.12052609224E+02  0.25276453885E+02  0.45045682155E+02  0.00000000000E+00 0. -1.
         11    1    3    3    0    0  0.71334954416E+00  0.72317652792E+00 -0.33056771330E+01  0.34582298118E+01  0.51100000000E-03 0. -1.
        -11    1    3    3    0    0  0.17917574630E+02  0.77734320949E+01 -0.12677686070E+02  0.23284961918E+02  0.51100000000E-03 0.  1.
        -12    1    3    3    0    0  0.16652910236E+02  0.35560006014E+01 -0.92930906823E+01  0.19399126115E+02  0.00000000000E+00 0.  1.
</event>
<event>
 7    1  0.2227287E-008  0.4614232E+02  0.7816164E-02  0.1320468E+00
        -11   -1    0    0    0    0  0.00000000000E+00  0.00000000000E+00  0.45593999997E+02  0.45594000000E+02  0.51100000000E-03 0.  1.
         11   -1    0    0    0    0 -0.00000000000E+00 -0.00000000000E+00 -0.45593999997E+02  0.45594000000E+02  0.51100000000E-03 0. -1.
    9900012    2    1    2    0    0  0.10782173079E+02  0.14247275621E+01  0.43713023207E+02  0.46142317601E+02  0.99999985357E+01 0.  0.
         12    1    1    2    0    0 -0.10782173079E+02 -0.14247275621E+01 -0.43713023207E+02  0.45045682399E+02  0.00000000000E+00 0. -1.
         11    1    3    3    0    0  0.73128172153E+01  0.22809927398E+01  0.23492337738E+02  0.24709717848E+02  0.51100000000E-03 0. -1.
        -11    1    3    3    0    0  0.13976332666E+01  0.10406666074E+01  0.17273620659E+02  0.17361288451E+02  0.51100000000E-03 0.  1.
         12    1    3    3    0    0  0.20717225966E+01 -0.18969317852E+01  0.29470648100E+01  0.40713113009E+01  0.00000000000E+00 0. -1.
</event>
<event>
 7    1  0.2227287E-008  0.4614232E+02  0.7816164E-02  0.1320468E+00
        -11   -1    0    0    0    0  0.00000000000E+00  0.00000000000E+00  0.45593999997E+02  0.45594000000E+02  0.51100000000E-03 0.  1.
         11   -1    0    0    0    0 -0.00000000000E+00 -0.00000000000E+00 -0.45593999997E+02  0.45594000000E+02  0.51100000000E-03 0. -1.
    9900012    2    1    2    0    0  0.36435964103E+02  0.21282589215E+02  0.15766590962E+02  0.46142317916E+02  0.10000001416E+02 0.  0.
         12    1    1    2    0    0 -0.36435964103E+02 -0.21282589215E+02 -0.15766590962E+02  0.45045682084E+02  0.00000000000E+00 0. -1.
         11    1    3    3    0    0  0.33024077129E+01  0.17506230498E+01  0.31976417277E+01  0.49188912008E+01  0.51100000000E-03 0.  1.
        -11    1    3    3    0    0  0.29098704048E+01  0.18268743123E+01 -0.11231288050E+01  0.36147246229E+01  0.51100000000E-03 0. -1.
        -12    1    3    3    0    0  0.30223685985E+02  0.17705091853E+02  0.13692078039E+02  0.37608702093E+02  0.00000000000E+00 0.  1.
</event>
<event>
 7    1  0.2227287E-008  0.4614232E+02  0.7816164E-02  0.1320468E+00
        -11   -1    0    0    0    0  0.00000000000E+00  0.00000000000E+00  0.45593999997E+02  0.45594000000E+02  0.51100000000E-03 0.  1.
         11   -1    0    0    0    0 -0.00000000000E+00 -0.00000000000E+00 -0.45593999997E+02  0.45594000000E+02  0.51100000000E-03 0. -1.
    9900012    2    1    2    0    0 -0.34703517455E+02  0.39592131523E+01  0.28444752995E+02  0.46142318015E+02  0.10000002315E+02 0.  0.
         12    1    1    2    0    0  0.34703517455E+02 -0.39592131523E+01 -0.28444752995E+02  0.45045681985E+02  0.00000000000E+00 0. -1.
         11    1    3    3    0    0 -0.14669190952E+02 -0.76007321148E+00  0.12055729514E+02  0.19002723195E+02  0.51100000000E-03 0. -1.
        -11    1    3    3    0    0 -0.81802541778E+01  0.17282730333E+01  0.10902610026E+02  0.13739373775E+02  0.51100000000E-03 0.  1.
        -12    1    3    3    0    0 -0.11854072325E+02  0.29910133305E+01  0.54864134551E+01  0.13400221044E+02  0.00000000000E+00 0.  1.
</event>
<event>
 7    1  0.2227287E-008  0.4614232E+02  0.7816164E-02  0.1320468E+00
        -11   -1    0    0    0    0  0.00000000000E+00  0.00000000000E+00  0.45593999997E+02  0.45594000000E+02  0.51100000000E-03 0. -1.
         11   -1    0    0    0    0 -0.00000000000E+00 -0.00000000000E+00 -0.45593999997E+02  0.45594000000E+02  0.51100000000E-03 0.  1.
    9900012    2    1    2    0    0 -0.32017193210E+02  0.27144768216E+02 -0.16345471003E+02  0.46142317356E+02  0.99999963019E+01 0.  0.
         12    1    1    2    0    0  0.32017193210E+02 -0.27144768216E+02  0.16345471003E+02  0.45045682644E+02  0.00000000000E+00 0. -1.
         11    1    3    3    0    0 -0.10919724082E+01 -0.18652036981E+00  0.41015248010E+00  0.11812785051E+01  0.51100000000E-03 0. -1.
        -11    1    3    3    0    0 -0.19467099047E+02  0.17914272305E+02 -0.75763279033E+01  0.27518899728E+02  0.51100000000E-03 0.  1.
        -12    1    3    3    0    0 -0.11458121755E+02  0.94170162815E+01 -0.91792955801E+01  0.17442139122E+02  0.00000000000E+00 0.  1.
</event>
<event>
 7    1  0.2227287E-008  0.4614232E+02  0.7816164E-02  0.1320468E+00
        -11   -1    0    0    0    0  0.00000000000E+00  0.00000000000E+00  0.45593999997E+02  0.45594000000E+02  0.51100000000E-03 0.  1.
         11   -1    0    0    0    0 -0.00000000000E+00 -0.00000000000E+00 -0.45593999997E+02  0.45594000000E+02  0.51100000000E-03 0. -1.
    9900012    2    1    2    0    0  0.16802149708E+02 -0.41629940151E+02  0.37080054120E+01  0.46142318122E+02  0.10000003289E+02 0.  0.
         12    1    1    2    0    0 -0.16802149708E+02  0.41629940151E+02 -0.37080054120E+01  0.45045681878E+02  0.00000000000E+00 0. -1.
         11    1    3    3    0    0  0.20461984976E+01 -0.92387349246E+01  0.43950152661E+01  0.10433470695E+02  0.51100000000E-03 0. -1.
        -11    1    3    3    0    0 -0.43506521147E-01 -0.17988426297E+00 -0.17793603088E+00  0.25673460548E+00  0.51100000000E-03 0.  1.
        -12    1    3    3    0    0  0.14799457731E+02 -0.32211320963E+02 -0.50907382323E+00  0.35452112821E+02  0.00000000000E+00 0.  1.
</event>
<event>
 7    1  0.2227287E-008  0.4614232E+02  0.7816164E-02  0.1320468E+00
        -11   -1    0    0    0    0  0.00000000000E+00  0.00000000000E+00  0.45593999997E+02  0.45594000000E+02  0.51100000000E-03 0. -1.
         11   -1    0    0    0    0 -0.00000000000E+00 -0.00000000000E+00 -0.45593999997E+02  0.45594000000E+02  0.51100000000E-03 0.  1.
    9900012    2    1    2    0    0  0.88853951776E+01 -0.17947111770E+02 -0.40349281163E+02  0.46142316980E+02  0.99999928775E+01 0.  0.
         12    1    1    2    0    0 -0.88853951776E+01  0.17947111770E+02  0.40349281163E+02  0.45045683020E+02  0.00000000000E+00 0. -1.
         11    1    3    3    0    0  0.72049655777E+01 -0.82604111534E+01 -0.24396152410E+02  0.26745432770E+02  0.51100000000E-03 0. -1.
        -11    1    3    3    0    0 -0.35122221886E+00 -0.63819144750E+01 -0.13117062596E+02  0.14591419425E+02  0.51100000000E-03 0.  1.
         12    1    3    3    0    0  0.20316518188E+01 -0.33047861414E+01 -0.28360661573E+01  0.48054647852E+01  0.00000000000E+00 0. -1.
</event>
<event>
 7    1  0.2227287E-008  0.4614231E+02  0.7816164E-02  0.1320468E+00
        -11   -1    0    0    0    0  0.00000000000E+00  0.00000000000E+00  0.45593999997E+02  0.45594000000E+02  0.51100000000E-03 0. -1.
         11   -1    0    0    0    0 -0.00000000000E+00 -0.00000000000E+00 -0.45593999997E+02  0.45594000000E+02  0.51100000000E-03 0.  1.
    9900012    2    1    2    0    0  0.57268531460E+01 -0.15311236769E+02 -0.41974789338E+02  0.46142314765E+02  0.99999726777E+01 0.  0.
         12    1    1    2    0    0 -0.57268531460E+01  0.15311236769E+02  0.41974789338E+02  0.45045685235E+02  0.00000000000E+00 0. -1.
         11    1    3    3    0    0  0.28034290416E+01 -0.30059578239E+01 -0.48563791801E+01  0.63623435802E+01  0.51100000000E-03 0. -1.
        -11    1    3    3    0    0  0.48835409523E+01 -0.10239451332E+02 -0.27476485944E+02  0.29726295025E+02  0.51100000000E-03 0.  1.
        -12    1    3    3    0    0 -0.19601168479E+01 -0.20658276133E+01 -0.96419242134E+01  0.10053676160E+02  0.00000000000E+00 0.  1.
</event>
<event>
 7    1  0.2227287E-008  0.4614232E+02  0.7816164E-02  0.1320468E+00
        -11   -1    0    0    0    0  0.00000000000E+00  0.00000000000E+00  0.45593999997E+02  0.45594000000E+02  0.51100000000E-03 0.  1.
         11   -1    0    0    0    0 -0.00000000000E+00 -0.00000000000E+00 -0.45593999997E+02  0.45594000000E+02  0.51100000000E-03 0. -1.
    9900012    2    1    2    0    0 -0.71633962500E+01  0.34833093808E+02  0.27648775734E+02  0.46142317969E+02  0.10000001899E+02 0.  0.
         12    1    1    2    0    0  0.71633962500E+01 -0.34833093808E+02 -0.27648775734E+02  0.45045682031E+02  0.00000000000E+00 0. -1.
         11    1    3    3    0    0 -0.47332151450E+01  0.12046152019E+02  0.13986067724E+02  0.19055791631E+02  0.51100000000E-03 0. -1.
        -11    1    3    3    0    0 -0.36977171722E+01  0.19455400847E+02  0.11973991599E+02  0.23142217039E+02  0.51100000000E-03 0.  1.
         12    1    3    3    0    0  0.12675360672E+01  0.33315409418E+01  0.16887164104E+01  0.39443092986E+01  0.00000000000E+00 0. -1.
</event>
<event>
 7    1  0.2227287E-008  0.4614232E+02  0.7816164E-02  0.1320468E+00
        -11   -1    0    0    0    0  0.00000000000E+00  0.00000000000E+00  0.45593999997E+02  0.45594000000E+02  0.51100000000E-03 0. -1.
         11   -1    0    0    0    0 -0.00000000000E+00 -0.00000000000E+00 -0.45593999997E+02  0.45594000000E+02  0.51100000000E-03 0.  1.
    9900012    2    1    2    0    0 -0.43726765789E+02  0.10191484442E+02  0.36355305279E+01  0.46142317813E+02  0.10000000473E+02 0.  0.
         12    1    1    2    0    0  0.43726765789E+02 -0.10191484442E+02 -0.36355305279E+01  0.45045682187E+02  0.00000000000E+00 0. -1.
         11    1    3    3    0    0 -0.27212296509E+01 -0.37580319830E+00  0.13006163698E+01  0.30393950153E+01  0.51100000000E-03 0. -1.
        -11    1    3    3    0    0 -0.18943032876E+02  0.35514716230E+01  0.46804572313E+01  0.19833258063E+02  0.51100000000E-03 0.  1.
        -12    1    3    3    0    0 -0.22062503262E+02  0.70158160174E+01 -0.23455430731E+01  0.23269664735E+02  0.00000000000E+00 0.  1.
</event>
<event>
 7    1  0.2227287E-008  0.4614232E+02  0.7816164E-02  0.1320468E+00
        -11   -1    0    0    0    0  0.00000000000E+00  0.00000000000E+00  0.45593999997E+02  0.45594000000E+02  0.51100000000E-03 0. -1.
         11   -1    0    0    0    0 -0.00000000000E+00 -0.00000000000E+00 -0.45593999997E+02  0.45594000000E+02  0.51100000000E-03 0.  1.
    9900012    2    1    2    0    0 -0.40976045131E+02  0.76059901077E+01  0.17094617501E+02  0.46142319767E+02  0.10000018296E+02 0.  0.
         12    1    1    2    0    0  0.40976045131E+02 -0.76059901077E+01 -0.17094617501E+02  0.45045680233E+02  0.00000000000E+00 0. -1.
         11    1    3    3    0    0 -0.18073499507E+01 -0.72217115723E-01 -0.75032344894E+00  0.19582427570E+01  0.51100000000E-03 0. -1.
        -11    1    3    3    0    0 -0.26466180449E+02  0.63503509085E+01  0.90719168267E+01  0.28689463910E+02  0.51100000000E-03 0.  1.
        -12    1    3    3    0    0 -0.12702514731E+02  0.13278563150E+01  0.87730241232E+01  0.15494613101E+02  0.00000000000E+00 0.  1.
</event>
<event>
 7    1  0.2227287E-008  0.4614232E+02  0.7816164E-02  0.1320468E+00
        -11   -1    0    0    0    0  0.00000000000E+00  0.00000000000E+00  0.45593999997E+02  0.45594000000E+02  0.51100000000E-03 0.  1.
         11   -1    0    0    0    0 -0.00000000000E+00 -0.00000000000E+00 -0.45593999997E+02  0.45594000000E+02  0.51100000000E-03 0. -1.
    9900012    2    1    2    0    0  0.26377717851E+02  0.30011233419E+02  0.20800367947E+02  0.46142318331E+02  0.10000005194E+02 0.  0.
         12    1    1    2    0    0 -0.26377717851E+02 -0.30011233419E+02 -0.20800367947E+02  0.45045681669E+02  0.00000000000E+00 0. -1.
         11    1    3    3    0    0  0.98904920550E+01  0.11228420475E+02  0.39427358018E+01  0.15473991900E+02  0.51100000000E-03 0. -1.
        -11    1    3    3    0    0  0.13608587001E+02  0.16843807010E+02  0.12183322325E+02  0.24846344155E+02  0.51100000000E-03 0.  1.
        -12    1    3    3    0    0  0.28786387946E+01  0.19390059342E+01  0.46743098204E+01  0.58219822758E+01  0.00000000000E+00 0.  1.
</event>
<event>
 7    1  0.2227287E-008  0.4614232E+02  0.7816164E-02  0.1320468E+00
        -11   -1    0    0    0    0  0.00000000000E+00  0.00000000000E+00  0.45593999997E+02  0.45594000000E+02  0.51100000000E-03 0. -1.
         11   -1    0    0    0    0 -0.00000000000E+00 -0.00000000000E+00 -0.45593999997E+02  0.45594000000E+02  0.51100000000E-03 0.  1.
    9900012    2    1    2    0    0  0.32809797968E+02 -0.27753654939E+02  0.13504270866E+02  0.46142317224E+02  0.99999950999E+01 0.  0.
         12    1    1    2    0    0 -0.32809797968E+02  0.27753654939E+02 -0.13504270866E+02  0.45045682776E+02  0.00000000000E+00 0. -1.
         11    1    3    3    0    0  0.13212345456E+02 -0.10771943647E+02  0.74237105449E+01  0.18593340767E+02  0.51100000000E-03 0. -1.
        -11    1    3    3    0    0  0.18750722643E+02 -0.14194334164E+02  0.37419141830E+01  0.23813245138E+02  0.51100000000E-03 0.  1.
         12    1    3    3    0    0  0.84672986916E+00 -0.27873771276E+01  0.23386461377E+01  0.37357313180E+01  0.00000000000E+00 0. -1.
</event>
<event>
 7    1  0.2227287E-008  0.4614232E+02  0.7816164E-02  0.1320468E+00
        -11   -1    0    0    0    0  0.00000000000E+00  0.00000000000E+00  0.45593999997E+02  0.45594000000E+02  0.51100000000E-03 0.  1.
         11   -1    0    0    0    0 -0.00000000000E+00 -0.00000000000E+00 -0.45593999997E+02  0.45594000000E+02  0.51100000000E-03 0. -1.
    9900012    2    1    2    0    0  0.32092844252E+01 -0.34509240693E+02  0.28773709552E+02  0.46142316954E+02  0.99999926394E+01 0.  0.
         12    1    1    2    0    0 -0.32092844252E+01  0.34509240693E+02 -0.28773709552E+02  0.45045683046E+02  0.00000000000E+00 0. -1.
         11    1    3    3    0    0  0.70881103606E+00 -0.17521260106E+01  0.47104484259E+01  0.50754983279E+01  0.51100000000E-03 0. -1.
        -11    1    3    3    0    0 -0.11211225388E+01 -0.56975183961E+01  0.58856986522E+01  0.82680155120E+01  0.51100000000E-03 0.  1.
         12    1    3    3    0    0  0.36215959279E+01 -0.27059596286E+02  0.18177562474E+02  0.32798803114E+02  0.00000000000E+00 0. -1.
</event>
<event>
 7    1  0.2227287E-008  0.4614232E+02  0.7816164E-02  0.1320468E+00
        -11   -1    0    0    0    0  0.00000000000E+00  0.00000000000E+00  0.45593999997E+02  0.45594000000E+02  0.51100000000E-03 0.  1.
         11   -1    0    0    0    0 -0.00000000000E+00 -0.00000000000E+00 -0.45593999997E+02  0.45594000000E+02  0.51100000000E-03 0. -1.
    9900012    2    1    2    0    0  0.30939076167E+02  0.16317323218E+02  0.28383657652E+02  0.46142317712E+02  0.99999995546E+01 0.  0.
         12    1    1    2    0    0 -0.30939076167E+02 -0.16317323218E+02 -0.28383657652E+02  0.45045682288E+02  0.00000000000E+00 0. -1.
         11    1    3    3    0    0  0.22664361096E+02  0.15861145793E+02  0.23734803658E+02  0.36449830105E+02  0.51100000000E-03 0. -1.
        -11    1    3    3    0    0  0.23760952112E+01 -0.68992539233E+00  0.10462667603E+01  0.26863543874E+01  0.51100000000E-03 0.  1.
         12    1    3    3    0    0  0.58986198598E+01  0.11461028175E+01  0.36025872344E+01  0.70061332203E+01  0.00000000000E+00 0. -1.
</event>
<event>
 7    1  0.2227287E-008  0.4614232E+02  0.7816164E-02  0.1320468E+00
        -11   -1    0    0    0    0  0.00000000000E+00  0.00000000000E+00  0.45593999997E+02  0.45594000000E+02  0.51100000000E-03 0.  1.
         11   -1    0    0    0    0 -0.00000000000E+00 -0.00000000000E+00 -0.45593999997E+02  0.45594000000E+02  0.51100000000E-03 0. -1.
    9900012    2    1    2    0    0 -0.13876675573E+02  0.36338020678E+02  0.22717824005E+02  0.46142318750E+02  0.10000009018E+02 0.  0.
         12    1    1    2    0    0  0.13876675573E+02 -0.36338020678E+02 -0.22717824005E+02  0.45045681250E+02  0.00000000000E+00 0. -1.
         11    1    3    3    0    0  0.67244678044E+00  0.39659006020E+01  0.18997390278E+01  0.44485459301E+01  0.51100000000E-03 0.  1.
        -11    1    3    3    0    0 -0.20372393469E+01  0.12305885759E+02  0.74722379273E+01  0.14540271950E+02  0.51100000000E-03 0. -1.
        -12    1    3    3    0    0 -0.12511883006E+02  0.20066234317E+02  0.13345847050E+02  0.27153500870E+02  0.00000000000E+00 0.  1.
</event>
<event>
 7    1  0.2227287E-008  0.4614232E+02  0.7816164E-02  0.1320468E+00
        -11   -1    0    0    0    0  0.00000000000E+00  0.00000000000E+00  0.45593999997E+02  0.45594000000E+02  0.51100000000E-03 0.  1.
         11   -1    0    0    0    0 -0.00000000000E+00 -0.00000000000E+00 -0.45593999997E+02  0.45594000000E+02  0.51100000000E-03 0. -1.
    9900012    2    1    2    0    0  0.27656171841E+02 -0.21097666092E+02  0.28620590076E+02  0.46142317280E+02  0.99999956145E+01 0.  0.
         12    1    1    2    0    0 -0.27656171841E+02  0.21097666092E+02 -0.28620590076E+02  0.45045682720E+02  0.00000000000E+00 0. -1.
         11    1    3    3    0    0  0.10853130287E+01 -0.29113969848E+01  0.37239889948E+00  0.31293478513E+01  0.51100000000E-03 0. -1.
        -11    1    3    3    0    0  0.19261223048E+02 -0.12886551421E+02  0.17920175922E+02  0.29294890786E+02  0.51100000000E-03 0.  1.
        -12    1    3    3    0    0  0.73096357638E+01 -0.52997176855E+01  0.10328015254E+02  0.13718078642E+02  0.00000000000E+00 0.  1.
</event>
<event>
 7    1  0.2227287E-008  0.4614232E+02  0.7816164E-02  0.1320468E+00
        -11   -1    0    0    0    0  0.00000000000E+00  0.00000000000E+00  0.45593999997E+02  0.45594000000E+02  0.51100000000E-03 0.  1.
         11   -1    0    0    0    0 -0.00000000000E+00 -0.00000000000E+00 -0.45593999997E+02  0.45594000000E+02  0.51100000000E-03 0. -1.
    9900012    2    1    2    0    0  0.34197798892E+02  0.26646529369E+02 -0.12230546949E+02  0.46142320350E+02  0.10000023606E+02 0.  0.
         12    1    1    2    0    0 -0.34197798892E+02 -0.26646529369E+02  0.12230546949E+02  0.45045679650E+02  0.00000000000E+00 0. -1.
         11    1    3    3    0    0  0.20692633039E+02  0.19385434230E+02 -0.76469200099E+01  0.29367592824E+02  0.51100000000E-03 0. -1.
        -11    1    3    3    0    0  0.11694798680E+02  0.70151438872E+01 -0.22674064907E+01  0.13824676936E+02  0.51100000000E-03 0.  1.
         12    1    3    3    0    0  0.18103671729E+01  0.24595125198E+00 -0.23162204479E+01  0.29500505898E+01  0.00000000000E+00 0. -1.
</event>
<event>
 7    1  0.2227287E-008  0.4614232E+02  0.7816164E-02  0.1320468E+00
        -11   -1    0    0    0    0  0.00000000000E+00  0.00000000000E+00  0.45593999997E+02  0.45594000000E+02  0.51100000000E-03 0.  1.
         11   -1    0    0    0    0 -0.00000000000E+00 -0.00000000000E+00 -0.45593999997E+02  0.45594000000E+02  0.51100000000E-03 0. -1.
    9900012    2    1    2    0    0 -0.56115658617E+00  0.26017702100E+02  0.36767891608E+02  0.46142316826E+02  0.99999914746E+01 0.  0.
         12    1    1    2    0    0  0.56115658617E+00 -0.26017702100E+02 -0.36767891608E+02  0.45045683174E+02  0.00000000000E+00 0. -1.
         11    1    3    3    0    0  0.82482384817E+00  0.48162126829E+01  0.33957414095E+01  0.59504032610E+01  0.51100000000E-03 0. -1.
        -11    1    3    3    0    0 -0.17223863865E+01  0.12049658021E+02  0.12747979585E+02  0.17625885994E+02  0.51100000000E-03 0.  1.
        -12    1    3    3    0    0  0.33640595215E+00  0.91518313959E+01  0.20624170614E+02  0.22566027572E+02  0.00000000000E+00 0.  1.
</event>
<event>
 7    1  0.2227287E-008  0.4614232E+02  0.7816164E-02  0.1320468E+00
        -11   -1    0    0    0    0  0.00000000000E+00  0.00000000000E+00  0.45593999997E+02  0.45594000000E+02  0.51100000000E-03 0.  1.
         11   -1    0    0    0    0 -0.00000000000E+00 -0.00000000000E+00 -0.45593999997E+02  0.45594000000E+02  0.51100000000E-03 0. -1.
    9900012    2    1    2    0    0 -0.19610190570E+02  0.60292722073E+01  0.40102391410E+02  0.46142317694E+02  0.99999993919E+01 0.  0.
         12    1    1    2    0    0  0.19610190570E+02 -0.60292722073E+01 -0.40102391410E+02  0.45045682306E+02  0.00000000000E+00 0. -1.
         11    1    3    3    0    0 -0.31571942582E+01  0.15685931210E-01  0.19613001727E+01  0.37168293290E+01  0.51100000000E-03 0. -1.
        -11    1    3    3    0    0 -0.10395789833E+02  0.44870685363E+01  0.30632951751E+02  0.32658597085E+02  0.51100000000E-03 0.  1.
        -12    1    3    3    0    0 -0.60572064789E+01  0.15265177399E+01  0.75081394868E+01  0.97668912808E+01  0.00000000000E+00 0.  1.
</event>
<event>
 7    1  0.2227287E-008  0.4614232E+02  0.7816164E-02  0.1320468E+00
        -11   -1    0    0    0    0  0.00000000000E+00  0.00000000000E+00  0.45593999997E+02  0.45594000000E+02  0.51100000000E-03 0.  1.
         11   -1    0    0    0    0 -0.00000000000E+00 -0.00000000000E+00 -0.45593999997E+02  0.45594000000E+02  0.51100000000E-03 0. -1.
    9900012    2    1    2    0    0 -0.14329129461E+02 -0.27339368834E+02  0.32807750083E+02  0.46142317579E+02  0.99999983350E+01 0.  0.
         12    1    1    2    0    0  0.14329129461E+02  0.27339368834E+02 -0.32807750083E+02  0.45045682421E+02  0.00000000000E+00 0. -1.
         11    1    3    3    0    0 -0.17042316733E+01 -0.43184047217E+01  0.16487790683E+01  0.49266111693E+01  0.51100000000E-03 0. -1.
        -11    1    3    3    0    0 -0.67625761142E+01 -0.17960831740E+02  0.23230876561E+02  0.30132997504E+02  0.51100000000E-03 0.  1.
        -12    1    3    3    0    0 -0.58623216738E+01 -0.50601323720E+01  0.79280944530E+01  0.11082708906E+02  0.00000000000E+00 0.  1.
</event>
<event>
 7    1  0.2227287E-008  0.4614232E+02  0.7816164E-02  0.1320468E+00
        -11   -1    0    0    0    0  0.00000000000E+00  0.00000000000E+00  0.45593999997E+02  0.45594000000E+02  0.51100000000E-03 0.  1.
         11   -1    0    0    0    0 -0.00000000000E+00 -0.00000000000E+00 -0.45593999997E+02  0.45594000000E+02  0.51100000000E-03 0. -1.
    9900012    2    1    2    0    0 -0.14029501227E+02  0.15924157303E+02  0.39732953044E+02  0.46142320428E+02  0.10000024318E+02 0.  0.
         12    1    1    2    0    0  0.14029501227E+02 -0.15924157303E+02 -0.39732953044E+02  0.45045679572E+02  0.00000000000E+00 0. -1.
         11    1    3    3    0    0 -0.15648919763E+01  0.29725850763E+01  0.15452942379E+02  0.15813872940E+02  0.51100000000E-03 0. -1.
        -11    1    3    3    0    0 -0.17411041367E+01  0.72493818343E+00  0.20624910145E+01  0.27947895146E+01  0.51100000000E-03 0.  1.
        -12    1    3    3    0    0 -0.10723505114E+02  0.12226634043E+02  0.22217519650E+02  0.27533657973E+02  0.00000000000E+00 0.  1.
</event>
<event>
 7    1  0.2227287E-008  0.4614231E+02  0.7816164E-02  0.1320468E+00
        -11   -1    0    0    0    0  0.00000000000E+00  0.00000000000E+00  0.45593999997E+02  0.45594000000E+02  0.51100000000E-03 0.  1.
         11   -1    0    0    0    0 -0.00000000000E+00 -0.00000000000E+00 -0.45593999997E+02  0.45594000000E+02  0.51100000000E-03 0. -1.
    9900012    2    1    2    0    0  0.10867469394E+02  0.32092801346E+02  0.29682721647E+02  0.46142314817E+02  0.99999731542E+01 0.  0.
         12    1    1    2    0    0 -0.10867469394E+02 -0.32092801346E+02 -0.29682721647E+02  0.45045685183E+02  0.00000000000E+00 0. -1.
         11    1    3    3    0    0  0.30273247275E+00  0.32187198312E+01  0.45838422636E+01  0.56092258343E+01  0.51100000000E-03 0. -1.
        -11    1    3    3    0    0  0.35035465676E+01  0.17630576785E+02  0.18161657059E+02  0.25553040205E+02  0.51100000000E-03 0.  1.
         12    1    3    3    0    0  0.70611903540E+01  0.11243504729E+02  0.69372223240E+01  0.14980048778E+02  0.00000000000E+00 0. -1.
</event>
<event>
 7    1  0.2227287E-008  0.4614232E+02  0.7816164E-02  0.1320468E+00
        -11   -1    0    0    0    0  0.00000000000E+00  0.00000000000E+00  0.45593999997E+02  0.45594000000E+02  0.51100000000E-03 0.  1.
         11   -1    0    0    0    0 -0.00000000000E+00 -0.00000000000E+00 -0.45593999997E+02  0.45594000000E+02  0.51100000000E-03 0. -1.
    9900012    2    1    2    0    0  0.38415333000E+02  0.82158350029E+01  0.22042577606E+02  0.46142323384E+02  0.10000051270E+02 0.  0.
         12    1    1    2    0    0 -0.38415333000E+02 -0.82158350029E+01 -0.22042577606E+02  0.45045676616E+02  0.00000000000E+00 0. -1.
         11    1    3    3    0    0  0.11706620802E+01 -0.12173718313E+01  0.54668986665E+00  0.17751940607E+01  0.51100000000E-03 0. -1.
        -11    1    3    3    0    0  0.23439774346E+02  0.86196169523E+01  0.13383407877E+02  0.28334368256E+02  0.51100000000E-03 0.  1.
        -12    1    3    3    0    0  0.13804896574E+02  0.81358988190E+00  0.81124798625E+01  0.16032761067E+02  0.00000000000E+00 0.  1.
</event>
<event>
 7    1  0.2227287E-008  0.4614232E+02  0.7816164E-02  0.1320468E+00
        -11   -1    0    0    0    0  0.00000000000E+00  0.00000000000E+00  0.45593999997E+02  0.45594000000E+02  0.51100000000E-03 0.  1.
         11   -1    0    0    0    0 -0.00000000000E+00 -0.00000000000E+00 -0.45593999997E+02  0.45594000000E+02  0.51100000000E-03 0. -1.
    9900012    2    1    2    0    0 -0.71493447478E+01  0.32646014448E+02  0.30203281843E+02  0.46142316258E+02  0.99999862937E+01 0.  0.
         12    1    1    2    0    0  0.71493447478E+01 -0.32646014448E+02 -0.30203281843E+02  0.45045683742E+02  0.00000000000E+00 0. -1.
         11    1    3    3    0    0 -0.19151913505E+01  0.99165490098E+01  0.46286524241E+01  0.11109920148E+02  0.51100000000E-03 0. -1.
        -11    1    3    3    0    0 -0.24625671820E+01  0.19078376282E+02  0.19181686411E+02  0.27165893552E+02  0.51100000000E-03 0.  1.
         12    1    3    3    0    0 -0.27715862153E+01  0.36510891564E+01  0.63929430086E+01  0.78665025575E+01  0.00000000000E+00 0. -1.
</event>
<event>
 7    1  0.2227287E-008  0.4614232E+02  0.7816164E-02  0.1320468E+00
        -11   -1    0    0    0    0  0.00000000000E+00  0.00000000000E+00  0.45593999997E+02  0.45594000000E+02  0.51100000000E-03 0.  1.
         11   -1    0    0    0    0 -0.00000000000E+00 -0.00000000000E+00 -0.45593999997E+02  0.45594000000E+02  0.51100000000E-03 0. -1.
    9900012    2    1    2    0    0  0.30032072038E+02  0.25280468356E+02  0.22092670166E+02  0.46142317562E+02  0.99999981886E+01 0.  0.
         12    1    1    2    0    0 -0.30032072038E+02 -0.25280468356E+02 -0.22092670166E+02  0.45045682438E+02  0.00000000000E+00 0. -1.
         11    1    3    3    0    0  0.32811167286E+01  0.41846664659E+01  0.62740401508E+01  0.82243990962E+01  0.51100000000E-03 0. -1.
        -11    1    3    3    0    0  0.23538114812E+02  0.19304019390E+02  0.15665853892E+02  0.34236048135E+02  0.51100000000E-03 0.  1.
         12    1    3    3    0    0  0.32128404975E+01  0.17917825002E+01  0.15277612349E+00  0.36818703310E+01  0.00000000000E+00 0. -1.
</event>
<event>
 7    1  0.2227287E-008  0.4614232E+02  0.7816164E-02  0.1320468E+00
        -11   -1    0    0    0    0  0.00000000000E+00  0.00000000000E+00  0.45593999997E+02  0.45594000000E+02  0.51100000000E-03 0. -1.
         11   -1    0    0    0    0 -0.00000000000E+00 -0.00000000000E+00 -0.45593999997E+02  0.45594000000E+02  0.51100000000E-03 0.  1.
    9900012    2    1    2    0    0 -0.38759641460E+02  0.21317991223E+02  0.85057011129E+01  0.46142317551E+02  0.99999980839E+01 0.  0.
         12    1    1    2    0    0  0.38759641460E+02 -0.21317991223E+02 -0.85057011129E+01  0.45045682449E+02  0.00000000000E+00 0. -1.
         11    1    3    3    0    0 -0.11764673636E+02  0.89131937775E+01 -0.13806944372E+00  0.14760475348E+02  0.51100000000E-03 0. -1.
        -11    1    3    3    0    0 -0.91589906194E+01  0.27729026436E+01  0.64852415387E+00  0.95914900864E+01  0.51100000000E-03 0.  1.
         12    1    3    3    0    0 -0.17835977205E+02  0.96318948015E+01  0.79952464027E+01  0.21790352116E+02  0.00000000000E+00 0. -1.
</event>
<event>
 7    1  0.2227287E-008  0.4614231E+02  0.7816164E-02  0.1320468E+00
        -11   -1    0    0    0    0  0.00000000000E+00  0.00000000000E+00  0.45593999997E+02  0.45594000000E+02  0.51100000000E-03 0.  1.
         11   -1    0    0    0    0 -0.00000000000E+00 -0.00000000000E+00 -0.45593999997E+02  0.45594000000E+02  0.51100000000E-03 0. -1.
    9900012    2    1    2    0    0  0.36636562120E+02 -0.23520780930E+02  0.11560687197E+02  0.46142308663E+02  0.99999170375E+01 0.  0.
         12    1    1    2    0    0 -0.36636562120E+02  0.23520780930E+02 -0.11560687197E+02  0.45045691337E+02  0.00000000000E+00 0. -1.
         11    1    3    3    0    0  0.45541354381E+01 -0.14256638654E+01  0.27502410693E+01  0.55078574098E+01  0.51100000000E-03 0. -1.
        -11    1    3    3    0    0  0.14129379521E+02 -0.63085926936E+01  0.10899931982E+01  0.15512117613E+02  0.51100000000E-03 0.  1.
        -12    1    3    3    0    0  0.17953047162E+02 -0.15786524371E+02  0.77204529291E+01  0.25122333640E+02  0.00000000000E+00 0.  1.
</event>
<event>
 7    1  0.2227287E-008  0.4614232E+02  0.7816164E-02  0.1320468E+00
        -11   -1    0    0    0    0  0.00000000000E+00  0.00000000000E+00  0.45593999997E+02  0.45594000000E+02  0.51100000000E-03 0. -1.
         11   -1    0    0    0    0 -0.00000000000E+00 -0.00000000000E+00 -0.45593999997E+02  0.45594000000E+02  0.51100000000E-03 0.  1.
    9900012    2    1    2    0    0 -0.69686914024E+01  0.36521013657E+02 -0.25431602073E+02  0.46142317828E+02  0.10000000606E+02 0.  0.
         12    1    1    2    0    0  0.69686914024E+01 -0.36521013657E+02  0.25431602073E+02  0.45045682172E+02  0.00000000000E+00 0. -1.
         11    1    3    3    0    0 -0.32806869692E+01  0.18853789272E+02 -0.10632779946E+02  0.21892562357E+02  0.51100000000E-03 0.  1.
        -11    1    3    3    0    0  0.13403204543E+01  0.86943332537E+01 -0.54379706948E+01  0.10342118506E+02  0.51100000000E-03 0. -1.
         12    1    3    3    0    0 -0.50283248875E+01  0.89728911314E+01 -0.93608514315E+01  0.13907636965E+02  0.00000000000E+00 0. -1.
</event>
<event>
 7    1  0.2227287E-008  0.4614232E+02  0.7816164E-02  0.1320468E+00
        -11   -1    0    0    0    0  0.00000000000E+00  0.00000000000E+00  0.45593999997E+02  0.45594000000E+02  0.51100000000E-03 0.  1.
         11   -1    0    0    0    0 -0.00000000000E+00 -0.00000000000E+00 -0.45593999997E+02  0.45594000000E+02  0.51100000000E-03 0. -1.
    9900012    2    1    2    0    0  0.30196703341E+02 -0.15598014844E+02  0.29563060074E+02  0.46142317847E+02  0.10000000781E+02 0.  0.
         12    1    1    2    0    0 -0.30196703341E+02  0.15598014844E+02 -0.29563060074E+02  0.45045682153E+02  0.00000000000E+00 0. -1.
         11    1    3    3    0    0  0.24831543636E+01 -0.13968166573E+01  0.61131689574E+00  0.29139081962E+01  0.51100000000E-03 0. -1.
        -11    1    3    3    0    0  0.12248280063E+02 -0.73940382764E+01  0.82829791120E+01  0.16531784833E+02  0.51100000000E-03 0.  1.
        -12    1    3    3    0    0  0.15465268914E+02 -0.68071599106E+01  0.20668764066E+02  0.26696624818E+02  0.00000000000E+00 0.  1.
</event>
<event>
 7    1  0.2227287E-008  0.4614232E+02  0.7816164E-02  0.1320468E+00
        -11   -1    0    0    0    0  0.00000000000E+00  0.00000000000E+00  0.45593999997E+02  0.45594000000E+02  0.51100000000E-03 0. -1.
         11   -1    0    0    0    0 -0.00000000000E+00 -0.00000000000E+00 -0.45593999997E+02  0.45594000000E+02  0.51100000000E-03 0.  1.
    9900012    2    1    2    0    0  0.11973262471E+02 -0.18366792629E+02 -0.39349909721E+02  0.46142317846E+02  0.10000000774E+02 0.  0.
         12    1    1    2    0    0 -0.11973262471E+02  0.18366792629E+02  0.39349909721E+02  0.45045682154E+02  0.00000000000E+00 0. -1.
         11    1    3    3    0    0  0.41667393692E+01 -0.60157743218E+01 -0.94857652514E+01  0.11980442410E+02  0.51100000000E-03 0. -1.
        -11    1    3    3    0    0  0.81109310707E+01 -0.84438816962E+01 -0.16479856698E+02  0.20215637956E+02  0.51100000000E-03 0.  1.
        -12    1    3    3    0    0 -0.30440796843E+00 -0.39071366111E+01 -0.13384287771E+02  0.13946237480E+02  0.00000000000E+00 0.  1.
</event>
<event>
 7    1  0.2227287E-008  0.4614232E+02  0.7816164E-02  0.1320468E+00
        -11   -1    0    0    0    0  0.00000000000E+00  0.00000000000E+00  0.45593999997E+02  0.45594000000E+02  0.51100000000E-03 0. -1.
         11   -1    0    0    0    0 -0.00000000000E+00 -0.00000000000E+00 -0.45593999997E+02  0.45594000000E+02  0.51100000000E-03 0.  1.
    9900012    2    1    2    0    0  0.15837796654E+02 -0.69308851553E+01 -0.41596158449E+02  0.46142319080E+02  0.10000012023E+02 0.  0.
         12    1    1    2    0    0 -0.15837796654E+02  0.69308851553E+01  0.41596158449E+02  0.45045680920E+02  0.00000000000E+00 0. -1.
         11    1    3    3    0    0  0.51569069691E+01  0.38134580800E+00 -0.65409371779E+01  0.83380437477E+01  0.51100000000E-03 0. -1.
        -11    1    3    3    0    0  0.10478297304E+02 -0.62240831366E+01 -0.26385842990E+02  0.29064525385E+02  0.51100000000E-03 0.  1.
         12    1    3    3    0    0  0.20259238147E+00 -0.10881478267E+01 -0.86693782804E+01  0.87397499469E+01  0.00000000000E+00 0. -1.
</event>
<event>
 7    1  0.2227287E-008  0.4614232E+02  0.7816164E-02  0.1320468E+00
        -11   -1    0    0    0    0  0.00000000000E+00  0.00000000000E+00  0.45593999997E+02  0.45594000000E+02  0.51100000000E-03 0.  1.
         11   -1    0    0    0    0 -0.00000000000E+00 -0.00000000000E+00 -0.45593999997E+02  0.45594000000E+02  0.51100000000E-03 0. -1.
    9900012    2    1    2    0    0 -0.19059718486E+02 -0.36689927503E+02  0.17879873634E+02  0.46142317298E+02  0.99999957739E+01 0.  0.
         12    1    1    2    0    0  0.19059718486E+02  0.36689927503E+02 -0.17879873634E+02  0.45045682702E+02  0.00000000000E+00 0. -1.
         11    1    3    3    0    0 -0.84278373051E+01 -0.88419361127E+01  0.46950645624E+01  0.13086325205E+02  0.51100000000E-03 0. -1.
        -11    1    3    3    0    0 -0.61381089805E+01 -0.90237383693E+01  0.56339474276E+01  0.12281921669E+02  0.51100000000E-03 0.  1.
         12    1    3    3    0    0 -0.44937722007E+01 -0.18824253021E+02  0.75508616442E+01  0.20774070423E+02  0.00000000000E+00 0. -1.
</event>
<event>
 7    1  0.2227287E-008  0.4614232E+02  0.7816164E-02  0.1320468E+00
        -11   -1    0    0    0    0  0.00000000000E+00  0.00000000000E+00  0.45593999997E+02  0.45594000000E+02  0.51100000000E-03 0. -1.
         11   -1    0    0    0    0 -0.00000000000E+00 -0.00000000000E+00 -0.45593999997E+02  0.45594000000E+02  0.51100000000E-03 0.  1.
    9900012    2    1    2    0    0 -0.18462168423E+02  0.15412162590E+02 -0.38088411582E+02  0.46142317461E+02  0.99999972616E+01 0.  0.
         12    1    1    2    0    0  0.18462168423E+02 -0.15412162590E+02  0.38088411582E+02  0.45045682539E+02  0.00000000000E+00 0. -1.
         11    1    3    3    0    0 -0.58623241954E+01  0.55100705571E+01 -0.56992677717E+01  0.98594815234E+01  0.51100000000E-03 0. -1.
        -11    1    3    3    0    0 -0.31528439513E+01  0.38974620350E+01 -0.78948893482E+01  0.93520005013E+01  0.51100000000E-03 0.  1.
        -12    1    3    3    0    0 -0.94470002765E+01  0.60046299983E+01 -0.24494254462E+02  0.26930835436E+02  0.00000000000E+00 0.  1.
</event>
<event>
 7    1  0.2227287E-008  0.4614232E+02  0.7816164E-02  0.1320468E+00
        -11   -1    0    0    0    0  0.00000000000E+00  0.00000000000E+00  0.45593999997E+02  0.45594000000E+02  0.51100000000E-03 0.  1.
         11   -1    0    0    0    0 -0.00000000000E+00 -0.00000000000E+00 -0.45593999997E+02  0.45594000000E+02  0.51100000000E-03 0. -1.
    9900012    2    1    2    0    0 -0.44478634000E+02 -0.59818181978E+01  0.38707143736E+01  0.46142318063E+02  0.10000002752E+02 0.  0.
         12    1    1    2    0    0  0.44478634000E+02  0.59818181978E+01 -0.38707143736E+01  0.45045681937E+02  0.00000000000E+00 0. -1.
         11    1    3    3    0    0 -0.20127783043E+02  0.10380230505E+01 -0.15755745482E+01  0.20216022791E+02  0.51100000000E-03 0. -1.
        -11    1    3    3    0    0 -0.10189384878E+02 -0.28872830238E+01  0.25329291090E+01  0.10889246878E+02  0.51100000000E-03 0.  1.
         12    1    3    3    0    0 -0.14161466079E+02 -0.41325582246E+01  0.29133598128E+01  0.15037048393E+02  0.00000000000E+00 0. -1.
</event>
<event>
 7    1  0.2227287E-008  0.4614232E+02  0.7816164E-02  0.1320468E+00
        -11   -1    0    0    0    0  0.00000000000E+00  0.00000000000E+00  0.45593999997E+02  0.45594000000E+02  0.51100000000E-03 0. -1.
         11   -1    0    0    0    0 -0.00000000000E+00 -0.00000000000E+00 -0.45593999997E+02  0.45594000000E+02  0.51100000000E-03 0.  1.
    9900012    2    1    2    0    0 -0.31029572351E+02  0.28139244355E+02 -0.16566896736E+02  0.46142317626E+02  0.99999987640E+01 0.  0.
         12    1    1    2    0    0  0.31029572351E+02 -0.28139244355E+02  0.16566896736E+02  0.45045682374E+02  0.00000000000E+00 0. -1.
         11    1    3    3    0    0 -0.13547384683E+02  0.16054482761E+02 -0.71363165997E+01  0.22185695016E+02  0.51100000000E-03 0. -1.
        -11    1    3    3    0    0 -0.12662522426E+02  0.11194746487E+02 -0.86741540434E+01  0.18997441189E+02  0.51100000000E-03 0.  1.
        -12    1    3    3    0    0 -0.48196652411E+01  0.89001510689E+00 -0.75642609316E+00  0.49591814204E+01  0.00000000000E+00 0.  1.
</event>
<event>
 7    1  0.2227287E-008  0.4614232E+02  0.7816164E-02  0.1320468E+00
        -11   -1    0    0    0    0  0.00000000000E+00  0.00000000000E+00  0.45593999997E+02  0.45594000000E+02  0.51100000000E-03 0.  1.
         11   -1    0    0    0    0 -0.00000000000E+00 -0.00000000000E+00 -0.45593999997E+02  0.45594000000E+02  0.51100000000E-03 0. -1.
    9900012    2    1    2    0    0  0.23060733438E+02  0.36983329772E+02  0.11381969869E+02  0.46142319343E+02  0.10000014427E+02 0.  0.
         12    1    1    2    0    0 -0.23060733438E+02 -0.36983329772E+02 -0.11381969869E+02  0.45045680657E+02  0.00000000000E+00 0. -1.
         11    1    3    3    0    0  0.82286916584E+01  0.12641960629E+02  0.63302091164E+01  0.16358547695E+02  0.51100000000E-03 0. -1.
        -11    1    3    3    0    0  0.26656780076E+01  0.44850934167E+01  0.38156362260E+01  0.64638210269E+01  0.51100000000E-03 0.  1.
        -12    1    3    3    0    0  0.12166363772E+02  0.19856275727E+02  0.12361245263E+01  0.23319950622E+02  0.00000000000E+00 0.  1.
</event>
<event>
 7    1  0.2227287E-008  0.4614232E+02  0.7816164E-02  0.1320468E+00
        -11   -1    0    0    0    0  0.00000000000E+00  0.00000000000E+00  0.45593999997E+02  0.45594000000E+02  0.51100000000E-03 0.  1.
         11   -1    0    0    0    0 -0.00000000000E+00 -0.00000000000E+00 -0.45593999997E+02  0.45594000000E+02  0.51100000000E-03 0. -1.
    9900012    2    1    2    0    0  0.72905730572E+01  0.37394798691E+02  0.24033106087E+02  0.46142316379E+02  0.99999874007E+01 0.  0.
         12    1    1    2    0    0 -0.72905730572E+01 -0.37394798691E+02 -0.24033106087E+02  0.45045683621E+02  0.00000000000E+00 0. -1.
         11    1    3    3    0    0  0.47871661611E+01  0.15964724593E+02  0.69886759665E+01  0.18072935102E+02  0.51100000000E-03 0. -1.
        -11    1    3    3    0    0  0.24424416623E+01  0.18168529724E+02  0.11512133927E+02  0.21646944852E+02  0.51100000000E-03 0.  1.
         12    1    3    3    0    0  0.60965233889E-01  0.32615443743E+01  0.55322961937E+01  0.64224364255E+01  0.00000000000E+00 0. -1.
</event>
<event>
 7    1  0.2227287E-008  0.4614232E+02  0.7816164E-02  0.1320468E+00
        -11   -1    0    0    0    0  0.00000000000E+00  0.00000000000E+00  0.45593999997E+02  0.45594000000E+02  0.51100000000E-03 0.  1.
         11   -1    0    0    0    0 -0.00000000000E+00 -0.00000000000E+00 -0.45593999997E+02  0.45594000000E+02  0.51100000000E-03 0. -1.
    9900012    2    1    2    0    0  0.15929421117E+02  0.30761861413E+02  0.28793661011E+02  0.46142317753E+02  0.99999999258E+01 0.  0.
         12    1    1    2    0    0 -0.15929421117E+02 -0.30761861413E+02 -0.28793661011E+02  0.45045682247E+02  0.00000000000E+00 0. -1.
         11    1    3    3    0    0  0.21903475855E+00  0.15015882115E+01  0.29634392824E+01  0.33293717161E+01  0.51100000000E-03 0. -1.
        -11    1    3    3    0    0  0.20761027570E+01  0.93658954259E+01  0.10561568953E+02  0.14268039066E+02  0.51100000000E-03 0.  1.
        -12    1    3    3    0    0  0.13634283602E+02  0.19894377775E+02  0.15268652776E+02  0.28544906971E+02  0.00000000000E+00 0.  1.
</event>
<event>
 7    1  0.2227287E-008  0.4614232E+02  0.7816164E-02  0.1320468E+00
        -11   -1    0    0    0    0  0.00000000000E+00  0.00000000000E+00  0.45593999997E+02  0.45594000000E+02  0.51100000000E-03 0.  1.
         11   -1    0    0    0    0 -0.00000000000E+00 -0.00000000000E+00 -0.45593999997E+02  0.45594000000E+02  0.51100000000E-03 0. -1.
    9900012    2    1    2    0    0  0.28648944395E+02 -0.18637644731E+02  0.29342624574E+02  0.46142318377E+02  0.10000005612E+02 0.  0.
         12    1    1    2    0    0 -0.28648944395E+02  0.18637644731E+02 -0.29342624574E+02  0.45045681623E+02  0.00000000000E+00 0. -1.
         11    1    3    3    0    0  0.17589514389E+02 -0.10915351732E+02  0.18472351848E+02  0.27744615747E+02  0.51100000000E-03 0.  1.
        -11    1    3    3    0    0  0.23379811729E+01 -0.35783959627E+01  0.62604611392E+00  0.43200703268E+01  0.51100000000E-03 0. -1.
         12    1    3    3    0    0  0.87214488327E+01 -0.41438970365E+01  0.10244226612E+02  0.14077632303E+02  0.00000000000E+00 0. -1.
</event>
<event>
 7    1  0.2227287E-008  0.4614232E+02  0.7816164E-02  0.1320468E+00
        -11   -1    0    0    0    0  0.00000000000E+00  0.00000000000E+00  0.45593999997E+02  0.45594000000E+02  0.51100000000E-03 0.  1.
         11   -1    0    0    0    0 -0.00000000000E+00 -0.00000000000E+00 -0.45593999997E+02  0.45594000000E+02  0.51100000000E-03 0. -1.
    9900012    2    1    2    0    0 -0.34767968664E+02 -0.28637492544E+02 -0.44252973454E+00  0.46142318112E+02  0.10000003199E+02 0.  0.
         12    1    1    2    0    0  0.34767968664E+02  0.28637492544E+02  0.44252973454E+00  0.45045681888E+02  0.00000000000E+00 0. -1.
         11    1    3    3    0    0 -0.13192472749E+02 -0.15685614510E+02 -0.54554777203E+00  0.20503108604E+02  0.51100000000E-03 0. -1.
        -11    1    3    3    0    0 -0.13383937967E+02 -0.10320525473E+02  0.13075715634E+01  0.16951483274E+02  0.51100000000E-03 0.  1.
        -12    1    3    3    0    0 -0.81915579482E+01 -0.26313525604E+01 -0.12045535259E+01  0.86877262337E+01  0.00000000000E+00 0.  1.
</event>
<event>
 7    1  0.2227287E-008  0.4614232E+02  0.7816164E-02  0.1320468E+00
        -11   -1    0    0    0    0  0.00000000000E+00  0.00000000000E+00  0.45593999997E+02  0.45594000000E+02  0.51100000000E-03 0. -1.
         11   -1    0    0    0    0 -0.00000000000E+00 -0.00000000000E+00 -0.45593999997E+02  0.45594000000E+02  0.51100000000E-03 0.  1.
    9900012    2    1    2    0    0 -0.42930484794E+02  0.13028631532E+02  0.40425042329E+01  0.46142316470E+02  0.99999882263E+01 0.  0.
         12    1    1    2    0    0  0.42930484794E+02 -0.13028631532E+02 -0.40425042329E+01  0.45045683530E+02  0.00000000000E+00 0. -1.
         11    1    3    3    0    0 -0.20502080318E+02  0.24218059560E+01  0.31210832136E+01  0.20879214596E+02  0.51100000000E-03 0. -1.
        -11    1    3    3    0    0 -0.14977994438E+02  0.68392440354E+01  0.28091483836E+01  0.16703499372E+02  0.51100000000E-03 0.  1.
         12    1    3    3    0    0 -0.74504100374E+01  0.37675815405E+01 -0.18877273644E+01  0.85596025019E+01  0.00000000000E+00 0. -1.
</event>
<event>
 7    1  0.2227287E-008  0.4614232E+02  0.7816164E-02  0.1320468E+00
        -11   -1    0    0    0    0  0.00000000000E+00  0.00000000000E+00  0.45593999997E+02  0.45594000000E+02  0.51100000000E-03 0.  1.
         11   -1    0    0    0    0 -0.00000000000E+00 -0.00000000000E+00 -0.45593999997E+02  0.45594000000E+02  0.51100000000E-03 0. -1.
    9900012    2    1    2    0    0 -0.17777438964E+02  0.25615788310E+02  0.32510114773E+02  0.46142317527E+02  0.99999978646E+01 0.  0.
         12    1    1    2    0    0  0.17777438964E+02 -0.25615788310E+02 -0.32510114773E+02  0.45045682473E+02  0.00000000000E+00 0. -1.
         11    1    3    3    0    0 -0.97542578790E+01  0.13877063209E+02  0.18611699012E+02  0.25181615724E+02  0.51100000000E-03 0.  1.
        -11    1    3    3    0    0 -0.91237125054E+01  0.95496559082E+01  0.11211828687E+02  0.17324640274E+02  0.51100000000E-03 0. -1.
         12    1    3    3    0    0  0.11005314202E+01  0.21890691931E+01  0.26865870741E+01  0.36360615294E+01  0.00000000000E+00 0. -1.
</event>
<event>
 7    1  0.2227287E-008  0.4614232E+02  0.7816164E-02  0.1320468E+00
        -11   -1    0    0    0    0  0.00000000000E+00  0.00000000000E+00  0.45593999997E+02  0.45594000000E+02  0.51100000000E-03 0.  1.
         11   -1    0    0    0    0 -0.00000000000E+00 -0.00000000000E+00 -0.45593999997E+02  0.45594000000E+02  0.51100000000E-03 0. -1.
    9900012    2    1    2    0    0  0.26567468189E+02  0.16662700408E+02  0.32336320307E+02  0.46142316945E+02  0.99999925623E+01 0.  0.
         12    1    1    2    0    0 -0.26567468189E+02 -0.16662700408E+02 -0.32336320307E+02  0.45045683055E+02  0.00000000000E+00 0. -1.
         11    1    3    3    0    0 -0.12284134976E+00  0.24368203356E+01  0.20489323563E+01  0.31861116439E+01  0.51100000000E-03 0. -1.
        -11    1    3    3    0    0  0.25089145053E+02  0.13130350198E+02  0.26927154199E+02  0.39076117122E+02  0.51100000000E-03 0.  1.
        -12    1    3    3    0    0  0.16011644854E+01  0.10955298743E+01  0.33602337513E+01  0.38800881792E+01  0.00000000000E+00 0.  1.
</event>
<event>
 7    1  0.2227287E-008  0.4614232E+02  0.7816164E-02  0.1320468E+00
        -11   -1    0    0    0    0  0.00000000000E+00  0.00000000000E+00  0.45593999997E+02  0.45594000000E+02  0.51100000000E-03 0.  1.
         11   -1    0    0    0    0 -0.00000000000E+00 -0.00000000000E+00 -0.45593999997E+02  0.45594000000E+02  0.51100000000E-03 0. -1.
    9900012    2    1    2    0    0 -0.32221100415E+02 -0.29951702324E+02 -0.96855413186E+01  0.46142317691E+02  0.99999993631E+01 0.  0.
         12    1    1    2    0    0  0.32221100415E+02  0.29951702324E+02  0.96855413186E+01  0.45045682309E+02  0.00000000000E+00 0. -1.
         11    1    3    3    0    0 -0.77726196925E+01 -0.10301887634E+02 -0.40754533015E+01  0.13533359730E+02  0.51100000000E-03 0. -1.
        -11    1    3    3    0    0 -0.21254622718E+02 -0.18870832614E+02 -0.65930715443E+01  0.29177661028E+02  0.51100000000E-03 0.  1.
         12    1    3    3    0    0 -0.31938580044E+01 -0.77898207507E+00  0.98298352717E+00  0.34312969327E+01  0.00000000000E+00 0. -1.
</event>
<event>
 7    1  0.2227287E-008  0.4614232E+02  0.7816164E-02  0.1320468E+00
        -11   -1    0    0    0    0  0.00000000000E+00  0.00000000000E+00  0.45593999997E+02  0.45594000000E+02  0.51100000000E-03 0.  1.
         11   -1    0    0    0    0 -0.00000000000E+00 -0.00000000000E+00 -0.45593999997E+02  0.45594000000E+02  0.51100000000E-03 0. -1.
    9900012    2    1    2    0    0 -0.18040336769E+02 -0.39550098899E+02 -0.11808868733E+02  0.46142318138E+02  0.10000003438E+02 0.  0.
         12    1    1    2    0    0  0.18040336769E+02  0.39550098899E+02  0.11808868733E+02  0.45045681862E+02  0.00000000000E+00 0. -1.
         11    1    3    3    0    0 -0.13206324940E+02 -0.22769349472E+02 -0.82455916052E+01  0.27583329657E+02  0.51100000000E-03 0. -1.
        -11    1    3    3    0    0 -0.24271662144E+01 -0.14637862028E+02 -0.38340375976E+01  0.15325077003E+02  0.51100000000E-03 0.  1.
         12    1    3    3    0    0 -0.24068456144E+01 -0.21428873991E+01  0.27076046950E+00  0.32339114781E+01  0.00000000000E+00 0. -1.
</event>
<event>
 7    1  0.2227287E-008  0.4614232E+02  0.7816164E-02  0.1320468E+00
        -11   -1    0    0    0    0  0.00000000000E+00  0.00000000000E+00  0.45593999997E+02  0.45594000000E+02  0.51100000000E-03 0. -1.
         11   -1    0    0    0    0 -0.00000000000E+00 -0.00000000000E+00 -0.45593999997E+02  0.45594000000E+02  0.51100000000E-03 0.  1.
    9900012    2    1    2    0    0 -0.44270169347E+01  0.31228770959E+02 -0.32160205783E+02  0.46142318181E+02  0.10000003828E+02 0.  0.
         12    1    1    2    0    0  0.44270169347E+01 -0.31228770959E+02  0.32160205783E+02  0.45045681819E+02  0.00000000000E+00 0. -1.
         11    1    3    3    0    0 -0.21164387741E+01  0.13291202748E+02 -0.20183854322E+02  0.24259500389E+02  0.51100000000E-03 0. -1.
        -11    1    3    3    0    0 -0.27028898306E+01  0.14061498077E+02 -0.10315543548E+02  0.17647713182E+02  0.51100000000E-03 0.  1.
         12    1    3    3    0    0  0.39231167001E+00  0.38760701342E+01 -0.16608079126E+01  0.42351046096E+01  0.00000000000E+00 0. -1.
</event>
<event>
 7    1  0.2227287E-008  0.4614232E+02  0.7816164E-02  0.1320468E+00
        -11   -1    0    0    0    0  0.00000000000E+00  0.00000000000E+00  0.45593999997E+02  0.45594000000E+02  0.51100000000E-03 0.  1.
         11   -1    0    0    0    0 -0.00000000000E+00 -0.00000000000E+00 -0.45593999997E+02  0.45594000000E+02  0.51100000000E-03 0. -1.
    9900012    2    1    2    0    0 -0.33480624566E+02  0.21264991834E+02  0.21353253160E+02  0.46142317415E+02  0.99999968418E+01 0.  0.
         12    1    1    2    0    0  0.33480624566E+02 -0.21264991834E+02 -0.21353253160E+02  0.45045682585E+02  0.00000000000E+00 0. -1.
         11    1    3    3    0    0 -0.94167160965E+00  0.13938632431E+01  0.12868025456E+01  0.21178907463E+01  0.51100000000E-03 0. -1.
        -11    1    3    3    0    0 -0.21048007883E+02  0.15262966036E+02  0.92858997458E+01  0.27608055028E+02  0.51100000000E-03 0.  1.
        -12    1    3    3    0    0 -0.11490945073E+02  0.46081625554E+01  0.10780550869E+02  0.16416371641E+02  0.00000000000E+00 0.  1.
</event>
<event>
 7    1  0.2227287E-008  0.4614232E+02  0.7816164E-02  0.1320468E+00
        -11   -1    0    0    0    0  0.00000000000E+00  0.00000000000E+00  0.45593999997E+02  0.45594000000E+02  0.51100000000E-03 0. -1.
         11   -1    0    0    0    0 -0.00000000000E+00 -0.00000000000E+00 -0.45593999997E+02  0.45594000000E+02  0.51100000000E-03 0.  1.
    9900012    2    1    2    0    0 -0.33783084239E+02  0.28315967908E+02  0.92748150625E+01  0.46142323029E+02  0.10000048041E+02 0.  0.
         12    1    1    2    0    0  0.33783084239E+02 -0.28315967908E+02 -0.92748150625E+01  0.45045676971E+02  0.00000000000E+00 0. -1.
         11    1    3    3    0    0 -0.39519143430E+01  0.29093278808E+01  0.27074443011E+01  0.56046472321E+01  0.51100000000E-03 0. -1.
        -11    1    3    3    0    0 -0.72494229601E+01  0.99579886868E+01 -0.32809145881E+00  0.12321660449E+02  0.51100000000E-03 0.  1.
         12    1    3    3    0    0 -0.22581746936E+02  0.15448651340E+02  0.68954622202E+01  0.28216015349E+02  0.00000000000E+00 0. -1.
</event>
<event>
 7    1  0.2227287E-008  0.4614232E+02  0.7816164E-02  0.1320468E+00
        -11   -1    0    0    0    0  0.00000000000E+00  0.00000000000E+00  0.45593999997E+02  0.45594000000E+02  0.51100000000E-03 0.  1.
         11   -1    0    0    0    0 -0.00000000000E+00 -0.00000000000E+00 -0.45593999997E+02  0.45594000000E+02  0.51100000000E-03 0. -1.
    9900012    2    1    2    0    0 -0.13237627992E+02  0.12527530144E+02  0.41193928663E+02  0.46142316909E+02  0.99999922334E+01 0.  0.
         12    1    1    2    0    0  0.13237627992E+02 -0.12527530144E+02 -0.41193928663E+02  0.45045683091E+02  0.00000000000E+00 0. -1.
         11    1    3    3    0    0 -0.63640516701E+01  0.11497311865E+01  0.14574178210E+02  0.15944582347E+02  0.51100000000E-03 0. -1.
        -11    1    3    3    0    0 -0.71139030597E+01  0.82041526995E+01  0.22575307033E+02  0.25051152192E+02  0.51100000000E-03 0.  1.
        -12    1    3    3    0    0  0.24032673743E+00  0.31736462585E+01  0.40444434207E+01  0.51465823707E+01  0.00000000000E+00 0.  1.
</event>
<event>
 7    1  0.2227287E-008  0.4614232E+02  0.7816164E-02  0.1320468E+00
        -11   -1    0    0    0    0  0.00000000000E+00  0.00000000000E+00  0.45593999997E+02  0.45594000000E+02  0.51100000000E-03 0.  1.
         11   -1    0    0    0    0 -0.00000000000E+00 -0.00000000000E+00 -0.45593999997E+02  0.45594000000E+02  0.51100000000E-03 0. -1.
    9900012    2    1    2    0    0  0.36852888967E+01  0.71336037187E+01  0.44324302426E+02  0.46142318278E+02  0.10000004713E+02 0.  0.
         12    1    1    2    0    0 -0.36852888967E+01 -0.71336037187E+01 -0.44324302426E+02  0.45045681722E+02  0.00000000000E+00 0. -1.
         11    1    3    3    0    0 -0.43589140828E+00  0.15705515058E+01  0.17073492700E+02  0.17151116191E+02  0.51100000000E-03 0. -1.
        -11    1    3    3    0    0  0.58239946577E+01  0.26164093472E+01  0.19701721524E+02  0.20710440433E+02  0.51100000000E-03 0.  1.
        -12    1    3    3    0    0 -0.17028143528E+01  0.29466428657E+01  0.75490882016E+01  0.82807616542E+01  0.00000000000E+00 0.  1.
</event>
<event>
 7    1  0.2227287E-008  0.4614232E+02  0.7816164E-02  0.1320468E+00
        -11   -1    0    0    0    0  0.00000000000E+00  0.00000000000E+00  0.45593999997E+02  0.45594000000E+02  0.51100000000E-03 0.  1.
         11   -1    0    0    0    0 -0.00000000000E+00 -0.00000000000E+00 -0.45593999997E+02  0.45594000000E+02  0.51100000000E-03 0. -1.
    9900012    2    1    2    0    0 -0.24107898007E+02  0.35571067172E+02  0.13513770177E+02  0.46142317072E+02  0.99999937138E+01 0.  0.
         12    1    1    2    0    0  0.24107898007E+02 -0.35571067172E+02 -0.13513770177E+02  0.45045682928E+02  0.00000000000E+00 0. -1.
         11    1    3    3    0    0 -0.81192061511E+01  0.15657158579E+02  0.79531898361E+01  0.19347386183E+02  0.51100000000E-03 0. -1.
        -11    1    3    3    0    0 -0.14404744916E+02  0.19444452279E+02  0.40093067503E+01  0.24528716669E+02  0.51100000000E-03 0.  1.
        -12    1    3    3    0    0 -0.15839469396E+01  0.46945631446E+00  0.15512735906E+01  0.22662142202E+01  0.00000000000E+00 0.  1.
</event>
<event>
 7    1  0.2227287E-008  0.4614232E+02  0.7816164E-02  0.1320468E+00
        -11   -1    0    0    0    0  0.00000000000E+00  0.00000000000E+00  0.45593999997E+02  0.45594000000E+02  0.51100000000E-03 0. -1.
         11   -1    0    0    0    0 -0.00000000000E+00 -0.00000000000E+00 -0.45593999997E+02  0.45594000000E+02  0.51100000000E-03 0.  1.
    9900012    2    1    2    0    0  0.37486703700E+02  0.18477346492E+02 -0.16806195217E+02  0.46142317795E+02  0.10000000309E+02 0.  0.
         12    1    1    2    0    0 -0.37486703700E+02 -0.18477346492E+02  0.16806195217E+02  0.45045682205E+02  0.00000000000E+00 0. -1.
         11    1    3    3    0    0  0.80137827226E+01  0.72417036270E+01 -0.51221076711E+01  0.11954035812E+02  0.51100000000E-03 0. -1.
        -11    1    3    3    0    0  0.48568663703E+00 -0.10990579523E+00 -0.12697521427E+01  0.13639067264E+01  0.51100000000E-03 0.  1.
        -12    1    3    3    0    0  0.28987234340E+02  0.11345548660E+02 -0.10414335403E+02  0.32824375256E+02  0.00000000000E+00 0.  1.
</event>
<event>
 7    1  0.2227287E-008  0.4614232E+02  0.7816164E-02  0.1320468E+00
        -11   -1    0    0    0    0  0.00000000000E+00  0.00000000000E+00  0.45593999997E+02  0.45594000000E+02  0.51100000000E-03 0. -1.
         11   -1    0    0    0    0 -0.00000000000E+00 -0.00000000000E+00 -0.45593999997E+02  0.45594000000E+02  0.51100000000E-03 0.  1.
    9900012    2    1    2    0    0 -0.41953159728E+02  0.12649034302E+02 -0.10442593848E+02  0.46142318229E+02  0.10000004269E+02 0.  0.
         12    1    1    2    0    0  0.41953159728E+02 -0.12649034302E+02  0.10442593848E+02  0.45045681771E+02  0.00000000000E+00 0. -1.
         11    1    3    3    0    0 -0.19531194454E+01  0.17736719081E+00 -0.90481216499E-02  0.19611774061E+01  0.51100000000E-03 0. -1.
        -11    1    3    3    0    0 -0.29316521898E+02  0.47332407065E+01 -0.63008791199E+01  0.30357257810E+02  0.51100000000E-03 0.  1.
        -12    1    3    3    0    0 -0.10683518384E+02  0.77384264044E+01 -0.41326666065E+01  0.13823883013E+02  0.00000000000E+00 0.  1.
</event>
<event>
 7    1  0.2227287E-008  0.4614232E+02  0.7816164E-02  0.1320468E+00
        -11   -1    0    0    0    0  0.00000000000E+00  0.00000000000E+00  0.45593999997E+02  0.45594000000E+02  0.51100000000E-03 0.  1.
         11   -1    0    0    0    0 -0.00000000000E+00 -0.00000000000E+00 -0.45593999997E+02  0.45594000000E+02  0.51100000000E-03 0. -1.
    9900012    2    1    2    0    0  0.28336591210E+02 -0.38421960752E+01  0.34805011637E+02  0.46142315332E+02  0.99999778534E+01 0.  0.
         12    1    1    2    0    0 -0.28336591210E+02  0.38421960752E+01 -0.34805011637E+02  0.45045684668E+02  0.00000000000E+00 0. -1.
         11    1    3    3    0    0  0.13683326732E+02 -0.34765874416E+01  0.13138770939E+02  0.19285937695E+02  0.51100000000E-03 0. -1.
        -11    1    3    3    0    0  0.14704182533E+02  0.48524383429E+00  0.18836758902E+02  0.23901295608E+02  0.51100000000E-03 0.  1.
        -12    1    3    3    0    0 -0.50918055009E-01 -0.85085246792E+00  0.28294817957E+01  0.29550820298E+01  0.00000000000E+00 0.  1.
</event>
<event>
 7    1  0.2227287E-008  0.4614232E+02  0.7816164E-02  0.1320468E+00
        -11   -1    0    0    0    0  0.00000000000E+00  0.00000000000E+00  0.45593999997E+02  0.45594000000E+02  0.51100000000E-03 0.  1.
         11   -1    0    0    0    0 -0.00000000000E+00 -0.00000000000E+00 -0.45593999997E+02  0.45594000000E+02  0.51100000000E-03 0. -1.
    9900012    2    1    2    0    0  0.14121196742E+02  0.18457568290E+02  0.38587867239E+02  0.46142317380E+02  0.99999965249E+01 0.  0.
         12    1    1    2    0    0 -0.14121196742E+02 -0.18457568290E+02 -0.38587867239E+02  0.45045682620E+02  0.00000000000E+00 0. -1.
         11    1    3    3    0    0  0.33051347035E+00  0.26398722483E+01  0.88411117790E+01  0.92327364520E+01  0.51100000000E-03 0. -1.
        -11    1    3    3    0    0  0.49168096384E+01  0.10006410183E+02  0.16950466426E+02  0.20288459136E+02  0.51100000000E-03 0.  1.
         12    1    3    3    0    0  0.88738736334E+01  0.58112858594E+01  0.12796289034E+02  0.16621121793E+02  0.00000000000E+00 0. -1.
</event>
<event>
 7    1  0.2227287E-008  0.4614232E+02  0.7816164E-02  0.1320468E+00
        -11   -1    0    0    0    0  0.00000000000E+00  0.00000000000E+00  0.45593999997E+02  0.45594000000E+02  0.51100000000E-03 0.  1.
         11   -1    0    0    0    0 -0.00000000000E+00 -0.00000000000E+00 -0.45593999997E+02  0.45594000000E+02  0.51100000000E-03 0. -1.
    9900012    2    1    2    0    0  0.38127675403E+02  0.11140695940E+02  0.21243321082E+02  0.46142318429E+02  0.10000006088E+02 0.  0.
         12    1    1    2    0    0 -0.38127675403E+02 -0.11140695940E+02 -0.21243321082E+02  0.45045681571E+02  0.00000000000E+00 0. -1.
         11    1    3    3    0    0  0.14248414330E+02  0.18240193036E+01  0.97833183708E+01  0.17379806557E+02  0.51100000000E-03 0. -1.
        -11    1    3    3    0    0  0.21996222700E+02  0.79351685077E+01  0.12116565992E+02  0.26336512374E+02  0.51100000000E-03 0.  1.
         12    1    3    3    0    0  0.18830383727E+01  0.13815081285E+01 -0.65656328168E+00  0.24259994981E+01  0.00000000000E+00 0. -1.
</event>
<event>
 7    1  0.2227287E-008  0.4614232E+02  0.7816164E-02  0.1320468E+00
        -11   -1    0    0    0    0  0.00000000000E+00  0.00000000000E+00  0.45593999997E+02  0.45594000000E+02  0.51100000000E-03 0. -1.
         11   -1    0    0    0    0 -0.00000000000E+00 -0.00000000000E+00 -0.45593999997E+02  0.45594000000E+02  0.51100000000E-03 0.  1.
    9900012    2    1    2    0    0  0.11359938259E+02 -0.83717914939E+01 -0.42778246879E+02  0.46142317675E+02  0.99999992177E+01 0.  0.
         12    1    1    2    0    0 -0.11359938259E+02  0.83717914939E+01  0.42778246879E+02  0.45045682325E+02  0.00000000000E+00 0. -1.
         11    1    3    3    0    0  0.11173217523E+02 -0.48740285893E+01 -0.36310283761E+02  0.38301875301E+02  0.51100000000E-03 0. -1.
        -11    1    3    3    0    0  0.86726682439E+00 -0.12232767654E+01 -0.80941736340E+00  0.17040289078E+01  0.51100000000E-03 0.  1.
         12    1    3    3    0    0 -0.68054608856E+00 -0.22744861392E+01 -0.56585457545E+01  0.61364134665E+01  0.00000000000E+00 0. -1.
</event>
<event>
 7    1  0.2227287E-008  0.4614232E+02  0.7816164E-02  0.1320468E+00
        -11   -1    0    0    0    0  0.00000000000E+00  0.00000000000E+00  0.45593999997E+02  0.45594000000E+02  0.51100000000E-03 0. -1.
         11   -1    0    0    0    0 -0.00000000000E+00 -0.00000000000E+00 -0.45593999997E+02  0.45594000000E+02  0.51100000000E-03 0.  1.
    9900012    2    1    2    0    0  0.37216451851E+02 -0.74091443463E+01 -0.24272490466E+02  0.46142317613E+02  0.99999986479E+01 0.  0.
         12    1    1    2    0    0 -0.37216451851E+02  0.74091443463E+01  0.24272490466E+02  0.45045682387E+02  0.00000000000E+00 0. -1.
         11    1    3    3    0    0  0.74877419127E+01 -0.20585837759E+01 -0.13525268649E+01  0.78824726638E+01  0.51100000000E-03 0. -1.
        -11    1    3    3    0    0  0.22425461568E+01 -0.14896432282E+01 -0.92897336150E+00  0.28479891116E+01  0.51100000000E-03 0.  1.
         12    1    3    3    0    0  0.27486163782E+02 -0.38609173422E+01 -0.21990990239E+02  0.35411855837E+02  0.00000000000E+00 0. -1.
</event>
<event>
 7    1  0.2227287E-008  0.4614232E+02  0.7816164E-02  0.1320468E+00
        -11   -1    0    0    0    0  0.00000000000E+00  0.00000000000E+00  0.45593999997E+02  0.45594000000E+02  0.51100000000E-03 0.  1.
         11   -1    0    0    0    0 -0.00000000000E+00 -0.00000000000E+00 -0.45593999997E+02  0.45594000000E+02  0.51100000000E-03 0. -1.
    9900012    2    1    2    0    0  0.19842042181E+02  0.38620341115E+02  0.11994826988E+02  0.46142320293E+02  0.10000023088E+02 0.  0.
         12    1    1    2    0    0 -0.19842042181E+02 -0.38620341115E+02 -0.11994826988E+02  0.45045679707E+02  0.00000000000E+00 0. -1.
         11    1    3    3    0    0  0.34242095625E+01  0.43409720147E+01 -0.50760009947E+00  0.55521984189E+01  0.51100000000E-03 0. -1.
        -11    1    3    3    0    0  0.15477528311E+02  0.32999501924E+02  0.10302688344E+02  0.37876990340E+02  0.51100000000E-03 0.  1.
        -12    1    3    3    0    0  0.94030430721E+00  0.12798671768E+01  0.21997387438E+01  0.27131315341E+01  0.00000000000E+00 0.  1.
</event>
<event>
 7    1  0.2227287E-008  0.4614232E+02  0.7816164E-02  0.1320468E+00
        -11   -1    0    0    0    0  0.00000000000E+00  0.00000000000E+00  0.45593999997E+02  0.45594000000E+02  0.51100000000E-03 0.  1.
         11   -1    0    0    0    0 -0.00000000000E+00 -0.00000000000E+00 -0.45593999997E+02  0.45594000000E+02  0.51100000000E-03 0. -1.
    9900012    2    1    2    0    0 -0.10862536822E+02 -0.82118925350E+01  0.42938136740E+02  0.46142317944E+02  0.10000001670E+02 0.  0.
         12    1    1    2    0    0  0.10862536822E+02  0.82118925350E+01 -0.42938136740E+02  0.45045682056E+02  0.00000000000E+00 0. -1.
         11    1    3    3    0    0  0.58173120695E+00 -0.34573931552E+01  0.16524267677E+02  0.16892110618E+02  0.51100000000E-03 0. -1.
        -11    1    3    3    0    0 -0.71478790873E+01 -0.27517838676E+01  0.18536539436E+02  0.20056614481E+02  0.51100000000E-03 0.  1.
         12    1    3    3    0    0 -0.42963889412E+01 -0.20027155123E+01  0.78773296265E+01  0.91935928451E+01  0.00000000000E+00 0. -1.
</event>
<event>
 7    1  0.2227287E-008  0.4614232E+02  0.7816164E-02  0.1320468E+00
        -11   -1    0    0    0    0  0.00000000000E+00  0.00000000000E+00  0.45593999997E+02  0.45594000000E+02  0.51100000000E-03 0.  1.
         11   -1    0    0    0    0 -0.00000000000E+00 -0.00000000000E+00 -0.45593999997E+02  0.45594000000E+02  0.51100000000E-03 0. -1.
    9900012    2    1    2    0    0  0.30262383200E+02 -0.22929798468E+02  0.24238937251E+02  0.46142316813E+02  0.99999913526E+01 0.  0.
         12    1    1    2    0    0 -0.30262383200E+02  0.22929798468E+02 -0.24238937251E+02  0.45045683187E+02  0.00000000000E+00 0. -1.
         11    1    3    3    0    0  0.31857114386E+01 -0.50999253289E+01  0.57754014543E+01  0.83374611213E+01  0.51100000000E-03 0. -1.
        -11    1    3    3    0    0  0.23999614399E+02 -0.16054911397E+02  0.18425043600E+02  0.34252356170E+02  0.51100000000E-03 0.  1.
        -12    1    3    3    0    0  0.30770573623E+01 -0.17749617425E+01  0.38492195954E-01  0.35524995211E+01  0.00000000000E+00 0.  1.
</event>
<event>
 7    1  0.2227287E-008  0.4614232E+02  0.7816164E-02  0.1320468E+00
        -11   -1    0    0    0    0  0.00000000000E+00  0.00000000000E+00  0.45593999997E+02  0.45594000000E+02  0.51100000000E-03 0. -1.
         11   -1    0    0    0    0 -0.00000000000E+00 -0.00000000000E+00 -0.45593999997E+02  0.45594000000E+02  0.51100000000E-03 0.  1.
    9900012    2    1    2    0    0  0.29562641169E+02 -0.32262830067E+02 -0.10689885693E+02  0.46142316378E+02  0.99999873908E+01 0.  0.
         12    1    1    2    0    0 -0.29562641169E+02  0.32262830067E+02  0.10689885693E+02  0.45045683622E+02  0.00000000000E+00 0. -1.
         11    1    3    3    0    0  0.27445821892E+00 -0.13717665300E+01  0.65661633310E+00  0.15453853877E+01  0.51100000000E-03 0. -1.
        -11    1    3    3    0    0  0.13381252443E+02 -0.15139915986E+02 -0.18846399633E+01  0.20293517218E+02  0.51100000000E-03 0.  1.
         12    1    3    3    0    0  0.15906930506E+02 -0.15751147551E+02 -0.94618620626E+01  0.24303413773E+02  0.00000000000E+00 0. -1.
</event>
<event>
 7    1  0.2227287E-008  0.4614232E+02  0.7816164E-02  0.1320468E+00
        -11   -1    0    0    0    0  0.00000000000E+00  0.00000000000E+00  0.45593999997E+02  0.45594000000E+02  0.51100000000E-03 0. -1.
         11   -1    0    0    0    0 -0.00000000000E+00 -0.00000000000E+00 -0.45593999997E+02  0.45594000000E+02  0.51100000000E-03 0.  1.
    9900012    2    1    2    0    0  0.12656816713E+02 -0.28229180498E+02 -0.32741897258E+02  0.46142317888E+02  0.10000001154E+02 0.  0.
         12    1    1    2    0    0 -0.12656816713E+02  0.28229180498E+02  0.32741897258E+02  0.45045682112E+02  0.00000000000E+00 0. -1.
         11    1    3    3    0    0  0.20638232686E+01 -0.14853763073E+01 -0.50129420786E+01  0.56209694718E+01  0.51100000000E-03 0.  1.
        -11    1    3    3    0    0  0.44641722037E+01 -0.18896000890E+02 -0.16194096346E+02  0.25283125594E+02  0.51100000000E-03 0. -1.
         12    1    3    3    0    0  0.61288212409E+01 -0.78478033012E+01 -0.11534858833E+02  0.15238222822E+02  0.00000000000E+00 0. -1.
</event>
<event>
 7    1  0.2227287E-008  0.4614232E+02  0.7816164E-02  0.1320468E+00
        -11   -1    0    0    0    0  0.00000000000E+00  0.00000000000E+00  0.45593999997E+02  0.45594000000E+02  0.51100000000E-03 0.  1.
         11   -1    0    0    0    0 -0.00000000000E+00 -0.00000000000E+00 -0.45593999997E+02  0.45594000000E+02  0.51100000000E-03 0. -1.
    9900012    2    1    2    0    0  0.16914768188E+01 -0.15522810021E+02  0.42252751173E+02  0.46142315341E+02  0.99999779296E+01 0.  0.
         12    1    1    2    0    0 -0.16914768188E+01  0.15522810021E+02 -0.42252751173E+02  0.45045684659E+02  0.00000000000E+00 0. -1.
         11    1    3    3    0    0  0.35438312732E+01 -0.84097840943E+01  0.20016730090E+02  0.21998924800E+02  0.51100000000E-03 0. -1.
        -11    1    3    3    0    0 -0.11351851689E+01 -0.80912118031E+01  0.18766772177E+02  0.20468221516E+02  0.51100000000E-03 0.  1.
         12    1    3    3    0    0 -0.71716928542E+00  0.97818587677E+00  0.34692489050E+01  0.36751690245E+01  0.00000000000E+00 0. -1.
</event>
<event>
 7    1  0.2227287E-008  0.4614232E+02  0.7816164E-02  0.1320468E+00
        -11   -1    0    0    0    0  0.00000000000E+00  0.00000000000E+00  0.45593999997E+02  0.45594000000E+02  0.51100000000E-03 0.  1.
         11   -1    0    0    0    0 -0.00000000000E+00 -0.00000000000E+00 -0.45593999997E+02  0.45594000000E+02  0.51100000000E-03 0. -1.
    9900012    2    1    2    0    0 -0.13408119978E+02 -0.11683114430E+02  0.41386481772E+02  0.46142315217E+02  0.99999767998E+01 0.  0.
         12    1    1    2    0    0  0.13408119978E+02  0.11683114430E+02 -0.41386481772E+02  0.45045684783E+02  0.00000000000E+00 0. -1.
         11    1    3    3    0    0 -0.23638281517E+01 -0.41399949168E+01  0.72530179082E+01  0.86794879157E+01  0.51100000000E-03 0. -1.
        -11    1    3    3    0    0  0.11837513656E+01 -0.51924453406E+00  0.21520054393E+01  0.25103804201E+01  0.51100000000E-03 0.  1.
        -12    1    3    3    0    0 -0.12228043192E+02 -0.70238749795E+01  0.31981458424E+02  0.34952446881E+02  0.00000000000E+00 0.  1.
</event>
<event>
 7    1  0.2227287E-008  0.4614232E+02  0.7816164E-02  0.1320468E+00
        -11   -1    0    0    0    0  0.00000000000E+00  0.00000000000E+00  0.45593999997E+02  0.45594000000E+02  0.51100000000E-03 0. -1.
         11   -1    0    0    0    0 -0.00000000000E+00 -0.00000000000E+00 -0.45593999997E+02  0.45594000000E+02  0.51100000000E-03 0.  1.
    9900012    2    1    2    0    0  0.22980521586E+02 -0.21727334146E+02 -0.32076970375E+02  0.46142318188E+02  0.10000003896E+02 0.  0.
         12    1    1    2    0    0 -0.22980521586E+02  0.21727334146E+02  0.32076970375E+02  0.45045681812E+02  0.00000000000E+00 0. -1.
         11    1    3    3    0    0  0.17880190897E+02 -0.11862967941E+02 -0.22414916414E+02  0.31029980873E+02  0.51100000000E-03 0. -1.
        -11    1    3    3    0    0  0.12256716540E+01 -0.46845546195E+01 -0.24582896228E+01  0.54305166529E+01  0.51100000000E-03 0.  1.
        -12    1    3    3    0    0  0.38746590345E+01 -0.51798115857E+01 -0.72037643377E+01  0.96818206620E+01  0.00000000000E+00 0.  1.
</event>
<event>
 7    1  0.2227287E-008  0.4614232E+02  0.7816164E-02  0.1320468E+00
        -11   -1    0    0    0    0  0.00000000000E+00  0.00000000000E+00  0.45593999997E+02  0.45594000000E+02  0.51100000000E-03 0.  1.
         11   -1    0    0    0    0 -0.00000000000E+00 -0.00000000000E+00 -0.45593999997E+02  0.45594000000E+02  0.51100000000E-03 0. -1.
    9900012    2    1    2    0    0 -0.39656069924E+00 -0.41849190627E+02  0.16661378176E+02  0.46142317197E+02  0.99999948519E+01 0.  0.
         12    1    1    2    0    0  0.39656069924E+00  0.41849190627E+02 -0.16661378176E+02  0.45045682803E+02  0.00000000000E+00 0. -1.
         11    1    3    3    0    0  0.11587563575E+00 -0.12372671260E+01 -0.12251982662E+00  0.12487067202E+01  0.51100000000E-03 0.  1.
        -11    1    3    3    0    0  0.12268389290E+01 -0.46966660774E+00 -0.84656158606E-01  0.13163918134E+01  0.51100000000E-03 0. -1.
         12    1    3    3    0    0 -0.17392752639E+01 -0.40142256893E+02  0.16868554161E+02  0.43577218663E+02  0.00000000000E+00 0. -1.
</event>
<event>
 7    1  0.2227287E-008  0.4614232E+02  0.7816164E-02  0.1320468E+00
        -11   -1    0    0    0    0  0.00000000000E+00  0.00000000000E+00  0.45593999997E+02  0.45594000000E+02  0.51100000000E-03 0.  1.
         11   -1    0    0    0    0 -0.00000000000E+00 -0.00000000000E+00 -0.45593999997E+02  0.45594000000E+02  0.51100000000E-03 0. -1.
    9900012    2    1    2    0    0  0.23085388439E+02  0.37321797496E+02 -0.10161759997E+02  0.46142322139E+02  0.10000039924E+02 0.  0.
         12    1    1    2    0    0 -0.23085388439E+02 -0.37321797496E+02  0.10161759997E+02  0.45045677861E+02  0.00000000000E+00 0. -1.
         11    1    3    3    0    0  0.47427842013E+01  0.93592816215E+01  0.10268312207E+01  0.10542510947E+02  0.51100000000E-03 0. -1.
        -11    1    3    3    0    0  0.75128278684E+01  0.73854639065E+01 -0.31334443302E+01  0.10991184346E+02  0.51100000000E-03 0.  1.
         12    1    3    3    0    0  0.10829776369E+02  0.20577051968E+02 -0.80551468871E+01  0.24608626846E+02  0.00000000000E+00 0. -1.
</event>
<event>
 7    1  0.2227287E-008  0.4614232E+02  0.7816164E-02  0.1320468E+00
        -11   -1    0    0    0    0  0.00000000000E+00  0.00000000000E+00  0.45593999997E+02  0.45594000000E+02  0.51100000000E-03 0.  1.
         11   -1    0    0    0    0 -0.00000000000E+00 -0.00000000000E+00 -0.45593999997E+02  0.45594000000E+02  0.51100000000E-03 0. -1.
    9900012    2    1    2    0    0  0.20118261424E+01 -0.44694994874E+02  0.52367183838E+01  0.46142320622E+02  0.10000026090E+02 0.  0.
         12    1    1    2    0    0 -0.20118261424E+01  0.44694994874E+02 -0.52367183838E+01  0.45045679378E+02  0.00000000000E+00 0. -1.
         11    1    3    3    0    0  0.28457329248E+01 -0.27309723659E+02  0.60504955220E+01  0.28116324414E+02  0.51100000000E-03 0. -1.
        -11    1    3    3    0    0  0.15551125274E+01 -0.25931818863E+01 -0.11252525710E+00  0.30258270709E+01  0.51100000000E-03 0.  1.
         12    1    3    3    0    0 -0.23890193098E+01 -0.14792089328E+02 -0.70125188111E+00  0.15000169138E+02  0.00000000000E+00 0. -1.
</event>
<event>
 7    1  0.2227287E-008  0.4614232E+02  0.7816164E-02  0.1320468E+00
        -11   -1    0    0    0    0  0.00000000000E+00  0.00000000000E+00  0.45593999997E+02  0.45594000000E+02  0.51100000000E-03 0.  1.
         11   -1    0    0    0    0 -0.00000000000E+00 -0.00000000000E+00 -0.45593999997E+02  0.45594000000E+02  0.51100000000E-03 0. -1.
    9900012    2    1    2    0    0  0.11210852596E+02  0.31403485446E+02  0.30286158171E+02  0.46142317733E+02  0.99999997460E+01 0.  0.
         12    1    1    2    0    0 -0.11210852596E+02 -0.31403485446E+02 -0.30286158171E+02  0.45045682267E+02  0.00000000000E+00 0. -1.
         11    1    3    3    0    0  0.30506450127E+01  0.10919391834E+01  0.29751631031E+01  0.43989046279E+01  0.51100000000E-03 0. -1.
        -11    1    3    3    0    0  0.16579208291E+01  0.37908729381E+01  0.49371081074E+01  0.64416190382E+01  0.51100000000E-03 0.  1.
        -12    1    3    3    0    0  0.65022867546E+01  0.26520673324E+02  0.22373886961E+02  0.35301794067E+02  0.00000000000E+00 0.  1.
</event>
<event>
 7    1  0.2227287E-008  0.4614232E+02  0.7816164E-02  0.1320468E+00
        -11   -1    0    0    0    0  0.00000000000E+00  0.00000000000E+00  0.45593999997E+02  0.45594000000E+02  0.51100000000E-03 0. -1.
         11   -1    0    0    0    0 -0.00000000000E+00 -0.00000000000E+00 -0.45593999997E+02  0.45594000000E+02  0.51100000000E-03 0.  1.
    9900012    2    1    2    0    0 -0.26275801351E+02  0.32963049076E+02 -0.15878701409E+02  0.46142317638E+02  0.99999988760E+01 0.  0.
         12    1    1    2    0    0  0.26275801351E+02 -0.32963049076E+02  0.15878701409E+02  0.45045682362E+02  0.00000000000E+00 0. -1.
         11    1    3    3    0    0 -0.16416957742E+02  0.15778645575E+02 -0.76278070184E+01  0.24013862618E+02  0.51100000000E-03 0. -1.
        -11    1    3    3    0    0 -0.38823059607E+01  0.25690494462E+01 -0.27536921037E+01  0.54088016318E+01  0.51100000000E-03 0.  1.
        -12    1    3    3    0    0 -0.59765376483E+01  0.14615354055E+02 -0.54972022864E+01  0.16719653388E+02  0.00000000000E+00 0.  1.
</event>
<event>
 7    1  0.2227287E-008  0.4614232E+02  0.7816164E-02  0.1320468E+00
        -11   -1    0    0    0    0  0.00000000000E+00  0.00000000000E+00  0.45593999997E+02  0.45594000000E+02  0.51100000000E-03 0.  1.
         11   -1    0    0    0    0 -0.00000000000E+00 -0.00000000000E+00 -0.45593999997E+02  0.45594000000E+02  0.51100000000E-03 0. -1.
    9900012    2    1    2    0    0  0.41266119082E+01 -0.62017944305E+01  0.44425468110E+02  0.46142318778E+02  0.10000009271E+02 0.  0.
         12    1    1    2    0    0 -0.41266119082E+01  0.62017944305E+01 -0.44425468110E+02  0.45045681222E+02  0.00000000000E+00 0. -1.
         11    1    3    3    0    0 -0.16857666875E+01 -0.10992014029E+01  0.11718445329E+02  0.11889996394E+02  0.51100000000E-03 0. -1.
        -11    1    3    3    0    0  0.21864673186E+01 -0.27917602885E+01  0.26289460502E+02  0.26527538495E+02  0.51100000000E-03 0.  1.
         12    1    3    3    0    0  0.36259112770E+01 -0.23108327391E+01  0.64175622787E+01  0.77247838894E+01  0.00000000000E+00 0. -1.
</event>
<event>
 7    1  0.2227287E-008  0.4614232E+02  0.7816164E-02  0.1320468E+00
        -11   -1    0    0    0    0  0.00000000000E+00  0.00000000000E+00  0.45593999997E+02  0.45594000000E+02  0.51100000000E-03 0.  1.
         11   -1    0    0    0    0 -0.00000000000E+00 -0.00000000000E+00 -0.45593999997E+02  0.45594000000E+02  0.51100000000E-03 0. -1.
    9900012    2    1    2    0    0 -0.30681382313E+01 -0.19121895734E+02  0.40670051492E+02  0.46142318109E+02  0.10000003171E+02 0.  0.
         12    1    1    2    0    0  0.30681382313E+01  0.19121895734E+02 -0.40670051492E+02  0.45045681891E+02  0.00000000000E+00 0. -1.
         11    1    3    3    0    0 -0.38061798564E+01 -0.35927405673E+01  0.17192681883E+02  0.17971730592E+02  0.51100000000E-03 0. -1.
        -11    1    3    3    0    0  0.54162978674E+00 -0.38295202693E+01  0.58814466636E+01  0.70391763322E+01  0.51100000000E-03 0.  1.
         12    1    3    3    0    0  0.19641183836E+00 -0.11699634897E+02  0.17595922946E+02  0.21131411185E+02  0.00000000000E+00 0. -1.
</event>
<event>
 7    1  0.2227287E-008  0.4614232E+02  0.7816164E-02  0.1320468E+00
        -11   -1    0    0    0    0  0.00000000000E+00  0.00000000000E+00  0.45593999997E+02  0.45594000000E+02  0.51100000000E-03 0.  1.
         11   -1    0    0    0    0 -0.00000000000E+00 -0.00000000000E+00 -0.45593999997E+02  0.45594000000E+02  0.51100000000E-03 0. -1.
    9900012    2    1    2    0    0  0.62117579288E+01 -0.23224962160E+02  0.38093683582E+02  0.46142317269E+02  0.99999955087E+01 0.  0.
         12    1    1    2    0    0 -0.62117579288E+01  0.23224962160E+02 -0.38093683582E+02  0.45045682731E+02  0.00000000000E+00 0. -1.
         11    1    3    3    0    0  0.66224131800E+00 -0.16425727347E+01  0.46443722628E+00  0.18309317164E+01  0.51100000000E-03 0. -1.
        -11    1    3    3    0    0  0.41699433193E+01 -0.42320531126E+01  0.83165635538E+01  0.10220759778E+02  0.51100000000E-03 0.  1.
        -12    1    3    3    0    0  0.13795732915E+01 -0.17350336312E+02  0.29312682802E+02  0.34090625774E+02  0.00000000000E+00 0.  1.
</event>
<event>
 7    1  0.2227287E-008  0.4614232E+02  0.7816164E-02  0.1320468E+00
        -11   -1    0    0    0    0  0.00000000000E+00  0.00000000000E+00  0.45593999997E+02  0.45594000000E+02  0.51100000000E-03 0.  1.
         11   -1    0    0    0    0 -0.00000000000E+00 -0.00000000000E+00 -0.45593999997E+02  0.45594000000E+02  0.51100000000E-03 0. -1.
    9900012    2    1    2    0    0 -0.10490611675E+02 -0.46933531603E+01  0.43554941384E+02  0.46142318563E+02  0.10000007311E+02 0.  0.
         12    1    1    2    0    0  0.10490611675E+02  0.46933531603E+01 -0.43554941384E+02  0.45045681437E+02  0.00000000000E+00 0. -1.
         11    1    3    3    0    0  0.86128972936E+00 -0.10135457150E+01  0.73031858814E+01  0.74233159164E+01  0.51100000000E-03 0. -1.
        -11    1    3    3    0    0 -0.85326283683E+01 -0.38691160128E+00  0.29360660273E+02  0.30577832156E+02  0.51100000000E-03 0.  1.
        -12    1    3    3    0    0 -0.28192730357E+01 -0.32928958440E+01  0.68910952298E+01  0.81411704905E+01  0.00000000000E+00 0.  1.
</event>
<event>
 7    1  0.2227287E-008  0.4614232E+02  0.7816164E-02  0.1320468E+00
        -11   -1    0    0    0    0  0.00000000000E+00  0.00000000000E+00  0.45593999997E+02  0.45594000000E+02  0.51100000000E-03 0.  1.
         11   -1    0    0    0    0 -0.00000000000E+00 -0.00000000000E+00 -0.45593999997E+02  0.45594000000E+02  0.51100000000E-03 0. -1.
    9900012    2    1    2    0    0  0.68367983163E+01 -0.28795009211E+02  0.33959078884E+02  0.46142318682E+02  0.10000008402E+02 0.  0.
         12    1    1    2    0    0 -0.68367983163E+01  0.28795009211E+02 -0.33959078884E+02  0.45045681318E+02  0.00000000000E+00 0. -1.
         11    1    3    3    0    0  0.98105852267E+00 -0.14048717791E+01  0.28084625525E+01  0.32899244232E+01  0.51100000000E-03 0. -1.
        -11    1    3    3    0    0  0.52729604065E+01 -0.19786944062E+02  0.16354249822E+02  0.26206654771E+02  0.51100000000E-03 0.  1.
         12    1    3    3    0    0  0.58277938713E+00 -0.76031933701E+01  0.14796366510E+02  0.16645739489E+02  0.00000000000E+00 0. -1.
</event>
<event>
 7    1  0.2227287E-008  0.4614231E+02  0.7816164E-02  0.1320468E+00
        -11   -1    0    0    0    0  0.00000000000E+00  0.00000000000E+00  0.45593999997E+02  0.45594000000E+02  0.51100000000E-03 0.  1.
         11   -1    0    0    0    0 -0.00000000000E+00 -0.00000000000E+00 -0.45593999997E+02  0.45594000000E+02  0.51100000000E-03 0. -1.
    9900012    2    1    2    0    0  0.20681687929E+02 -0.20889626970E+02  0.34132169773E+02  0.46142314924E+02  0.99999741332E+01 0.  0.
         12    1    1    2    0    0 -0.20681687929E+02  0.20889626970E+02 -0.34132169773E+02  0.45045685076E+02  0.00000000000E+00 0. -1.
         11    1    3    3    0    0  0.74642000047E+01 -0.94327323812E+01  0.15642493043E+02  0.19732671151E+02  0.51100000000E-03 0. -1.
        -11    1    3    3    0    0  0.12058625275E+02 -0.12094501977E+02  0.18368133104E+02  0.25081382250E+02  0.51100000000E-03 0.  1.
        -12    1    3    3    0    0  0.11588626492E+01  0.63760738857E+00  0.12154362589E+00  0.13282615234E+01  0.00000000000E+00 0.  1.
</event>
<event>
 7    1  0.2227287E-008  0.4614232E+02  0.7816164E-02  0.1320468E+00
        -11   -1    0    0    0    0  0.00000000000E+00  0.00000000000E+00  0.45593999997E+02  0.45594000000E+02  0.51100000000E-03 0.  1.
         11   -1    0    0    0    0 -0.00000000000E+00 -0.00000000000E+00 -0.45593999997E+02  0.45594000000E+02  0.51100000000E-03 0. -1.
    9900012    2    1    2    0    0 -0.17299659924E+02 -0.40448972372E+02  0.96806987024E+01  0.46142317334E+02  0.99999961068E+01 0.  0.
         12    1    1    2    0    0  0.17299659924E+02  0.40448972372E+02 -0.96806987024E+01  0.45045682666E+02  0.00000000000E+00 0. -1.
         11    1    3    3    0    0 -0.55151451412E+01 -0.69177673450E+01  0.23776164305E+01  0.91610802375E+01  0.51100000000E-03 0. -1.
        -11    1    3    3    0    0 -0.11107902934E+02 -0.32955710116E+02  0.81871060109E+01  0.35728042794E+02  0.51100000000E-03 0.  1.
        -12    1    3    3    0    0 -0.67661184958E+00 -0.57549491146E+00 -0.88402373905E+00  0.12531943023E+01  0.00000000000E+00 0.  1.
</event>
<event>
 7    1  0.2227287E-008  0.4614231E+02  0.7816164E-02  0.1320468E+00
        -11   -1    0    0    0    0  0.00000000000E+00  0.00000000000E+00  0.45593999997E+02  0.45594000000E+02  0.51100000000E-03 0.  1.
         11   -1    0    0    0    0 -0.00000000000E+00 -0.00000000000E+00 -0.45593999997E+02  0.45594000000E+02  0.51100000000E-03 0. -1.
    9900012    2    1    2    0    0  0.51755966584E+01  0.19608612753E+02  0.40222250021E+02  0.46142313285E+02  0.99999591871E+01 0.  0.
         12    1    1    2    0    0 -0.51755966584E+01 -0.19608612753E+02 -0.40222250021E+02  0.45045686715E+02  0.00000000000E+00 0. -1.
         11    1    3    3    0    0  0.43905779203E+01  0.76892573258E+01  0.21716157672E+02  0.23451937169E+02  0.51100000000E-03 0. -1.
        -11    1    3    3    0    0 -0.23924753308E+00 -0.15301952828E+00  0.29942005495E+01  0.30076388663E+01  0.51100000000E-03 0.  1.
         12    1    3    3    0    0  0.10242662711E+01  0.12072374955E+02  0.15511891799E+02  0.19682737250E+02  0.00000000000E+00 0. -1.
</event>
<event>
 7    1  0.2227287E-008  0.4614232E+02  0.7816164E-02  0.1320468E+00
        -11   -1    0    0    0    0  0.00000000000E+00  0.00000000000E+00  0.45593999997E+02  0.45594000000E+02  0.51100000000E-03 0.  1.
         11   -1    0    0    0    0 -0.00000000000E+00 -0.00000000000E+00 -0.45593999997E+02  0.45594000000E+02  0.51100000000E-03 0. -1.
    9900012    2    1    2    0    0  0.28627382445E+02  0.70967035106E+01  0.34047367833E+02  0.46142317824E+02  0.10000000574E+02 0.  0.
         12    1    1    2    0    0 -0.28627382445E+02 -0.70967035106E+01 -0.34047367833E+02  0.45045682176E+02  0.00000000000E+00 0. -1.
         11    1    3    3    0    0  0.80240977132E+01  0.37299623132E+01  0.13720137329E+02  0.16326081329E+02  0.51100000000E-03 0. -1.
        -11    1    3    3    0    0  0.15024276543E+02  0.30577378578E+01  0.18295943878E+02  0.23870907170E+02  0.51100000000E-03 0.  1.
         12    1    3    3    0    0  0.55790081885E+01  0.30900333950E+00  0.20312866255E+01  0.59453293253E+01  0.00000000000E+00 0. -1.
</event>
<event>
 7    1  0.2227287E-008  0.4614232E+02  0.7816164E-02  0.1320468E+00
        -11   -1    0    0    0    0  0.00000000000E+00  0.00000000000E+00  0.45593999997E+02  0.45594000000E+02  0.51100000000E-03 0.  1.
         11   -1    0    0    0    0 -0.00000000000E+00 -0.00000000000E+00 -0.45593999997E+02  0.45594000000E+02  0.51100000000E-03 0. -1.
    9900012    2    1    2    0    0  0.18033891941E+02 -0.41187096571E+02  0.27414044088E+01  0.46142317847E+02  0.10000000779E+02 0.  0.
         12    1    1    2    0    0 -0.18033891941E+02  0.41187096571E+02 -0.27414044088E+01  0.45045682153E+02  0.00000000000E+00 0. -1.
         11    1    3    3    0    0  0.34534144800E+01 -0.55604134637E+01 -0.17976337585E+01  0.67879125546E+01  0.51100000000E-03 0. -1.
        -11    1    3    3    0    0  0.55362055287E+00 -0.24153681472E+01  0.20509978673E+01  0.32166895274E+01  0.51100000000E-03 0.  1.
        -12    1    3    3    0    0  0.14026856908E+02 -0.33211314961E+02  0.24880403000E+01  0.36137715765E+02  0.00000000000E+00 0.  1.
</event>
<event>
 7    1  0.2227287E-008  0.4614232E+02  0.7816164E-02  0.1320468E+00
        -11   -1    0    0    0    0  0.00000000000E+00  0.00000000000E+00  0.45593999997E+02  0.45594000000E+02  0.51100000000E-03 0.  1.
         11   -1    0    0    0    0 -0.00000000000E+00 -0.00000000000E+00 -0.45593999997E+02  0.45594000000E+02  0.51100000000E-03 0. -1.
    9900012    2    1    2    0    0  0.17932230674E+02 -0.39799746863E+02  0.11114345041E+02  0.46142318598E+02  0.10000007627E+02 0.  0.
         12    1    1    2    0    0 -0.17932230674E+02  0.39799746863E+02 -0.11114345041E+02  0.45045681402E+02  0.00000000000E+00 0. -1.
         11    1    3    3    0    0  0.76930273354E+01 -0.83822527501E+01  0.18819932143E+01  0.11531987230E+02  0.51100000000E-03 0. -1.
        -11    1    3    3    0    0  0.54176434768E+00 -0.22580627662E+01 -0.50186502275E+00  0.23757577374E+01  0.51100000000E-03 0.  1.
        -12    1    3    3    0    0  0.96974389909E+01 -0.29159431347E+02  0.97342168492E+01  0.32234573630E+02  0.00000000000E+00 0.  1.
</event>
<event>
 7    1  0.2227287E-008  0.4614232E+02  0.7816164E-02  0.1320468E+00
        -11   -1    0    0    0    0  0.00000000000E+00  0.00000000000E+00  0.45593999997E+02  0.45594000000E+02  0.51100000000E-03 0.  1.
         11   -1    0    0    0    0 -0.00000000000E+00 -0.00000000000E+00 -0.45593999997E+02  0.45594000000E+02  0.51100000000E-03 0. -1.
    9900012    2    1    2    0    0 -0.34983409671E+02 -0.22481202937E+02  0.17316756725E+02  0.46142317619E+02  0.99999987038E+01 0.  0.
         12    1    1    2    0    0  0.34983409671E+02  0.22481202937E+02 -0.17316756725E+02  0.45045682381E+02  0.00000000000E+00 0. -1.
         11    1    3    3    0    0 -0.25511476372E+01 -0.20224539291E+01  0.37656689099E+01  0.49778445900E+01  0.51100000000E-03 0. -1.
        -11    1    3    3    0    0 -0.15094919046E+02 -0.10879578310E+02  0.97084296573E+01  0.20987506090E+02  0.51100000000E-03 0.  1.
        -12    1    3    3    0    0 -0.17337342987E+02 -0.95791706980E+01  0.38426581575E+01  0.20176966939E+02  0.00000000000E+00 0.  1.
</event>
<event>
 7    1  0.2227287E-008  0.4614232E+02  0.7816164E-02  0.1320468E+00
        -11   -1    0    0    0    0  0.00000000000E+00  0.00000000000E+00  0.45593999997E+02  0.45594000000E+02  0.51100000000E-03 0. -1.
         11   -1    0    0    0    0 -0.00000000000E+00 -0.00000000000E+00 -0.45593999997E+02  0.45594000000E+02  0.51100000000E-03 0.  1.
    9900012    2    1    2    0    0 -0.27981956151E+01 -0.44524123444E+02 -0.62358757639E+01  0.46142316370E+02  0.99999873167E+01 0.  0.
         12    1    1    2    0    0  0.27981956151E+01  0.44524123444E+02  0.62358757639E+01  0.45045683630E+02  0.00000000000E+00 0. -1.
         11    1    3    3    0    0 -0.20855164985E+00  0.18164512814E+00 -0.34037915568E+00  0.43857379536E+00  0.51100000000E-03 0. -1.
        -11    1    3    3    0    0 -0.23496772654E+01 -0.35543390782E+02 -0.18044652959E+01  0.35666646980E+02  0.51100000000E-03 0.  1.
        -12    1    3    3    0    0 -0.23996669983E+00 -0.91623777899E+01 -0.40910313123E+01  0.10037095595E+02  0.00000000000E+00 0.  1.
</event>
<event>
 7    1  0.2227287E-008  0.4614232E+02  0.7816164E-02  0.1320468E+00
        -11   -1    0    0    0    0  0.00000000000E+00  0.00000000000E+00  0.45593999997E+02  0.45594000000E+02  0.51100000000E-03 0.  1.
         11   -1    0    0    0    0 -0.00000000000E+00 -0.00000000000E+00 -0.45593999997E+02  0.45594000000E+02  0.51100000000E-03 0. -1.
    9900012    2    1    2    0    0 -0.15703511087E+02  0.41856692168E+02 -0.55254458516E+01  0.46142317726E+02  0.99999996767E+01 0.  0.
         12    1    1    2    0    0  0.15703511087E+02 -0.41856692168E+02  0.55254458516E+01  0.45045682274E+02  0.00000000000E+00 0. -1.
         11    1    3    3    0    0 -0.14047279042E+01  0.66347165781E+01 -0.69541747819E+00  0.68173550800E+01  0.51100000000E-03 0. -1.
        -11    1    3    3    0    0 -0.77701908650E+00  0.86939831688E+01  0.15721416512E+01  0.88690885457E+01  0.51100000000E-03 0.  1.
        -12    1    3    3    0    0 -0.13521764096E+02  0.26527992421E+02 -0.64021700246E+01  0.30455874100E+02  0.00000000000E+00 0.  1.
</event>
<event>
 7    1  0.2227287E-008  0.4614232E+02  0.7816164E-02  0.1320468E+00
        -11   -1    0    0    0    0  0.00000000000E+00  0.00000000000E+00  0.45593999997E+02  0.45594000000E+02  0.51100000000E-03 0. -1.
         11   -1    0    0    0    0 -0.00000000000E+00 -0.00000000000E+00 -0.45593999997E+02  0.45594000000E+02  0.51100000000E-03 0.  1.
    9900012    2    1    2    0    0  0.44938390645E+02 -0.22182771425E+01  0.21757333805E+01  0.46142317377E+02  0.99999964971E+01 0.  0.
         12    1    1    2    0    0 -0.44938390645E+02  0.22182771425E+01 -0.21757333805E+01  0.45045682623E+02  0.00000000000E+00 0. -1.
         11    1    3    3    0    0  0.16081202556E+02 -0.78365888100E-01 -0.28312988500E+01  0.16328731436E+02  0.51100000000E-03 0. -1.
        -11    1    3    3    0    0  0.14173958361E+02 -0.16056930453E+01 -0.80278823922E-01  0.14264844574E+02  0.51100000000E-03 0.  1.
        -12    1    3    3    0    0  0.14683229728E+02 -0.53421820914E+00  0.50873110544E+01  0.15548741367E+02  0.00000000000E+00 0.  1.
</event>
<event>
 7    1  0.2227287E-008  0.4614232E+02  0.7816164E-02  0.1320468E+00
        -11   -1    0    0    0    0  0.00000000000E+00  0.00000000000E+00  0.45593999997E+02  0.45594000000E+02  0.51100000000E-03 0.  1.
         11   -1    0    0    0    0 -0.00000000000E+00 -0.00000000000E+00 -0.45593999997E+02  0.45594000000E+02  0.51100000000E-03 0. -1.
    9900012    2    1    2    0    0  0.19259474600E+02  0.14642657306E+02  0.37997087745E+02  0.46142318166E+02  0.10000003688E+02 0.  0.
         12    1    1    2    0    0 -0.19259474600E+02 -0.14642657306E+02 -0.37997087745E+02  0.45045681834E+02  0.00000000000E+00 0. -1.
         11    1    3    3    0    0  0.93506621711E+01  0.59267959369E+01  0.18797899423E+02  0.21815655298E+02  0.51100000000E-03 0. -1.
        -11    1    3    3    0    0  0.24036599928E+01  0.45149122787E+01  0.12230544355E+02  0.13257006816E+02  0.51100000000E-03 0.  1.
         12    1    3    3    0    0  0.75051524364E+01  0.42009490904E+01  0.69686439667E+01  0.11069656051E+02  0.00000000000E+00 0. -1.
</event>
<event>
 7    1  0.2227287E-008  0.4614232E+02  0.7816164E-02  0.1320468E+00
        -11   -1    0    0    0    0  0.00000000000E+00  0.00000000000E+00  0.45593999997E+02  0.45594000000E+02  0.51100000000E-03 0. -1.
         11   -1    0    0    0    0 -0.00000000000E+00 -0.00000000000E+00 -0.45593999997E+02  0.45594000000E+02  0.51100000000E-03 0.  1.
    9900012    2    1    2    0    0  0.51266748069E+01  0.44278203607E+02 -0.65016491032E+01  0.46142317074E+02  0.99999937329E+01 0.  0.
         12    1    1    2    0    0 -0.51266748069E+01 -0.44278203607E+02  0.65016491032E+01  0.45045682926E+02  0.00000000000E+00 0. -1.
         11    1    3    3    0    0  0.49840169306E+00  0.79210311226E+00 -0.17664935858E+01  0.19990826491E+01  0.51100000000E-03 0. -1.
        -11    1    3    3    0    0  0.19864945136E+01  0.74859176861E+01 -0.64011080104E-01  0.77452709272E+01  0.51100000000E-03 0.  1.
        -12    1    3    3    0    0  0.26417786003E+01  0.36000182808E+02 -0.46711444373E+01  0.36397963498E+02  0.00000000000E+00 0.  1.
</event>
<event>
 7    1  0.2227287E-008  0.4614232E+02  0.7816164E-02  0.1320468E+00
        -11   -1    0    0    0    0  0.00000000000E+00  0.00000000000E+00  0.45593999997E+02  0.45594000000E+02  0.51100000000E-03 0. -1.
         11   -1    0    0    0    0 -0.00000000000E+00 -0.00000000000E+00 -0.45593999997E+02  0.45594000000E+02  0.51100000000E-03 0.  1.
    9900012    2    1    2    0    0 -0.41220275625E+02  0.16841748517E+02 -0.68086790085E+01  0.46142315129E+02  0.99999759948E+01 0.  0.
         12    1    1    2    0    0  0.41220275625E+02 -0.16841748517E+02  0.68086790085E+01  0.45045684871E+02  0.00000000000E+00 0. -1.
         11    1    3    3    0    0 -0.57181077033E+01  0.15654687844E+01  0.11608055776E+01  0.60411023888E+01  0.51100000000E-03 0. -1.
        -11    1    3    3    0    0 -0.34345224421E+02  0.15695029454E+02 -0.85855730104E+01  0.38725191469E+02  0.51100000000E-03 0.  1.
        -12    1    3    3    0    0 -0.11569435002E+01 -0.41874972154E+00  0.61608842431E+00  0.13760212711E+01  0.00000000000E+00 0.  1.
</event>
<event>
 7    1  0.2227287E-008  0.4614232E+02  0.7816164E-02  0.1320468E+00
        -11   -1    0    0    0    0  0.00000000000E+00  0.00000000000E+00  0.45593999997E+02  0.45594000000E+02  0.51100000000E-03 0.  1.
         11   -1    0    0    0    0 -0.00000000000E+00 -0.00000000000E+00 -0.45593999997E+02  0.45594000000E+02  0.51100000000E-03 0. -1.
    9900012    2    1    2    0    0  0.60227621333E+01  0.36555039324E+02  0.25623603320E+02  0.46142316403E+02  0.99999876124E+01 0.  0.
         12    1    1    2    0    0 -0.60227621333E+01 -0.36555039324E+02 -0.25623603320E+02  0.45045683597E+02  0.00000000000E+00 0. -1.
         11    1    3    3    0    0  0.26307683503E+01  0.46405595596E+01  0.78174278991E+00  0.53913687677E+01  0.51100000000E-03 0. -1.
        -11    1    3    3    0    0 -0.33275814538E+00  0.28858918903E+00  0.51505595269E+00  0.67771277018E+00  0.51100000000E-03 0.  1.
        -12    1    3    3    0    0  0.37247519285E+01  0.31625890575E+02  0.24326804577E+02  0.40073234865E+02  0.00000000000E+00 0.  1.
</event>
<event>
 7    1  0.2227287E-008  0.4614232E+02  0.7816164E-02  0.1320468E+00
        -11   -1    0    0    0    0  0.00000000000E+00  0.00000000000E+00  0.45593999997E+02  0.45594000000E+02  0.51100000000E-03 0.  1.
         11   -1    0    0    0    0 -0.00000000000E+00 -0.00000000000E+00 -0.45593999997E+02  0.45594000000E+02  0.51100000000E-03 0. -1.
    9900012    2    1    2    0    0 -0.79081970421E+01  0.39859976593E+02  0.19435953760E+02  0.46142316378E+02  0.99999873870E+01 0.  0.
         12    1    1    2    0    0  0.79081970421E+01 -0.39859976593E+02 -0.19435953760E+02  0.45045683622E+02  0.00000000000E+00 0. -1.
         11    1    3    3    0    0 -0.13059851042E+01  0.13520897057E+01  0.24266688661E+00  0.18954237372E+01  0.51100000000E-03 0. -1.
        -11    1    3    3    0    0 -0.55958822413E+00  0.12515007998E+02  0.99745362390E+01  0.16013429914E+02  0.51100000000E-03 0.  1.
        -12    1    3    3    0    0 -0.60426237138E+01  0.25992878888E+02  0.92187506346E+01  0.28233462726E+02  0.00000000000E+00 0.  1.
</event>
<event>
 7    1  0.2227287E-008  0.4614232E+02  0.7816164E-02  0.1320468E+00
        -11   -1    0    0    0    0  0.00000000000E+00  0.00000000000E+00  0.45593999997E+02  0.45594000000E+02  0.51100000000E-03 0.  1.
         11   -1    0    0    0    0 -0.00000000000E+00 -0.00000000000E+00 -0.45593999997E+02  0.45594000000E+02  0.51100000000E-03 0. -1.
    9900012    2    1    2    0    0 -0.81594423796E+01 -0.10946618612E+02  0.42926781236E+02  0.46142317562E+02  0.99999981836E+01 0.  0.
         12    1    1    2    0    0  0.81594423796E+01  0.10946618612E+02 -0.42926781236E+02  0.45045682438E+02  0.00000000000E+00 0. -1.
         11    1    3    3    0    0 -0.19839071231E+01 -0.42313406047E+01  0.17139024363E+02  0.17764748441E+02  0.51100000000E-03 0. -1.
        -11    1    3    3    0    0 -0.50957423026E+01 -0.60727699444E+01  0.25928404571E+02  0.27113230871E+02  0.51100000000E-03 0.  1.
         12    1    3    3    0    0 -0.10797929539E+01 -0.64250806337E+00 -0.14064769792E+00  0.12643382497E+01  0.00000000000E+00 0. -1.
</event>
<event>
 7    1  0.2227287E-008  0.4614232E+02  0.7816164E-02  0.1320468E+00
        -11   -1    0    0    0    0  0.00000000000E+00  0.00000000000E+00  0.45593999997E+02  0.45594000000E+02  0.51100000000E-03 0.  1.
         11   -1    0    0    0    0 -0.00000000000E+00 -0.00000000000E+00 -0.45593999997E+02  0.45594000000E+02  0.51100000000E-03 0. -1.
    9900012    2    1    2    0    0 -0.31736599195E+01 -0.20610848385E+02  0.39927864476E+02  0.46142317076E+02  0.99999937562E+01 0.  0.
         12    1    1    2    0    0  0.31736599195E+01  0.20610848385E+02 -0.39927864476E+02  0.45045682924E+02  0.00000000000E+00 0. -1.
         11    1    3    3    0    0  0.96698124289E+00 -0.12474572840E+02  0.25647094039E+02  0.28536353186E+02  0.51100000000E-03 0. -1.
        -11    1    3    3    0    0 -0.13978394783E+01 -0.28319511327E+01  0.14943199815E+01  0.34938367011E+01  0.51100000000E-03 0.  1.
        -12    1    3    3    0    0 -0.27428016841E+01 -0.53043244125E+01  0.12786450455E+02  0.14112127189E+02  0.00000000000E+00 0.  1.
</event>
<event>
 7    1  0.2227287E-008  0.4614232E+02  0.7816164E-02  0.1320468E+00
        -11   -1    0    0    0    0  0.00000000000E+00  0.00000000000E+00  0.45593999997E+02  0.45594000000E+02  0.51100000000E-03 0.  1.
         11   -1    0    0    0    0 -0.00000000000E+00 -0.00000000000E+00 -0.45593999997E+02  0.45594000000E+02  0.51100000000E-03 0. -1.
    9900012    2    1    2    0    0 -0.66259530715E+01 -0.38910920115E+02  0.21706001991E+02  0.46142317846E+02  0.10000000772E+02 0.  0.
         12    1    1    2    0    0  0.66259530715E+01  0.38910920115E+02 -0.21706001991E+02  0.45045682154E+02  0.00000000000E+00 0. -1.
         11    1    3    3    0    0 -0.18022085036E+01 -0.10629445644E+02  0.16751548488E+01  0.10910509347E+02  0.51100000000E-03 0. -1.
        -11    1    3    3    0    0 -0.15422958744E+01 -0.24805390050E+01  0.14032435665E+01  0.32405004378E+01  0.51100000000E-03 0.  1.
        -12    1    3    3    0    0 -0.32814486935E+01 -0.25800935466E+02  0.18627603576E+02  0.31991308061E+02  0.00000000000E+00 0.  1.
</event>
<event>
 7    1  0.2227287E-008  0.4614232E+02  0.7816164E-02  0.1320468E+00
        -11   -1    0    0    0    0  0.00000000000E+00  0.00000000000E+00  0.45593999997E+02  0.45594000000E+02  0.51100000000E-03 0.  1.
         11   -1    0    0    0    0 -0.00000000000E+00 -0.00000000000E+00 -0.45593999997E+02  0.45594000000E+02  0.51100000000E-03 0. -1.
    9900012    2    1    2    0    0  0.44847605109E+02  0.28133757979E+00  0.42103045070E+01  0.46142317645E+02  0.99999989396E+01 0.  0.
         12    1    1    2    0    0 -0.44847605109E+02 -0.28133757979E+00 -0.42103045070E+01  0.45045682355E+02  0.00000000000E+00 0. -1.
         11    1    3    3    0    0  0.24534916101E+02  0.18033864841E+01  0.77823976701E+00  0.24613410334E+02  0.51100000000E-03 0. -1.
        -11    1    3    3    0    0  0.15329260105E+02 -0.56906040224E+00  0.51358547528E+01  0.16176744092E+02  0.51100000000E-03 0.  1.
         12    1    3    3    0    0  0.49834289031E+01 -0.95298850204E+00 -0.17037900128E+01  0.53521632192E+01  0.00000000000E+00 0. -1.
</event>
<event>
 7    1  0.2227287E-008  0.4614232E+02  0.7816164E-02  0.1320468E+00
        -11   -1    0    0    0    0  0.00000000000E+00  0.00000000000E+00  0.45593999997E+02  0.45594000000E+02  0.51100000000E-03 0. -1.
         11   -1    0    0    0    0 -0.00000000000E+00 -0.00000000000E+00 -0.45593999997E+02  0.45594000000E+02  0.51100000000E-03 0.  1.
    9900012    2    1    2    0    0 -0.43895965055E+02  0.46701208346E+01  0.89692645491E+01  0.46142317817E+02  0.10000000514E+02 0.  0.
         12    1    1    2    0    0  0.43895965055E+02 -0.46701208346E+01 -0.89692645491E+01  0.45045682183E+02  0.00000000000E+00 0. -1.
         11    1    3    3    0    0 -0.19756394912E+02 -0.10770301698E+01  0.49575670602E+01  0.20397367607E+02  0.51100000000E-03 0. -1.
        -11    1    3    3    0    0 -0.21753786356E+02  0.41190090364E+01  0.49894562604E+01  0.22695553095E+02  0.51100000000E-03 0.  1.
         12    1    3    3    0    0 -0.23857837882E+01  0.16281419680E+01 -0.97775877147E+00  0.30493971154E+01  0.00000000000E+00 0. -1.
</event>
<event>
 7    1  0.2227287E-008  0.4614232E+02  0.7816164E-02  0.1320468E+00
        -11   -1    0    0    0    0  0.00000000000E+00  0.00000000000E+00  0.45593999997E+02  0.45594000000E+02  0.51100000000E-03 0.  1.
         11   -1    0    0    0    0 -0.00000000000E+00 -0.00000000000E+00 -0.45593999997E+02  0.45594000000E+02  0.51100000000E-03 0. -1.
    9900012    2    1    2    0    0  0.10465017062E+02  0.40142465371E+02  0.17555038030E+02  0.46142317983E+02  0.10000002023E+02 0.  0.
         12    1    1    2    0    0 -0.10465017062E+02 -0.40142465371E+02 -0.17555038030E+02  0.45045682017E+02  0.00000000000E+00 0. -1.
         11    1    3    3    0    0  0.88760273423E+01  0.22929031153E+02  0.84282471210E+01  0.25991530943E+02  0.51100000000E-03 0. -1.
        -11    1    3    3    0    0  0.22535888613E+01  0.38632948056E+01  0.33557977716E+01  0.55915193334E+01  0.51100000000E-03 0.  1.
        -12    1    3    3    0    0 -0.66459914189E+00  0.13350139412E+02  0.57709931378E+01  0.14559267706E+02  0.00000000000E+00 0.  1.
</event>
<event>
 7    1  0.2227287E-008  0.4614232E+02  0.7816164E-02  0.1320468E+00
        -11   -1    0    0    0    0  0.00000000000E+00  0.00000000000E+00  0.45593999997E+02  0.45594000000E+02  0.51100000000E-03 0.  1.
         11   -1    0    0    0    0 -0.00000000000E+00 -0.00000000000E+00 -0.45593999997E+02  0.45594000000E+02  0.51100000000E-03 0. -1.
    9900012    2    1    2    0    0  0.17703121912E+02  0.41030892445E+02 -0.56726321982E+01  0.46142318561E+02  0.10000007295E+02 0.  0.
         12    1    1    2    0    0 -0.17703121912E+02 -0.41030892445E+02  0.56726321982E+01  0.45045681439E+02  0.00000000000E+00 0. -1.
         11    1    3    3    0    0  0.16450277747E+00  0.12933511328E+01 -0.71974778125E+00  0.14892466036E+01  0.51100000000E-03 0. -1.
        -11    1    3    3    0    0  0.98582789906E+01  0.11686918909E+02 -0.20232582379E+01  0.15422817914E+02  0.51100000000E-03 0.  1.
        -12    1    3    3    0    0  0.76803401442E+01  0.28050622403E+02 -0.29296261790E+01  0.29230254044E+02  0.00000000000E+00 0.  1.
</event>
<event>
 7    1  0.2227287E-008  0.4614232E+02  0.7816164E-02  0.1320468E+00
        -11   -1    0    0    0    0  0.00000000000E+00  0.00000000000E+00  0.45593999997E+02  0.45594000000E+02  0.51100000000E-03 0.  1.
         11   -1    0    0    0    0 -0.00000000000E+00 -0.00000000000E+00 -0.45593999997E+02  0.45594000000E+02  0.51100000000E-03 0. -1.
    9900012    2    1    2    0    0  0.33120327692E+01  0.15550260531E+02  0.42146565375E+02  0.46142321666E+02  0.10000035610E+02 0.  0.
         12    1    1    2    0    0 -0.33120327692E+01 -0.15550260531E+02 -0.42146565375E+02  0.45045678334E+02  0.00000000000E+00 0. -1.
         11    1    3    3    0    0 -0.61986648817E+00  0.94272663269E-01  0.67157765607E+00  0.91877016030E+00  0.51100000000E-03 0. -1.
        -11    1    3    3    0    0  0.36330728440E+01  0.15391658817E+02  0.31529673583E+02  0.35273541018E+02  0.51100000000E-03 0.  1.
        -12    1    3    3    0    0  0.29882641339E+00  0.64329050832E-01  0.99453141359E+01  0.99500104881E+01  0.00000000000E+00 0.  1.
</event>
<event>
 7    1  0.2227287E-008  0.4614231E+02  0.7816164E-02  0.1320468E+00
        -11   -1    0    0    0    0  0.00000000000E+00  0.00000000000E+00  0.45593999997E+02  0.45594000000E+02  0.51100000000E-03 0.  1.
         11   -1    0    0    0    0 -0.00000000000E+00 -0.00000000000E+00 -0.45593999997E+02  0.45594000000E+02  0.51100000000E-03 0. -1.
    9900012    2    1    2    0    0  0.31816582461E+02 -0.23722357022E+02  0.21308888939E+02  0.46142313303E+02  0.99999593456E+01 0.  0.
         12    1    1    2    0    0 -0.31816582461E+02  0.23722357022E+02 -0.21308888939E+02  0.45045686697E+02  0.00000000000E+00 0. -1.
         11    1    3    3    0    0  0.88202800497E+01 -0.78388844075E+01  0.65432636378E+01  0.13492951797E+02  0.51100000000E-03 0. -1.
        -11    1    3    3    0    0  0.14682062552E+02 -0.12851567093E+02  0.65729289340E+01  0.20589539396E+02  0.51100000000E-03 0.  1.
         12    1    3    3    0    0  0.83142398596E+01 -0.30319055217E+01  0.81926963673E+01  0.12059822109E+02  0.00000000000E+00 0. -1.
</event>
<event>
 7    1  0.2227287E-008  0.4614232E+02  0.7816164E-02  0.1320468E+00
        -11   -1    0    0    0    0  0.00000000000E+00  0.00000000000E+00  0.45593999997E+02  0.45594000000E+02  0.51100000000E-03 0.  1.
         11   -1    0    0    0    0 -0.00000000000E+00 -0.00000000000E+00 -0.45593999997E+02  0.45594000000E+02  0.51100000000E-03 0. -1.
    9900012    2    1    2    0    0 -0.31837686279E+02  0.31756217536E+02 -0.26491237103E+01  0.46142317896E+02  0.10000001231E+02 0.  0.
         12    1    1    2    0    0  0.31837686279E+02 -0.31756217536E+02  0.26491237103E+01  0.45045682104E+02  0.00000000000E+00 0. -1.
         11    1    3    3    0    0 -0.92741124400E+00  0.24309991445E+01  0.12128500750E+01  0.28706887713E+01  0.51100000000E-03 0. -1.
        -11    1    3    3    0    0 -0.23584652215E+02  0.21773267588E+02 -0.56722178873E+01  0.32595782819E+02  0.51100000000E-03 0.  1.
        -12    1    3    3    0    0 -0.73256228198E+01  0.75519508034E+01  0.18102441019E+01  0.10675846306E+02  0.00000000000E+00 0.  1.
</event>
<event>
 7    1  0.2227287E-008  0.4614232E+02  0.7816164E-02  0.1320468E+00
        -11   -1    0    0    0    0  0.00000000000E+00  0.00000000000E+00  0.45593999997E+02  0.45594000000E+02  0.51100000000E-03 0. -1.
         11   -1    0    0    0    0 -0.00000000000E+00 -0.00000000000E+00 -0.45593999997E+02  0.45594000000E+02  0.51100000000E-03 0.  1.
    9900012    2    1    2    0    0 -0.11159477639E+02 -0.54069272388E+01 -0.43305251406E+02  0.46142316492E+02  0.99999884279E+01 0.  0.
         12    1    1    2    0    0  0.11159477639E+02  0.54069272388E+01  0.43305251406E+02  0.45045683508E+02  0.00000000000E+00 0. -1.
         11    1    3    3    0    0 -0.31027213120E+00 -0.31283002040E+00  0.30195168883E+00  0.53414089955E+00  0.51100000000E-03 0. -1.
        -11    1    3    3    0    0 -0.64862127930E+01  0.18942833427E+00 -0.19966310404E+02  0.20994294246E+02  0.51100000000E-03 0.  1.
         12    1    3    3    0    0 -0.43629927145E+01 -0.52835255527E+01 -0.23640892691E+02  0.24613881347E+02  0.00000000000E+00 0. -1.
</event>
<event>
 7    1  0.2227287E-008  0.4614232E+02  0.7816164E-02  0.1320468E+00
        -11   -1    0    0    0    0  0.00000000000E+00  0.00000000000E+00  0.45593999997E+02  0.45594000000E+02  0.51100000000E-03 0.  1.
         11   -1    0    0    0    0 -0.00000000000E+00 -0.00000000000E+00 -0.45593999997E+02  0.45594000000E+02  0.51100000000E-03 0. -1.
    9900012    2    1    2    0    0 -0.53108309135E+01  0.20648620200E+02  0.39680511730E+02  0.46142318161E+02  0.10000003649E+02 0.  0.
         12    1    1    2    0    0  0.53108309135E+01 -0.20648620200E+02 -0.39680511730E+02  0.45045681839E+02  0.00000000000E+00 0. -1.
         11    1    3    3    0    0 -0.31993548195E+01  0.13705792282E+02  0.28950537375E+02  0.32190343706E+02  0.51100000000E-03 0. -1.
        -11    1    3    3    0    0 -0.14173437882E+01  0.52005073020E+01  0.10805125758E+02  0.12074969256E+02  0.51100000000E-03 0.  1.
         12    1    3    3    0    0 -0.69413230581E+00  0.17423206164E+01 -0.75151402947E-01  0.18770052002E+01  0.00000000000E+00 0. -1.
</event>
<event>
 7    1  0.2227287E-008  0.4614232E+02  0.7816164E-02  0.1320468E+00
        -11   -1    0    0    0    0  0.00000000000E+00  0.00000000000E+00  0.45593999997E+02  0.45594000000E+02  0.51100000000E-03 0.  1.
         11   -1    0    0    0    0 -0.00000000000E+00 -0.00000000000E+00 -0.45593999997E+02  0.45594000000E+02  0.51100000000E-03 0. -1.
    9900012    2    1    2    0    0 -0.12979989173E+02 -0.41649315948E+02  0.11223541216E+02  0.46142317463E+02  0.99999972771E+01 0.  0.
         12    1    1    2    0    0  0.12979989173E+02  0.41649315948E+02 -0.11223541216E+02  0.45045682537E+02  0.00000000000E+00 0. -1.
         11    1    3    3    0    0 -0.32994184230E+01 -0.64124674240E+01  0.10006906042E+01  0.72806100253E+01  0.51100000000E-03 0.  1.
        -11    1    3    3    0    0  0.74588317980E+00 -0.41294180182E+00 -0.46587546015E+00  0.97154663043E+00  0.51100000000E-03 0. -1.
         12    1    3    3    0    0 -0.10426453930E+02 -0.34823906722E+02  0.10688726072E+02  0.37890160807E+02  0.00000000000E+00 0. -1.
</event>
<event>
 7    1  0.2227287E-008  0.4614232E+02  0.7816164E-02  0.1320468E+00
        -11   -1    0    0    0    0  0.00000000000E+00  0.00000000000E+00  0.45593999997E+02  0.45594000000E+02  0.51100000000E-03 0.  1.
         11   -1    0    0    0    0 -0.00000000000E+00 -0.00000000000E+00 -0.45593999997E+02  0.45594000000E+02  0.51100000000E-03 0. -1.
    9900012    2    1    2    0    0 -0.93864519546E+01  0.43646326918E+02  0.60005150624E+01  0.46142317468E+02  0.99999973296E+01 0.  0.
         12    1    1    2    0    0  0.93864519546E+01 -0.43646326918E+02 -0.60005150624E+01  0.45045682532E+02  0.00000000000E+00 0. -1.
         11    1    3    3    0    0  0.34888402510E-01  0.21025342236E+01 -0.41247428604E+00  0.21428958583E+01  0.51100000000E-03 0. -1.
        -11    1    3    3    0    0 -0.82375195457E+01  0.19421675486E+02  0.64129127972E+00  0.21106147487E+02  0.51100000000E-03 0.  1.
        -12    1    3    3    0    0 -0.11838208114E+01  0.22122117208E+02  0.57716980687E+01  0.22893274123E+02  0.00000000000E+00 0.  1.
</event>
<event>
 7    1  0.2227287E-008  0.4614232E+02  0.7816164E-02  0.1320468E+00
        -11   -1    0    0    0    0  0.00000000000E+00  0.00000000000E+00  0.45593999997E+02  0.45594000000E+02  0.51100000000E-03 0. -1.
         11   -1    0    0    0    0 -0.00000000000E+00 -0.00000000000E+00 -0.45593999997E+02  0.45594000000E+02  0.51100000000E-03 0.  1.
    9900012    2    1    2    0    0 -0.31740135007E+02 -0.31690017882E+02 -0.41737339377E+01  0.46142318091E+02  0.10000003009E+02 0.  0.
         12    1    1    2    0    0  0.31740135007E+02  0.31690017882E+02  0.41737339377E+01  0.45045681909E+02  0.00000000000E+00 0. -1.
         11    1    3    3    0    0 -0.21141405172E+01 -0.64221833504E+01 -0.10303804740E+01  0.68392772495E+01  0.51100000000E-03 0. -1.
        -11    1    3    3    0    0 -0.68288406668E+01 -0.61762693256E+01 -0.25801242602E+01  0.95622387072E+01  0.51100000000E-03 0.  1.
        -12    1    3    3    0    0 -0.22797153823E+02 -0.19091565206E+02 -0.56322920362E+00  0.29740802134E+02  0.00000000000E+00 0.  1.
</event>
<event>
 7    1  0.2227287E-008  0.4614232E+02  0.7816164E-02  0.1320468E+00
        -11   -1    0    0    0    0  0.00000000000E+00  0.00000000000E+00  0.45593999997E+02  0.45594000000E+02  0.51100000000E-03 0.  1.
         11   -1    0    0    0    0 -0.00000000000E+00 -0.00000000000E+00 -0.45593999997E+02  0.45594000000E+02  0.51100000000E-03 0. -1.
    9900012    2    1    2    0    0  0.38303376759E+01  0.21553896471E+02  0.39368410727E+02  0.46142315379E+02  0.99999782780E+01 0.  0.
         12    1    1    2    0    0 -0.38303376759E+01 -0.21553896471E+02 -0.39368410727E+02  0.45045684621E+02  0.00000000000E+00 0. -1.
         11    1    3    3    0    0  0.20941278627E+01  0.12397407835E+02  0.19962894294E+02  0.23592334378E+02  0.51100000000E-03 0. -1.
        -11    1    3    3    0    0  0.39544855443E+01  0.62915785808E+01  0.99102734721E+01  0.12386905889E+02  0.51100000000E-03 0.  1.
         12    1    3    3    0    0 -0.22182757310E+01  0.28649100552E+01  0.94952429610E+01  0.10163075112E+02  0.00000000000E+00 0. -1.
</event>
<event>
 7    1  0.2227287E-008  0.4614231E+02  0.7816164E-02  0.1320468E+00
        -11   -1    0    0    0    0  0.00000000000E+00  0.00000000000E+00  0.45593999997E+02  0.45594000000E+02  0.51100000000E-03 0.  1.
         11   -1    0    0    0    0 -0.00000000000E+00 -0.00000000000E+00 -0.45593999997E+02  0.45594000000E+02  0.51100000000E-03 0. -1.
    9900012    2    1    2    0    0 -0.25090201870E+02  0.33153532465E+02  0.17333188410E+02  0.46142308028E+02  0.99999112445E+01 0.  0.
         12    1    1    2    0    0  0.25090201870E+02 -0.33153532465E+02 -0.17333188410E+02  0.45045691972E+02  0.00000000000E+00 0. -1.
         11    1    3    3    0    0 -0.89095651831E+01  0.55250561533E+01  0.28020016702E+01  0.10851627107E+02  0.51100000000E-03 0. -1.
        -11    1    3    3    0    0 -0.69097047708E+01  0.89450865091E+01  0.50864246267E+01  0.12394769398E+02  0.51100000000E-03 0.  1.
         12    1    3    3    0    0 -0.92709319161E+01  0.18683389803E+02  0.94447621130E+01  0.22895911523E+02  0.00000000000E+00 0. -1.
</event>
<event>
 7    1  0.2227287E-008  0.4614232E+02  0.7816164E-02  0.1320468E+00
        -11   -1    0    0    0    0  0.00000000000E+00  0.00000000000E+00  0.45593999997E+02  0.45594000000E+02  0.51100000000E-03 0.  1.
         11   -1    0    0    0    0 -0.00000000000E+00 -0.00000000000E+00 -0.45593999997E+02  0.45594000000E+02  0.51100000000E-03 0. -1.
    9900012    2    1    2    0    0 -0.15257642001E+02 -0.11756658846E+02  0.40719758105E+02  0.46142319110E+02  0.10000012304E+02 0.  0.
         12    1    1    2    0    0  0.15257642001E+02  0.11756658846E+02 -0.40719758105E+02  0.45045680890E+02  0.00000000000E+00 0. -1.
         11    1    3    3    0    0 -0.34504183506E+01 -0.29951731878E+01  0.82172080210E+01  0.94020719600E+01  0.51100000000E-03 0. -1.
        -11    1    3    3    0    0 -0.54048444950E+01 -0.82336842937E+01  0.24958605198E+02  0.26831658069E+02  0.51100000000E-03 0.  1.
         12    1    3    3    0    0 -0.64023791555E+01 -0.52780136475E+00  0.75439448865E+01  0.99085890813E+01  0.00000000000E+00 0. -1.
</event>
<event>
 7    1  0.2227287E-008  0.4614232E+02  0.7816164E-02  0.1320468E+00
        -11   -1    0    0    0    0  0.00000000000E+00  0.00000000000E+00  0.45593999997E+02  0.45594000000E+02  0.51100000000E-03 0.  1.
         11   -1    0    0    0    0 -0.00000000000E+00 -0.00000000000E+00 -0.45593999997E+02  0.45594000000E+02  0.51100000000E-03 0. -1.
    9900012    2    1    2    0    0 -0.27572376998E+02  0.11092170235E+01  0.35604032666E+02  0.46142317878E+02  0.10000001070E+02 0.  0.
         12    1    1    2    0    0  0.27572376998E+02 -0.11092170235E+01 -0.35604032666E+02  0.45045682122E+02  0.00000000000E+00 0. -1.
         11    1    3    3    0    0 -0.14493228907E+02  0.31548074453E+01  0.15869400448E+02  0.21721978847E+02  0.51100000000E-03 0. -1.
        -11    1    3    3    0    0 -0.51594783409E+01 -0.69302545348E+00  0.12759615331E+02  0.13780721486E+02  0.51100000000E-03 0.  1.
        -12    1    3    3    0    0 -0.79196697501E+01 -0.13525649683E+01  0.69750168872E+01  0.10639617546E+02  0.00000000000E+00 0.  1.
</event>
<event>
 7    1  0.2227287E-008  0.4614232E+02  0.7816164E-02  0.1320468E+00
        -11   -1    0    0    0    0  0.00000000000E+00  0.00000000000E+00  0.45593999997E+02  0.45594000000E+02  0.51100000000E-03 0. -1.
         11   -1    0    0    0    0 -0.00000000000E+00 -0.00000000000E+00 -0.45593999997E+02  0.45594000000E+02  0.51100000000E-03 0.  1.
    9900012    2    1    2    0    0  0.12226591280E+02 -0.26666758922E+02 -0.34183444460E+02  0.46142318288E+02  0.10000004807E+02 0.  0.
         12    1    1    2    0    0 -0.12226591280E+02  0.26666758922E+02  0.34183444460E+02  0.45045681712E+02  0.00000000000E+00 0. -1.
         11    1    3    3    0    0  0.48010661337E+01 -0.58630287133E+01 -0.12807710197E+02  0.14881625666E+02  0.51100000000E-03 0. -1.
        -11    1    3    3    0    0 -0.49109991648E+00 -0.22870283243E+01 -0.41342619765E+01  0.47501368439E+01  0.51100000000E-03 0.  1.
        -12    1    3    3    0    0  0.79166250630E+01 -0.18516701885E+02 -0.17241472286E+02  0.26510555778E+02  0.00000000000E+00 0.  1.
</event>
<event>
 7    1  0.2227287E-008  0.4614232E+02  0.7816164E-02  0.1320468E+00
        -11   -1    0    0    0    0  0.00000000000E+00  0.00000000000E+00  0.45593999997E+02  0.45594000000E+02  0.51100000000E-03 0. -1.
         11   -1    0    0    0    0 -0.00000000000E+00 -0.00000000000E+00 -0.45593999997E+02  0.45594000000E+02  0.51100000000E-03 0.  1.
    9900012    2    1    2    0    0 -0.28834654560E+02  0.50553975201E+01 -0.34236225396E+02  0.46142317887E+02  0.10000001145E+02 0.  0.
         12    1    1    2    0    0  0.28834654560E+02 -0.50553975201E+01  0.34236225396E+02  0.45045682113E+02  0.00000000000E+00 0. -1.
         11    1    3    3    0    0 -0.66472341406E+00 -0.51999149460E+00 -0.30307920054E+00  0.89671937337E+00  0.51100000000E-03 0. -1.
        -11    1    3    3    0    0 -0.21096349295E+01 -0.95960025104E+00 -0.62613807234E+01  0.66765470868E+01  0.51100000000E-03 0.  1.
         12    1    3    3    0    0 -0.26060296216E+02  0.65349892658E+01 -0.27671765473E+02  0.38569051427E+02  0.00000000000E+00 0. -1.
</event>
<event>
 7    1  0.2227287E-008  0.4614232E+02  0.7816164E-02  0.1320468E+00
        -11   -1    0    0    0    0  0.00000000000E+00  0.00000000000E+00  0.45593999997E+02  0.45594000000E+02  0.51100000000E-03 0.  1.
         11   -1    0    0    0    0 -0.00000000000E+00 -0.00000000000E+00 -0.45593999997E+02  0.45594000000E+02  0.51100000000E-03 0. -1.
    9900012    2    1    2    0    0 -0.27980299847E+02  0.41849489359E+01  0.35052853565E+02  0.46142317408E+02  0.99999967831E+01 0.  0.
         12    1    1    2    0    0  0.27980299847E+02 -0.41849489359E+01 -0.35052853565E+02  0.45045682592E+02  0.00000000000E+00 0. -1.
         11    1    3    3    0    0 -0.96606781176E+01  0.14346749554E+01  0.17304953919E+02  0.19870793248E+02  0.51100000000E-03 0. -1.
        -11    1    3    3    0    0 -0.72677362521E+00 -0.11140571595E+01  0.88494537072E+00  0.15976394547E+01  0.51100000000E-03 0.  1.
        -12    1    3    3    0    0 -0.17592848104E+02  0.38643311400E+01  0.16862954276E+02  0.24673884706E+02  0.00000000000E+00 0.  1.
</event>
<event>
 7    1  0.2227287E-008  0.4614232E+02  0.7816164E-02  0.1320468E+00
        -11   -1    0    0    0    0  0.00000000000E+00  0.00000000000E+00  0.45593999997E+02  0.45594000000E+02  0.51100000000E-03 0.  1.
         11   -1    0    0    0    0 -0.00000000000E+00 -0.00000000000E+00 -0.45593999997E+02  0.45594000000E+02  0.51100000000E-03 0. -1.
    9900012    2    1    2    0    0 -0.17519257703E+02 -0.22122981859E+02  0.35110721070E+02  0.46142318178E+02  0.10000003798E+02 0.  0.
         12    1    1    2    0    0  0.17519257703E+02  0.22122981859E+02 -0.35110721070E+02  0.45045681822E+02  0.00000000000E+00 0. -1.
         11    1    3    3    0    0 -0.12788128789E+01 -0.44877392753E+01  0.44993462593E+01  0.64822282593E+01  0.51100000000E-03 0. -1.
        -11    1    3    3    0    0 -0.12893763145E+02 -0.16690587548E+02  0.22525254132E+02  0.30857931148E+02  0.51100000000E-03 0.  1.
         12    1    3    3    0    0 -0.33466816782E+01 -0.94465503576E+00  0.80861206789E+01  0.88021587708E+01  0.00000000000E+00 0. -1.
</event>
<event>
 7    1  0.2227287E-008  0.4614232E+02  0.7816164E-02  0.1320468E+00
        -11   -1    0    0    0    0  0.00000000000E+00  0.00000000000E+00  0.45593999997E+02  0.45594000000E+02  0.51100000000E-03 0. -1.
         11   -1    0    0    0    0 -0.00000000000E+00 -0.00000000000E+00 -0.45593999997E+02  0.45594000000E+02  0.51100000000E-03 0.  1.
    9900012    2    1    2    0    0  0.49374416268E+01  0.37137044047E+02 -0.25011498704E+02  0.46142318323E+02  0.10000005121E+02 0.  0.
         12    1    1    2    0    0 -0.49374416268E+01 -0.37137044047E+02  0.25011498704E+02  0.45045681677E+02  0.00000000000E+00 0. -1.
         11    1    3    3    0    0  0.38751510289E+00  0.32991814158E+01  0.69651287245E+00  0.33940972897E+01  0.51100000000E-03 0. -1.
        -11    1    3    3    0    0  0.28511361430E+01  0.19839980707E+02 -0.14585865764E+02  0.24789136574E+02  0.51100000000E-03 0.  1.
         12    1    3    3    0    0  0.16987903809E+01  0.13997881924E+02 -0.11122145813E+02  0.17959084459E+02  0.00000000000E+00 0. -1.
</event>
<event>
 7    1  0.2227287E-008  0.4614231E+02  0.7816164E-02  0.1320468E+00
        -11   -1    0    0    0    0  0.00000000000E+00  0.00000000000E+00  0.45593999997E+02  0.45594000000E+02  0.51100000000E-03 0. -1.
         11   -1    0    0    0    0 -0.00000000000E+00 -0.00000000000E+00 -0.45593999997E+02  0.45594000000E+02  0.51100000000E-03 0.  1.
    9900012    2    1    2    0    0  0.32955082383E+02  0.30570201411E+02 -0.29221781499E+01  0.46142314365E+02  0.99999690280E+01 0.  0.
         12    1    1    2    0    0 -0.32955082383E+02 -0.30570201411E+02  0.29221781499E+01  0.45045685635E+02  0.00000000000E+00 0. -1.
         11    1    3    3    0    0  0.14469772509E+01  0.25842810077E+01 -0.15566753763E+01  0.33459662251E+01  0.51100000000E-03 0. -1.
        -11    1    3    3    0    0  0.14260621212E+02  0.15237330029E+02 -0.37937948349E+01  0.21211657721E+02  0.51100000000E-03 0.  1.
        -12    1    3    3    0    0  0.17247483920E+02  0.12748590375E+02  0.24282920613E+01  0.21584690419E+02  0.00000000000E+00 0.  1.
</event>
<event>
 7    1  0.2227287E-008  0.4614232E+02  0.7816164E-02  0.1320468E+00
        -11   -1    0    0    0    0  0.00000000000E+00  0.00000000000E+00  0.45593999997E+02  0.45594000000E+02  0.51100000000E-03 0. -1.
         11   -1    0    0    0    0 -0.00000000000E+00 -0.00000000000E+00 -0.45593999997E+02  0.45594000000E+02  0.51100000000E-03 0.  1.
    9900012    2    1    2    0    0  0.23831346151E+02 -0.10540306876E+02 -0.36743467116E+02  0.46142317586E+02  0.99999984021E+01 0.  0.
         12    1    1    2    0    0 -0.23831346151E+02  0.10540306876E+02  0.36743467116E+02  0.45045682414E+02  0.00000000000E+00 0. -1.
         11    1    3    3    0    0  0.55995162012E+01 -0.79339384841E+00 -0.10238002619E+02  0.11696185420E+02  0.51100000000E-03 0. -1.
        -11    1    3    3    0    0  0.10022781961E+02 -0.28725592081E+01 -0.17875483943E+02  0.20693976928E+02  0.51100000000E-03 0.  1.
        -12    1    3    3    0    0  0.82090479888E+01 -0.68743538200E+01 -0.86299805549E+01  0.13752155238E+02  0.00000000000E+00 0.  1.
</event>
<event>
 7    1  0.2227287E-008  0.4614232E+02  0.7816164E-02  0.1320468E+00
        -11   -1    0    0    0    0  0.00000000000E+00  0.00000000000E+00  0.45593999997E+02  0.45594000000E+02  0.51100000000E-03 0.  1.
         11   -1    0    0    0    0 -0.00000000000E+00 -0.00000000000E+00 -0.45593999997E+02  0.45594000000E+02  0.51100000000E-03 0. -1.
    9900012    2    1    2    0    0 -0.32943979423E+02  0.27776789072E+02  0.13124697838E+02  0.46142317802E+02  0.10000000370E+02 0.  0.
         12    1    1    2    0    0  0.32943979423E+02 -0.27776789072E+02 -0.13124697838E+02  0.45045682198E+02  0.00000000000E+00 0. -1.
         11    1    3    3    0    0 -0.72257115733E+01  0.31606554729E+01  0.22905935645E+01  0.82126408602E+01  0.51100000000E-03 0. -1.
        -11    1    3    3    0    0 -0.13598375930E+01 -0.35589485190E-02  0.15735286888E+01  0.20797028011E+01  0.51100000000E-03 0.  1.
        -12    1    3    3    0    0 -0.24358430256E+02  0.24619692548E+02  0.92605755843E+01  0.35849974140E+02  0.00000000000E+00 0.  1.
</event>
<event>
 7    1  0.2227287E-008  0.4614232E+02  0.7816164E-02  0.1320468E+00
        -11   -1    0    0    0    0  0.00000000000E+00  0.00000000000E+00  0.45593999997E+02  0.45594000000E+02  0.51100000000E-03 0.  1.
         11   -1    0    0    0    0 -0.00000000000E+00 -0.00000000000E+00 -0.45593999997E+02  0.45594000000E+02  0.51100000000E-03 0. -1.
    9900012    2    1    2    0    0 -0.38058954379E+02  0.23033603124E+02  0.70769037897E+01  0.46142318203E+02  0.10000004032E+02 0.  0.
         12    1    1    2    0    0  0.38058954379E+02 -0.23033603124E+02 -0.70769037897E+01  0.45045681797E+02  0.00000000000E+00 0. -1.
         11    1    3    3    0    0 -0.19090192544E+02  0.14378984559E+02 -0.72667862934E-02  0.23899596260E+02  0.51100000000E-03 0. -1.
        -11    1    3    3    0    0 -0.43237351015E+01  0.59460187114E+00  0.16320944532E+01  0.46596104106E+01  0.51100000000E-03 0.  1.
         12    1    3    3    0    0 -0.14645026734E+02  0.80600166932E+01  0.54520761229E+01  0.17583111533E+02  0.00000000000E+00 0. -1.
</event>
<event>
 7    1  0.2227287E-008  0.4614232E+02  0.7816164E-02  0.1320468E+00
        -11   -1    0    0    0    0  0.00000000000E+00  0.00000000000E+00  0.45593999997E+02  0.45594000000E+02  0.51100000000E-03 0.  1.
         11   -1    0    0    0    0 -0.00000000000E+00 -0.00000000000E+00 -0.45593999997E+02  0.45594000000E+02  0.51100000000E-03 0. -1.
    9900012    2    1    2    0    0  0.26995257966E+02  0.16324887098E+02  0.32153812225E+02  0.46142317277E+02  0.99999955835E+01 0.  0.
         12    1    1    2    0    0 -0.26995257966E+02 -0.16324887098E+02 -0.32153812225E+02  0.45045682723E+02  0.00000000000E+00 0. -1.
         11    1    3    3    0    0  0.75489919992E+01  0.55334453029E+01  0.10369953732E+02  0.13969332045E+02  0.51100000000E-03 0. -1.
        -11    1    3    3    0    0  0.76164034276E+01  0.60662294045E+00  0.44323410135E+01  0.88330764564E+01  0.51100000000E-03 0.  1.
        -12    1    3    3    0    0  0.11829862539E+02  0.10184818855E+02  0.17351517479E+02  0.23339908775E+02  0.00000000000E+00 0.  1.
</event>
<event>
 7    1  0.2227287E-008  0.4614232E+02  0.7816164E-02  0.1320468E+00
        -11   -1    0    0    0    0  0.00000000000E+00  0.00000000000E+00  0.45593999997E+02  0.45594000000E+02  0.51100000000E-03 0. -1.
         11   -1    0    0    0    0 -0.00000000000E+00 -0.00000000000E+00 -0.45593999997E+02  0.45594000000E+02  0.51100000000E-03 0.  1.
    9900012    2    1    2    0    0  0.35235909845E+02 -0.19324514135E+02 -0.20349625118E+02  0.46142318392E+02  0.10000005749E+02 0.  0.
         12    1    1    2    0    0 -0.35235909845E+02  0.19324514135E+02  0.20349625118E+02  0.45045681608E+02  0.00000000000E+00 0. -1.
         11    1    3    3    0    0  0.16560724152E+02 -0.45787731059E+01 -0.79275649609E+01  0.18922712122E+02  0.51100000000E-03 0. -1.
        -11    1    3    3    0    0  0.41739479347E+01 -0.11836645520E+01 -0.27241616784E+01  0.51228859292E+01  0.51100000000E-03 0.  1.
         12    1    3    3    0    0  0.14501237758E+02 -0.13562076477E+02 -0.96978984784E+01  0.22096720340E+02  0.00000000000E+00 0. -1.
</event>
<event>
 7    1  0.2227287E-008  0.4614232E+02  0.7816164E-02  0.1320468E+00
        -11   -1    0    0    0    0  0.00000000000E+00  0.00000000000E+00  0.45593999997E+02  0.45594000000E+02  0.51100000000E-03 0.  1.
         11   -1    0    0    0    0 -0.00000000000E+00 -0.00000000000E+00 -0.45593999997E+02  0.45594000000E+02  0.51100000000E-03 0. -1.
    9900012    2    1    2    0    0 -0.22831615218E+02  0.21890778859E+02  0.32072176098E+02  0.46142319495E+02  0.10000015808E+02 0.  0.
         12    1    1    2    0    0  0.22831615218E+02 -0.21890778859E+02 -0.32072176098E+02  0.45045680505E+02  0.00000000000E+00 0. -1.
         11    1    3    3    0    0 -0.14314237157E+01 -0.20668621192E+00  0.40278478681E+01  0.42796321984E+01  0.51100000000E-03 0. -1.
        -11    1    3    3    0    0 -0.50569662349E+01  0.71134541063E+01  0.10020996637E+02  0.13288886736E+02  0.51100000000E-03 0.  1.
         12    1    3    3    0    0 -0.16343225268E+02  0.14984010965E+02  0.18023331592E+02  0.28573800560E+02  0.00000000000E+00 0. -1.
</event>
<event>
 7    1  0.2227287E-008  0.4614232E+02  0.7816164E-02  0.1320468E+00
        -11   -1    0    0    0    0  0.00000000000E+00  0.00000000000E+00  0.45593999997E+02  0.45594000000E+02  0.51100000000E-03 0. -1.
         11   -1    0    0    0    0 -0.00000000000E+00 -0.00000000000E+00 -0.45593999997E+02  0.45594000000E+02  0.51100000000E-03 0.  1.
    9900012    2    1    2    0    0  0.27188086718E+02 -0.31660202811E+02 -0.16957384260E+02  0.46142318938E+02  0.10000010731E+02 0.  0.
         12    1    1    2    0    0 -0.27188086718E+02  0.31660202811E+02  0.16957384260E+02  0.45045681062E+02  0.00000000000E+00 0. -1.
         11    1    3    3    0    0  0.28491491845E+01 -0.44330215669E+01 -0.26024903264E+01  0.58772687065E+01  0.51100000000E-03 0. -1.
        -11    1    3    3    0    0  0.24547347466E+02 -0.23862291664E+02 -0.12752516492E+02  0.36532285834E+02  0.51100000000E-03 0.  1.
         12    1    3    3    0    0 -0.20840993262E+00 -0.33648895796E+01 -0.16023774417E+01  0.37327643977E+01  0.00000000000E+00 0. -1.
</event>
<event>
 7    1  0.2227287E-008  0.4614232E+02  0.7816164E-02  0.1320468E+00
        -11   -1    0    0    0    0  0.00000000000E+00  0.00000000000E+00  0.45593999997E+02  0.45594000000E+02  0.51100000000E-03 0. -1.
         11   -1    0    0    0    0 -0.00000000000E+00 -0.00000000000E+00 -0.45593999997E+02  0.45594000000E+02  0.51100000000E-03 0.  1.
    9900012    2    1    2    0    0 -0.38664163571E+01 -0.33414756197E+02 -0.29960274841E+02  0.46142321232E+02  0.10000031649E+02 0.  0.
         12    1    1    2    0    0  0.38664163571E+01  0.33414756197E+02  0.29960274841E+02  0.45045678768E+02  0.00000000000E+00 0. -1.
         11    1    3    3    0    0  0.80187627689E+00 -0.11068658759E+02 -0.88404762391E+01  0.14188454203E+02  0.51100000000E-03 0. -1.
        -11    1    3    3    0    0 -0.51116075631E+01 -0.15372920743E+02 -0.10724701004E+02  0.19428701344E+02  0.51100000000E-03 0.  1.
        -12    1    3    3    0    0  0.44331492903E+00 -0.69731766953E+01 -0.10395097598E+02  0.12525165684E+02  0.00000000000E+00 0.  1.
</event>
<event>
 7    1  0.2227287E-008  0.4614232E+02  0.7816164E-02  0.1320468E+00
        -11   -1    0    0    0    0  0.00000000000E+00  0.00000000000E+00  0.45593999997E+02  0.45594000000E+02  0.51100000000E-03 0. -1.
         11   -1    0    0    0    0 -0.00000000000E+00 -0.00000000000E+00 -0.45593999997E+02  0.45594000000E+02  0.51100000000E-03 0.  1.
    9900012    2    1    2    0    0 -0.40301818943E+02  0.19729443459E+02 -0.39529758765E+01  0.46142316882E+02  0.99999919816E+01 0.  0.
         12    1    1    2    0    0  0.40301818943E+02 -0.19729443459E+02  0.39529758765E+01  0.45045683118E+02  0.00000000000E+00 0. -1.
         11    1    3    3    0    0 -0.67836703645E+01  0.11657855513E+01  0.99332883298E+00  0.69544188828E+01  0.51100000000E-03 0. -1.
        -11    1    3    3    0    0 -0.64082216378E+01  0.40571393193E+01 -0.36405291441E+01  0.84130337409E+01  0.51100000000E-03 0.  1.
        -12    1    3    3    0    0 -0.27109926941E+02  0.14506518588E+02 -0.13057755654E+01  0.30774864258E+02  0.00000000000E+00 0.  1.
</event>
<event>
 7    1  0.2227287E-008  0.4614232E+02  0.7816164E-02  0.1320468E+00
        -11   -1    0    0    0    0  0.00000000000E+00  0.00000000000E+00  0.45593999997E+02  0.45594000000E+02  0.51100000000E-03 0. -1.
         11   -1    0    0    0    0 -0.00000000000E+00 -0.00000000000E+00 -0.45593999997E+02  0.45594000000E+02  0.51100000000E-03 0.  1.
    9900012    2    1    2    0    0 -0.42745668765E+02  0.11475946476E+02  0.83799667193E+01  0.46142318876E+02  0.10000010169E+02 0.  0.
         12    1    1    2    0    0  0.42745668765E+02 -0.11475946476E+02 -0.83799667193E+01  0.45045681124E+02  0.00000000000E+00 0. -1.
         11    1    3    3    0    0 -0.16102624329E+02  0.67501055295E+01  0.25266696786E+01  0.17642066060E+02  0.51100000000E-03 0. -1.
        -11    1    3    3    0    0 -0.10505848034E+02  0.52423326230E+01  0.21706278117E+01  0.11940122260E+02  0.51100000000E-03 0.  1.
        -12    1    3    3    0    0 -0.16137196402E+02 -0.51649167608E+00  0.36826692291E+01  0.16560130555E+02  0.00000000000E+00 0.  1.
</event>
<event>
 7    1  0.2227287E-008  0.4614232E+02  0.7816164E-02  0.1320468E+00
        -11   -1    0    0    0    0  0.00000000000E+00  0.00000000000E+00  0.45593999997E+02  0.45594000000E+02  0.51100000000E-03 0. -1.
         11   -1    0    0    0    0 -0.00000000000E+00 -0.00000000000E+00 -0.45593999997E+02  0.45594000000E+02  0.51100000000E-03 0.  1.
    9900012    2    1    2    0    0  0.24197455660E+02  0.24557052456E+02 -0.28992202100E+02  0.46142317983E+02  0.10000002025E+02 0.  0.
         12    1    1    2    0    0 -0.24197455660E+02 -0.24557052456E+02  0.28992202100E+02  0.45045682017E+02  0.00000000000E+00 0. -1.
         11    1    3    3    0    0  0.10700664169E+01  0.32865397007E+01 -0.16246176625E+01  0.38191318583E+01  0.51100000000E-03 0. -1.
        -11    1    3    3    0    0 -0.22118537161E+00 -0.34909041807E+00 -0.11945403146E+00  0.43018207233E+00  0.51100000000E-03 0.  1.
        -12    1    3    3    0    0  0.23348574615E+02  0.21619603173E+02 -0.27248130406E+02  0.41893004053E+02  0.00000000000E+00 0.  1.
</event>
<event>
 7    1  0.2227287E-008  0.4614233E+02  0.7816164E-02  0.1320468E+00
        -11   -1    0    0    0    0  0.00000000000E+00  0.00000000000E+00  0.45593999997E+02  0.45594000000E+02  0.51100000000E-03 0.  1.
         11   -1    0    0    0    0 -0.00000000000E+00 -0.00000000000E+00 -0.45593999997E+02  0.45594000000E+02  0.51100000000E-03 0. -1.
    9900012    2    1    2    0    0  0.89960066453E+01 -0.10426452575E+02  0.42889085000E+02  0.46142326945E+02  0.10000083748E+02 0.  0.
         12    1    1    2    0    0 -0.89960066453E+01  0.10426452575E+02 -0.42889085000E+02  0.45045673055E+02  0.00000000000E+00 0. -1.
         11    1    3    3    0    0 -0.94034689856E-01 -0.33244268032E+01  0.42900489127E+01  0.54281834924E+01  0.51100000000E-03 0. -1.
        -11    1    3    3    0    0  0.73167037792E+01 -0.26609519304E+01  0.28431120166E+02  0.29477846148E+02  0.51100000000E-03 0.  1.
        -12    1    3    3    0    0  0.17733375559E+01 -0.44410738412E+01  0.10167915921E+02  0.11236297305E+02  0.00000000000E+00 0.  1.
</event>
<event>
 7    1  0.2227287E-008  0.4614232E+02  0.7816164E-02  0.1320468E+00
        -11   -1    0    0    0    0  0.00000000000E+00  0.00000000000E+00  0.45593999997E+02  0.45594000000E+02  0.51100000000E-03 0. -1.
         11   -1    0    0    0    0 -0.00000000000E+00 -0.00000000000E+00 -0.45593999997E+02  0.45594000000E+02  0.51100000000E-03 0.  1.
    9900012    2    1    2    0    0  0.32844094108E+02 -0.29102138813E+02  0.10170768255E+02  0.46142317319E+02  0.99999959715E+01 0.  0.
         12    1    1    2    0    0 -0.32844094108E+02  0.29102138813E+02 -0.10170768255E+02  0.45045682681E+02  0.00000000000E+00 0. -1.
         11    1    3    3    0    0  0.12427082346E+02 -0.57015583068E+01  0.28421827920E+01  0.13964889761E+02  0.51100000000E-03 0. -1.
        -11    1    3    3    0    0  0.14447597722E+02 -0.14038307697E+02  0.35938316254E+01  0.20462717047E+02  0.51100000000E-03 0.  1.
        -12    1    3    3    0    0  0.59694140408E+01 -0.93622728089E+01  0.37347538372E+01  0.11714710511E+02  0.00000000000E+00 0.  1.
</event>
<event>
 7    1  0.2227287E-008  0.4614232E+02  0.7816164E-02  0.1320468E+00
        -11   -1    0    0    0    0  0.00000000000E+00  0.00000000000E+00  0.45593999997E+02  0.45594000000E+02  0.51100000000E-03 0. -1.
         11   -1    0    0    0    0 -0.00000000000E+00 -0.00000000000E+00 -0.45593999997E+02  0.45594000000E+02  0.51100000000E-03 0.  1.
    9900012    2    1    2    0    0 -0.42769355481E+02  0.51375417292E+01  0.13171992210E+02  0.46142317831E+02  0.10000000637E+02 0.  0.
         12    1    1    2    0    0  0.42769355481E+02 -0.51375417292E+01 -0.13171992210E+02  0.45045682169E+02  0.00000000000E+00 0. -1.
         11    1    3    3    0    0 -0.91493479847E+01  0.28543158229E+01  0.67961597361E+01  0.11749275500E+02  0.51100000000E-03 0. -1.
        -11    1    3    3    0    0 -0.75819049692E+01  0.47549602126E+00  0.34527012235E+00  0.76046427363E+01  0.51100000000E-03 0.  1.
         12    1    3    3    0    0 -0.26038102527E+02  0.18077298850E+01  0.60305623518E+01  0.26788399594E+02  0.00000000000E+00 0. -1.
</event>
<event>
 7    1  0.2227287E-008  0.4614232E+02  0.7816164E-02  0.1320468E+00
        -11   -1    0    0    0    0  0.00000000000E+00  0.00000000000E+00  0.45593999997E+02  0.45594000000E+02  0.51100000000E-03 0.  1.
         11   -1    0    0    0    0 -0.00000000000E+00 -0.00000000000E+00 -0.45593999997E+02  0.45594000000E+02  0.51100000000E-03 0. -1.
    9900012    2    1    2    0    0  0.27999151094E+02 -0.42490145091E+01  0.35030085468E+02  0.46142317919E+02  0.10000001437E+02 0.  0.
         12    1    1    2    0    0 -0.27999151094E+02  0.42490145091E+01 -0.35030085468E+02  0.45045682081E+02  0.00000000000E+00 0. -1.
         11    1    3    3    0    0  0.23528714234E+02 -0.13270746633E+01  0.32309347173E+02  0.39990691863E+02  0.51100000000E-03 0.  1.
        -11    1    3    3    0    0  0.20936703246E+01 -0.21886730106E+01  0.14320019986E+01  0.33502798332E+01  0.51100000000E-03 0. -1.
        -12    1    3    3    0    0  0.23767665362E+01 -0.73326683523E+00  0.12887362956E+01  0.28013462226E+01  0.00000000000E+00 0.  1.
</event>
<event>
 7    1  0.2227287E-008  0.4614231E+02  0.7816164E-02  0.1320468E+00
        -11   -1    0    0    0    0  0.00000000000E+00  0.00000000000E+00  0.45593999997E+02  0.45594000000E+02  0.51100000000E-03 0.  1.
         11   -1    0    0    0    0 -0.00000000000E+00 -0.00000000000E+00 -0.45593999997E+02  0.45594000000E+02  0.51100000000E-03 0. -1.
    9900012    2    1    2    0    0 -0.17758371336E+01  0.28512381443E+02  0.34828214365E+02  0.46142311983E+02  0.99999473143E+01 0.  0.
         12    1    1    2    0    0  0.17758371336E+01 -0.28512381443E+02 -0.34828214365E+02  0.45045688017E+02  0.00000000000E+00 0. -1.
         11    1    3    3    0    0  0.13402214233E+01  0.43376665839E+01  0.79518767827E+01  0.91566309026E+01  0.51100000000E-03 0. -1.
        -11    1    3    3    0    0 -0.24311641025E+01  0.10716539002E+02  0.72011854750E+01  0.13138182507E+02  0.51100000000E-03 0.  1.
        -12    1    3    3    0    0 -0.68489445442E+00  0.13458175856E+02  0.19675152107E+02  0.23847498574E+02  0.00000000000E+00 0.  1.
</event>
<event>
 7    1  0.2227287E-008  0.4614232E+02  0.7816164E-02  0.1320468E+00
        -11   -1    0    0    0    0  0.00000000000E+00  0.00000000000E+00  0.45593999997E+02  0.45594000000E+02  0.51100000000E-03 0.  1.
         11   -1    0    0    0    0 -0.00000000000E+00 -0.00000000000E+00 -0.45593999997E+02  0.45594000000E+02  0.51100000000E-03 0. -1.
    9900012    2    1    2    0    0 -0.31931211551E+02 -0.25874883038E+02  0.18439134679E+02  0.46142317288E+02  0.99999956833E+01 0.  0.
         12    1    1    2    0    0  0.31931211551E+02  0.25874883038E+02 -0.18439134679E+02  0.45045682712E+02  0.00000000000E+00 0. -1.
         11    1    3    3    0    0 -0.20780117542E+02 -0.11768131757E+02  0.75681320228E+01  0.25051523560E+02  0.51100000000E-03 0. -1.
        -11    1    3    3    0    0 -0.27830609249E+01 -0.26480632104E+01  0.29253938882E+01  0.48286226339E+01  0.51100000000E-03 0.  1.
         12    1    3    3    0    0 -0.83680330834E+01 -0.11458688070E+02  0.79456087683E+01  0.16262171094E+02  0.00000000000E+00 0. -1.
</event>
<event>
 7    1  0.2227287E-008  0.4614232E+02  0.7816164E-02  0.1320468E+00
        -11   -1    0    0    0    0  0.00000000000E+00  0.00000000000E+00  0.45593999997E+02  0.45594000000E+02  0.51100000000E-03 0. -1.
         11   -1    0    0    0    0 -0.00000000000E+00 -0.00000000000E+00 -0.45593999997E+02  0.45594000000E+02  0.51100000000E-03 0.  1.
    9900012    2    1    2    0    0 -0.40362272407E+02  0.16437249842E+02  0.11393724523E+02  0.46142321243E+02  0.10000031748E+02 0.  0.
         12    1    1    2    0    0  0.40362272407E+02 -0.16437249842E+02 -0.11393724523E+02  0.45045678757E+02  0.00000000000E+00 0. -1.
         11    1    3    3    0    0 -0.59315010140E+01  0.25377260101E+01 -0.13260548735E+01  0.65864390509E+01  0.51100000000E-03 0. -1.
        -11    1    3    3    0    0 -0.23119004226E+02  0.10175734222E+02  0.63274101343E+01  0.26039778083E+02  0.51100000000E-03 0.  1.
         12    1    3    3    0    0 -0.11311767167E+02  0.37237896101E+01  0.63923692624E+01  0.13516104109E+02  0.00000000000E+00 0. -1.
</event>
<event>
 7    1  0.2227287E-008  0.4614232E+02  0.7816164E-02  0.1320468E+00
        -11   -1    0    0    0    0  0.00000000000E+00  0.00000000000E+00  0.45593999997E+02  0.45594000000E+02  0.51100000000E-03 0. -1.
         11   -1    0    0    0    0 -0.00000000000E+00 -0.00000000000E+00 -0.45593999997E+02  0.45594000000E+02  0.51100000000E-03 0.  1.
    9900012    2    1    2    0    0  0.40634984226E+02 -0.14915528361E+02  0.12467501132E+02  0.46142317479E+02  0.99999974257E+01 0.  0.
         12    1    1    2    0    0 -0.40634984226E+02  0.14915528361E+02 -0.12467501132E+02  0.45045682521E+02  0.00000000000E+00 0. -1.
         11    1    3    3    0    0  0.36658936255E+01  0.25563823552E+00  0.86076657687E+00  0.37742610326E+01  0.51100000000E-03 0. -1.
        -11    1    3    3    0    0  0.33974668560E+02 -0.12355081744E+02  0.82987244376E+01  0.37091710344E+02  0.51100000000E-03 0.  1.
        -12    1    3    3    0    0  0.29944220398E+01 -0.28160848528E+01  0.33080101180E+01  0.52763461023E+01  0.00000000000E+00 0.  1.
</event>
<event>
 7    1  0.2227287E-008  0.4614232E+02  0.7816164E-02  0.1320468E+00
        -11   -1    0    0    0    0  0.00000000000E+00  0.00000000000E+00  0.45593999997E+02  0.45594000000E+02  0.51100000000E-03 0.  1.
         11   -1    0    0    0    0 -0.00000000000E+00 -0.00000000000E+00 -0.45593999997E+02  0.45594000000E+02  0.51100000000E-03 0. -1.
    9900012    2    1    2    0    0  0.38049093471E+02  0.24028294192E+02  0.20052562392E+01  0.46142317762E+02  0.10000000006E+02 0.  0.
         12    1    1    2    0    0 -0.38049093471E+02 -0.24028294192E+02 -0.20052562392E+01  0.45045682238E+02  0.00000000000E+00 0. -1.
         11    1    3    3    0    0 -0.65090473129E-01 -0.10774563127E+00  0.34747989827E+00  0.36957872175E+00  0.51100000000E-03 0. -1.
        -11    1    3    3    0    0  0.16677215287E+02  0.62030455659E+01  0.74256086150E+00  0.17808949461E+02  0.51100000000E-03 0.  1.
        -12    1    3    3    0    0  0.21436968657E+02  0.17932994258E+02  0.91521547947E+00  0.27963789579E+02  0.00000000000E+00 0.  1.
</event>
<event>
 7    1  0.2227287E-008  0.4614232E+02  0.7816164E-02  0.1320468E+00
        -11   -1    0    0    0    0  0.00000000000E+00  0.00000000000E+00  0.45593999997E+02  0.45594000000E+02  0.51100000000E-03 0.  1.
         11   -1    0    0    0    0 -0.00000000000E+00 -0.00000000000E+00 -0.45593999997E+02  0.45594000000E+02  0.51100000000E-03 0. -1.
    9900012    2    1    2    0    0 -0.32927399542E+02  0.29582052176E+02 -0.83547653782E+01  0.46142317010E+02  0.99999931474E+01 0.  0.
         12    1    1    2    0    0  0.32927399542E+02 -0.29582052176E+02  0.83547653782E+01  0.45045682990E+02  0.00000000000E+00 0. -1.
         11    1    3    3    0    0 -0.23540812011E+02  0.18770674006E+02 -0.55044008000E+01  0.30607294248E+02  0.51100000000E-03 0. -1.
        -11    1    3    3    0    0 -0.81504689193E+01  0.81014470136E+01 -0.11716889502E+00  0.11492489553E+02  0.51100000000E-03 0.  1.
         12    1    3    3    0    0 -0.12361186114E+01  0.27099311569E+01 -0.27331956832E+01  0.40425332082E+01  0.00000000000E+00 0. -1.
</event>
<event>
 7    1  0.2227287E-008  0.4614232E+02  0.7816164E-02  0.1320468E+00
        -11   -1    0    0    0    0  0.00000000000E+00  0.00000000000E+00  0.45593999997E+02  0.45594000000E+02  0.51100000000E-03 0.  1.
         11   -1    0    0    0    0 -0.00000000000E+00 -0.00000000000E+00 -0.45593999997E+02  0.45594000000E+02  0.51100000000E-03 0. -1.
    9900012    2    1    2    0    0  0.15975235177E+02  0.47499959331E+01  0.41849050954E+02  0.46142315789E+02  0.99999820124E+01 0.  0.
         12    1    1    2    0    0 -0.15975235177E+02 -0.47499959331E+01 -0.41849050954E+02  0.45045684211E+02  0.00000000000E+00 0. -1.
         11    1    3    3    0    0  0.11054821364E+01  0.38521640824E+01  0.80328738010E+01  0.89770997898E+01  0.51100000000E-03 0. -1.
        -11    1    3    3    0    0  0.67440276039E+01  0.23219537206E+01  0.16952079039E+02  0.18391475238E+02  0.51100000000E-03 0.  1.
         12    1    3    3    0    0  0.81257254365E+01 -0.14241218700E+01  0.16864098114E+02  0.18773740761E+02  0.00000000000E+00 0. -1.
</event>
<event>
 7    1  0.2227287E-008  0.4614232E+02  0.7816164E-02  0.1320468E+00
        -11   -1    0    0    0    0  0.00000000000E+00  0.00000000000E+00  0.45593999997E+02  0.45594000000E+02  0.51100000000E-03 0. -1.
         11   -1    0    0    0    0 -0.00000000000E+00 -0.00000000000E+00 -0.45593999997E+02  0.45594000000E+02  0.51100000000E-03 0.  1.
    9900012    2    1    2    0    0  0.28523917480E+02  0.34493732956E+02  0.50677397954E+01  0.46142317984E+02  0.10000002030E+02 0.  0.
         12    1    1    2    0    0 -0.28523917480E+02 -0.34493732956E+02 -0.50677397954E+01  0.45045682016E+02  0.00000000000E+00 0. -1.
         11    1    3    3    0    0  0.12975032827E+02  0.10335677136E+02  0.43746023698E+00  0.16594248113E+02  0.51100000000E-03 0. -1.
        -11    1    3    3    0    0  0.14314083479E+02  0.23025898751E+02  0.31179283696E+01  0.27291142825E+02  0.51100000000E-03 0.  1.
         12    1    3    3    0    0  0.12348011744E+01  0.11321570693E+01  0.15123511888E+01  0.22569270454E+01  0.00000000000E+00 0. -1.
</event>
<event>
 7    1  0.2227287E-008  0.4614232E+02  0.7816164E-02  0.1320468E+00
        -11   -1    0    0    0    0  0.00000000000E+00  0.00000000000E+00  0.45593999997E+02  0.45594000000E+02  0.51100000000E-03 0. -1.
         11   -1    0    0    0    0 -0.00000000000E+00 -0.00000000000E+00 -0.45593999997E+02  0.45594000000E+02  0.51100000000E-03 0.  1.
    9900012    2    1    2    0    0  0.44078479206E+02  0.92843726092E+01  0.40799129304E-01  0.46142316873E+02  0.99999918986E+01 0.  0.
         12    1    1    2    0    0 -0.44078479206E+02 -0.92843726092E+01 -0.40799129304E-01  0.45045683127E+02  0.00000000000E+00 0. -1.
         11    1    3    3    0    0  0.50185632907E+01  0.33075063811E+00 -0.23908908815E+01  0.55688179137E+01  0.51100000000E-03 0. -1.
        -11    1    3    3    0    0  0.31211318480E+00  0.79413115738E+00 -0.23852231043E+00  0.88597521915E+00  0.51100000000E-03 0.  1.
        -12    1    3    3    0    0  0.38747802730E+02  0.81594908137E+01  0.26702123212E+01  0.39687523740E+02  0.00000000000E+00 0.  1.
</event>
<event>
 7    1  0.2227287E-008  0.4614232E+02  0.7816164E-02  0.1320468E+00
        -11   -1    0    0    0    0  0.00000000000E+00  0.00000000000E+00  0.45593999997E+02  0.45594000000E+02  0.51100000000E-03 0.  1.
         11   -1    0    0    0    0 -0.00000000000E+00 -0.00000000000E+00 -0.45593999997E+02  0.45594000000E+02  0.51100000000E-03 0. -1.
    9900012    2    1    2    0    0  0.43741262277E+02  0.29763963810E+01  0.10341971435E+02  0.46142319473E+02  0.10000015606E+02 0.  0.
         12    1    1    2    0    0 -0.43741262277E+02 -0.29763963810E+01 -0.10341971435E+02  0.45045680527E+02  0.00000000000E+00 0. -1.
         11    1    3    3    0    0  0.21666409564E+02  0.53694159157E+01  0.34292584515E+01  0.22583705286E+02  0.51100000000E-03 0.  1.
        -11    1    3    3    0    0  0.21936429877E+01  0.59537742161E+00  0.15497807794E+01  0.27510660765E+01  0.51100000000E-03 0. -1.
         12    1    3    3    0    0  0.19881209726E+02 -0.29883969563E+01  0.53629322038E+01  0.20807548110E+02  0.00000000000E+00 0. -1.
</event>
<event>
 7    1  0.2227287E-008  0.4614232E+02  0.7816164E-02  0.1320468E+00
        -11   -1    0    0    0    0  0.00000000000E+00  0.00000000000E+00  0.45593999997E+02  0.45594000000E+02  0.51100000000E-03 0.  1.
         11   -1    0    0    0    0 -0.00000000000E+00 -0.00000000000E+00 -0.45593999997E+02  0.45594000000E+02  0.51100000000E-03 0. -1.
    9900012    2    1    2    0    0  0.36876147330E+01 -0.38016775425E+02  0.23879693670E+02  0.46142317788E+02  0.10000000249E+02 0.  0.
         12    1    1    2    0    0 -0.36876147330E+01  0.38016775425E+02 -0.23879693670E+02  0.45045682212E+02  0.00000000000E+00 0. -1.
         11    1    3    3    0    0 -0.15786942285E+01 -0.17550367786E+02  0.11397128303E+02  0.20985762285E+02  0.51100000000E-03 0. -1.
        -11    1    3    3    0    0 -0.90671258186E+00 -0.40785122118E+01  0.36273363260E+01  0.55329882207E+01  0.51100000000E-03 0.  1.
         12    1    3    3    0    0  0.61730215433E+01 -0.16387895427E+02  0.88552290412E+01  0.19623567282E+02  0.00000000000E+00 0. -1.
</event>
<event>
 7    1  0.2227287E-008  0.4614232E+02  0.7816164E-02  0.1320468E+00
        -11   -1    0    0    0    0  0.00000000000E+00  0.00000000000E+00  0.45593999997E+02  0.45594000000E+02  0.51100000000E-03 0.  1.
         11   -1    0    0    0    0 -0.00000000000E+00 -0.00000000000E+00 -0.45593999997E+02  0.45594000000E+02  0.51100000000E-03 0. -1.
    9900012    2    1    2    0    0 -0.67042612990E+01  0.40016838499E+02  0.19565758281E+02  0.46142318963E+02  0.10000010956E+02 0.  0.
         12    1    1    2    0    0  0.67042612990E+01 -0.40016838499E+02 -0.19565758281E+02  0.45045681037E+02  0.00000000000E+00 0. -1.
         11    1    3    3    0    0 -0.77150645654E+01  0.23662608046E+02  0.96343201485E+01  0.26688225228E+02  0.51100000000E-03 0. -1.
        -11    1    3    3    0    0  0.46080651196E-01  0.13902438577E+02  0.71896648623E+01  0.15651555926E+02  0.51100000000E-03 0.  1.
         12    1    3    3    0    0  0.96472261524E+00  0.24517918755E+01  0.27417732698E+01  0.38025378089E+01  0.00000000000E+00 0. -1.
</event>
<event>
 7    1  0.2227287E-008  0.4614232E+02  0.7816164E-02  0.1320468E+00
        -11   -1    0    0    0    0  0.00000000000E+00  0.00000000000E+00  0.45593999997E+02  0.45594000000E+02  0.51100000000E-03 0.  1.
         11   -1    0    0    0    0 -0.00000000000E+00 -0.00000000000E+00 -0.45593999997E+02  0.45594000000E+02  0.51100000000E-03 0. -1.
    9900012    2    1    2    0    0  0.12648993682E+02 -0.24347725799E+01  0.43164665180E+02  0.46142317867E+02  0.10000000968E+02 0.  0.
         12    1    1    2    0    0 -0.12648993682E+02  0.24347725799E+01 -0.43164665180E+02  0.45045682133E+02  0.00000000000E+00 0. -1.
         11    1    3    3    0    0  0.74905186405E+00 -0.23198834417E+01  0.15175364628E+02  0.15369926146E+02  0.51100000000E-03 0. -1.
        -11    1    3    3    0    0  0.40018846489E+00 -0.48894533852E+00  0.52500179791E+01  0.52879019841E+01  0.51100000000E-03 0.  1.
        -12    1    3    3    0    0  0.11499753353E+02  0.37405620034E+00  0.22739282573E+02  0.25484489737E+02  0.00000000000E+00 0.  1.
</event>
<event>
 7    1  0.2227287E-008  0.4614232E+02  0.7816164E-02  0.1320468E+00
        -11   -1    0    0    0    0  0.00000000000E+00  0.00000000000E+00  0.45593999997E+02  0.45594000000E+02  0.51100000000E-03 0. -1.
         11   -1    0    0    0    0 -0.00000000000E+00 -0.00000000000E+00 -0.45593999997E+02  0.45594000000E+02  0.51100000000E-03 0.  1.
    9900012    2    1    2    0    0 -0.34699830727E+02  0.22116422419E+02 -0.18327550272E+02  0.46142317720E+02  0.99999996292E+01 0.  0.
         12    1    1    2    0    0  0.34699830727E+02 -0.22116422419E+02  0.18327550272E+02  0.45045682280E+02  0.00000000000E+00 0. -1.
         11    1    3    3    0    0 -0.22340751263E+01  0.19211668219E+01 -0.33652540340E+01  0.44729082935E+01  0.51100000000E-03 0. -1.
        -11    1    3    3    0    0 -0.16151902751E+02  0.77468798812E+01 -0.10159629281E+02  0.20594081134E+02  0.51100000000E-03 0.  1.
         12    1    3    3    0    0 -0.16313852850E+02  0.12448375716E+02 -0.48026669568E+01  0.21075328293E+02  0.00000000000E+00 0. -1.
</event>
<event>
 7    1  0.2227287E-008  0.4614232E+02  0.7816164E-02  0.1320468E+00
        -11   -1    0    0    0    0  0.00000000000E+00  0.00000000000E+00  0.45593999997E+02  0.45594000000E+02  0.51100000000E-03 0. -1.
         11   -1    0    0    0    0 -0.00000000000E+00 -0.00000000000E+00 -0.45593999997E+02  0.45594000000E+02  0.51100000000E-03 0.  1.
    9900012    2    1    2    0    0 -0.37815435047E+02 -0.11268164955E+02 -0.21728663706E+02  0.46142317680E+02  0.99999992588E+01 0.  0.
         12    1    1    2    0    0  0.37815435047E+02  0.11268164955E+02  0.21728663706E+02  0.45045682320E+02  0.00000000000E+00 0. -1.
         11    1    3    3    0    0 -0.14059702663E+01 -0.14345124067E+01  0.54805295025E-01  0.20093735631E+01  0.51100000000E-03 0. -1.
        -11    1    3    3    0    0 -0.10911870998E+02 -0.20275115070E+01 -0.29408755107E+01  0.11481658443E+02  0.51100000000E-03 0.  1.
        -12    1    3    3    0    0 -0.25497593783E+02 -0.78061410409E+01 -0.18842593490E+02  0.32651285673E+02  0.00000000000E+00 0.  1.
</event>
<event>
 7    1  0.2227287E-008  0.4614232E+02  0.7816164E-02  0.1320468E+00
        -11   -1    0    0    0    0  0.00000000000E+00  0.00000000000E+00  0.45593999997E+02  0.45594000000E+02  0.51100000000E-03 0.  1.
         11   -1    0    0    0    0 -0.00000000000E+00 -0.00000000000E+00 -0.45593999997E+02  0.45594000000E+02  0.51100000000E-03 0. -1.
    9900012    2    1    2    0    0 -0.77225660690E+01 -0.26152105998E+02  0.35854467288E+02  0.46142317639E+02  0.99999988907E+01 0.  0.
         12    1    1    2    0    0  0.77225660690E+01  0.26152105998E+02 -0.35854467288E+02  0.45045682361E+02  0.00000000000E+00 0. -1.
         11    1    3    3    0    0 -0.31679061843E+01 -0.11918842387E+02  0.14254638793E+02  0.18849115651E+02  0.51100000000E-03 0. -1.
        -11    1    3    3    0    0 -0.16608210500E+01 -0.13474278260E+02  0.18847232357E+02  0.23227842538E+02  0.51100000000E-03 0.  1.
         12    1    3    3    0    0 -0.28938388347E+01 -0.75898535131E+00  0.27525961369E+01  0.40653594500E+01  0.00000000000E+00 0. -1.
</event>
<event>
 7    1  0.2227287E-008  0.4614232E+02  0.7816164E-02  0.1320468E+00
        -11   -1    0    0    0    0  0.00000000000E+00  0.00000000000E+00  0.45593999997E+02  0.45594000000E+02  0.51100000000E-03 0.  1.
         11   -1    0    0    0    0 -0.00000000000E+00 -0.00000000000E+00 -0.45593999997E+02  0.45594000000E+02  0.51100000000E-03 0. -1.
    9900012    2    1    2    0    0  0.12552365982E+02  0.41790594991E+02 -0.11184711845E+02  0.46142317626E+02  0.99999987725E+01 0.  0.
         12    1    1    2    0    0 -0.12552365982E+02 -0.41790594991E+02  0.11184711845E+02  0.45045682374E+02  0.00000000000E+00 0. -1.
         11    1    3    3    0    0 -0.12222936709E+01  0.86088150026E+01 -0.28885748113E+01  0.91623993729E+01  0.51100000000E-03 0. -1.
        -11    1    3    3    0    0  0.37367233799E+01  0.89520411344E+01 -0.96890663372E+00  0.97488933945E+01  0.51100000000E-03 0.  1.
         12    1    3    3    0    0  0.10037936273E+02  0.24229738854E+02 -0.73272303996E+01  0.27231024859E+02  0.00000000000E+00 0. -1.
</event>
<event>
 7    1  0.2227287E-008  0.4614232E+02  0.7816164E-02  0.1320468E+00
        -11   -1    0    0    0    0  0.00000000000E+00  0.00000000000E+00  0.45593999997E+02  0.45594000000E+02  0.51100000000E-03 0.  1.
         11   -1    0    0    0    0 -0.00000000000E+00 -0.00000000000E+00 -0.45593999997E+02  0.45594000000E+02  0.51100000000E-03 0. -1.
    9900012    2    1    2    0    0 -0.37294448014E+02 -0.14005673189E+02  0.21025665798E+02  0.46142319226E+02  0.10000013362E+02 0.  0.
         12    1    1    2    0    0  0.37294448014E+02  0.14005673189E+02 -0.21025665798E+02  0.45045680774E+02  0.00000000000E+00 0. -1.
         11    1    3    3    0    0 -0.27495368165E+01 -0.16896463503E+01  0.34720073127E+00  0.32458290317E+01  0.51100000000E-03 0. -1.
        -11    1    3    3    0    0 -0.29571400636E+02 -0.90033471026E+01  0.13998053874E+02  0.33933368639E+02  0.51100000000E-03 0.  1.
         12    1    3    3    0    0 -0.49735105606E+01 -0.33126797365E+01  0.66804111918E+01  0.89631215558E+01  0.00000000000E+00 0. -1.
</event>
<event>
 7    1  0.2227287E-008  0.4614232E+02  0.7816164E-02  0.1320468E+00
        -11   -1    0    0    0    0  0.00000000000E+00  0.00000000000E+00  0.45593999997E+02  0.45594000000E+02  0.51100000000E-03 0. -1.
         11   -1    0    0    0    0 -0.00000000000E+00 -0.00000000000E+00 -0.45593999997E+02  0.45594000000E+02  0.51100000000E-03 0.  1.
    9900012    2    1    2    0    0 -0.34881669711E+02  0.27829436577E+02  0.61567102642E+01  0.46142317596E+02  0.99999984942E+01 0.  0.
         12    1    1    2    0    0  0.34881669711E+02 -0.27829436577E+02 -0.61567102642E+01  0.45045682404E+02  0.00000000000E+00 0. -1.
         11    1    3    3    0    0 -0.98281667872E+01  0.44667072107E+01  0.42647496184E+01  0.11607429744E+02  0.51100000000E-03 0. -1.
        -11    1    3    3    0    0 -0.55054234732E+01  0.71993593387E+01  0.13578496394E+01  0.91642903932E+01  0.51100000000E-03 0.  1.
         12    1    3    3    0    0 -0.19548079450E+02  0.16163370027E+02  0.53411100642E+00  0.25370597458E+02  0.00000000000E+00 0. -1.
</event>
<event>
 7    1  0.2227287E-008  0.4614232E+02  0.7816164E-02  0.1320468E+00
        -11   -1    0    0    0    0  0.00000000000E+00  0.00000000000E+00  0.45593999997E+02  0.45594000000E+02  0.51100000000E-03 0. -1.
         11   -1    0    0    0    0 -0.00000000000E+00 -0.00000000000E+00 -0.45593999997E+02  0.45594000000E+02  0.51100000000E-03 0.  1.
    9900012    2    1    2    0    0 -0.10966154560E+02  0.35843633632E+02 -0.24981810617E+02  0.46142317859E+02  0.10000000897E+02 0.  0.
         12    1    1    2    0    0  0.10966154560E+02 -0.35843633632E+02  0.24981810617E+02  0.45045682141E+02  0.00000000000E+00 0. -1.
         11    1    3    3    0    0 -0.12957032643E+01  0.42344390403E+01 -0.55921771551E+01  0.71331456266E+01  0.51100000000E-03 0. -1.
        -11    1    3    3    0    0 -0.63913168039E+01  0.25366196424E+02 -0.18175958654E+02  0.31853701900E+02  0.51100000000E-03 0.  1.
         12    1    3    3    0    0 -0.32791344916E+01  0.62429981680E+01 -0.12136748083E+01  0.71554703326E+01  0.00000000000E+00 0. -1.
</event>
<event>
 7    1  0.2227287E-008  0.4614232E+02  0.7816164E-02  0.1320468E+00
        -11   -1    0    0    0    0  0.00000000000E+00  0.00000000000E+00  0.45593999997E+02  0.45594000000E+02  0.51100000000E-03 0. -1.
         11   -1    0    0    0    0 -0.00000000000E+00 -0.00000000000E+00 -0.45593999997E+02  0.45594000000E+02  0.51100000000E-03 0.  1.
    9900012    2    1    2    0    0  0.20766716171E+01 -0.78808873962E+01 -0.44302286203E+02  0.46142317477E+02  0.99999974112E+01 0.  0.
         12    1    1    2    0    0 -0.20766716171E+01  0.78808873962E+01  0.44302286203E+02  0.45045682523E+02  0.00000000000E+00 0. -1.
         11    1    3    3    0    0  0.63974913009E+00 -0.11551669862E+01 -0.12509359987E+02  0.12578862320E+02  0.51100000000E-03 0.  1.
        -11    1    3    3    0    0 -0.81558412342E+00  0.23696787717E+00 -0.17365011336E+02  0.17385768611E+02  0.51100000000E-03 0. -1.
        -12    1    3    3    0    0  0.22525066105E+01 -0.69626882872E+01 -0.14427914880E+02  0.16177686546E+02  0.00000000000E+00 0.  1.
</event>
<event>
 7    1  0.2227287E-008  0.4614232E+02  0.7816164E-02  0.1320468E+00
        -11   -1    0    0    0    0  0.00000000000E+00  0.00000000000E+00  0.45593999997E+02  0.45594000000E+02  0.51100000000E-03 0.  1.
         11   -1    0    0    0    0 -0.00000000000E+00 -0.00000000000E+00 -0.45593999997E+02  0.45594000000E+02  0.51100000000E-03 0. -1.
    9900012    2    1    2    0    0  0.43872212662E+01 -0.38100770994E+02  0.23626194658E+02  0.46142317245E+02  0.99999952982E+01 0.  0.
         12    1    1    2    0    0 -0.43872212662E+01  0.38100770994E+02 -0.23626194658E+02  0.45045682755E+02  0.00000000000E+00 0. -1.
         11    1    3    3    0    0 -0.11413399674E+01 -0.17066066478E+02  0.78114540048E+01  0.18803512860E+02  0.51100000000E-03 0. -1.
        -11    1    3    3    0    0  0.35662204185E+01 -0.82258392033E+01  0.40550849905E+01  0.98400240454E+01  0.51100000000E-03 0.  1.
        -12    1    3    3    0    0  0.19623408151E+01 -0.12808865313E+02  0.11759655663E+02  0.17498780340E+02  0.00000000000E+00 0.  1.
</event>
<event>
 7    1  0.2227287E-008  0.4614232E+02  0.7816164E-02  0.1320468E+00
        -11   -1    0    0    0    0  0.00000000000E+00  0.00000000000E+00  0.45593999997E+02  0.45594000000E+02  0.51100000000E-03 0. -1.
         11   -1    0    0    0    0 -0.00000000000E+00 -0.00000000000E+00 -0.45593999997E+02  0.45594000000E+02  0.51100000000E-03 0.  1.
    9900012    2    1    2    0    0 -0.32583040546E+00  0.16804297228E+02 -0.41792618853E+02  0.46142316951E+02  0.99999926110E+01 0.  0.
         12    1    1    2    0    0  0.32583040546E+00 -0.16804297228E+02  0.41792618853E+02  0.45045683049E+02  0.00000000000E+00 0. -1.
         11    1    3    3    0    0 -0.92568995171E+00  0.21033659150E+01 -0.67204305920E+01  0.71024810920E+01  0.51100000000E-03 0.  1.
        -11    1    3    3    0    0  0.75646365972E+00  0.81967412606E+00 -0.12435947591E+02  0.12485867839E+02  0.51100000000E-03 0. -1.
         12    1    3    3    0    0 -0.15660411347E+00  0.13881257187E+02 -0.22636240670E+02  0.26553968020E+02  0.00000000000E+00 0. -1.
</event>
<event>
 7    1  0.2227287E-008  0.4614232E+02  0.7816164E-02  0.1320468E+00
        -11   -1    0    0    0    0  0.00000000000E+00  0.00000000000E+00  0.45593999997E+02  0.45594000000E+02  0.51100000000E-03 0.  1.
         11   -1    0    0    0    0 -0.00000000000E+00 -0.00000000000E+00 -0.45593999997E+02  0.45594000000E+02  0.51100000000E-03 0. -1.
    9900012    2    1    2    0    0  0.15451939789E+02 -0.23347144118E+02  0.35288269136E+02  0.46142317406E+02  0.99999967624E+01 0.  0.
         12    1    1    2    0    0 -0.15451939789E+02  0.23347144118E+02 -0.35288269136E+02  0.45045682594E+02  0.00000000000E+00 0. -1.
         11    1    3    3    0    0  0.11930173484E+01 -0.16938313668E+00  0.16054051129E+01  0.20073133482E+01  0.51100000000E-03 0. -1.
        -11    1    3    3    0    0  0.55837599005E+01 -0.16917648082E+02  0.20597725872E+02  0.27233279322E+02  0.51100000000E-03 0.  1.
        -12    1    3    3    0    0  0.86751625401E+01 -0.62601128992E+01  0.13085138152E+02  0.16901724736E+02  0.00000000000E+00 0.  1.
</event>
<event>
 7    1  0.2227287E-008  0.4614232E+02  0.7816164E-02  0.1320468E+00
        -11   -1    0    0    0    0  0.00000000000E+00  0.00000000000E+00  0.45593999997E+02  0.45594000000E+02  0.51100000000E-03 0.  1.
         11   -1    0    0    0    0 -0.00000000000E+00 -0.00000000000E+00 -0.45593999997E+02  0.45594000000E+02  0.51100000000E-03 0. -1.
    9900012    2    1    2    0    0 -0.31204368831E+02 -0.11724294032E+02  0.30297553083E+02  0.46142318437E+02  0.10000006164E+02 0.  0.
         12    1    1    2    0    0  0.31204368831E+02  0.11724294032E+02 -0.30297553083E+02  0.45045681563E+02  0.00000000000E+00 0. -1.
         11    1    3    3    0    0 -0.35636665688E+01 -0.69858020847E-01  0.10357718142E+01  0.37117951275E+01  0.51100000000E-03 0. -1.
        -11    1    3    3    0    0 -0.13741022646E+02 -0.35707362101E+01  0.17356140813E+02  0.22423235373E+02  0.51100000000E-03 0.  1.
         12    1    3    3    0    0 -0.13899679616E+02 -0.80836998012E+01  0.11905640456E+02  0.20007287936E+02  0.00000000000E+00 0. -1.
</event>
<event>
 7    1  0.2227287E-008  0.4614232E+02  0.7816164E-02  0.1320468E+00
        -11   -1    0    0    0    0  0.00000000000E+00  0.00000000000E+00  0.45593999997E+02  0.45594000000E+02  0.51100000000E-03 0.  1.
         11   -1    0    0    0    0 -0.00000000000E+00 -0.00000000000E+00 -0.45593999997E+02  0.45594000000E+02  0.51100000000E-03 0. -1.
    9900012    2    1    2    0    0  0.28362714310E+00 -0.35251485248E+02  0.28042218821E+02  0.46142315490E+02  0.99999792884E+01 0.  0.
         12    1    1    2    0    0 -0.28362714310E+00  0.35251485248E+02 -0.28042218821E+02  0.45045684510E+02  0.00000000000E+00 0. -1.
         11    1    3    3    0    0  0.16127663935E+01 -0.25902036178E+01  0.11140723830E+01  0.32482807387E+01  0.51100000000E-03 0. -1.
        -11    1    3    3    0    0  0.13824747544E+01 -0.29066494797E+01  0.45102100584E+01  0.55409243522E+01  0.51100000000E-03 0.  1.
        -12    1    3    3    0    0 -0.27116140049E+01 -0.29754632151E+02  0.22417936380E+02  0.37353110399E+02  0.00000000000E+00 0.  1.
</event>
<event>
 7    1  0.2227287E-008  0.4614232E+02  0.7816164E-02  0.1320468E+00
        -11   -1    0    0    0    0  0.00000000000E+00  0.00000000000E+00  0.45593999997E+02  0.45594000000E+02  0.51100000000E-03 0.  1.
         11   -1    0    0    0    0 -0.00000000000E+00 -0.00000000000E+00 -0.45593999997E+02  0.45594000000E+02  0.51100000000E-03 0. -1.
    9900012    2    1    2    0    0  0.43821130008E+02  0.72000118058E+01  0.75486339820E+01  0.46142317852E+02  0.10000000827E+02 0.  0.
         12    1    1    2    0    0 -0.43821130008E+02 -0.72000118058E+01 -0.75486339820E+01  0.45045682148E+02  0.00000000000E+00 0. -1.
         11    1    3    3    0    0  0.39303846762E+01 -0.26373383334E+00 -0.10440398372E+01  0.40752298930E+01  0.51100000000E-03 0. -1.
        -11    1    3    3    0    0  0.15719286820E+02  0.59645170953E+01  0.17655866243E+01  0.16905287300E+02  0.51100000000E-03 0.  1.
        -12    1    3    3    0    0  0.24171458512E+02  0.14992285438E+01  0.68270871950E+01  0.25161800659E+02  0.00000000000E+00 0.  1.
</event>
<event>
 7    1  0.2227287E-008  0.4614232E+02  0.7816164E-02  0.1320468E+00
        -11   -1    0    0    0    0  0.00000000000E+00  0.00000000000E+00  0.45593999997E+02  0.45594000000E+02  0.51100000000E-03 0.  1.
         11   -1    0    0    0    0 -0.00000000000E+00 -0.00000000000E+00 -0.45593999997E+02  0.45594000000E+02  0.51100000000E-03 0. -1.
    9900012    2    1    2    0    0  0.68426477443E+01  0.16862992293E+02  0.41205961603E+02  0.46142316423E+02  0.99999878017E+01 0.  0.
         12    1    1    2    0    0 -0.68426477443E+01 -0.16862992293E+02 -0.41205961603E+02  0.45045683577E+02  0.00000000000E+00 0. -1.
         11    1    3    3    0    0 -0.87228347117E+00  0.10556162186E+01  0.10780724212E+02  0.10867346450E+02  0.51100000000E-03 0. -1.
        -11    1    3    3    0    0  0.52663107578E+01  0.80273187247E+01  0.18231768056E+02  0.20605078054E+02  0.51100000000E-03 0.  1.
        -12    1    3    3    0    0  0.24486204577E+01  0.77800573494E+01  0.12193469335E+02  0.14669891920E+02  0.00000000000E+00 0.  1.
</event>
<event>
 7    1  0.2227287E-008  0.4614232E+02  0.7816164E-02  0.1320468E+00
        -11   -1    0    0    0    0  0.00000000000E+00  0.00000000000E+00  0.45593999997E+02  0.45594000000E+02  0.51100000000E-03 0.  1.
         11   -1    0    0    0    0 -0.00000000000E+00 -0.00000000000E+00 -0.45593999997E+02  0.45594000000E+02  0.51100000000E-03 0. -1.
    9900012    2    1    2    0    0 -0.18076709617E+02 -0.29399036885E+02  0.28948961098E+02  0.46142321528E+02  0.10000034350E+02 0.  0.
         12    1    1    2    0    0  0.18076709617E+02  0.29399036885E+02 -0.28948961098E+02  0.45045678472E+02  0.00000000000E+00 0. -1.
         11    1    3    3    0    0 -0.94709576238E+01 -0.20866099366E+02  0.14855957226E+02  0.27309203694E+02  0.51100000000E-03 0. -1.
        -11    1    3    3    0    0 -0.15216643276E+01 -0.26148702124E+01  0.51962382903E+01  0.60128114210E+01  0.51100000000E-03 0.  1.
         12    1    3    3    0    0 -0.70840876654E+01 -0.59180673069E+01  0.88967655818E+01  0.12820306413E+02  0.00000000000E+00 0. -1.
</event>
<event>
 7    1  0.2227287E-008  0.4614232E+02  0.7816164E-02  0.1320468E+00
        -11   -1    0    0    0    0  0.00000000000E+00  0.00000000000E+00  0.45593999997E+02  0.45594000000E+02  0.51100000000E-03 0.  1.
         11   -1    0    0    0    0 -0.00000000000E+00 -0.00000000000E+00 -0.45593999997E+02  0.45594000000E+02  0.51100000000E-03 0. -1.
    9900012    2    1    2    0    0 -0.23534453696E+01  0.44685121523E+02 -0.51782915914E+01  0.46142317693E+02  0.99999993815E+01 0.  0.
         12    1    1    2    0    0  0.23534453696E+01 -0.44685121523E+02  0.51782915914E+01  0.45045682307E+02  0.00000000000E+00 0. -1.
         11    1    3    3    0    0 -0.12604920733E+01  0.87438567648E+01  0.23045817877E+01  0.91298942419E+01  0.51100000000E-03 0. -1.
        -11    1    3    3    0    0 -0.98737605971E+00  0.14897653261E+01 -0.55144569529E+00  0.18704023167E+01  0.51100000000E-03 0.  1.
        -12    1    3    3    0    0 -0.10557723661E+00  0.34451499432E+02 -0.69314276838E+01  0.35142021135E+02  0.00000000000E+00 0.  1.
</event>
<event>
 7    1  0.2227287E-008  0.4614232E+02  0.7816164E-02  0.1320468E+00
        -11   -1    0    0    0    0  0.00000000000E+00  0.00000000000E+00  0.45593999997E+02  0.45594000000E+02  0.51100000000E-03 0. -1.
         11   -1    0    0    0    0 -0.00000000000E+00 -0.00000000000E+00 -0.45593999997E+02  0.45594000000E+02  0.51100000000E-03 0.  1.
    9900012    2    1    2    0    0 -0.31832002355E+02 -0.28666093663E+02 -0.13931692512E+02  0.46142319230E+02  0.10000013395E+02 0.  0.
         12    1    1    2    0    0  0.31832002355E+02  0.28666093663E+02  0.13931692512E+02  0.45045680770E+02  0.00000000000E+00 0. -1.
         11    1    3    3    0    0 -0.39377589361E+00 -0.35627644760E-01 -0.11352316088E+01  0.12021147409E+01  0.51100000000E-03 0. -1.
        -11    1    3    3    0    0 -0.12274536993E+02 -0.15437871828E+02 -0.44161219898E+01  0.20211241394E+02  0.51100000000E-03 0.  1.
        -12    1    3    3    0    0 -0.19163689468E+02 -0.13192594189E+02 -0.83803389129E+01  0.24728963095E+02  0.00000000000E+00 0.  1.
</event>
<event>
 7    1  0.2227287E-008  0.4614232E+02  0.7816164E-02  0.1320468E+00
        -11   -1    0    0    0    0  0.00000000000E+00  0.00000000000E+00  0.45593999997E+02  0.45594000000E+02  0.51100000000E-03 0. -1.
         11   -1    0    0    0    0 -0.00000000000E+00 -0.00000000000E+00 -0.45593999997E+02  0.45594000000E+02  0.51100000000E-03 0.  1.
    9900012    2    1    2    0    0  0.29732398724E+02  0.11749605536E+02 -0.31733968658E+02  0.46142317288E+02  0.99999956899E+01 0.  0.
         12    1    1    2    0    0 -0.29732398724E+02 -0.11749605536E+02  0.31733968658E+02  0.45045682712E+02  0.00000000000E+00 0. -1.
         11    1    3    3    0    0  0.53485572522E+01  0.14888662488E+00 -0.44703003799E+01  0.69722892693E+01  0.51100000000E-03 0. -1.
        -11    1    3    3    0    0  0.21816490828E+02  0.11476698437E+02 -0.27039799850E+02  0.36589952928E+02  0.51100000000E-03 0.  1.
         12    1    3    3    0    0  0.25673506435E+01  0.12402047467E+00 -0.22386842870E+00  0.25800750915E+01  0.00000000000E+00 0. -1.
</event>
<event>
 7    1  0.2227287E-008  0.4614232E+02  0.7816164E-02  0.1320468E+00
        -11   -1    0    0    0    0  0.00000000000E+00  0.00000000000E+00  0.45593999997E+02  0.45594000000E+02  0.51100000000E-03 0.  1.
         11   -1    0    0    0    0 -0.00000000000E+00 -0.00000000000E+00 -0.45593999997E+02  0.45594000000E+02  0.51100000000E-03 0. -1.
    9900012    2    1    2    0    0 -0.11231286866E+02  0.10581030936E+02  0.42320367342E+02  0.46142317495E+02  0.99999975725E+01 0.  0.
         12    1    1    2    0    0  0.11231286866E+02 -0.10581030936E+02 -0.42320367342E+02  0.45045682505E+02  0.00000000000E+00 0. -1.
         11    1    3    3    0    0 -0.65883482001E+01  0.31333412170E+01  0.30377596882E+02  0.31241359634E+02  0.51100000000E-03 0. -1.
        -11    1    3    3    0    0 -0.96616757852E+00  0.64295740553E+00  0.12720968608E+01  0.17219479375E+01  0.51100000000E-03 0.  1.
         12    1    3    3    0    0 -0.36767710877E+01  0.68047323139E+01  0.10670673600E+02  0.13179009924E+02  0.00000000000E+00 0. -1.
</event>
<event>
 7    1  0.2227287E-008  0.4614232E+02  0.7816164E-02  0.1320468E+00
        -11   -1    0    0    0    0  0.00000000000E+00  0.00000000000E+00  0.45593999997E+02  0.45594000000E+02  0.51100000000E-03 0.  1.
         11   -1    0    0    0    0 -0.00000000000E+00 -0.00000000000E+00 -0.45593999997E+02  0.45594000000E+02  0.51100000000E-03 0. -1.
    9900012    2    1    2    0    0 -0.61926678777E+01 -0.37848060282E+02  0.23628133110E+02  0.46142317889E+02  0.10000001168E+02 0.  0.
         12    1    1    2    0    0  0.61926678777E+01  0.37848060282E+02 -0.23628133110E+02  0.45045682111E+02  0.00000000000E+00 0. -1.
         11    1    3    3    0    0 -0.24026914137E+01 -0.90735676380E+01  0.10220303511E+02  0.13876496670E+02  0.51100000000E-03 0. -1.
        -11    1    3    3    0    0 -0.46382841518E+01 -0.20663440267E+02  0.10142752996E+02  0.23481202741E+02  0.51100000000E-03 0.  1.
        -12    1    3    3    0    0  0.84830768769E+00 -0.81110523764E+01  0.32650766035E+01  0.87846184785E+01  0.00000000000E+00 0.  1.
</event>
<event>
 7    1  0.2227287E-008  0.4614232E+02  0.7816164E-02  0.1320468E+00
        -11   -1    0    0    0    0  0.00000000000E+00  0.00000000000E+00  0.45593999997E+02  0.45594000000E+02  0.51100000000E-03 0. -1.
         11   -1    0    0    0    0 -0.00000000000E+00 -0.00000000000E+00 -0.45593999997E+02  0.45594000000E+02  0.51100000000E-03 0.  1.
    9900012    2    1    2    0    0 -0.41663294802E+02  0.92195846091E+01 -0.14431983059E+02  0.46142323081E+02  0.10000048509E+02 0.  0.
         12    1    1    2    0    0  0.41663294802E+02 -0.92195846091E+01  0.14431983059E+02  0.45045676919E+02  0.00000000000E+00 0. -1.
         11    1    3    3    0    0 -0.60093456348E+01 -0.30177231466E-02  0.51317036251E+00  0.60312177997E+01  0.51100000000E-03 0. -1.
        -11    1    3    3    0    0 -0.51819552770E+01  0.70093157451E+00 -0.27997901800E+00  0.52366357594E+01  0.51100000000E-03 0.  1.
         12    1    3    3    0    0 -0.30471993890E+02  0.85216707577E+01 -0.14665174404E+02  0.34874469522E+02  0.00000000000E+00 0. -1.
</event>
<event>
 7    1  0.2227287E-008  0.4614232E+02  0.7816164E-02  0.1320468E+00
        -11   -1    0    0    0    0  0.00000000000E+00  0.00000000000E+00  0.45593999997E+02  0.45594000000E+02  0.51100000000E-03 0. -1.
         11   -1    0    0    0    0 -0.00000000000E+00 -0.00000000000E+00 -0.45593999997E+02  0.45594000000E+02  0.51100000000E-03 0.  1.
    9900012    2    1    2    0    0 -0.23069986714E+02 -0.32085581871E+02 -0.21619547399E+02  0.46142315625E+02  0.99999805240E+01 0.  0.
         12    1    1    2    0    0  0.23069986714E+02  0.32085581871E+02  0.21619547399E+02  0.45045684375E+02  0.00000000000E+00 0. -1.
         11    1    3    3    0    0 -0.22569241691E+01 -0.68969435245E+01 -0.34618711406E+01  0.80402791457E+01  0.51100000000E-03 0. -1.
        -11    1    3    3    0    0 -0.19635740153E+02 -0.25445290747E+02 -0.16731278644E+02  0.36234800923E+02  0.51100000000E-03 0.  1.
        -12    1    3    3    0    0 -0.11773223925E+01  0.25665240051E+00 -0.14263976145E+01  0.18672355570E+01  0.00000000000E+00 0.  1.
</event>
<event>
 7    1  0.2227287E-008  0.4614232E+02  0.7816164E-02  0.1320468E+00
        -11   -1    0    0    0    0  0.00000000000E+00  0.00000000000E+00  0.45593999997E+02  0.45594000000E+02  0.51100000000E-03 0.  1.
         11   -1    0    0    0    0 -0.00000000000E+00 -0.00000000000E+00 -0.45593999997E+02  0.45594000000E+02  0.51100000000E-03 0. -1.
    9900012    2    1    2    0    0 -0.12356420005E+01  0.44970708053E+02 -0.22851971688E+01  0.46142317409E+02  0.99999967933E+01 0.  0.
         12    1    1    2    0    0  0.12356420005E+01 -0.44970708053E+02  0.22851971688E+01  0.45045682591E+02  0.00000000000E+00 0. -1.
         11    1    3    3    0    0  0.46766484909E+00  0.10380055443E+01  0.54820294876E+00  0.12636030449E+01  0.51100000000E-03 0. -1.
        -11    1    3    3    0    0  0.34932954255E+01  0.15996611412E+02 -0.11114986769E+01  0.16411280242E+02  0.51100000000E-03 0.  1.
        -12    1    3    3    0    0 -0.51966022751E+01  0.27936091097E+02 -0.17219014407E+01  0.28467434123E+02  0.00000000000E+00 0.  1.
</event>
<event>
 7    1  0.2227287E-008  0.4614232E+02  0.7816164E-02  0.1320468E+00
        -11   -1    0    0    0    0  0.00000000000E+00  0.00000000000E+00  0.45593999997E+02  0.45594000000E+02  0.51100000000E-03 0.  1.
         11   -1    0    0    0    0 -0.00000000000E+00 -0.00000000000E+00 -0.45593999997E+02  0.45594000000E+02  0.51100000000E-03 0. -1.
    9900012    2    1    2    0    0 -0.16982323679E+02 -0.19397301756E+02  0.36938582626E+02  0.46142317417E+02  0.99999968582E+01 0.  0.
         12    1    1    2    0    0  0.16982323679E+02  0.19397301756E+02 -0.36938582626E+02  0.45045682583E+02  0.00000000000E+00 0. -1.
         11    1    3    3    0    0 -0.51036222149E+01 -0.32853537145E+01  0.63089952774E+01  0.87546519299E+01  0.51100000000E-03 0. -1.
        -11    1    3    3    0    0 -0.46781668721E+01 -0.91090956041E+01  0.93935486281E+01  0.13896029077E+02  0.51100000000E-03 0.  1.
        -12    1    3    3    0    0 -0.72005345923E+01 -0.70028524379E+01  0.21236038721E+02  0.23491636410E+02  0.00000000000E+00 0.  1.
</event>
<event>
 7    1  0.2227287E-008  0.4614231E+02  0.7816164E-02  0.1320468E+00
        -11   -1    0    0    0    0  0.00000000000E+00  0.00000000000E+00  0.45593999997E+02  0.45594000000E+02  0.51100000000E-03 0. -1.
         11   -1    0    0    0    0 -0.00000000000E+00 -0.00000000000E+00 -0.45593999997E+02  0.45594000000E+02  0.51100000000E-03 0.  1.
    9900012    2    1    2    0    0 -0.29111742537E+01 -0.12080708811E+01 -0.44935285515E+02  0.46142309251E+02  0.99999223944E+01 0.  0.
         12    1    1    2    0    0  0.29111742537E+01  0.12080708811E+01  0.44935285515E+02  0.45045690749E+02  0.00000000000E+00 0. -1.
         11    1    3    3    0    0 -0.46108589006E+00 -0.36558566391E+00 -0.45602327516E+00  0.74445319818E+00  0.51100000000E-03 0. -1.
        -11    1    3    3    0    0 -0.33034366414E+00 -0.46798507234E+01 -0.24101218396E+02  0.24553591553E+02  0.51100000000E-03 0.  1.
        -12    1    3    3    0    0 -0.21197446995E+01  0.38373655062E+01 -0.20378043844E+02  0.20844264499E+02  0.00000000000E+00 0.  1.
</event>
<event>
 7    1  0.2227287E-008  0.4614232E+02  0.7816164E-02  0.1320468E+00
        -11   -1    0    0    0    0  0.00000000000E+00  0.00000000000E+00  0.45593999997E+02  0.45594000000E+02  0.51100000000E-03 0.  1.
         11   -1    0    0    0    0 -0.00000000000E+00 -0.00000000000E+00 -0.45593999997E+02  0.45594000000E+02  0.51100000000E-03 0. -1.
    9900012    2    1    2    0    0 -0.25484726982E+02 -0.41130311472E+01  0.36915108105E+02  0.46142317177E+02  0.99999946740E+01 0.  0.
         12    1    1    2    0    0  0.25484726982E+02  0.41130311472E+01 -0.36915108105E+02  0.45045682823E+02  0.00000000000E+00 0. -1.
         11    1    3    3    0    0 -0.58203345304E+01 -0.12454563117E+01  0.38591806666E+01  0.70937106756E+01  0.51100000000E-03 0. -1.
        -11    1    3    3    0    0 -0.71002448540E+01 -0.98981390923E+00  0.68004396977E+01  0.98812544196E+01  0.51100000000E-03 0.  1.
        -12    1    3    3    0    0 -0.12564147597E+02 -0.18777609262E+01  0.26255487741E+02  0.29167352082E+02  0.00000000000E+00 0.  1.
</event>
<event>
 7    1  0.2227287E-008  0.4614232E+02  0.7816164E-02  0.1320468E+00
        -11   -1    0    0    0    0  0.00000000000E+00  0.00000000000E+00  0.45593999997E+02  0.45594000000E+02  0.51100000000E-03 0. -1.
         11   -1    0    0    0    0 -0.00000000000E+00 -0.00000000000E+00 -0.45593999997E+02  0.45594000000E+02  0.51100000000E-03 0.  1.
    9900012    2    1    2    0    0  0.12657205957E+02  0.43408670333E+01 -0.43012387441E+02  0.46142318047E+02  0.10000002607E+02 0.  0.
         12    1    1    2    0    0 -0.12657205957E+02 -0.43408670333E+01  0.43012387441E+02  0.45045681953E+02  0.00000000000E+00 0. -1.
         11    1    3    3    0    0  0.17992143304E+01  0.66560679439E+00 -0.11645199499E+01  0.22441728067E+01  0.51100000000E-03 0. -1.
        -11    1    3    3    0    0  0.53895062543E+01  0.52630393947E+01 -0.22315654585E+02  0.23552808775E+02  0.51100000000E-03 0.  1.
        -12    1    3    3    0    0  0.54684853726E+01 -0.15877791558E+01 -0.19532212906E+02  0.20345336466E+02  0.00000000000E+00 0.  1.
</event>
<event>
 7    1  0.2227287E-008  0.4614232E+02  0.7816164E-02  0.1320468E+00
        -11   -1    0    0    0    0  0.00000000000E+00  0.00000000000E+00  0.45593999997E+02  0.45594000000E+02  0.51100000000E-03 0.  1.
         11   -1    0    0    0    0 -0.00000000000E+00 -0.00000000000E+00 -0.45593999997E+02  0.45594000000E+02  0.51100000000E-03 0. -1.
    9900012    2    1    2    0    0 -0.56191035979E+01  0.54235367789E+01  0.44363548284E+02  0.46142317712E+02  0.99999995513E+01 0.  0.
         12    1    1    2    0    0  0.56191035979E+01 -0.54235367789E+01 -0.44363548284E+02  0.45045682288E+02  0.00000000000E+00 0. -1.
         11    1    3    3    0    0  0.26433248286E+01  0.12139475036E+01  0.76864728276E+01  0.82184365594E+01  0.51100000000E-03 0. -1.
        -11    1    3    3    0    0 -0.30625112843E+01  0.20082636151E+01  0.19547424142E+02  0.19887530992E+02  0.51100000000E-03 0.  1.
         12    1    3    3    0    0 -0.51999171421E+01  0.22013256602E+01  0.17129651314E+02  0.18036350160E+02  0.00000000000E+00 0. -1.
</event>
<event>
 7    1  0.2227287E-008  0.4614232E+02  0.7816164E-02  0.1320468E+00
        -11   -1    0    0    0    0  0.00000000000E+00  0.00000000000E+00  0.45593999997E+02  0.45594000000E+02  0.51100000000E-03 0. -1.
         11   -1    0    0    0    0 -0.00000000000E+00 -0.00000000000E+00 -0.45593999997E+02  0.45594000000E+02  0.51100000000E-03 0.  1.
    9900012    2    1    2    0    0 -0.38772694522E+02 -0.18003091805E+02 -0.14201419163E+02  0.46142318062E+02  0.10000002743E+02 0.  0.
         12    1    1    2    0    0  0.38772694522E+02  0.18003091805E+02  0.14201419163E+02  0.45045681938E+02  0.00000000000E+00 0. -1.
         11    1    3    3    0    0 -0.44102607021E+01 -0.93401725007E+00 -0.74463226803E+00  0.45691646020E+01  0.51100000000E-03 0. -1.
        -11    1    3    3    0    0 -0.18586084523E+02 -0.44618386790E+01 -0.57895521113E+01  0.19971716406E+02  0.51100000000E-03 0.  1.
        -12    1    3    3    0    0 -0.15776349297E+02 -0.12607235876E+02 -0.76672347839E+01  0.21601437054E+02  0.00000000000E+00 0.  1.
</event>
<event>
 7    1  0.2227287E-008  0.4614232E+02  0.7816164E-02  0.1320468E+00
        -11   -1    0    0    0    0  0.00000000000E+00  0.00000000000E+00  0.45593999997E+02  0.45594000000E+02  0.51100000000E-03 0.  1.
         11   -1    0    0    0    0 -0.00000000000E+00 -0.00000000000E+00 -0.45593999997E+02  0.45594000000E+02  0.51100000000E-03 0. -1.
    9900012    2    1    2    0    0  0.32280462569E+02  0.26618785799E+01  0.31304946069E+02  0.46142317526E+02  0.99999978533E+01 0.  0.
         12    1    1    2    0    0 -0.32280462569E+02 -0.26618785799E+01 -0.31304946069E+02  0.45045682474E+02  0.00000000000E+00 0. -1.
         11    1    3    3    0    0  0.20228047240E+02  0.13685302358E+01  0.14767585365E+02  0.25082431061E+02  0.51100000000E-03 0.  1.
        -11    1    3    3    0    0  0.10102308916E+01  0.58726248624E+00  0.74777849832E-02  0.11685460455E+01  0.51100000000E-03 0. -1.
        -12    1    3    3    0    0  0.11042184437E+02  0.70608585784E+00  0.16529882918E+02  0.19891340419E+02  0.00000000000E+00 0.  1.
</event>
<event>
 7    1  0.2227287E-008  0.4614232E+02  0.7816164E-02  0.1320468E+00
        -11   -1    0    0    0    0  0.00000000000E+00  0.00000000000E+00  0.45593999997E+02  0.45594000000E+02  0.51100000000E-03 0.  1.
         11   -1    0    0    0    0 -0.00000000000E+00 -0.00000000000E+00 -0.45593999997E+02  0.45594000000E+02  0.51100000000E-03 0. -1.
    9900012    2    1    2    0    0  0.64503263199E+01 -0.82646359377E+01  0.43808703865E+02  0.46142318174E+02  0.10000003764E+02 0.  0.
         12    1    1    2    0    0 -0.64503263199E+01  0.82646359377E+01 -0.43808703865E+02  0.45045681826E+02  0.00000000000E+00 0. -1.
         11    1    3    3    0    0  0.31284254555E-01 -0.17097081501E+01  0.69115292746E+00  0.18443896805E+01  0.51100000000E-03 0. -1.
        -11    1    3    3    0    0  0.67191935254E+00 -0.12334135466E+01  0.16288375082E+02  0.16348820987E+02  0.51100000000E-03 0.  1.
        -12    1    3    3    0    0  0.57471227128E+01 -0.53215142410E+01  0.26829175856E+02  0.27949107507E+02  0.00000000000E+00 0.  1.
</event>
<event>
 7    1  0.2227287E-008  0.4614232E+02  0.7816164E-02  0.1320468E+00
        -11   -1    0    0    0    0  0.00000000000E+00  0.00000000000E+00  0.45593999997E+02  0.45594000000E+02  0.51100000000E-03 0.  1.
         11   -1    0    0    0    0 -0.00000000000E+00 -0.00000000000E+00 -0.45593999997E+02  0.45594000000E+02  0.51100000000E-03 0. -1.
    9900012    2    1    2    0    0 -0.21273065926E+02 -0.26034743557E+02  0.29979364268E+02  0.46142317766E+02  0.10000000047E+02 0.  0.
         12    1    1    2    0    0  0.21273065926E+02  0.26034743557E+02 -0.29979364268E+02  0.45045682234E+02  0.00000000000E+00 0. -1.
         11    1    3    3    0    0 -0.14397448936E+02 -0.18984329181E+02  0.18796602553E+02  0.30348040433E+02  0.51100000000E-03 0. -1.
        -11    1    3    3    0    0 -0.57632492790E+01 -0.77461692721E+01  0.87486918969E+01  0.13029113201E+02  0.51100000000E-03 0.  1.
         12    1    3    3    0    0 -0.11123677106E+01  0.69575489545E+00  0.24340698177E+01  0.27651641317E+01  0.00000000000E+00 0. -1.
</event>
<event>
 7    1  0.2227287E-008  0.4614232E+02  0.7816164E-02  0.1320468E+00
        -11   -1    0    0    0    0  0.00000000000E+00  0.00000000000E+00  0.45593999997E+02  0.45594000000E+02  0.51100000000E-03 0.  1.
         11   -1    0    0    0    0 -0.00000000000E+00 -0.00000000000E+00 -0.45593999997E+02  0.45594000000E+02  0.51100000000E-03 0. -1.
    9900012    2    1    2    0    0  0.43599594623E+02 -0.74317307813E+01 -0.85415509868E+01  0.46142319109E+02  0.10000012293E+02 0.  0.
         12    1    1    2    0    0 -0.43599594623E+02  0.74317307813E+01  0.85415509868E+01  0.45045680891E+02  0.00000000000E+00 0. -1.
         11    1    3    3    0    0  0.18492013235E+01 -0.11314832221E+01  0.66144851323E+00  0.22665644075E+01  0.51100000000E-03 0. -1.
        -11    1    3    3    0    0  0.20875860322E+02 -0.21480772410E+01 -0.83163160418E+01  0.22573809886E+02  0.51100000000E-03 0.  1.
        -12    1    3    3    0    0  0.20874532977E+02 -0.41521703182E+01 -0.88668345822E+00  0.21301944815E+02  0.00000000000E+00 0.  1.
</event>
<event>
 7    1  0.2227287E-008  0.4614232E+02  0.7816164E-02  0.1320468E+00
        -11   -1    0    0    0    0  0.00000000000E+00  0.00000000000E+00  0.45593999997E+02  0.45594000000E+02  0.51100000000E-03 0.  1.
         11   -1    0    0    0    0 -0.00000000000E+00 -0.00000000000E+00 -0.45593999997E+02  0.45594000000E+02  0.51100000000E-03 0. -1.
    9900012    2    1    2    0    0 -0.19589037067E+02  0.43669987776E+01  0.40327563816E+02  0.46142318133E+02  0.10000003392E+02 0.  0.
         12    1    1    2    0    0  0.19589037067E+02 -0.43669987776E+01 -0.40327563816E+02  0.45045681867E+02  0.00000000000E+00 0. -1.
         11    1    3    3    0    0 -0.92315409905E+00 -0.23256105167E+00  0.63013125099E+01  0.63728202346E+01  0.51100000000E-03 0. -1.
        -11    1    3    3    0    0 -0.19013838232E+02  0.45667838517E+01  0.30528003213E+02  0.36253834825E+02  0.51100000000E-03 0.  1.
        -12    1    3    3    0    0  0.34795526389E+00  0.32775977567E-01  0.34982480928E+01  0.35156630738E+01  0.00000000000E+00 0.  1.
</event>
<event>
 7    1  0.2227287E-008  0.4614232E+02  0.7816164E-02  0.1320468E+00
        -11   -1    0    0    0    0  0.00000000000E+00  0.00000000000E+00  0.45593999997E+02  0.45594000000E+02  0.51100000000E-03 0.  1.
         11   -1    0    0    0    0 -0.00000000000E+00 -0.00000000000E+00 -0.45593999997E+02  0.45594000000E+02  0.51100000000E-03 0. -1.
    9900012    2    1    2    0    0  0.12931915525E+02  0.30334009076E+02  0.30687569593E+02  0.46142317928E+02  0.10000001526E+02 0.  0.
         12    1    1    2    0    0 -0.12931915525E+02 -0.30334009076E+02 -0.30687569593E+02  0.45045682072E+02  0.00000000000E+00 0. -1.
         11    1    3    3    0    0  0.63863475508E+01  0.17938355221E+02  0.22987227209E+02  0.29849332288E+02  0.51100000000E-03 0. -1.
        -11    1    3    3    0    0  0.92439617365E+00  0.35543853805E+01  0.32715716545E+01  0.49184697895E+01  0.51100000000E-03 0.  1.
        -12    1    3    3    0    0  0.56211718006E+01  0.88412684747E+01  0.44287707300E+01  0.11374515850E+02  0.00000000000E+00 0.  1.
</event>
<event>
 7    1  0.2227287E-008  0.4614232E+02  0.7816164E-02  0.1320468E+00
        -11   -1    0    0    0    0  0.00000000000E+00  0.00000000000E+00  0.45593999997E+02  0.45594000000E+02  0.51100000000E-03 0. -1.
         11   -1    0    0    0    0 -0.00000000000E+00 -0.00000000000E+00 -0.45593999997E+02  0.45594000000E+02  0.51100000000E-03 0.  1.
    9900012    2    1    2    0    0  0.14187082855E+02 -0.15213935392E+02 -0.39954673584E+02  0.46142322169E+02  0.10000040192E+02 0.  0.
         12    1    1    2    0    0 -0.14187082855E+02  0.15213935392E+02  0.39954673584E+02  0.45045677831E+02  0.00000000000E+00 0. -1.
         11    1    3    3    0    0  0.33798813716E+01 -0.67206319802E+01 -0.10770263768E+02  0.13137316095E+02  0.51100000000E-03 0. -1.
        -11    1    3    3    0    0  0.29803208805E+01 -0.67454410613E+01 -0.14824595561E+02  0.16557533677E+02  0.51100000000E-03 0.  1.
        -12    1    3    3    0    0  0.78268806031E+01 -0.17478623503E+01 -0.14359814256E+02  0.16447472396E+02  0.00000000000E+00 0.  1.
</event>
<event>
 7    1  0.2227287E-008  0.4614232E+02  0.7816164E-02  0.1320468E+00
        -11   -1    0    0    0    0  0.00000000000E+00  0.00000000000E+00  0.45593999997E+02  0.45594000000E+02  0.51100000000E-03 0.  1.
         11   -1    0    0    0    0 -0.00000000000E+00 -0.00000000000E+00 -0.45593999997E+02  0.45594000000E+02  0.51100000000E-03 0. -1.
    9900012    2    1    2    0    0  0.62424359766E+01 -0.22416945142E+02  0.38569751383E+02  0.46142321426E+02  0.10000033419E+02 0.  0.
         12    1    1    2    0    0 -0.62424359766E+01  0.22416945142E+02 -0.38569751383E+02  0.45045678574E+02  0.00000000000E+00 0. -1.
         11    1    3    3    0    0  0.29045155465E+01 -0.25657415773E+01  0.21464612880E+01  0.44301847279E+01  0.51100000000E-03 0. -1.
        -11    1    3    3    0    0  0.13770381622E+01 -0.30924763000E+01  0.74656458917E+01  0.81972869052E+01  0.51100000000E-03 0.  1.
        -12    1    3    3    0    0  0.19608822680E+01 -0.16758727265E+02  0.28957644204E+02  0.33514849793E+02  0.00000000000E+00 0.  1.
</event>
<event>
 7    1  0.2227287E-008  0.4614232E+02  0.7816164E-02  0.1320468E+00
        -11   -1    0    0    0    0  0.00000000000E+00  0.00000000000E+00  0.45593999997E+02  0.45594000000E+02  0.51100000000E-03 0.  1.
         11   -1    0    0    0    0 -0.00000000000E+00 -0.00000000000E+00 -0.45593999997E+02  0.45594000000E+02  0.51100000000E-03 0. -1.
    9900012    2    1    2    0    0  0.14565227230E+02  0.18541929336E+02  0.38381826355E+02  0.46142316720E+02  0.99999905107E+01 0.  0.
         12    1    1    2    0    0 -0.14565227230E+02 -0.18541929336E+02 -0.38381826355E+02  0.45045683280E+02  0.00000000000E+00 0. -1.
         11    1    3    3    0    0  0.40616495971E+01  0.44278826135E+01  0.63107894266E+01  0.87137365887E+01  0.51100000000E-03 0. -1.
        -11    1    3    3    0    0  0.81904127845E+01  0.14756942420E+02  0.28588252928E+02  0.33198470099E+02  0.51100000000E-03 0.  1.
        -12    1    3    3    0    0  0.23131648482E+01 -0.64289569817E+00  0.34827840006E+01  0.42301100327E+01  0.00000000000E+00 0.  1.
</event>
<event>
 7    1  0.2227287E-008  0.4614232E+02  0.7816164E-02  0.1320468E+00
        -11   -1    0    0    0    0  0.00000000000E+00  0.00000000000E+00  0.45593999997E+02  0.45594000000E+02  0.51100000000E-03 0.  1.
         11   -1    0    0    0    0 -0.00000000000E+00 -0.00000000000E+00 -0.45593999997E+02  0.45594000000E+02  0.51100000000E-03 0. -1.
    9900012    2    1    2    0    0 -0.44088975379E+02  0.49836879765E+01 -0.77742367016E+01  0.46142315943E+02  0.99999834235E+01 0.  0.
         12    1    1    2    0    0  0.44088975379E+02 -0.49836879765E+01  0.77742367016E+01  0.45045684057E+02  0.00000000000E+00 0. -1.
         11    1    3    3    0    0  0.46817016976E+00  0.23609957585E+00 -0.34879182368E+00  0.62974781854E+00  0.51100000000E-03 0. -1.
        -11    1    3    3    0    0 -0.24187546576E+02  0.13416015866E+01 -0.47742369935E+01  0.24690699530E+02  0.51100000000E-03 0.  1.
         12    1    3    3    0    0 -0.20369598974E+02  0.34059868140E+01 -0.26512078845E+01  0.20821868595E+02  0.00000000000E+00 0. -1.
</event>
<event>
 7    1  0.2227287E-008  0.4614232E+02  0.7816164E-02  0.1320468E+00
        -11   -1    0    0    0    0  0.00000000000E+00  0.00000000000E+00  0.45593999997E+02  0.45594000000E+02  0.51100000000E-03 0.  1.
         11   -1    0    0    0    0 -0.00000000000E+00 -0.00000000000E+00 -0.45593999997E+02  0.45594000000E+02  0.51100000000E-03 0. -1.
    9900012    2    1    2    0    0  0.84393573015E+01 -0.35125008439E+02 -0.26909561109E+02  0.46142318203E+02  0.10000004029E+02 0.  0.
         12    1    1    2    0    0 -0.84393573015E+01  0.35125008439E+02  0.26909561109E+02  0.45045681797E+02  0.00000000000E+00 0. -1.
         11    1    3    3    0    0  0.40856008548E+00  0.40150503530E+00 -0.34197850994E+00  0.66714106394E+00  0.51100000000E-03 0. -1.
        -11    1    3    3    0    0  0.82851260826E+01 -0.24224712279E+02 -0.18334428579E+02  0.31490177370E+02  0.51100000000E-03 0.  1.
        -12    1    3    3    0    0 -0.25432886663E+00 -0.11301801195E+02 -0.82331540203E+01  0.13984999769E+02  0.00000000000E+00 0.  1.
</event>
<event>
 7    1  0.2227287E-008  0.4614232E+02  0.7816164E-02  0.1320468E+00
        -11   -1    0    0    0    0  0.00000000000E+00  0.00000000000E+00  0.45593999997E+02  0.45594000000E+02  0.51100000000E-03 0.  1.
         11   -1    0    0    0    0 -0.00000000000E+00 -0.00000000000E+00 -0.45593999997E+02  0.45594000000E+02  0.51100000000E-03 0. -1.
    9900012    2    1    2    0    0  0.20179006030E+02 -0.37800131721E+02 -0.13895007690E+02  0.46142317841E+02  0.10000000724E+02 0.  0.
         12    1    1    2    0    0 -0.20179006030E+02  0.37800131721E+02  0.13895007690E+02  0.45045682159E+02  0.00000000000E+00 0. -1.
         11    1    3    3    0    0  0.96673910131E+01 -0.14033443415E+02 -0.24722106268E+01  0.17219402101E+02  0.51100000000E-03 0. -1.
        -11    1    3    3    0    0  0.60921486868E+01 -0.10832899552E+02 -0.27298318819E+01  0.12724699238E+02  0.51100000000E-03 0.  1.
         12    1    3    3    0    0  0.44194663299E+01 -0.12933788755E+02 -0.86929651815E+01  0.16198216502E+02  0.00000000000E+00 0. -1.
</event>
<event>
 7    1  0.2227287E-008  0.4614232E+02  0.7816164E-02  0.1320468E+00
        -11   -1    0    0    0    0  0.00000000000E+00  0.00000000000E+00  0.45593999997E+02  0.45594000000E+02  0.51100000000E-03 0.  1.
         11   -1    0    0    0    0 -0.00000000000E+00 -0.00000000000E+00 -0.45593999997E+02  0.45594000000E+02  0.51100000000E-03 0. -1.
    9900012    2    1    2    0    0  0.31191112243E+02  0.28792248414E+02  0.15074297314E+02  0.46142317730E+02  0.99999997159E+01 0.  0.
         12    1    1    2    0    0 -0.31191112243E+02 -0.28792248414E+02 -0.15074297314E+02  0.45045682270E+02  0.00000000000E+00 0. -1.
         11    1    3    3    0    0  0.10285181905E+02  0.98995361365E+01  0.68752167551E+01  0.15844695902E+02  0.51100000000E-03 0. -1.
        -11    1    3    3    0    0  0.56750235056E+01  0.12292329116E+01  0.22516836793E+01  0.62279197966E+01  0.51100000000E-03 0.  1.
        -12    1    3    3    0    0  0.15230906832E+02  0.17663479366E+02  0.59473968792E+01  0.24069702031E+02  0.00000000000E+00 0.  1.
</event>
<event>
 7    1  0.2227287E-008  0.4614231E+02  0.7816164E-02  0.1320468E+00
        -11   -1    0    0    0    0  0.00000000000E+00  0.00000000000E+00  0.45593999997E+02  0.45594000000E+02  0.51100000000E-03 0.  1.
         11   -1    0    0    0    0 -0.00000000000E+00 -0.00000000000E+00 -0.45593999997E+02  0.45594000000E+02  0.51100000000E-03 0. -1.
    9900012    2    1    2    0    0 -0.44954319927E+02  0.22647527780E+01 -0.17589956832E+01  0.46142311515E+02  0.99999430423E+01 0.  0.
         12    1    1    2    0    0  0.44954319927E+02 -0.22647527780E+01  0.17589956832E+01  0.45045688485E+02  0.00000000000E+00 0. -1.
         11    1    3    3    0    0 -0.24418680070E+01  0.15130841963E+01 -0.21308965399E+01  0.35767112650E+01  0.51100000000E-03 0. -1.
        -11    1    3    3    0    0 -0.81809919613E+01  0.51056140213E+00 -0.60689019788E+00  0.82193441581E+01  0.51100000000E-03 0.  1.
        -12    1    3    3    0    0 -0.34331459959E+02  0.24110717967E+00  0.97879105455E+00  0.34346256092E+02  0.00000000000E+00 0.  1.
</event>
<event>
 7    1  0.2227287E-008  0.4614232E+02  0.7816164E-02  0.1320468E+00
        -11   -1    0    0    0    0  0.00000000000E+00  0.00000000000E+00  0.45593999997E+02  0.45594000000E+02  0.51100000000E-03 0. -1.
         11   -1    0    0    0    0 -0.00000000000E+00 -0.00000000000E+00 -0.45593999997E+02  0.45594000000E+02  0.51100000000E-03 0.  1.
    9900012    2    1    2    0    0  0.21328462046E+02 -0.39279510445E+02 -0.55973445497E+01  0.46142317631E+02  0.99999988169E+01 0.  0.
         12    1    1    2    0    0 -0.21328462046E+02  0.39279510445E+02  0.55973445497E+01  0.45045682369E+02  0.00000000000E+00 0. -1.
         11    1    3    3    0    0  0.63912452415E+00  0.76249041991E-01  0.44128580707E+00  0.78040213891E+00  0.51100000000E-03 0. -1.
        -11    1    3    3    0    0  0.24575597101E+01 -0.10754580405E+02 -0.18614684212E+01  0.11187746170E+02  0.51100000000E-03 0.  1.
         12    1    3    3    0    0  0.18231777811E+02 -0.28601179082E+02 -0.41771619356E+01  0.34174169323E+02  0.00000000000E+00 0. -1.
</event>
<event>
 7    1  0.2227287E-008  0.4614232E+02  0.7816164E-02  0.1320468E+00
        -11   -1    0    0    0    0  0.00000000000E+00  0.00000000000E+00  0.45593999997E+02  0.45594000000E+02  0.51100000000E-03 0. -1.
         11   -1    0    0    0    0 -0.00000000000E+00 -0.00000000000E+00 -0.45593999997E+02  0.45594000000E+02  0.51100000000E-03 0.  1.
    9900012    2    1    2    0    0  0.29687619168E+02  0.66020999398E+01 -0.33229070423E+02  0.46142316781E+02  0.99999910603E+01 0.  0.
         12    1    1    2    0    0 -0.29687619168E+02 -0.66020999398E+01  0.33229070423E+02  0.45045683219E+02  0.00000000000E+00 0. -1.
         11    1    3    3    0    0  0.28105677804E+00 -0.44906823794E+00  0.66020892438E-01  0.53386722522E+00  0.51100000000E-03 0. -1.
        -11    1    3    3    0    0  0.25411809908E+02  0.46711458220E+01 -0.31196536028E+02  0.40506833331E+02  0.51100000000E-03 0.  1.
        -12    1    3    3    0    0  0.39947524819E+01  0.23800223557E+01 -0.20985552876E+01  0.51016162243E+01  0.00000000000E+00 0.  1.
</event>
<event>
 7    1  0.2227287E-008  0.4614232E+02  0.7816164E-02  0.1320468E+00
        -11   -1    0    0    0    0  0.00000000000E+00  0.00000000000E+00  0.45593999997E+02  0.45594000000E+02  0.51100000000E-03 0.  1.
         11   -1    0    0    0    0 -0.00000000000E+00 -0.00000000000E+00 -0.45593999997E+02  0.45594000000E+02  0.51100000000E-03 0. -1.
    9900012    2    1    2    0    0 -0.14724053041E+02 -0.42645003046E+01  0.42357162672E+02  0.46142323954E+02  0.10000056474E+02 0.  0.
         12    1    1    2    0    0  0.14724053041E+02  0.42645003046E+01 -0.42357162672E+02  0.45045676046E+02  0.00000000000E+00 0. -1.
         11    1    3    3    0    0 -0.62942145006E+01 -0.11212979781E+01  0.10813510283E+02  0.12562103735E+02  0.51100000000E-03 0. -1.
        -11    1    3    3    0    0 -0.43451009458E+01  0.20987968814E+01  0.11817287753E+02  0.12764526653E+02  0.51100000000E-03 0.  1.
        -12    1    3    3    0    0 -0.40847375944E+01 -0.52419992080E+01  0.19726364636E+02  0.20815693567E+02  0.00000000000E+00 0.  1.
</event>
<event>
 7    1  0.2227287E-008  0.4614232E+02  0.7816164E-02  0.1320468E+00
        -11   -1    0    0    0    0  0.00000000000E+00  0.00000000000E+00  0.45593999997E+02  0.45594000000E+02  0.51100000000E-03 0.  1.
         11   -1    0    0    0    0 -0.00000000000E+00 -0.00000000000E+00 -0.45593999997E+02  0.45594000000E+02  0.51100000000E-03 0. -1.
    9900012    2    1    2    0    0 -0.31770842611E+02  0.29367712570E+02 -0.12540516457E+02  0.46142317246E+02  0.99999952995E+01 0.  0.
         12    1    1    2    0    0  0.31770842611E+02 -0.29367712570E+02  0.12540516457E+02  0.45045682754E+02  0.00000000000E+00 0. -1.
         11    1    3    3    0    0  0.46355158490E+00  0.10546625176E+01 -0.62474368537E+00  0.13105334912E+01  0.51100000000E-03 0. -1.
        -11    1    3    3    0    0 -0.12000231150E+02  0.73391210225E+01 -0.43196117744E+01  0.14714866333E+02  0.51100000000E-03 0.  1.
        -12    1    3    3    0    0 -0.20234163046E+02  0.20973929030E+02 -0.75961609975E+01  0.30116917422E+02  0.00000000000E+00 0.  1.
</event>
<event>
 7    1  0.2227287E-008  0.4614232E+02  0.7816164E-02  0.1320468E+00
        -11   -1    0    0    0    0  0.00000000000E+00  0.00000000000E+00  0.45593999997E+02  0.45594000000E+02  0.51100000000E-03 0.  1.
         11   -1    0    0    0    0 -0.00000000000E+00 -0.00000000000E+00 -0.45593999997E+02  0.45594000000E+02  0.51100000000E-03 0. -1.
    9900012    2    1    2    0    0 -0.18478043285E+02 -0.33891812287E+02  0.23216814843E+02  0.46142317463E+02  0.99999972843E+01 0.  0.
         12    1    1    2    0    0  0.18478043285E+02  0.33891812287E+02 -0.23216814843E+02  0.45045682537E+02  0.00000000000E+00 0. -1.
         11    1    3    3    0    0 -0.19088996724E+02 -0.32822500051E+02  0.23441537339E+02  0.44622998315E+02  0.51100000000E-03 0.  1.
        -11    1    3    3    0    0  0.59168463128E+00 -0.34480228959E+00  0.15347997645E+00  0.70180886721E+00  0.51100000000E-03 0. -1.
        -12    1    3    3    0    0  0.19268807843E-01 -0.72450994649E+00 -0.37820247262E+00  0.81751028116E+00  0.00000000000E+00 0.  1.
</event>
<event>
 7    1  0.2227287E-008  0.4614232E+02  0.7816164E-02  0.1320468E+00
        -11   -1    0    0    0    0  0.00000000000E+00  0.00000000000E+00  0.45593999997E+02  0.45594000000E+02  0.51100000000E-03 0.  1.
         11   -1    0    0    0    0 -0.00000000000E+00 -0.00000000000E+00 -0.45593999997E+02  0.45594000000E+02  0.51100000000E-03 0. -1.
    9900012    2    1    2    0    0 -0.12612454051E+02 -0.40215495057E+02 -0.15898222912E+02  0.46142317282E+02  0.99999956271E+01 0.  0.
         12    1    1    2    0    0  0.12612454051E+02  0.40215495057E+02  0.15898222912E+02  0.45045682718E+02  0.00000000000E+00 0. -1.
         11    1    3    3    0    0 -0.10015907132E+01 -0.33261948133E+00  0.26233052378E+00  0.10874912602E+01  0.51100000000E-03 0. -1.
        -11    1    3    3    0    0 -0.57177896938E+01 -0.15346556509E+02 -0.31994264345E+01  0.16686708646E+02  0.51100000000E-03 0.  1.
         12    1    3    3    0    0 -0.58930736437E+01 -0.24536319066E+02 -0.12961127001E+02  0.28368117376E+02  0.00000000000E+00 0. -1.
</event>
<event>
 7    1  0.2227287E-008  0.4614232E+02  0.7816164E-02  0.1320468E+00
        -11   -1    0    0    0    0  0.00000000000E+00  0.00000000000E+00  0.45593999997E+02  0.45594000000E+02  0.51100000000E-03 0.  1.
         11   -1    0    0    0    0 -0.00000000000E+00 -0.00000000000E+00 -0.45593999997E+02  0.45594000000E+02  0.51100000000E-03 0. -1.
    9900012    2    1    2    0    0 -0.40819789086E+02  0.15797967742E+02  0.10643420718E+02  0.46142319071E+02  0.10000011943E+02 0.  0.
         12    1    1    2    0    0  0.40819789086E+02 -0.15797967742E+02 -0.10643420718E+02  0.45045680929E+02  0.00000000000E+00 0. -1.
         11    1    3    3    0    0 -0.70852013470E+01  0.14488797856E+01  0.41107461716E+01  0.83185073847E+01  0.51100000000E-03 0.  1.
        -11    1    3    3    0    0 -0.69255424890E+01  0.59379363525E+01  0.89670016249E+00  0.91665859695E+01  0.51100000000E-03 0. -1.
         12    1    3    3    0    0 -0.26809045250E+02  0.84111516040E+01  0.56359743837E+01  0.28657225717E+02  0.00000000000E+00 0. -1.
</event>
<event>
 7    1  0.2227287E-008  0.4614232E+02  0.7816164E-02  0.1320468E+00
        -11   -1    0    0    0    0  0.00000000000E+00  0.00000000000E+00  0.45593999997E+02  0.45594000000E+02  0.51100000000E-03 0. -1.
         11   -1    0    0    0    0 -0.00000000000E+00 -0.00000000000E+00 -0.45593999997E+02  0.45594000000E+02  0.51100000000E-03 0.  1.
    9900012    2    1    2    0    0 -0.36633095265E+02 -0.23210395151E+02  0.12182258553E+02  0.46142317241E+02  0.99999952545E+01 0.  0.
         12    1    1    2    0    0  0.36633095265E+02  0.23210395151E+02 -0.12182258553E+02  0.45045682759E+02  0.00000000000E+00 0. -1.
         11    1    3    3    0    0 -0.34185521884E+01 -0.50563765737E+01  0.12090102859E+01  0.62221498899E+01  0.51100000000E-03 0. -1.
        -11    1    3    3    0    0 -0.12219580328E+02 -0.10135890688E+02  0.53496180454E+01  0.16753293316E+02  0.51100000000E-03 0.  1.
         12    1    3    3    0    0 -0.20994962748E+02 -0.80181278892E+01  0.56236302218E+01  0.23166874034E+02  0.00000000000E+00 0. -1.
</event>
<event>
 7    1  0.2227287E-008  0.4614231E+02  0.7816164E-02  0.1320468E+00
        -11   -1    0    0    0    0  0.00000000000E+00  0.00000000000E+00  0.45593999997E+02  0.45594000000E+02  0.51100000000E-03 0. -1.
         11   -1    0    0    0    0 -0.00000000000E+00 -0.00000000000E+00 -0.45593999997E+02  0.45594000000E+02  0.51100000000E-03 0.  1.
    9900012    2    1    2    0    0  0.48718635248E+01 -0.68398336852E+01 -0.44256022311E+02  0.46142313305E+02  0.99999593623E+01 0.  0.
         12    1    1    2    0    0 -0.48718635248E+01  0.68398336852E+01  0.44256022311E+02  0.45045686695E+02  0.00000000000E+00 0. -1.
         11    1    3    3    0    0 -0.23461094263E+01 -0.24388234535E+01 -0.14323619558E+02  0.14717953893E+02  0.51100000000E-03 0. -1.
        -11    1    3    3    0    0  0.24570300071E+01 -0.27981195134E+01 -0.68006083677E+01  0.77533698286E+01  0.51100000000E-03 0.  1.
         12    1    3    3    0    0  0.47609429440E+01 -0.16028907182E+01 -0.23131794385E+02  0.23670989583E+02  0.00000000000E+00 0. -1.
</event>
<event>
 7    1  0.2227287E-008  0.4614232E+02  0.7816164E-02  0.1320468E+00
        -11   -1    0    0    0    0  0.00000000000E+00  0.00000000000E+00  0.45593999997E+02  0.45594000000E+02  0.51100000000E-03 0.  1.
         11   -1    0    0    0    0 -0.00000000000E+00 -0.00000000000E+00 -0.45593999997E+02  0.45594000000E+02  0.51100000000E-03 0. -1.
    9900012    2    1    2    0    0  0.95745989263E+01  0.38058527822E+02  0.22113096090E+02  0.46142317595E+02  0.99999984897E+01 0.  0.
         12    1    1    2    0    0 -0.95745989263E+01 -0.38058527822E+02 -0.22113096090E+02  0.45045682405E+02  0.00000000000E+00 0. -1.
         11    1    3    3    0    0  0.75627910615E+01  0.13061499441E+02  0.75282159966E+01  0.16866315917E+02  0.51100000000E-03 0. -1.
        -11    1    3    3    0    0  0.23106209934E+01  0.15454281174E+02  0.10852289726E+02  0.19024877622E+02  0.51100000000E-03 0.  1.
        -12    1    3    3    0    0 -0.29881312859E+00  0.95427472080E+01  0.37325903676E+01  0.10251124056E+02  0.00000000000E+00 0.  1.
</event>
<event>
 7    1  0.2227287E-008  0.4614232E+02  0.7816164E-02  0.1320468E+00
        -11   -1    0    0    0    0  0.00000000000E+00  0.00000000000E+00  0.45593999997E+02  0.45594000000E+02  0.51100000000E-03 0.  1.
         11   -1    0    0    0    0 -0.00000000000E+00 -0.00000000000E+00 -0.45593999997E+02  0.45594000000E+02  0.51100000000E-03 0. -1.
    9900012    2    1    2    0    0 -0.41727459166E+02  0.13178202579E+02  0.10689604725E+02  0.46142317401E+02  0.99999967118E+01 0.  0.
         12    1    1    2    0    0  0.41727459166E+02 -0.13178202579E+02 -0.10689604725E+02  0.45045682599E+02  0.00000000000E+00 0. -1.
         11    1    3    3    0    0 -0.20573603714E+02  0.11099981430E+02  0.63243697035E+01  0.24217357617E+02  0.51100000000E-03 0. -1.
        -11    1    3    3    0    0 -0.74234187836E+01  0.21781685292E+01  0.11335909459E+01  0.78189892743E+01  0.51100000000E-03 0.  1.
        -12    1    3    3    0    0 -0.13730436668E+02 -0.99947379765E-01  0.32316440752E+01  0.14105970509E+02  0.00000000000E+00 0.  1.
</event>
<event>
 7    1  0.2227287E-008  0.4614232E+02  0.7816164E-02  0.1320468E+00
        -11   -1    0    0    0    0  0.00000000000E+00  0.00000000000E+00  0.45593999997E+02  0.45594000000E+02  0.51100000000E-03 0.  1.
         11   -1    0    0    0    0 -0.00000000000E+00 -0.00000000000E+00 -0.45593999997E+02  0.45594000000E+02  0.51100000000E-03 0. -1.
    9900012    2    1    2    0    0  0.80665433618E+01 -0.43212936204E+02  0.98329273576E+01  0.46142318324E+02  0.10000005135E+02 0.  0.
         12    1    1    2    0    0 -0.80665433618E+01  0.43212936204E+02 -0.98329273576E+01  0.45045681676E+02  0.00000000000E+00 0. -1.
         11    1    3    3    0    0  0.28209360257E+01 -0.61670274661E+01  0.36656704446E+01  0.77088940775E+01  0.51100000000E-03 0. -1.
        -11    1    3    3    0    0  0.48258387526E+01 -0.16111051454E+02  0.45987849075E+01  0.17435696760E+02  0.51100000000E-03 0.  1.
         12    1    3    3    0    0  0.41976858351E+00 -0.20934857284E+02  0.15684720056E+01  0.20997727486E+02  0.00000000000E+00 0. -1.
</event>
<event>
 7    1  0.2227287E-008  0.4614232E+02  0.7816164E-02  0.1320468E+00
        -11   -1    0    0    0    0  0.00000000000E+00  0.00000000000E+00  0.45593999997E+02  0.45594000000E+02  0.51100000000E-03 0.  1.
         11   -1    0    0    0    0 -0.00000000000E+00 -0.00000000000E+00 -0.45593999997E+02  0.45594000000E+02  0.51100000000E-03 0. -1.
    9900012    2    1    2    0    0 -0.39344928171E+02 -0.18025572919E+02  0.12496752652E+02  0.46142317869E+02  0.10000000985E+02 0.  0.
         12    1    1    2    0    0  0.39344928171E+02  0.18025572919E+02 -0.12496752652E+02  0.45045682131E+02  0.00000000000E+00 0. -1.
         11    1    3    3    0    0 -0.85800799809E+01 -0.38882920740E+01  0.23070312594E+01  0.96984009623E+01  0.51100000000E-03 0. -1.
        -11    1    3    3    0    0 -0.27514333300E+02 -0.14877255887E+02  0.10727039551E+02  0.33067214238E+02  0.51100000000E-03 0.  1.
         12    1    3    3    0    0 -0.32505148898E+01  0.73997504250E+00 -0.53731815823E+00  0.33767026691E+01  0.00000000000E+00 0. -1.
</event>
<event>
 7    1  0.2227287E-008  0.4614232E+02  0.7816164E-02  0.1320468E+00
        -11   -1    0    0    0    0  0.00000000000E+00  0.00000000000E+00  0.45593999997E+02  0.45594000000E+02  0.51100000000E-03 0.  1.
         11   -1    0    0    0    0 -0.00000000000E+00 -0.00000000000E+00 -0.45593999997E+02  0.45594000000E+02  0.51100000000E-03 0. -1.
    9900012    2    1    2    0    0 -0.10937619495E+02  0.11942927825E+02  0.42033896755E+02  0.46142317391E+02  0.99999966282E+01 0.  0.
         12    1    1    2    0    0  0.10937619495E+02 -0.11942927825E+02 -0.42033896755E+02  0.45045682609E+02  0.00000000000E+00 0. -1.
         11    1    3    3    0    0 -0.47928209101E+01  0.10489846075E+02  0.23253926315E+02  0.25956754270E+02  0.51100000000E-03 0. -1.
        -11    1    3    3    0    0 -0.13335637712E+01  0.18797820015E+01  0.88204140553E+01  0.91165605945E+01  0.51100000000E-03 0.  1.
         12    1    3    3    0    0 -0.48112348133E+01 -0.42670025170E+00  0.99595563855E+01  0.11069002526E+02  0.00000000000E+00 0. -1.
</event>
<event>
 7    1  0.2227287E-008  0.4614232E+02  0.7816164E-02  0.1320468E+00
        -11   -1    0    0    0    0  0.00000000000E+00  0.00000000000E+00  0.45593999997E+02  0.45594000000E+02  0.51100000000E-03 0.  1.
         11   -1    0    0    0    0 -0.00000000000E+00 -0.00000000000E+00 -0.45593999997E+02  0.45594000000E+02  0.51100000000E-03 0. -1.
    9900012    2    1    2    0    0  0.32287601270E+02 -0.31317836738E+02 -0.24118946983E+01  0.46142319522E+02  0.10000016054E+02 0.  0.
         12    1    1    2    0    0 -0.32287601270E+02  0.31317836738E+02  0.24118946983E+01  0.45045680478E+02  0.00000000000E+00 0. -1.
         11    1    3    3    0    0  0.18785690235E+01 -0.39537175618E+00  0.88608292467E+00  0.21143518184E+01  0.51100000000E-03 0. -1.
        -11    1    3    3    0    0  0.13262946302E+02 -0.16602409044E+02 -0.42406303062E+01  0.21668610393E+02  0.51100000000E-03 0.  1.
        -12    1    3    3    0    0  0.17146085945E+02 -0.14320055937E+02  0.94265268322E+00  0.22359357311E+02  0.00000000000E+00 0.  1.
</event>
<event>
 7    1  0.2227287E-008  0.4614232E+02  0.7816164E-02  0.1320468E+00
        -11   -1    0    0    0    0  0.00000000000E+00  0.00000000000E+00  0.45593999997E+02  0.45594000000E+02  0.51100000000E-03 0.  1.
         11   -1    0    0    0    0 -0.00000000000E+00 -0.00000000000E+00 -0.45593999997E+02  0.45594000000E+02  0.51100000000E-03 0. -1.
    9900012    2    1    2    0    0 -0.11623802046E+02 -0.57097642906E+01  0.43143936607E+02  0.46142318207E+02  0.10000004062E+02 0.  0.
         12    1    1    2    0    0  0.11623802046E+02  0.57097642906E+01 -0.43143936607E+02  0.45045681793E+02  0.00000000000E+00 0. -1.
         11    1    3    3    0    0  0.95332771270E+00  0.30294220748E+00  0.34092175963E+01  0.35529385850E+01  0.51100000000E-03 0. -1.
        -11    1    3    3    0    0 -0.81337111737E+01 -0.36295486503E+00  0.21257424487E+02  0.22763283809E+02  0.51100000000E-03 0.  1.
        -12    1    3    3    0    0 -0.44434185855E+01 -0.56497516330E+01  0.18477294524E+02  0.19826095812E+02  0.00000000000E+00 0.  1.
</event>
<event>
 7    1  0.2227287E-008  0.4614232E+02  0.7816164E-02  0.1320468E+00
        -11   -1    0    0    0    0  0.00000000000E+00  0.00000000000E+00  0.45593999997E+02  0.45594000000E+02  0.51100000000E-03 0.  1.
         11   -1    0    0    0    0 -0.00000000000E+00 -0.00000000000E+00 -0.45593999997E+02  0.45594000000E+02  0.51100000000E-03 0. -1.
    9900012    2    1    2    0    0  0.24237719462E+02  0.95327200166E+01  0.36752873382E+02  0.46142317660E+02  0.99999990758E+01 0.  0.
         12    1    1    2    0    0 -0.24237719462E+02 -0.95327200166E+01 -0.36752873382E+02  0.45045682340E+02  0.00000000000E+00 0. -1.
         11    1    3    3    0    0  0.58459329775E+01  0.61944278208E+01  0.12546887937E+02  0.15164770541E+02  0.51100000000E-03 0. -1.
        -11    1    3    3    0    0  0.73982881556E+01  0.25849878599E+01  0.13523951005E+02  0.15630549604E+02  0.51100000000E-03 0.  1.
        -12    1    3    3    0    0  0.10993498329E+02  0.75330433587E+00  0.10682034440E+02  0.15346997515E+02  0.00000000000E+00 0.  1.
</event>
<event>
 7    1  0.2227287E-008  0.4614232E+02  0.7816164E-02  0.1320468E+00
        -11   -1    0    0    0    0  0.00000000000E+00  0.00000000000E+00  0.45593999997E+02  0.45594000000E+02  0.51100000000E-03 0. -1.
         11   -1    0    0    0    0 -0.00000000000E+00 -0.00000000000E+00 -0.45593999997E+02  0.45594000000E+02  0.51100000000E-03 0.  1.
    9900012    2    1    2    0    0  0.25057484348E+01  0.38026112371E+02 -0.24017687245E+02  0.46142319876E+02  0.10000019283E+02 0.  0.
         12    1    1    2    0    0 -0.25057484348E+01 -0.38026112371E+02  0.24017687245E+02  0.45045680124E+02  0.00000000000E+00 0. -1.
         11    1    3    3    0    0 -0.24874330522E+01  0.39261028378E+01 -0.26005638379E+01  0.53258369501E+01  0.51100000000E-03 0. -1.
        -11    1    3    3    0    0  0.15974124693E+01  0.15697717383E+02 -0.73548781377E+01  0.17408741779E+02  0.51100000000E-03 0.  1.
         12    1    3    3    0    0  0.33957690177E+01  0.18402292150E+02 -0.14062245269E+02  0.23407741147E+02  0.00000000000E+00 0. -1.
</event>
<event>
 7    1  0.2227287E-008  0.4614232E+02  0.7816164E-02  0.1320468E+00
        -11   -1    0    0    0    0  0.00000000000E+00  0.00000000000E+00  0.45593999997E+02  0.45594000000E+02  0.51100000000E-03 0.  1.
         11   -1    0    0    0    0 -0.00000000000E+00 -0.00000000000E+00 -0.45593999997E+02  0.45594000000E+02  0.51100000000E-03 0. -1.
    9900012    2    1    2    0    0  0.21002515431E+02  0.29420590953E+02  0.26878181137E+02  0.46142318213E+02  0.10000004118E+02 0.  0.
         12    1    1    2    0    0 -0.21002515431E+02 -0.29420590953E+02 -0.26878181137E+02  0.45045681787E+02  0.00000000000E+00 0. -1.
         11    1    3    3    0    0  0.11198938238E+02  0.20050918749E+02  0.12490736728E+02  0.26143336907E+02  0.51100000000E-03 0. -1.
        -11    1    3    3    0    0  0.73358893755E+01  0.82779142725E+01  0.10385375655E+02  0.15172183936E+02  0.51100000000E-03 0.  1.
         12    1    3    3    0    0  0.24676878174E+01  0.10917579317E+01  0.40020687531E+01  0.48267973699E+01  0.00000000000E+00 0. -1.
</event>
<event>
 7    1  0.2227287E-008  0.4614232E+02  0.7816164E-02  0.1320468E+00
        -11   -1    0    0    0    0  0.00000000000E+00  0.00000000000E+00  0.45593999997E+02  0.45594000000E+02  0.51100000000E-03 0.  1.
         11   -1    0    0    0    0 -0.00000000000E+00 -0.00000000000E+00 -0.45593999997E+02  0.45594000000E+02  0.51100000000E-03 0. -1.
    9900012    2    1    2    0    0  0.76116826515E+00  0.38843115285E+02  0.22797948133E+02  0.46142318506E+02  0.10000006789E+02 0.  0.
         12    1    1    2    0    0 -0.76116826515E+00 -0.38843115285E+02 -0.22797948133E+02  0.45045681494E+02  0.00000000000E+00 0. -1.
         11    1    3    3    0    0 -0.80976276990E+00  0.10104134082E+02  0.36347795040E+01  0.10768512599E+02  0.51100000000E-03 0. -1.
        -11    1    3    3    0    0  0.21692403376E+01  0.27297239005E+02  0.15675110992E+02  0.31552400318E+02  0.51100000000E-03 0.  1.
        -12    1    3    3    0    0 -0.59830930253E+00  0.14417421975E+01  0.34880576377E+01  0.38214055882E+01  0.00000000000E+00 0.  1.
</event>
<event>
 7    1  0.2227287E-008  0.4614232E+02  0.7816164E-02  0.1320468E+00
        -11   -1    0    0    0    0  0.00000000000E+00  0.00000000000E+00  0.45593999997E+02  0.45594000000E+02  0.51100000000E-03 0. -1.
         11   -1    0    0    0    0 -0.00000000000E+00 -0.00000000000E+00 -0.45593999997E+02  0.45594000000E+02  0.51100000000E-03 0.  1.
    9900012    2    1    2    0    0  0.32023961847E+02  0.26264098233E+02 -0.17713737573E+02  0.46142317774E+02  0.10000000119E+02 0.  0.
         12    1    1    2    0    0 -0.32023961847E+02 -0.26264098233E+02  0.17713737573E+02  0.45045682226E+02  0.00000000000E+00 0. -1.
         11    1    3    3    0    0  0.72491738820E+01  0.25797443085E+01 -0.22385504802E+01  0.80135330025E+01  0.51100000000E-03 0. -1.
        -11    1    3    3    0    0  0.98455030775E+01  0.62000644914E+01 -0.72592883212E+01  0.13713934437E+02  0.51100000000E-03 0.  1.
        -12    1    3    3    0    0  0.14929284888E+02  0.17484289433E+02 -0.82158987716E+01  0.24414850335E+02  0.00000000000E+00 0.  1.
</event>
<event>
 7    1  0.2227287E-008  0.4614232E+02  0.7816164E-02  0.1320468E+00
        -11   -1    0    0    0    0  0.00000000000E+00  0.00000000000E+00  0.45593999997E+02  0.45594000000E+02  0.51100000000E-03 0. -1.
         11   -1    0    0    0    0 -0.00000000000E+00 -0.00000000000E+00 -0.45593999997E+02  0.45594000000E+02  0.51100000000E-03 0.  1.
    9900012    2    1    2    0    0  0.73258314030E+00  0.23519096654E+02 -0.38411311294E+02  0.46142318511E+02  0.10000006837E+02 0.  0.
         12    1    1    2    0    0 -0.73258314030E+00 -0.23519096654E+02  0.38411311294E+02  0.45045681489E+02  0.00000000000E+00 0. -1.
         11    1    3    3    0    0 -0.12880826560E+01  0.13899576160E+02 -0.15340063057E+02  0.20740658360E+02  0.51100000000E-03 0. -1.
        -11    1    3    3    0    0  0.16811624657E+01  0.95936805847E+01 -0.19332255213E+02  0.21647196268E+02  0.51100000000E-03 0.  1.
        -12    1    3    3    0    0  0.33950333055E+00  0.25839910134E-01 -0.37389930247E+01  0.37544638833E+01  0.00000000000E+00 0.  1.
</event>
<event>
 7    1  0.2227287E-008  0.4614232E+02  0.7816164E-02  0.1320468E+00
        -11   -1    0    0    0    0  0.00000000000E+00  0.00000000000E+00  0.45593999997E+02  0.45594000000E+02  0.51100000000E-03 0.  1.
         11   -1    0    0    0    0 -0.00000000000E+00 -0.00000000000E+00 -0.45593999997E+02  0.45594000000E+02  0.51100000000E-03 0. -1.
    9900012    2    1    2    0    0 -0.67800847791E+01  0.12049547256E+02  0.42871346891E+02  0.46142317377E+02  0.99999964992E+01 0.  0.
         12    1    1    2    0    0  0.67800847791E+01 -0.12049547256E+02 -0.42871346891E+02  0.45045682623E+02  0.00000000000E+00 0. -1.
         11    1    3    3    0    0  0.22786357307E+00  0.65275361334E+01  0.11990662731E+02  0.13654180414E+02  0.51100000000E-03 0. -1.
        -11    1    3    3    0    0 -0.47359946428E+01  0.57116948723E+01  0.19134063576E+02  0.20522316945E+02  0.51100000000E-03 0.  1.
         12    1    3    3    0    0 -0.22719537094E+01 -0.18968374959E+00  0.11746620584E+02  0.11965820019E+02  0.00000000000E+00 0. -1.
</event>
<event>
 7    1  0.2227287E-008  0.4614232E+02  0.7816164E-02  0.1320468E+00
        -11   -1    0    0    0    0  0.00000000000E+00  0.00000000000E+00  0.45593999997E+02  0.45594000000E+02  0.51100000000E-03 0.  1.
         11   -1    0    0    0    0 -0.00000000000E+00 -0.00000000000E+00 -0.45593999997E+02  0.45594000000E+02  0.51100000000E-03 0. -1.
    9900012    2    1    2    0    0 -0.44007326145E+02  0.93903655038E+01  0.20711800725E+01  0.46142317570E+02  0.99999982553E+01 0.  0.
         12    1    1    2    0    0  0.44007326145E+02 -0.93903655038E+01 -0.20711800725E+01  0.45045682430E+02  0.00000000000E+00 0. -1.
         11    1    3    3    0    0 -0.97198972497E+00  0.11739575076E+01 -0.56744139681E+00  0.16263241543E+01  0.51100000000E-03 0. -1.
        -11    1    3    3    0    0 -0.18780690823E+02  0.57177750106E+01 -0.18663667892E+01  0.19720309940E+02  0.51100000000E-03 0.  1.
        -12    1    3    3    0    0 -0.24254645597E+02  0.24986329856E+01  0.45049882585E+01  0.24795683476E+02  0.00000000000E+00 0.  1.
</event>
<event>
 7    1  0.2227287E-008  0.4614232E+02  0.7816164E-02  0.1320468E+00
        -11   -1    0    0    0    0  0.00000000000E+00  0.00000000000E+00  0.45593999997E+02  0.45594000000E+02  0.51100000000E-03 0.  1.
         11   -1    0    0    0    0 -0.00000000000E+00 -0.00000000000E+00 -0.45593999997E+02  0.45594000000E+02  0.51100000000E-03 0. -1.
    9900012    2    1    2    0    0 -0.16439059008E+02 -0.35724503681E+02  0.21968855398E+02  0.46142318388E+02  0.10000005721E+02 0.  0.
         12    1    1    2    0    0  0.16439059008E+02  0.35724503681E+02 -0.21968855398E+02  0.45045681612E+02  0.00000000000E+00 0. -1.
         11    1    3    3    0    0 -0.27231539790E+01 -0.21349550182E+01  0.16923652864E+01  0.38519736560E+01  0.51100000000E-03 0. -1.
        -11    1    3    3    0    0  0.20603941407E+00 -0.30507276626E+01 -0.39561933245E-01  0.30579334393E+01  0.51100000000E-03 0.  1.
        -12    1    3    3    0    0 -0.13921944443E+02 -0.30538821000E+02  0.20316052045E+02  0.39232411293E+02  0.00000000000E+00 0.  1.
</event>
<event>
 7    1  0.2227287E-008  0.4614232E+02  0.7816164E-02  0.1320468E+00
        -11   -1    0    0    0    0  0.00000000000E+00  0.00000000000E+00  0.45593999997E+02  0.45594000000E+02  0.51100000000E-03 0.  1.
         11   -1    0    0    0    0 -0.00000000000E+00 -0.00000000000E+00 -0.45593999997E+02  0.45594000000E+02  0.51100000000E-03 0. -1.
    9900012    2    1    2    0    0 -0.54497796527E+00  0.68967533403E+01  0.44511246894E+02  0.46142319767E+02  0.10000018288E+02 0.  0.
         12    1    1    2    0    0  0.54497796527E+00 -0.68967533403E+01 -0.44511246894E+02  0.45045680233E+02  0.00000000000E+00 0. -1.
         11    1    3    3    0    0 -0.16393751782E+01 -0.49754086097E+00  0.55912679510E+01  0.58478522078E+01  0.51100000000E-03 0. -1.
        -11    1    3    3    0    0 -0.25467920369E+01  0.30035836312E+01  0.88259923766E+01  0.96646679199E+01  0.51100000000E-03 0.  1.
        -12    1    3    3    0    0  0.36411892498E+01  0.43907105701E+01  0.30093986566E+02  0.30629799639E+02  0.00000000000E+00 0.  1.
</event>
<event>
 7    1  0.2227287E-008  0.4614232E+02  0.7816164E-02  0.1320468E+00
        -11   -1    0    0    0    0  0.00000000000E+00  0.00000000000E+00  0.45593999997E+02  0.45594000000E+02  0.51100000000E-03 0. -1.
         11   -1    0    0    0    0 -0.00000000000E+00 -0.00000000000E+00 -0.45593999997E+02  0.45594000000E+02  0.51100000000E-03 0.  1.
    9900012    2    1    2    0    0 -0.40478290727E+01  0.29665372170E+02 -0.33655525678E+02  0.46142316136E+02  0.99999851767E+01 0.  0.
         12    1    1    2    0    0  0.40478290727E+01 -0.29665372170E+02  0.33655525678E+02  0.45045683864E+02  0.00000000000E+00 0. -1.
         11    1    3    3    0    0 -0.12898166433E+01  0.53917340430E+01 -0.59128736101E+01  0.81053375966E+01  0.51100000000E-03 0. -1.
        -11    1    3    3    0    0 -0.57092929967E+01  0.20191323641E+02 -0.22190811121E+02  0.30540426902E+02  0.51100000000E-03 0.  1.
         12    1    3    3    0    0  0.29512805672E+01  0.40823144861E+01 -0.55518409466E+01  0.74965516370E+01  0.00000000000E+00 0. -1.
</event>
<event>
 7    1  0.2227287E-008  0.4614232E+02  0.7816164E-02  0.1320468E+00
        -11   -1    0    0    0    0  0.00000000000E+00  0.00000000000E+00  0.45593999997E+02  0.45594000000E+02  0.51100000000E-03 0.  1.
         11   -1    0    0    0    0 -0.00000000000E+00 -0.00000000000E+00 -0.45593999997E+02  0.45594000000E+02  0.51100000000E-03 0. -1.
    9900012    2    1    2    0    0  0.41285800416E+02  0.90539978290E+01 -0.15576306009E+02  0.46142317615E+02  0.99999986637E+01 0.  0.
         12    1    1    2    0    0 -0.41285800416E+02 -0.90539978290E+01  0.15576306009E+02  0.45045682385E+02  0.00000000000E+00 0. -1.
         11    1    3    3    0    0  0.91357438989E+01  0.44239711967E+01 -0.67724375542E+01  0.12202427972E+02  0.51100000000E-03 0.  1.
        -11    1    3    3    0    0  0.88836843444E+01  0.21405936871E+01 -0.65117978172E+00  0.91611147921E+01  0.51100000000E-03 0. -1.
         12    1    3    3    0    0  0.23266372173E+02  0.24894329452E+01 -0.81526886734E+01  0.24778774850E+02  0.00000000000E+00 0. -1.
</event>
<event>
 7    1  0.2227287E-008  0.4614232E+02  0.7816164E-02  0.1320468E+00
        -11   -1    0    0    0    0  0.00000000000E+00  0.00000000000E+00  0.45593999997E+02  0.45594000000E+02  0.51100000000E-03 0.  1.
         11   -1    0    0    0    0 -0.00000000000E+00 -0.00000000000E+00 -0.45593999997E+02  0.45594000000E+02  0.51100000000E-03 0. -1.
    9900012    2    1    2    0    0  0.26804611841E+02  0.34677657557E+02  0.10396460688E+02  0.46142317139E+02  0.99999943252E+01 0.  0.
         12    1    1    2    0    0 -0.26804611841E+02 -0.34677657557E+02 -0.10396460688E+02  0.45045682861E+02  0.00000000000E+00 0. -1.
         11    1    3    3    0    0  0.10311691404E+01 -0.44651615281E+00 -0.15113365230E+00  0.11338113215E+01  0.51100000000E-03 0. -1.
        -11    1    3    3    0    0  0.14973633249E+02  0.17177750691E+02  0.47839482463E+01  0.23284565114E+02  0.51100000000E-03 0.  1.
         12    1    3    3    0    0  0.10799809451E+02  0.17946423020E+02  0.57636460939E+01  0.21723940703E+02  0.00000000000E+00 0. -1.
</event>
<event>
 7    1  0.2227287E-008  0.4614232E+02  0.7816164E-02  0.1320468E+00
        -11   -1    0    0    0    0  0.00000000000E+00  0.00000000000E+00  0.45593999997E+02  0.45594000000E+02  0.51100000000E-03 0.  1.
         11   -1    0    0    0    0 -0.00000000000E+00 -0.00000000000E+00 -0.45593999997E+02  0.45594000000E+02  0.51100000000E-03 0. -1.
    9900012    2    1    2    0    0  0.10051260431E+02 -0.13913059665E+02  0.41647476505E+02  0.46142319134E+02  0.10000012516E+02 0.  0.
         12    1    1    2    0    0 -0.10051260431E+02  0.13913059665E+02 -0.41647476505E+02  0.45045680866E+02  0.00000000000E+00 0. -1.
         11    1    3    3    0    0  0.60355007863E+01 -0.48061378806E+01  0.89674600179E+01  0.11829690212E+02  0.51100000000E-03 0. -1.
        -11    1    3    3    0    0  0.52599379587E+00 -0.31909687022E+01  0.66952962819E+01  0.74354517882E+01  0.51100000000E-03 0.  1.
        -12    1    3    3    0    0  0.34897658492E+01 -0.59159530825E+01  0.25984720205E+02  0.26877177134E+02  0.00000000000E+00 0.  1.
</event>
<event>
 7    1  0.2227287E-008  0.4614232E+02  0.7816164E-02  0.1320468E+00
        -11   -1    0    0    0    0  0.00000000000E+00  0.00000000000E+00  0.45593999997E+02  0.45594000000E+02  0.51100000000E-03 0.  1.
         11   -1    0    0    0    0 -0.00000000000E+00 -0.00000000000E+00 -0.45593999997E+02  0.45594000000E+02  0.51100000000E-03 0. -1.
    9900012    2    1    2    0    0  0.13797322401E+02 -0.30031363730E+02  0.30608244364E+02  0.46142317233E+02  0.99999951823E+01 0.  0.
         12    1    1    2    0    0 -0.13797322401E+02  0.30031363730E+02 -0.30608244364E+02  0.45045682767E+02  0.00000000000E+00 0. -1.
         11    1    3    3    0    0  0.52190018456E+00 -0.33052761902E+01  0.24077183178E+01  0.41224189810E+01  0.51100000000E-03 0. -1.
        -11    1    3    3    0    0  0.89689841083E+01 -0.23849661646E+02  0.20322870437E+02  0.32592454643E+02  0.51100000000E-03 0.  1.
        -12    1    3    3    0    0  0.43064381079E+01 -0.28764258931E+01  0.78776556099E+01  0.94274436092E+01  0.00000000000E+00 0.  1.
</event>
<event>
 7    1  0.2227287E-008  0.4614232E+02  0.7816164E-02  0.1320468E+00
        -11   -1    0    0    0    0  0.00000000000E+00  0.00000000000E+00  0.45593999997E+02  0.45594000000E+02  0.51100000000E-03 0.  1.
         11   -1    0    0    0    0 -0.00000000000E+00 -0.00000000000E+00 -0.45593999997E+02  0.45594000000E+02  0.51100000000E-03 0. -1.
    9900012    2    1    2    0    0  0.43956706550E+02  0.88448648157E+01 -0.43231666648E+01  0.46142318139E+02  0.10000003445E+02 0.  0.
         12    1    1    2    0    0 -0.43956706550E+02 -0.88448648157E+01  0.43231666648E+01  0.45045681861E+02  0.00000000000E+00 0. -1.
         11    1    3    3    0    0  0.16437390875E+02  0.56801627203E+01 -0.57046785085E+01  0.18302880223E+02  0.51100000000E-03 0. -1.
        -11    1    3    3    0    0  0.21655130129E+02  0.34672903281E+01  0.12325199909E+01  0.21965560974E+02  0.51100000000E-03 0.  1.
         12    1    3    3    0    0  0.58641855466E+01 -0.30258823270E+00  0.14899185271E+00  0.58738769425E+01  0.00000000000E+00 0. -1.
</event>
<event>
 7    1  0.2227287E-008  0.4614232E+02  0.7816164E-02  0.1320468E+00
        -11   -1    0    0    0    0  0.00000000000E+00  0.00000000000E+00  0.45593999997E+02  0.45594000000E+02  0.51100000000E-03 0.  1.
         11   -1    0    0    0    0 -0.00000000000E+00 -0.00000000000E+00 -0.45593999997E+02  0.45594000000E+02  0.51100000000E-03 0. -1.
    9900012    2    1    2    0    0 -0.27120879229E-01  0.28417358629E+02  0.34950915483E+02  0.46142317632E+02  0.99999988185E+01 0.  0.
         12    1    1    2    0    0  0.27120879229E-01 -0.28417358629E+02 -0.34950915483E+02  0.45045682368E+02  0.00000000000E+00 0. -1.
         11    1    3    3    0    0  0.73780721557E+00  0.97696250066E+01  0.68936684477E+01  0.11979674335E+02  0.51100000000E-03 0. -1.
        -11    1    3    3    0    0 -0.25386551906E+01  0.12362808916E+02  0.15321754113E+02  0.19850439890E+02  0.51100000000E-03 0.  1.
         12    1    3    3    0    0  0.17737270958E+01  0.62849247062E+01  0.12735492922E+02  0.14312203406E+02  0.00000000000E+00 0. -1.
</event>
<event>
 7    1  0.2227287E-008  0.4614232E+02  0.7816164E-02  0.1320468E+00
        -11   -1    0    0    0    0  0.00000000000E+00  0.00000000000E+00  0.45593999997E+02  0.45594000000E+02  0.51100000000E-03 0.  1.
         11   -1    0    0    0    0 -0.00000000000E+00 -0.00000000000E+00 -0.45593999997E+02  0.45594000000E+02  0.51100000000E-03 0. -1.
    9900012    2    1    2    0    0  0.51226233499E+01  0.40191236175E+02  0.19685953818E+02  0.46142317488E+02  0.99999975063E+01 0.  0.
         12    1    1    2    0    0 -0.51226233499E+01 -0.40191236175E+02 -0.19685953818E+02  0.45045682512E+02  0.00000000000E+00 0. -1.
         11    1    3    3    0    0  0.33792291105E+00  0.88977338493E+01  0.69489407891E+01  0.11294761525E+02  0.51100000000E-03 0. -1.
        -11    1    3    3    0    0  0.30436292301E+01  0.20625831769E+02  0.11900379419E+02  0.24006408428E+02  0.51100000000E-03 0.  1.
         12    1    3    3    0    0  0.17410712088E+01  0.10667670557E+02  0.83663360957E+00  0.10841147535E+02  0.00000000000E+00 0. -1.
</event>
<event>
 7    1  0.2227287E-008  0.4614232E+02  0.7816164E-02  0.1320468E+00
        -11   -1    0    0    0    0  0.00000000000E+00  0.00000000000E+00  0.45593999997E+02  0.45594000000E+02  0.51100000000E-03 0.  1.
         11   -1    0    0    0    0 -0.00000000000E+00 -0.00000000000E+00 -0.45593999997E+02  0.45594000000E+02  0.51100000000E-03 0. -1.
    9900012    2    1    2    0    0  0.44232528268E+02 -0.85193861697E+01  0.13022849678E+00  0.46142318108E+02  0.10000003160E+02 0.  0.
         12    1    1    2    0    0 -0.44232528268E+02  0.85193861697E+01 -0.13022849678E+00  0.45045681892E+02  0.00000000000E+00 0. -1.
         11    1    3    3    0    0  0.32067896502E+01  0.12995928224E+01 -0.15300368285E+00  0.34635028155E+01  0.51100000000E-03 0. -1.
        -11    1    3    3    0    0  0.30610075388E+02 -0.73688812632E+01 -0.26159613171E+01  0.31593043224E+02  0.51100000000E-03 0.  1.
         12    1    3    3    0    0  0.10415663230E+02 -0.24500977289E+01  0.28991934967E+01  0.11085772068E+02  0.00000000000E+00 0. -1.
</event>
<event>
 7    1  0.2227287E-008  0.4614232E+02  0.7816164E-02  0.1320468E+00
        -11   -1    0    0    0    0  0.00000000000E+00  0.00000000000E+00  0.45593999997E+02  0.45594000000E+02  0.51100000000E-03 0.  1.
         11   -1    0    0    0    0 -0.00000000000E+00 -0.00000000000E+00 -0.45593999997E+02  0.45594000000E+02  0.51100000000E-03 0. -1.
    9900012    2    1    2    0    0  0.37264157883E+02  0.24238046075E+02 -0.72810145630E+01  0.46142317484E+02  0.99999974749E+01 0.  0.
         12    1    1    2    0    0 -0.37264157883E+02 -0.24238046075E+02  0.72810145630E+01  0.45045682516E+02  0.00000000000E+00 0. -1.
         11    1    3    3    0    0  0.13326968914E+02  0.12198436926E+02 -0.33841104883E+01  0.18381027390E+02  0.51100000000E-03 0. -1.
        -11    1    3    3    0    0  0.19821914943E+01  0.24233568812E+01  0.10215891533E+01  0.32932334191E+01  0.51100000000E-03 0.  1.
        -12    1    3    3    0    0  0.21954997475E+02  0.96162522673E+01 -0.49184932281E+01  0.24468056675E+02  0.00000000000E+00 0.  1.
</event>
<event>
 7    1  0.2227287E-008  0.4614232E+02  0.7816164E-02  0.1320468E+00
        -11   -1    0    0    0    0  0.00000000000E+00  0.00000000000E+00  0.45593999997E+02  0.45594000000E+02  0.51100000000E-03 0. -1.
         11   -1    0    0    0    0 -0.00000000000E+00 -0.00000000000E+00 -0.45593999997E+02  0.45594000000E+02  0.51100000000E-03 0.  1.
    9900012    2    1    2    0    0 -0.45989288618E+01  0.63750484163E+01 -0.44354504657E+02  0.46142317939E+02  0.10000001623E+02 0.  0.
         12    1    1    2    0    0  0.45989288618E+01 -0.63750484163E+01  0.44354504657E+02  0.45045682061E+02  0.00000000000E+00 0. -1.
         11    1    3    3    0    0  0.10083740270E+01 -0.75198649564E+00 -0.90704346274E+00  0.15508159054E+01  0.51100000000E-03 0. -1.
        -11    1    3    3    0    0 -0.22510005563E+01  0.36099519449E+01 -0.11220857566E+02  0.12000266719E+02  0.51100000000E-03 0.  1.
         12    1    3    3    0    0 -0.33563023326E+01  0.35170829670E+01 -0.32226603628E+02  0.32591235314E+02  0.00000000000E+00 0. -1.
</event>
<event>
 7    1  0.2227287E-008  0.4614232E+02  0.7816164E-02  0.1320468E+00
        -11   -1    0    0    0    0  0.00000000000E+00  0.00000000000E+00  0.45593999997E+02  0.45594000000E+02  0.51100000000E-03 0.  1.
         11   -1    0    0    0    0 -0.00000000000E+00 -0.00000000000E+00 -0.45593999997E+02  0.45594000000E+02  0.51100000000E-03 0. -1.
    9900012    2    1    2    0    0 -0.68502967736E+01  0.43808410106E+01  0.44305700129E+02  0.46142318767E+02  0.10000009169E+02 0.  0.
         12    1    1    2    0    0  0.68502967736E+01 -0.43808410106E+01 -0.44305700129E+02  0.45045681233E+02  0.00000000000E+00 0. -1.
         11    1    3    3    0    0  0.95074373071E+00  0.18624440005E+01  0.39842050213E+01  0.44996112287E+01  0.51100000000E-03 0. -1.
        -11    1    3    3    0    0 -0.67354886693E+00  0.15396537561E+01  0.20271353416E+02  0.20340894064E+02  0.51100000000E-03 0.  1.
        -12    1    3    3    0    0 -0.71274916374E+01  0.97874325408E+00  0.20050141692E+02  0.21301813474E+02  0.00000000000E+00 0.  1.
</event>
<event>
 7    1  0.2227287E-008  0.4614232E+02  0.7816164E-02  0.1320468E+00
        -11   -1    0    0    0    0  0.00000000000E+00  0.00000000000E+00  0.45593999997E+02  0.45594000000E+02  0.51100000000E-03 0.  1.
         11   -1    0    0    0    0 -0.00000000000E+00 -0.00000000000E+00 -0.45593999997E+02  0.45594000000E+02  0.51100000000E-03 0. -1.
    9900012    2    1    2    0    0 -0.27007263723E+02 -0.26861448192E+02  0.24045451590E+02  0.46142318354E+02  0.10000005404E+02 0.  0.
         12    1    1    2    0    0  0.27007263723E+02  0.26861448192E+02 -0.24045451590E+02  0.45045681646E+02  0.00000000000E+00 0. -1.
         11    1    3    3    0    0 -0.16676772414E+02 -0.20510536909E+02  0.18613122397E+02  0.32330251902E+02  0.51100000000E-03 0. -1.
        -11    1    3    3    0    0 -0.45168485191E+01 -0.47391432744E+01  0.37680769621E+01  0.75537939986E+01  0.51100000000E-03 0.  1.
         12    1    3    3    0    0 -0.58136427901E+01 -0.16117680089E+01  0.16642522316E+01  0.62582724530E+01  0.00000000000E+00 0. -1.
</event>
<event>
 7    1  0.2227287E-008  0.4614232E+02  0.7816164E-02  0.1320468E+00
        -11   -1    0    0    0    0  0.00000000000E+00  0.00000000000E+00  0.45593999997E+02  0.45594000000E+02  0.51100000000E-03 0. -1.
         11   -1    0    0    0    0 -0.00000000000E+00 -0.00000000000E+00 -0.45593999997E+02  0.45594000000E+02  0.51100000000E-03 0.  1.
    9900012    2    1    2    0    0 -0.37337967276E+02 -0.15613527896E+02  0.19778959532E+02  0.46142319920E+02  0.10000019689E+02 0.  0.
         12    1    1    2    0    0  0.37337967276E+02  0.15613527896E+02 -0.19778959532E+02  0.45045680080E+02  0.00000000000E+00 0. -1.
         11    1    3    3    0    0 -0.90144834969E+00  0.38052794255E+00 -0.40180390893E+00  0.10577605044E+01  0.51100000000E-03 0. -1.
        -11    1    3    3    0    0 -0.23895199859E+02 -0.13608226451E+02  0.14828070090E+02  0.31241575925E+02  0.51100000000E-03 0.  1.
        -12    1    3    3    0    0 -0.12541319067E+02 -0.23858293883E+01  0.53526933509E+01  0.13842983491E+02  0.00000000000E+00 0.  1.
</event>
<event>
 7    1  0.2227287E-008  0.4614232E+02  0.7816164E-02  0.1320468E+00
        -11   -1    0    0    0    0  0.00000000000E+00  0.00000000000E+00  0.45593999997E+02  0.45594000000E+02  0.51100000000E-03 0.  1.
         11   -1    0    0    0    0 -0.00000000000E+00 -0.00000000000E+00 -0.45593999997E+02  0.45594000000E+02  0.51100000000E-03 0. -1.
    9900012    2    1    2    0    0 -0.23317009667E+02 -0.97992442326E+01  0.37274729055E+02  0.46142317038E+02  0.99999934094E+01 0.  0.
         12    1    1    2    0    0  0.23317009667E+02  0.97992442326E+01 -0.37274729055E+02  0.45045682962E+02  0.00000000000E+00 0. -1.
         11    1    3    3    0    0 -0.33837576273E+01  0.17966213492E+00  0.40565470369E+01  0.52856095473E+01  0.51100000000E-03 0. -1.
        -11    1    3    3    0    0 -0.20035354842E+02 -0.77201657964E+01  0.29175139511E+02  0.36224372587E+02  0.51100000000E-03 0.  1.
        -12    1    3    3    0    0  0.10210280191E+00 -0.22587405712E+01  0.40430425068E+01  0.46323349039E+01  0.00000000000E+00 0.  1.
</event>
<event>
 7    1  0.2227287E-008  0.4614232E+02  0.7816164E-02  0.1320468E+00
        -11   -1    0    0    0    0  0.00000000000E+00  0.00000000000E+00  0.45593999997E+02  0.45594000000E+02  0.51100000000E-03 0.  1.
         11   -1    0    0    0    0 -0.00000000000E+00 -0.00000000000E+00 -0.45593999997E+02  0.45594000000E+02  0.51100000000E-03 0. -1.
    9900012    2    1    2    0    0 -0.20026027698E+02  0.34761475007E+01  0.40199356045E+02  0.46142316375E+02  0.99999873597E+01 0.  0.
         12    1    1    2    0    0  0.20026027698E+02 -0.34761475007E+01 -0.40199356045E+02  0.45045683625E+02  0.00000000000E+00 0. -1.
         11    1    3    3    0    0  0.49177262715E+00 -0.34474482733E+00  0.35592160607E+01  0.36095302382E+01  0.51100000000E-03 0. -1.
        -11    1    3    3    0    0 -0.55555202812E+01 -0.12361821592E+01  0.11728122694E+02  0.13036134937E+02  0.51100000000E-03 0.  1.
         12    1    3    3    0    0 -0.14962280044E+02  0.50570744872E+01  0.24912017291E+02  0.29496651199E+02  0.00000000000E+00 0. -1.
</event>
<event>
 7    1  0.2227287E-008  0.4614232E+02  0.7816164E-02  0.1320468E+00
        -11   -1    0    0    0    0  0.00000000000E+00  0.00000000000E+00  0.45593999997E+02  0.45594000000E+02  0.51100000000E-03 0.  1.
         11   -1    0    0    0    0 -0.00000000000E+00 -0.00000000000E+00 -0.45593999997E+02  0.45594000000E+02  0.51100000000E-03 0. -1.
    9900012    2    1    2    0    0 -0.32355140376E+02  0.11254251134E+02  0.29250647826E+02  0.46142315683E+02  0.99999810489E+01 0.  0.
         12    1    1    2    0    0  0.32355140376E+02 -0.11254251134E+02 -0.29250647826E+02  0.45045684317E+02  0.00000000000E+00 0. -1.
         11    1    3    3    0    0 -0.11383584090E+01 -0.98870534442E+00  0.30088445112E+01  0.33654930812E+01  0.51100000000E-03 0. -1.
        -11    1    3    3    0    0 -0.24269786443E+02  0.76222725556E+01  0.19800467684E+02  0.32236316379E+02  0.51100000000E-03 0.  1.
        -12    1    3    3    0    0 -0.69469955242E+01  0.46206839227E+01  0.64413356304E+01  0.10540506223E+02  0.00000000000E+00 0.  1.
</event>
<event>
 7    1  0.2227287E-008  0.4614232E+02  0.7816164E-02  0.1320468E+00
        -11   -1    0    0    0    0  0.00000000000E+00  0.00000000000E+00  0.45593999997E+02  0.45594000000E+02  0.51100000000E-03 0.  1.
         11   -1    0    0    0    0 -0.00000000000E+00 -0.00000000000E+00 -0.45593999997E+02  0.45594000000E+02  0.51100000000E-03 0. -1.
    9900012    2    1    2    0    0 -0.17071501413E+02  0.35622310216E+02  0.21650135933E+02  0.46142317282E+02  0.99999956275E+01 0.  0.
         12    1    1    2    0    0  0.17071501413E+02 -0.35622310216E+02 -0.21650135933E+02  0.45045682718E+02  0.00000000000E+00 0. -1.
         11    1    3    3    0    0 -0.44728156231E+01  0.63243799658E+01  0.87852578632E+00  0.77958751509E+01  0.51100000000E-03 0. -1.
        -11    1    3    3    0    0 -0.34554625170E+00  0.48719094173E+01  0.26496726291E+01  0.55565878815E+01  0.51100000000E-03 0.  1.
        -12    1    3    3    0    0 -0.12253139538E+02  0.24426020833E+02  0.18121937518E+02  0.32789854249E+02  0.00000000000E+00 0.  1.
</event>
<event>
 7    1  0.2227287E-008  0.4614232E+02  0.7816164E-02  0.1320468E+00
        -11   -1    0    0    0    0  0.00000000000E+00  0.00000000000E+00  0.45593999997E+02  0.45594000000E+02  0.51100000000E-03 0.  1.
         11   -1    0    0    0    0 -0.00000000000E+00 -0.00000000000E+00 -0.45593999997E+02  0.45594000000E+02  0.51100000000E-03 0. -1.
    9900012    2    1    2    0    0 -0.15624761011E+02 -0.37347464160E+02  0.19752140807E+02  0.46142319827E+02  0.10000018836E+02 0.  0.
         12    1    1    2    0    0  0.15624761011E+02  0.37347464160E+02 -0.19752140807E+02  0.45045680173E+02  0.00000000000E+00 0. -1.
         11    1    3    3    0    0 -0.38742401134E+01 -0.12129446996E+02  0.33412606774E+01  0.13164241112E+02  0.51100000000E-03 0. -1.
        -11    1    3    3    0    0 -0.52814072337E+01 -0.15452858784E+02  0.62974105240E+01  0.17502613706E+02  0.51100000000E-03 0.  1.
        -12    1    3    3    0    0 -0.64691136636E+01 -0.97651583800E+01  0.10113469605E+02  0.15475465009E+02  0.00000000000E+00 0.  1.
</event>
<event>
 7    1  0.2227287E-008  0.4614232E+02  0.7816164E-02  0.1320468E+00
        -11   -1    0    0    0    0  0.00000000000E+00  0.00000000000E+00  0.45593999997E+02  0.45594000000E+02  0.51100000000E-03 0. -1.
         11   -1    0    0    0    0 -0.00000000000E+00 -0.00000000000E+00 -0.45593999997E+02  0.45594000000E+02  0.51100000000E-03 0.  1.
    9900012    2    1    2    0    0  0.13249037786E+01  0.34983027963E+02 -0.28346888209E+02  0.46142315560E+02  0.99999799306E+01 0.  0.
         12    1    1    2    0    0 -0.13249037786E+01 -0.34983027963E+02  0.28346888209E+02  0.45045684440E+02  0.00000000000E+00 0. -1.
         11    1    3    3    0    0 -0.24329786268E+00  0.12030015303E+00  0.14184417713E+00  0.30624501386E+00  0.51100000000E-03 0. -1.
        -11    1    3    3    0    0 -0.55718734571E+00 -0.26965627576E+00 -0.10039188084E+01  0.11794174326E+01  0.51100000000E-03 0.  1.
        -12    1    3    3    0    0  0.21253889870E+01  0.35132384086E+02 -0.27484813578E+02  0.44656653114E+02  0.00000000000E+00 0.  1.
</event>
<event>
 7    1  0.2227287E-008  0.4614232E+02  0.7816164E-02  0.1320468E+00
        -11   -1    0    0    0    0  0.00000000000E+00  0.00000000000E+00  0.45593999997E+02  0.45594000000E+02  0.51100000000E-03 0.  1.
         11   -1    0    0    0    0 -0.00000000000E+00 -0.00000000000E+00 -0.45593999997E+02  0.45594000000E+02  0.51100000000E-03 0. -1.
    9900012    2    1    2    0    0 -0.33740835770E+02 -0.12340292638E+02  0.27173273647E+02  0.46142316283E+02  0.99999865221E+01 0.  0.
         12    1    1    2    0    0  0.33740835770E+02  0.12340292638E+02 -0.27173273647E+02  0.45045683717E+02  0.00000000000E+00 0. -1.
         11    1    3    3    0    0 -0.13042906365E+01 -0.32744620322E+01  0.30449606956E+01  0.46577957838E+01  0.51100000000E-03 0. -1.
        -11    1    3    3    0    0 -0.12266431098E+02 -0.41380309500E+01  0.10217132648E+02  0.16491768608E+02  0.51100000000E-03 0.  1.
         12    1    3    3    0    0 -0.20170114036E+02 -0.49277996558E+01  0.13911180303E+02  0.24992751891E+02  0.00000000000E+00 0. -1.
</event>
<event>
 7    1  0.2227287E-008  0.4614232E+02  0.7816164E-02  0.1320468E+00
        -11   -1    0    0    0    0  0.00000000000E+00  0.00000000000E+00  0.45593999997E+02  0.45594000000E+02  0.51100000000E-03 0.  1.
         11   -1    0    0    0    0 -0.00000000000E+00 -0.00000000000E+00 -0.45593999997E+02  0.45594000000E+02  0.51100000000E-03 0. -1.
    9900012    2    1    2    0    0  0.61410406531E+01 -0.18180848833E+02  0.40753622835E+02  0.46142318533E+02  0.10000007043E+02 0.  0.
         12    1    1    2    0    0 -0.61410406531E+01  0.18180848833E+02 -0.40753622835E+02  0.45045681467E+02  0.00000000000E+00 0. -1.
         11    1    3    3    0    0  0.38035348205E+01 -0.74597987663E+01  0.13011255687E+02  0.15472822935E+02  0.51100000000E-03 0. -1.
        -11    1    3    3    0    0  0.38372626748E+01 -0.10563411379E+02  0.21650325112E+02  0.24393581584E+02  0.51100000000E-03 0.  1.
         12    1    3    3    0    0 -0.14997568423E+01 -0.15763868791E+00  0.60920420364E+01  0.62759140144E+01  0.00000000000E+00 0. -1.
</event>
<event>
 7    1  0.2227287E-008  0.4614232E+02  0.7816164E-02  0.1320468E+00
        -11   -1    0    0    0    0  0.00000000000E+00  0.00000000000E+00  0.45593999997E+02  0.45594000000E+02  0.51100000000E-03 0.  1.
         11   -1    0    0    0    0 -0.00000000000E+00 -0.00000000000E+00 -0.45593999997E+02  0.45594000000E+02  0.51100000000E-03 0. -1.
    9900012    2    1    2    0    0  0.11429381183E+02  0.15430529170E+02  0.40747779218E+02  0.46142317678E+02  0.99999992420E+01 0.  0.
         12    1    1    2    0    0 -0.11429381183E+02 -0.15430529170E+02 -0.40747779218E+02  0.45045682322E+02  0.00000000000E+00 0. -1.
         11    1    3    3    0    0  0.18339355057E+01  0.34522071411E+01  0.14686274630E+02  0.15197622063E+02  0.51100000000E-03 0. -1.
        -11    1    3    3    0    0  0.92079527385E+00  0.24745952760E+01  0.10116284834E+02  0.10455175982E+02  0.51100000000E-03 0.  1.
        -12    1    3    3    0    0  0.86746504032E+01  0.95037267528E+01  0.15945219754E+02  0.20489519633E+02  0.00000000000E+00 0.  1.
</event>
<event>
 7    1  0.2227287E-008  0.4614232E+02  0.7816164E-02  0.1320468E+00
        -11   -1    0    0    0    0  0.00000000000E+00  0.00000000000E+00  0.45593999997E+02  0.45594000000E+02  0.51100000000E-03 0.  1.
         11   -1    0    0    0    0 -0.00000000000E+00 -0.00000000000E+00 -0.45593999997E+02  0.45594000000E+02  0.51100000000E-03 0. -1.
    9900012    2    1    2    0    0 -0.19213158151E+02  0.11110810897E+02  0.39198443442E+02  0.46142317264E+02  0.99999954651E+01 0.  0.
         12    1    1    2    0    0  0.19213158151E+02 -0.11110810897E+02 -0.39198443442E+02  0.45045682736E+02  0.00000000000E+00 0. -1.
         11    1    3    3    0    0 -0.79339394595E+01  0.50597772125E+01  0.10126804258E+02  0.13823925113E+02  0.51100000000E-03 0. -1.
        -11    1    3    3    0    0 -0.97675467590E+01  0.57769276250E+01  0.19005181445E+02  0.22135374054E+02  0.51100000000E-03 0.  1.
         12    1    3    3    0    0 -0.15116719321E+01  0.27410605929E+00  0.10066457738E+02  0.10183018097E+02  0.00000000000E+00 0. -1.
</event>
<event>
 7    1  0.2227287E-008  0.4614232E+02  0.7816164E-02  0.1320468E+00
        -11   -1    0    0    0    0  0.00000000000E+00  0.00000000000E+00  0.45593999997E+02  0.45594000000E+02  0.51100000000E-03 0. -1.
         11   -1    0    0    0    0 -0.00000000000E+00 -0.00000000000E+00 -0.45593999997E+02  0.45594000000E+02  0.51100000000E-03 0.  1.
    9900012    2    1    2    0    0  0.43933025015E+02 -0.28600043881E+01 -0.95301203097E+01  0.46142317574E+02  0.99999982947E+01 0.  0.
         12    1    1    2    0    0 -0.43933025015E+02  0.28600043881E+01  0.95301203097E+01  0.45045682426E+02  0.00000000000E+00 0. -1.
         11    1    3    3    0    0  0.16093996166E+02  0.10080099309E+01 -0.38843632932E+01  0.16586774101E+02  0.51100000000E-03 0. -1.
        -11    1    3    3    0    0  0.13043439055E+02 -0.42705238975E+01 -0.54102407916E+01  0.14752605954E+02  0.51100000000E-03 0.  1.
         12    1    3    3    0    0  0.14795589794E+02  0.40250957847E+00 -0.23551622493E+00  0.14802937519E+02  0.00000000000E+00 0. -1.
</event>
<event>
 7    1  0.2227287E-008  0.4614232E+02  0.7816164E-02  0.1320468E+00
        -11   -1    0    0    0    0  0.00000000000E+00  0.00000000000E+00  0.45593999997E+02  0.45594000000E+02  0.51100000000E-03 0.  1.
         11   -1    0    0    0    0 -0.00000000000E+00 -0.00000000000E+00 -0.45593999997E+02  0.45594000000E+02  0.51100000000E-03 0. -1.
    9900012    2    1    2    0    0 -0.29717039385E+02 -0.25433936079E+02  0.22341115792E+02  0.46142323303E+02  0.10000050532E+02 0.  0.
         12    1    1    2    0    0  0.29717039385E+02  0.25433936079E+02 -0.22341115792E+02  0.45045676697E+02  0.00000000000E+00 0. -1.
         11    1    3    3    0    0 -0.78694058318E+01 -0.73734889568E+01  0.50187261074E+01  0.11894683667E+02  0.51100000000E-03 0. -1.
        -11    1    3    3    0    0 -0.18989958234E+02 -0.16672607835E+02  0.17966325311E+02  0.31006180209E+02  0.51100000000E-03 0.  1.
         12    1    3    3    0    0 -0.28576753200E+01 -0.13878392869E+01 -0.64393562609E+00  0.32414594262E+01  0.00000000000E+00 0. -1.
</event>
<event>
 7    1  0.2227287E-008  0.4614232E+02  0.7816164E-02  0.1320468E+00
        -11   -1    0    0    0    0  0.00000000000E+00  0.00000000000E+00  0.45593999997E+02  0.45594000000E+02  0.51100000000E-03 0.  1.
         11   -1    0    0    0    0 -0.00000000000E+00 -0.00000000000E+00 -0.45593999997E+02  0.45594000000E+02  0.51100000000E-03 0. -1.
    9900012    2    1    2    0    0 -0.22380674928E+02 -0.14103901340E+02  0.36459550198E+02  0.46142318254E+02  0.10000004499E+02 0.  0.
         12    1    1    2    0    0  0.22380674928E+02  0.14103901340E+02 -0.36459550198E+02  0.45045681746E+02  0.00000000000E+00 0. -1.
         11    1    3    3    0    0 -0.51197502417E+01 -0.27837366678E+00  0.63496851806E+01  0.81613624224E+01  0.51100000000E-03 0. -1.
        -11    1    3    3    0    0 -0.10116728436E+02 -0.51987545775E+01  0.19372143180E+02  0.22464531490E+02  0.51100000000E-03 0.  1.
        -12    1    3    3    0    0 -0.71441962502E+01 -0.86267730954E+01  0.10737721838E+02  0.15516424342E+02  0.00000000000E+00 0.  1.
</event>
<event>
 7    1  0.2227287E-008  0.4614232E+02  0.7816164E-02  0.1320468E+00
        -11   -1    0    0    0    0  0.00000000000E+00  0.00000000000E+00  0.45593999997E+02  0.45594000000E+02  0.51100000000E-03 0.  1.
         11   -1    0    0    0    0 -0.00000000000E+00 -0.00000000000E+00 -0.45593999997E+02  0.45594000000E+02  0.51100000000E-03 0. -1.
    9900012    2    1    2    0    0 -0.75351024088E+01  0.43841001552E+02  0.70924225611E+01  0.46142316043E+02  0.99999843301E+01 0.  0.
         12    1    1    2    0    0  0.75351024088E+01 -0.43841001552E+02 -0.70924225611E+01  0.45045683957E+02  0.00000000000E+00 0. -1.
         11    1    3    3    0    0  0.91925208387E+00  0.65376667511E+01  0.25175481993E+01  0.70657030888E+01  0.51100000000E-03 0. -1.
        -11    1    3    3    0    0 -0.16923344318E+01  0.14620010149E+02  0.45565139043E+01  0.15406833283E+02  0.51100000000E-03 0.  1.
         12    1    3    3    0    0 -0.67620200609E+01  0.22683324652E+02  0.18360457622E-01  0.23669779671E+02  0.00000000000E+00 0. -1.
</event>
<event>
 7    1  0.2227287E-008  0.4614232E+02  0.7816164E-02  0.1320468E+00
        -11   -1    0    0    0    0  0.00000000000E+00  0.00000000000E+00  0.45593999997E+02  0.45594000000E+02  0.51100000000E-03 0.  1.
         11   -1    0    0    0    0 -0.00000000000E+00 -0.00000000000E+00 -0.45593999997E+02  0.45594000000E+02  0.51100000000E-03 0. -1.
    9900012    2    1    2    0    0  0.13168494417E+02 -0.42913020458E+02 -0.37652302976E+01  0.46142317308E+02  0.99999958642E+01 0.  0.
         12    1    1    2    0    0 -0.13168494417E+02  0.42913020458E+02  0.37652302976E+01  0.45045682692E+02  0.00000000000E+00 0. -1.
         11    1    3    3    0    0  0.10707787203E+02 -0.22945755293E+02 -0.17003268383E+01  0.25378248647E+02  0.51100000000E-03 0.  1.
        -11    1    3    3    0    0  0.19973099055E+01 -0.97827163495E+01  0.12060699689E+01  0.10057106496E+02  0.51100000000E-03 0. -1.
         12    1    3    3    0    0  0.46339730817E+00 -0.10184548815E+02 -0.32709734282E+01  0.10706962165E+02  0.00000000000E+00 0. -1.
</event>
<event>
 7    1  0.2227287E-008  0.4614232E+02  0.7816164E-02  0.1320468E+00
        -11   -1    0    0    0    0  0.00000000000E+00  0.00000000000E+00  0.45593999997E+02  0.45594000000E+02  0.51100000000E-03 0. -1.
         11   -1    0    0    0    0 -0.00000000000E+00 -0.00000000000E+00 -0.45593999997E+02  0.45594000000E+02  0.51100000000E-03 0.  1.
    9900012    2    1    2    0    0  0.40325869241E+02 -0.19144969257E+02 -0.60338960819E+01  0.46142317856E+02  0.10000000862E+02 0.  0.
         12    1    1    2    0    0 -0.40325869241E+02  0.19144969257E+02  0.60338960819E+01  0.45045682144E+02  0.00000000000E+00 0. -1.
         11    1    3    3    0    0  0.11843858343E+02 -0.51270918205E+01  0.11624173497E+01  0.12958212274E+02  0.51100000000E-03 0. -1.
        -11    1    3    3    0    0  0.25473383225E+02 -0.13652405420E+02 -0.47493939746E+01  0.29288874510E+02  0.51100000000E-03 0.  1.
         12    1    3    3    0    0  0.30086276741E+01 -0.36547201633E+00 -0.24469194570E+01  0.38952310721E+01  0.00000000000E+00 0. -1.
</event>
<event>
 7    1  0.2227287E-008  0.4614232E+02  0.7816164E-02  0.1320468E+00
        -11   -1    0    0    0    0  0.00000000000E+00  0.00000000000E+00  0.45593999997E+02  0.45594000000E+02  0.51100000000E-03 0. -1.
         11   -1    0    0    0    0 -0.00000000000E+00 -0.00000000000E+00 -0.45593999997E+02  0.45594000000E+02  0.51100000000E-03 0.  1.
    9900012    2    1    2    0    0  0.13415873976E+02  0.42523260195E+02 -0.63953210136E+01  0.46142318043E+02  0.10000002568E+02 0.  0.
         12    1    1    2    0    0 -0.13415873976E+02 -0.42523260195E+02  0.63953210136E+01  0.45045681957E+02  0.00000000000E+00 0. -1.
         11    1    3    3    0    0  0.33037456082E+01  0.61229511042E+01 -0.25671896880E+01  0.74159104919E+01  0.51100000000E-03 0. -1.
        -11    1    3    3    0    0 -0.11981770343E+01  0.55244883801E+01 -0.68670982719E+00  0.56944859922E+01  0.51100000000E-03 0.  1.
        -12    1    3    3    0    0  0.11310305402E+02  0.30875820710E+02 -0.31414214983E+01  0.33031921559E+02  0.00000000000E+00 0.  1.
</event>
<event>
 7    1  0.2227287E-008  0.4614232E+02  0.7816164E-02  0.1320468E+00
        -11   -1    0    0    0    0  0.00000000000E+00  0.00000000000E+00  0.45593999997E+02  0.45594000000E+02  0.51100000000E-03 0.  1.
         11   -1    0    0    0    0 -0.00000000000E+00 -0.00000000000E+00 -0.45593999997E+02  0.45594000000E+02  0.51100000000E-03 0. -1.
    9900012    2    1    2    0    0 -0.27597837924E+02 -0.29880342496E+02  0.19355566803E+02  0.46142317720E+02  0.99999996268E+01 0.  0.
         12    1    1    2    0    0  0.27597837924E+02  0.29880342496E+02 -0.19355566803E+02  0.45045682280E+02  0.00000000000E+00 0. -1.
         11    1    3    3    0    0 -0.47732698295E+01 -0.21724130936E+01  0.51896135006E+01  0.73780466291E+01  0.51100000000E-03 0. -1.
        -11    1    3    3    0    0 -0.47160109263E+00 -0.17447681640E+01  0.96682489545E+00  0.20497253904E+01  0.51100000000E-03 0.  1.
        -12    1    3    3    0    0 -0.22352967002E+02 -0.25963161238E+02  0.13199128407E+02  0.36714545701E+02  0.00000000000E+00 0.  1.
</event>
<event>
 7    1  0.2227287E-008  0.4614231E+02  0.7816164E-02  0.1320468E+00
        -11   -1    0    0    0    0  0.00000000000E+00  0.00000000000E+00  0.45593999997E+02  0.45594000000E+02  0.51100000000E-03 0.  1.
         11   -1    0    0    0    0 -0.00000000000E+00 -0.00000000000E+00 -0.45593999997E+02  0.45594000000E+02  0.51100000000E-03 0. -1.
    9900012    2    1    2    0    0 -0.17704258129E+02 -0.32198168221E+02  0.26056698881E+02  0.46142308205E+02  0.99999128603E+01 0.  0.
         12    1    1    2    0    0  0.17704258129E+02  0.32198168221E+02 -0.26056698881E+02  0.45045691795E+02  0.00000000000E+00 0. -1.
         11    1    3    3    0    0  0.66741838580E+00 -0.45544311203E+01  0.19356758217E+01  0.49935089145E+01  0.51100000000E-03 0.  1.
        -11    1    3    3    0    0 -0.59375449794E+01 -0.98708956184E+01  0.10110275083E+02  0.15326665757E+02  0.51100000000E-03 0. -1.
        -12    1    3    3    0    0 -0.12434131535E+02 -0.17772841482E+02  0.14010747976E+02  0.25822133534E+02  0.00000000000E+00 0.  1.
</event>
<event>
 7    1  0.2227287E-008  0.4614232E+02  0.7816164E-02  0.1320468E+00
        -11   -1    0    0    0    0  0.00000000000E+00  0.00000000000E+00  0.45593999997E+02  0.45594000000E+02  0.51100000000E-03 0. -1.
         11   -1    0    0    0    0 -0.00000000000E+00 -0.00000000000E+00 -0.45593999997E+02  0.45594000000E+02  0.51100000000E-03 0.  1.
    9900012    2    1    2    0    0  0.21240355401E+02  0.26001719535E+01 -0.39638363320E+02  0.46142318316E+02  0.10000005056E+02 0.  0.
         12    1    1    2    0    0 -0.21240355401E+02 -0.26001719535E+01  0.39638363320E+02  0.45045681684E+02  0.00000000000E+00 0. -1.
         11    1    3    3    0    0 -0.10310300599E+00 -0.71010687180E-01 -0.13218675957E+00  0.18206138543E+00  0.51100000000E-03 0. -1.
        -11    1    3    3    0    0 -0.46022940049E+00 -0.36093597423E+00  0.15000414081E+00  0.60381071699E+00  0.51100000000E-03 0.  1.
        -12    1    3    3    0    0  0.21803687807E+02  0.30321186149E+01 -0.39656180701E+02  0.45356446213E+02  0.00000000000E+00 0.  1.
</event>
<event>
 7    1  0.2227287E-008  0.4614232E+02  0.7816164E-02  0.1320468E+00
        -11   -1    0    0    0    0  0.00000000000E+00  0.00000000000E+00  0.45593999997E+02  0.45594000000E+02  0.51100000000E-03 0.  1.
         11   -1    0    0    0    0 -0.00000000000E+00 -0.00000000000E+00 -0.45593999997E+02  0.45594000000E+02  0.51100000000E-03 0. -1.
    9900012    2    1    2    0    0 -0.20652223360E+02 -0.34366632347E+02  0.20531286893E+02  0.46142317742E+02  0.99999998294E+01 0.  0.
         12    1    1    2    0    0  0.20652223360E+02  0.34366632347E+02 -0.20531286893E+02  0.45045682258E+02  0.00000000000E+00 0. -1.
         11    1    3    3    0    0 -0.47132483268E+01 -0.95108793296E+01  0.16067389024E+01  0.10735601780E+02  0.51100000000E-03 0. -1.
        -11    1    3    3    0    0 -0.15538246533E+02 -0.21462619959E+02  0.16447442647E+02  0.31186528033E+02  0.51100000000E-03 0.  1.
        -12    1    3    3    0    0 -0.40072849950E+00 -0.33931330584E+01  0.24771053435E+01  0.42201879301E+01  0.00000000000E+00 0.  1.
</event>
<event>
 7    1  0.2227287E-008  0.4614232E+02  0.7816164E-02  0.1320468E+00
        -11   -1    0    0    0    0  0.00000000000E+00  0.00000000000E+00  0.45593999997E+02  0.45594000000E+02  0.51100000000E-03 0.  1.
         11   -1    0    0    0    0 -0.00000000000E+00 -0.00000000000E+00 -0.45593999997E+02  0.45594000000E+02  0.51100000000E-03 0. -1.
    9900012    2    1    2    0    0  0.15982488517E+02  0.38267907127E+02  0.17585245998E+02  0.46142317279E+02  0.99999955998E+01 0.  0.
         12    1    1    2    0    0 -0.15982488517E+02 -0.38267907127E+02 -0.17585245998E+02  0.45045682721E+02  0.00000000000E+00 0. -1.
         11    1    3    3    0    0  0.19046257762E+01  0.11099025530E+02  0.78950528962E+01  0.13753102470E+02  0.51100000000E-03 0. -1.
        -11    1    3    3    0    0  0.26764543921E+00  0.25981255076E+01  0.90595523885E-01  0.26134456268E+01  0.51100000000E-03 0.  1.
        -12    1    3    3    0    0  0.13810217301E+02  0.24570756089E+02  0.95995975777E+01  0.29775769181E+02  0.00000000000E+00 0.  1.
</event>
<event>
 7    1  0.2227287E-008  0.4614232E+02  0.7816164E-02  0.1320468E+00
        -11   -1    0    0    0    0  0.00000000000E+00  0.00000000000E+00  0.45593999997E+02  0.45594000000E+02  0.51100000000E-03 0.  1.
         11   -1    0    0    0    0 -0.00000000000E+00 -0.00000000000E+00 -0.45593999997E+02  0.45594000000E+02  0.51100000000E-03 0. -1.
    9900012    2    1    2    0    0 -0.89382327122E+01 -0.25204065622E+02  0.36248815468E+02  0.46142317069E+02  0.99999936908E+01 0.  0.
         12    1    1    2    0    0  0.89382327122E+01  0.25204065622E+02 -0.36248815468E+02  0.45045682931E+02  0.00000000000E+00 0. -1.
         11    1    3    3    0    0 -0.33051731051E+01 -0.39432269344E+01  0.88509525557E+01  0.10237801000E+02  0.51100000000E-03 0. -1.
        -11    1    3    3    0    0 -0.17509253478E+01 -0.53658891598E+01  0.12750574660E+02  0.13944018807E+02  0.51100000000E-03 0.  1.
        -12    1    3    3    0    0 -0.38821342593E+01 -0.15894949528E+02  0.14647288252E+02  0.21960497263E+02  0.00000000000E+00 0.  1.
</event>
<event>
 7    1  0.2227287E-008  0.4614232E+02  0.7816164E-02  0.1320468E+00
        -11   -1    0    0    0    0  0.00000000000E+00  0.00000000000E+00  0.45593999997E+02  0.45594000000E+02  0.51100000000E-03 0. -1.
         11   -1    0    0    0    0 -0.00000000000E+00 -0.00000000000E+00 -0.45593999997E+02  0.45594000000E+02  0.51100000000E-03 0.  1.
    9900012    2    1    2    0    0  0.20377759260E+02  0.15503885418E+02 -0.37060624817E+02  0.46142318217E+02  0.10000004155E+02 0.  0.
         12    1    1    2    0    0 -0.20377759260E+02 -0.15503885418E+02  0.37060624817E+02  0.45045681783E+02  0.00000000000E+00 0. -1.
         11    1    3    3    0    0 -0.93376868390E-01  0.31576454574E+01 -0.62850140953E+01  0.70342623290E+01  0.51100000000E-03 0. -1.
        -11    1    3    3    0    0  0.12706013141E+02  0.86608940758E+01 -0.21831919779E+02  0.26703680975E+02  0.51100000000E-03 0.  1.
         12    1    3    3    0    0  0.77651229870E+01  0.36853458844E+01 -0.89436909426E+01  0.12404374912E+02  0.00000000000E+00 0. -1.
</event>
<event>
 7    1  0.2227287E-008  0.4614232E+02  0.7816164E-02  0.1320468E+00
        -11   -1    0    0    0    0  0.00000000000E+00  0.00000000000E+00  0.45593999997E+02  0.45594000000E+02  0.51100000000E-03 0.  1.
         11   -1    0    0    0    0 -0.00000000000E+00 -0.00000000000E+00 -0.45593999997E+02  0.45594000000E+02  0.51100000000E-03 0. -1.
    9900012    2    1    2    0    0 -0.70131231524E+01 -0.18434427422E+02  0.40498167035E+02  0.46142317144E+02  0.99999943736E+01 0.  0.
         12    1    1    2    0    0  0.70131231524E+01  0.18434427422E+02 -0.40498167035E+02  0.45045682856E+02  0.00000000000E+00 0. -1.
         11    1    3    3    0    0  0.18626350140E+01 -0.19019855351E+01  0.25096684020E+01  0.36586054611E+01  0.51100000000E-03 0. -1.
        -11    1    3    3    0    0 -0.18176590745E+01 -0.33302095232E+01  0.10787162388E+02  0.11434905011E+02  0.51100000000E-03 0.  1.
         12    1    3    3    0    0 -0.70580990920E+01 -0.13202232364E+02  0.27201336246E+02  0.31048806672E+02  0.00000000000E+00 0. -1.
</event>
<event>
 7    1  0.2227287E-008  0.4614232E+02  0.7816164E-02  0.1320468E+00
        -11   -1    0    0    0    0  0.00000000000E+00  0.00000000000E+00  0.45593999997E+02  0.45594000000E+02  0.51100000000E-03 0. -1.
         11   -1    0    0    0    0 -0.00000000000E+00 -0.00000000000E+00 -0.45593999997E+02  0.45594000000E+02  0.51100000000E-03 0.  1.
    9900012    2    1    2    0    0 -0.19232751509E+02  0.11323379241E+02 -0.39127942315E+02  0.46142317433E+02  0.99999970110E+01 0.  0.
         12    1    1    2    0    0  0.19232751509E+02 -0.11323379241E+02  0.39127942315E+02  0.45045682567E+02  0.00000000000E+00 0. -1.
         11    1    3    3    0    0 -0.50783665083E+01  0.23305989572E+01 -0.12224240852E+02  0.13440742634E+02  0.51100000000E-03 0. -1.
        -11    1    3    3    0    0 -0.12036646838E+02  0.35937319200E+01 -0.20666421131E+02  0.24184638489E+02  0.51100000000E-03 0.  1.
         12    1    3    3    0    0 -0.21177381630E+01  0.53990483640E+01 -0.62372803320E+01  0.85169363098E+01  0.00000000000E+00 0. -1.
</event>
<event>
 7    1  0.2227287E-008  0.4614232E+02  0.7816164E-02  0.1320468E+00
        -11   -1    0    0    0    0  0.00000000000E+00  0.00000000000E+00  0.45593999997E+02  0.45594000000E+02  0.51100000000E-03 0.  1.
         11   -1    0    0    0    0 -0.00000000000E+00 -0.00000000000E+00 -0.45593999997E+02  0.45594000000E+02  0.51100000000E-03 0. -1.
    9900012    2    1    2    0    0  0.33182091963E+02 -0.29355618427E+02  0.81430910511E+01  0.46142317719E+02  0.99999996200E+01 0.  0.
         12    1    1    2    0    0 -0.33182091963E+02  0.29355618427E+02 -0.81430910511E+01  0.45045682281E+02  0.00000000000E+00 0. -1.
         11    1    3    3    0    0  0.29077007841E+02 -0.25400679750E+02  0.48638847436E+01  0.38914319881E+02  0.51100000000E-03 0. -1.
        -11    1    3    3    0    0  0.41688344261E+01 -0.24542824275E+01  0.19280686037E+01  0.52076992528E+01  0.51100000000E-03 0.  1.
        -12    1    3    3    0    0 -0.63750304254E-01 -0.15006562493E+01  0.13511377038E+01  0.20202985854E+01  0.00000000000E+00 0.  1.
</event>
<event>
 7    1  0.2227287E-008  0.4614232E+02  0.7816164E-02  0.1320468E+00
        -11   -1    0    0    0    0  0.00000000000E+00  0.00000000000E+00  0.45593999997E+02  0.45594000000E+02  0.51100000000E-03 0. -1.
         11   -1    0    0    0    0 -0.00000000000E+00 -0.00000000000E+00 -0.45593999997E+02  0.45594000000E+02  0.51100000000E-03 0.  1.
    9900012    2    1    2    0    0 -0.13305418144E+02 -0.23774151450E+02 -0.35872957301E+02  0.46142317691E+02  0.99999993628E+01 0.  0.
         12    1    1    2    0    0  0.13305418144E+02  0.23774151450E+02  0.35872957301E+02  0.45045682309E+02  0.00000000000E+00 0. -1.
         11    1    3    3    0    0 -0.66480164578E+01 -0.18667101303E+02 -0.27908866367E+02  0.34228082272E+02  0.51100000000E-03 0. -1.
        -11    1    3    3    0    0 -0.14050684817E+01 -0.27008681835E+01 -0.22248039459E+01  0.37707637477E+01  0.51100000000E-03 0.  1.
        -12    1    3    3    0    0 -0.52523332042E+01 -0.24061819636E+01 -0.57392869881E+01  0.81434716714E+01  0.00000000000E+00 0.  1.
</event>
<event>
 7    1  0.2227287E-008  0.4614232E+02  0.7816164E-02  0.1320468E+00
        -11   -1    0    0    0    0  0.00000000000E+00  0.00000000000E+00  0.45593999997E+02  0.45594000000E+02  0.51100000000E-03 0.  1.
         11   -1    0    0    0    0 -0.00000000000E+00 -0.00000000000E+00 -0.45593999997E+02  0.45594000000E+02  0.51100000000E-03 0. -1.
    9900012    2    1    2    0    0 -0.30928246091E+02 -0.29086866771E+02  0.15050289739E+02  0.46142318230E+02  0.10000004278E+02 0.  0.
         12    1    1    2    0    0  0.30928246091E+02  0.29086866771E+02 -0.15050289739E+02  0.45045681770E+02  0.00000000000E+00 0. -1.
         11    1    3    3    0    0 -0.10411836231E+02 -0.94184311602E+01  0.60261830282E+01  0.15278352705E+02  0.51100000000E-03 0. -1.
        -11    1    3    3    0    0 -0.19175044192E+02 -0.19998161122E+02  0.72934573115E+01  0.28649664707E+02  0.51100000000E-03 0.  1.
         12    1    3    3    0    0 -0.13413656686E+01  0.32972551081E+00  0.17306493999E+01  0.22143008185E+01  0.00000000000E+00 0. -1.
</event>
<event>
 7    1  0.2227287E-008  0.4614232E+02  0.7816164E-02  0.1320468E+00
        -11   -1    0    0    0    0  0.00000000000E+00  0.00000000000E+00  0.45593999997E+02  0.45594000000E+02  0.51100000000E-03 0. -1.
         11   -1    0    0    0    0 -0.00000000000E+00 -0.00000000000E+00 -0.45593999997E+02  0.45594000000E+02  0.51100000000E-03 0.  1.
    9900012    2    1    2    0    0 -0.21687668528E+02 -0.27912828250E+02 -0.27921900639E+02  0.46142317827E+02  0.10000000603E+02 0.  0.
         12    1    1    2    0    0  0.21687668528E+02  0.27912828250E+02  0.27921900639E+02  0.45045682173E+02  0.00000000000E+00 0. -1.
         11    1    3    3    0    0 -0.30020732794E+01 -0.45911998720E+01 -0.60954141246E+01  0.82003435203E+01  0.51100000000E-03 0. -1.
        -11    1    3    3    0    0 -0.11676720780E+02 -0.11141694824E+02 -0.16009686008E+02  0.22733086417E+02  0.51100000000E-03 0.  1.
         12    1    3    3    0    0 -0.70088744688E+01 -0.12179933555E+02 -0.58168005068E+01  0.15208887890E+02  0.00000000000E+00 0. -1.
</event>
<event>
 7    1  0.2227287E-008  0.4614232E+02  0.7816164E-02  0.1320468E+00
        -11   -1    0    0    0    0  0.00000000000E+00  0.00000000000E+00  0.45593999997E+02  0.45594000000E+02  0.51100000000E-03 0.  1.
         11   -1    0    0    0    0 -0.00000000000E+00 -0.00000000000E+00 -0.45593999997E+02  0.45594000000E+02  0.51100000000E-03 0. -1.
    9900012    2    1    2    0    0  0.43729562146E+02  0.44564413633E+01 -0.98477944772E+01  0.46142317286E+02  0.99999956656E+01 0.  0.
         12    1    1    2    0    0 -0.43729562146E+02 -0.44564413633E+01  0.98477944772E+01  0.45045682714E+02  0.00000000000E+00 0. -1.
         11    1    3    3    0    0  0.42020724435E+01 -0.18931069003E+01 -0.17608916693E+01  0.49337618800E+01  0.51100000000E-03 0. -1.
        -11    1    3    3    0    0  0.14841177425E+02  0.83242179699E+00 -0.80644442938E+00  0.14886363769E+02  0.51100000000E-03 0.  1.
        -12    1    3    3    0    0  0.24686312278E+02  0.55171264666E+01 -0.72804583785E+01  0.26322191636E+02  0.00000000000E+00 0.  1.
</event>
<event>
 7    1  0.2227287E-008  0.4614232E+02  0.7816164E-02  0.1320468E+00
        -11   -1    0    0    0    0  0.00000000000E+00  0.00000000000E+00  0.45593999997E+02  0.45594000000E+02  0.51100000000E-03 0. -1.
         11   -1    0    0    0    0 -0.00000000000E+00 -0.00000000000E+00 -0.45593999997E+02  0.45594000000E+02  0.51100000000E-03 0.  1.
    9900012    2    1    2    0    0  0.37571669814E+02 -0.10720449830E+02 -0.22417740309E+02  0.46142317657E+02  0.99999990497E+01 0.  0.
         12    1    1    2    0    0 -0.37571669814E+02  0.10720449830E+02  0.22417740309E+02  0.45045682343E+02  0.00000000000E+00 0. -1.
         11    1    3    3    0    0  0.83332077521E+01 -0.29388786350E+01 -0.96479651566E+01  0.13082912176E+02  0.51100000000E-03 0. -1.
        -11    1    3    3    0    0  0.94815164627E+01 -0.10201315073E+01 -0.50935629646E+01  0.10811299952E+02  0.51100000000E-03 0.  1.
         12    1    3    3    0    0  0.19756945600E+02 -0.67614396875E+01 -0.76762121878E+01  0.22248105529E+02  0.00000000000E+00 0. -1.
</event>
<event>
 7    1  0.2227287E-008  0.4614232E+02  0.7816164E-02  0.1320468E+00
        -11   -1    0    0    0    0  0.00000000000E+00  0.00000000000E+00  0.45593999997E+02  0.45594000000E+02  0.51100000000E-03 0. -1.
         11   -1    0    0    0    0 -0.00000000000E+00 -0.00000000000E+00 -0.45593999997E+02  0.45594000000E+02  0.51100000000E-03 0.  1.
    9900012    2    1    2    0    0  0.68600440368E+01  0.43833586221E+02  0.77890901791E+01  0.46142318620E+02  0.10000007830E+02 0.  0.
         12    1    1    2    0    0 -0.68600440368E+01 -0.43833586221E+02 -0.77890901791E+01  0.45045681380E+02  0.00000000000E+00 0. -1.
         11    1    3    3    0    0  0.13654430361E+01  0.10464261620E+02  0.41912048096E+01  0.11354796517E+02  0.51100000000E-03 0. -1.
        -11    1    3    3    0    0  0.61501976391E+01  0.31755575835E+02  0.47593988867E+01  0.32693935304E+02  0.51100000000E-03 0.  1.
        -12    1    3    3    0    0 -0.65559663840E+00  0.16137487659E+01 -0.11615135172E+01  0.20935867984E+01  0.00000000000E+00 0.  1.
</event>
<event>
 7    1  0.2227287E-008  0.4614232E+02  0.7816164E-02  0.1320468E+00
        -11   -1    0    0    0    0  0.00000000000E+00  0.00000000000E+00  0.45593999997E+02  0.45594000000E+02  0.51100000000E-03 0.  1.
         11   -1    0    0    0    0 -0.00000000000E+00 -0.00000000000E+00 -0.45593999997E+02  0.45594000000E+02  0.51100000000E-03 0. -1.
    9900012    2    1    2    0    0  0.26732176948E+02 -0.35852892195E+02 -0.53920564272E+01  0.46142318346E+02  0.10000005338E+02 0.  0.
         12    1    1    2    0    0 -0.26732176948E+02  0.35852892195E+02  0.53920564272E+01  0.45045681654E+02  0.00000000000E+00 0. -1.
         11    1    3    3    0    0 -0.43833885377E+00 -0.53023445640E+00  0.51544061868E-01  0.68988881779E+00  0.51100000000E-03 0. -1.
        -11    1    3    3    0    0  0.29820772013E+01 -0.62507147140E+01  0.12736331565E+01  0.70417583421E+01  0.51100000000E-03 0.  1.
        -12    1    3    3    0    0  0.24188438601E+02 -0.29071943024E+02 -0.67172336456E+01  0.38410671187E+02  0.00000000000E+00 0.  1.
</event>
<event>
 7    1  0.2227287E-008  0.4614232E+02  0.7816164E-02  0.1320468E+00
        -11   -1    0    0    0    0  0.00000000000E+00  0.00000000000E+00  0.45593999997E+02  0.45594000000E+02  0.51100000000E-03 0.  1.
         11   -1    0    0    0    0 -0.00000000000E+00 -0.00000000000E+00 -0.45593999997E+02  0.45594000000E+02  0.51100000000E-03 0. -1.
    9900012    2    1    2    0    0  0.86417619143E+01 -0.18692844763E+02  0.40062584984E+02  0.46142320852E+02  0.10000028185E+02 0.  0.
         12    1    1    2    0    0 -0.86417619143E+01  0.18692844763E+02 -0.40062584984E+02  0.45045679148E+02  0.00000000000E+00 0. -1.
         11    1    3    3    0    0  0.12210125142E+01 -0.79373520930E+01  0.18783410799E+02  0.20428141161E+02  0.51100000000E-03 0. -1.
        -11    1    3    3    0    0  0.42632392285E+00  0.28131365501E+00  0.40937002899E+01  0.41254420108E+01  0.51100000000E-03 0.  1.
         12    1    3    3    0    0  0.69944254773E+01 -0.11036806325E+02  0.17185473895E+02  0.21588737680E+02  0.00000000000E+00 0. -1.
</event>
<event>
 7    1  0.2227287E-008  0.4614232E+02  0.7816164E-02  0.1320468E+00
        -11   -1    0    0    0    0  0.00000000000E+00  0.00000000000E+00  0.45593999997E+02  0.45594000000E+02  0.51100000000E-03 0. -1.
         11   -1    0    0    0    0 -0.00000000000E+00 -0.00000000000E+00 -0.45593999997E+02  0.45594000000E+02  0.51100000000E-03 0.  1.
    9900012    2    1    2    0    0 -0.32773719349E+02  0.12300492475E+01 -0.30878532059E+02  0.46142318263E+02  0.10000004574E+02 0.  0.
         12    1    1    2    0    0  0.32773719349E+02 -0.12300492475E+01  0.30878532059E+02  0.45045681737E+02  0.00000000000E+00 0. -1.
         11    1    3    3    0    0 -0.87193335801E+01  0.29986512308E+01 -0.11394001478E+02  0.14657488094E+02  0.51100000000E-03 0. -1.
        -11    1    3    3    0    0 -0.47937641191E+01 -0.10260291364E+01 -0.69044805092E+01  0.84678664126E+01  0.51100000000E-03 0.  1.
        -12    1    3    3    0    0 -0.19260621649E+02 -0.74257284694E+00 -0.12580050072E+02  0.23016963756E+02  0.00000000000E+00 0.  1.
</event>
<event>
 7    1  0.2227287E-008  0.4614232E+02  0.7816164E-02  0.1320468E+00
        -11   -1    0    0    0    0  0.00000000000E+00  0.00000000000E+00  0.45593999997E+02  0.45594000000E+02  0.51100000000E-03 0.  1.
         11   -1    0    0    0    0 -0.00000000000E+00 -0.00000000000E+00 -0.45593999997E+02  0.45594000000E+02  0.51100000000E-03 0. -1.
    9900012    2    1    2    0    0  0.41162368698E+02 -0.11553938322E+02  0.14187295524E+02  0.46142318277E+02  0.10000004707E+02 0.  0.
         12    1    1    2    0    0 -0.41162368698E+02  0.11553938322E+02 -0.14187295524E+02  0.45045681723E+02  0.00000000000E+00 0. -1.
         11    1    3    3    0    0  0.22861717242E+02 -0.33196524139E+01  0.70020540982E+01  0.24139324126E+02  0.51100000000E-03 0. -1.
        -11    1    3    3    0    0  0.13283684875E+02 -0.43480886535E+01  0.27095477690E+01  0.14237408759E+02  0.51100000000E-03 0.  1.
         12    1    3    3    0    0  0.50169665811E+01 -0.38861972549E+01  0.44756936566E+01  0.77655853924E+01  0.00000000000E+00 0. -1.
</event>
<event>
 7    1  0.2227287E-008  0.4614232E+02  0.7816164E-02  0.1320468E+00
        -11   -1    0    0    0    0  0.00000000000E+00  0.00000000000E+00  0.45593999997E+02  0.45594000000E+02  0.51100000000E-03 0.  1.
         11   -1    0    0    0    0 -0.00000000000E+00 -0.00000000000E+00 -0.45593999997E+02  0.45594000000E+02  0.51100000000E-03 0. -1.
    9900012    2    1    2    0    0 -0.27503522908E+02  0.30783151445E+01  0.35541436255E+02  0.46142317770E+02  0.10000000081E+02 0.  0.
         12    1    1    2    0    0  0.27503522908E+02 -0.30783151445E+01 -0.35541436255E+02  0.45045682230E+02  0.00000000000E+00 0. -1.
         11    1    3    3    0    0  0.45837015554E-01 -0.69062581012E+00  0.61031757609E+00  0.92279621066E+00  0.51100000000E-03 0. -1.
        -11    1    3    3    0    0 -0.13501103128E+01 -0.17124013068E+00  0.52966945040E+01  0.54687378771E+01  0.51100000000E-03 0.  1.
        -12    1    3    3    0    0 -0.26199249611E+02  0.39401810853E+01  0.29634424175E+02  0.39750783682E+02  0.00000000000E+00 0.  1.
</event>
<event>
 7    1  0.2227287E-008  0.4614232E+02  0.7816164E-02  0.1320468E+00
        -11   -1    0    0    0    0  0.00000000000E+00  0.00000000000E+00  0.45593999997E+02  0.45594000000E+02  0.51100000000E-03 0. -1.
         11   -1    0    0    0    0 -0.00000000000E+00 -0.00000000000E+00 -0.45593999997E+02  0.45594000000E+02  0.51100000000E-03 0.  1.
    9900012    2    1    2    0    0 -0.66085682229E+01  0.28552254975E+02 -0.34208318787E+02  0.46142317495E+02  0.99999975703E+01 0.  0.
         12    1    1    2    0    0  0.66085682229E+01 -0.28552254975E+02  0.34208318787E+02  0.45045682505E+02  0.00000000000E+00 0. -1.
         11    1    3    3    0    0 -0.66225067605E+00  0.92171204254E+01 -0.16013563447E+02  0.18488593765E+02  0.51100000000E-03 0. -1.
        -11    1    3    3    0    0 -0.46786942476E+01  0.12667906173E+02 -0.14901542885E+02  0.20110246326E+02  0.51100000000E-03 0.  1.
         12    1    3    3    0    0 -0.12676232993E+01  0.66672283772E+01 -0.32932124549E+01  0.75434774034E+01  0.00000000000E+00 0. -1.
</event>
<event>
 7    1  0.2227287E-008  0.4614232E+02  0.7816164E-02  0.1320468E+00
        -11   -1    0    0    0    0  0.00000000000E+00  0.00000000000E+00  0.45593999997E+02  0.45594000000E+02  0.51100000000E-03 0.  1.
         11   -1    0    0    0    0 -0.00000000000E+00 -0.00000000000E+00 -0.45593999997E+02  0.45594000000E+02  0.51100000000E-03 0. -1.
    9900012    2    1    2    0    0  0.19745331593E+01  0.58313700264E+01  0.44622974557E+02  0.46142317455E+02  0.99999972107E+01 0.  0.
         12    1    1    2    0    0 -0.19745331593E+01 -0.58313700264E+01 -0.44622974557E+02  0.45045682545E+02  0.00000000000E+00 0. -1.
         11    1    3    3    0    0 -0.31245227313E+01  0.16001260804E+01  0.99476399813E+01  0.10548866633E+02  0.51100000000E-03 0. -1.
        -11    1    3    3    0    0  0.35168652848E+01  0.26862925329E+01  0.30922290040E+02  0.31237357932E+02  0.51100000000E-03 0.  1.
        -12    1    3    3    0    0  0.15821906058E+01  0.15449514132E+01  0.37530445360E+01  0.43560928906E+01  0.00000000000E+00 0.  1.
</event>
<event>
 7    1  0.2227287E-008  0.4614232E+02  0.7816164E-02  0.1320468E+00
        -11   -1    0    0    0    0  0.00000000000E+00  0.00000000000E+00  0.45593999997E+02  0.45594000000E+02  0.51100000000E-03 0.  1.
         11   -1    0    0    0    0 -0.00000000000E+00 -0.00000000000E+00 -0.45593999997E+02  0.45594000000E+02  0.51100000000E-03 0. -1.
    9900012    2    1    2    0    0 -0.58914656036E+01  0.23524978524E+02  0.37960236220E+02  0.46142317461E+02  0.99999972610E+01 0.  0.
         12    1    1    2    0    0  0.58914656036E+01 -0.23524978524E+02 -0.37960236220E+02  0.45045682539E+02  0.00000000000E+00 0. -1.
         11    1    3    3    0    0 -0.31868658643E+01  0.38841646499E+01  0.13509292772E+02  0.14413321634E+02  0.51100000000E-03 0. -1.
        -11    1    3    3    0    0 -0.23099671417E+01  0.18961879107E+02  0.21901722152E+02  0.29061559506E+02  0.51100000000E-03 0.  1.
        -12    1    3    3    0    0 -0.39463259767E+00  0.67893476757E+00  0.25492212962E+01  0.26674363203E+01  0.00000000000E+00 0.  1.
</event>
<event>
 7    1  0.2227287E-008  0.4614232E+02  0.7816164E-02  0.1320468E+00
        -11   -1    0    0    0    0  0.00000000000E+00  0.00000000000E+00  0.45593999997E+02  0.45594000000E+02  0.51100000000E-03 0.  1.
         11   -1    0    0    0    0 -0.00000000000E+00 -0.00000000000E+00 -0.45593999997E+02  0.45594000000E+02  0.51100000000E-03 0. -1.
    9900012    2    1    2    0    0 -0.12515201988E+02  0.43093777473E+02  0.39254961294E+01  0.46142318104E+02  0.10000003122E+02 0.  0.
         12    1    1    2    0    0  0.12515201988E+02 -0.43093777473E+02 -0.39254961294E+01  0.45045681896E+02  0.00000000000E+00 0. -1.
         11    1    3    3    0    0 -0.76799032640E+01  0.16183720422E+02 -0.12667279771E+01  0.17958238245E+02  0.51100000000E-03 0. -1.
        -11    1    3    3    0    0 -0.49774926580E+01  0.20871556459E+02  0.26097589663E+01  0.21614998133E+02  0.51100000000E-03 0.  1.
        -12    1    3    3    0    0  0.14219393407E+00  0.60385005926E+01  0.25824651401E+01  0.65690817259E+01  0.00000000000E+00 0.  1.
</event>
<event>
 7    1  0.2227287E-008  0.4614232E+02  0.7816164E-02  0.1320468E+00
        -11   -1    0    0    0    0  0.00000000000E+00  0.00000000000E+00  0.45593999997E+02  0.45594000000E+02  0.51100000000E-03 0. -1.
         11   -1    0    0    0    0 -0.00000000000E+00 -0.00000000000E+00 -0.45593999997E+02  0.45594000000E+02  0.51100000000E-03 0.  1.
    9900012    2    1    2    0    0 -0.22393963118E+02 -0.35482817546E+02 -0.16388826823E+02  0.46142316858E+02  0.99999917622E+01 0.  0.
         12    1    1    2    0    0  0.22393963118E+02  0.35482817546E+02  0.16388826823E+02  0.45045683142E+02  0.00000000000E+00 0. -1.
         11    1    3    3    0    0 -0.23732152551E+01 -0.44599172652E+01 -0.45302607961E+01  0.67857406229E+01  0.51100000000E-03 0.  1.
        -11    1    3    3    0    0 -0.15870177331E+02 -0.27511649465E+02 -0.11907951755E+02  0.33919798055E+02  0.51100000000E-03 0. -1.
         12    1    3    3    0    0 -0.41505705321E+01 -0.35112508153E+01  0.49385727905E-01  0.54367781802E+01  0.00000000000E+00 0. -1.
</event>
<event>
 7    1  0.2227287E-008  0.4614232E+02  0.7816164E-02  0.1320468E+00
        -11   -1    0    0    0    0  0.00000000000E+00  0.00000000000E+00  0.45593999997E+02  0.45594000000E+02  0.51100000000E-03 0. -1.
         11   -1    0    0    0    0 -0.00000000000E+00 -0.00000000000E+00 -0.45593999997E+02  0.45594000000E+02  0.51100000000E-03 0.  1.
    9900012    2    1    2    0    0 -0.23883264807E+02  0.36270711851E+02 -0.11964054547E+02  0.46142317885E+02  0.10000001126E+02 0.  0.
         12    1    1    2    0    0  0.23883264807E+02 -0.36270711851E+02  0.11964054547E+02  0.45045682115E+02  0.00000000000E+00 0. -1.
         11    1    3    3    0    0 -0.59824786512E+01  0.55854704116E+01 -0.18449424674E+01  0.83899549165E+01  0.51100000000E-03 0. -1.
        -11    1    3    3    0    0 -0.14216321461E+01  0.64773938834E+01 -0.42759747982E+01  0.78906039196E+01  0.51100000000E-03 0.  1.
        -12    1    3    3    0    0 -0.16479154010E+02  0.24207847556E+02 -0.58431372814E+01  0.29861759049E+02  0.00000000000E+00 0.  1.
</event>
<event>
 7    1  0.2227287E-008  0.4614232E+02  0.7816164E-02  0.1320468E+00
        -11   -1    0    0    0    0  0.00000000000E+00  0.00000000000E+00  0.45593999997E+02  0.45594000000E+02  0.51100000000E-03 0.  1.
         11   -1    0    0    0    0 -0.00000000000E+00 -0.00000000000E+00 -0.45593999997E+02  0.45594000000E+02  0.51100000000E-03 0. -1.
    9900012    2    1    2    0    0 -0.12985142957E+02  0.76643622625E+01  0.42447109910E+02  0.46142317340E+02  0.99999961638E+01 0.  0.
         12    1    1    2    0    0  0.12985142957E+02 -0.76643622625E+01 -0.42447109910E+02  0.45045682660E+02  0.00000000000E+00 0. -1.
         11    1    3    3    0    0 -0.33892311147E+01  0.32600803347E+01  0.68741022443E+01  0.83287630092E+01  0.51100000000E-03 0. -1.
        -11    1    3    3    0    0 -0.10049310469E+02  0.56120911943E+01  0.31260269079E+02  0.33311989308E+02  0.51100000000E-03 0.  1.
         12    1    3    3    0    0  0.45339862675E+00 -0.12078092666E+01  0.43127385872E+01  0.45015650235E+01  0.00000000000E+00 0. -1.
</event>
<event>
 7    1  0.2227287E-008  0.4614232E+02  0.7816164E-02  0.1320468E+00
        -11   -1    0    0    0    0  0.00000000000E+00  0.00000000000E+00  0.45593999997E+02  0.45594000000E+02  0.51100000000E-03 0. -1.
         11   -1    0    0    0    0 -0.00000000000E+00 -0.00000000000E+00 -0.45593999997E+02  0.45594000000E+02  0.51100000000E-03 0.  1.
    9900012    2    1    2    0    0  0.36401920959E+02  0.31862403930E+01 -0.26341251883E+02  0.46142317320E+02  0.99999959782E+01 0.  0.
         12    1    1    2    0    0 -0.36401920959E+02 -0.31862403930E+01  0.26341251883E+02  0.45045682680E+02  0.00000000000E+00 0. -1.
         11    1    3    3    0    0  0.18249883237E+01  0.52304377062E-01 -0.31807538182E+01  0.36674941366E+01  0.51100000000E-03 0. -1.
        -11    1    3    3    0    0  0.85310660172E+01  0.40810091778E+01 -0.74877174055E+01  0.12062322973E+02  0.51100000000E-03 0.  1.
         12    1    3    3    0    0  0.26045866618E+02 -0.94707316185E+00 -0.15672780660E+02  0.30412500210E+02  0.00000000000E+00 0. -1.
</event>
<event>
 7    1  0.2227287E-008  0.4614232E+02  0.7816164E-02  0.1320468E+00
        -11   -1    0    0    0    0  0.00000000000E+00  0.00000000000E+00  0.45593999997E+02  0.45594000000E+02  0.51100000000E-03 0. -1.
         11   -1    0    0    0    0 -0.00000000000E+00 -0.00000000000E+00 -0.45593999997E+02  0.45594000000E+02  0.51100000000E-03 0.  1.
    9900012    2    1    2    0    0  0.37523964000E+01 -0.44387035855E+02  0.66950764604E+01  0.46142317859E+02  0.10000000896E+02 0.  0.
         12    1    1    2    0    0 -0.37523964000E+01  0.44387035855E+02 -0.66950764604E+01  0.45045682141E+02  0.00000000000E+00 0. -1.
         11    1    3    3    0    0  0.19694686928E+01 -0.83066243599E+01 -0.87909623784E+00  0.85820525310E+01  0.51100000000E-03 0. -1.
        -11    1    3    3    0    0  0.52897475227E+00 -0.34870222820E+02  0.79696241456E+01  0.35773274425E+02  0.51100000000E-03 0.  1.
        -12    1    3    3    0    0  0.12539529550E+01 -0.12101886752E+01 -0.39545144739E+00  0.17869909038E+01  0.00000000000E+00 0.  1.
</event>
<event>
 7    1  0.2227287E-008  0.4614232E+02  0.7816164E-02  0.1320468E+00
        -11   -1    0    0    0    0  0.00000000000E+00  0.00000000000E+00  0.45593999997E+02  0.45594000000E+02  0.51100000000E-03 0. -1.
         11   -1    0    0    0    0 -0.00000000000E+00 -0.00000000000E+00 -0.45593999997E+02  0.45594000000E+02  0.51100000000E-03 0.  1.
    9900012    2    1    2    0    0  0.53423264768E+01  0.17904137365E+02 -0.40987984017E+02  0.46142318512E+02  0.10000006847E+02 0.  0.
         12    1    1    2    0    0 -0.53423264768E+01 -0.17904137365E+02  0.40987984017E+02  0.45045681488E+02  0.00000000000E+00 0. -1.
         11    1    3    3    0    0  0.85421037310E+00  0.25275040051E+01 -0.13858837627E+02  0.14113303387E+02  0.51100000000E-03 0. -1.
        -11    1    3    3    0    0  0.14521053924E+00  0.10030981044E+02 -0.17808014350E+02  0.20439350336E+02  0.51100000000E-03 0.  1.
         12    1    3    3    0    0  0.43429055644E+01  0.53456523156E+01 -0.93211320393E+01  0.11589664789E+02  0.00000000000E+00 0. -1.
</event>
<event>
 7    1  0.2227287E-008  0.4614232E+02  0.7816164E-02  0.1320468E+00
        -11   -1    0    0    0    0  0.00000000000E+00  0.00000000000E+00  0.45593999997E+02  0.45594000000E+02  0.51100000000E-03 0.  1.
         11   -1    0    0    0    0 -0.00000000000E+00 -0.00000000000E+00 -0.45593999997E+02  0.45594000000E+02  0.51100000000E-03 0. -1.
    9900012    2    1    2    0    0 -0.31285688084E+02 -0.29654226941E+02  0.13074639253E+02  0.46142316012E+02  0.99999840459E+01 0.  0.
         12    1    1    2    0    0  0.31285688084E+02  0.29654226941E+02 -0.13074639253E+02  0.45045683988E+02  0.00000000000E+00 0. -1.
         11    1    3    3    0    0 -0.20589680379E+02 -0.21370163486E+02  0.82655234330E+01  0.30804832468E+02  0.51100000000E-03 0. -1.
        -11    1    3    3    0    0 -0.55950772435E+01 -0.71711208668E+01  0.16763740425E+01  0.92487887877E+01  0.51100000000E-03 0.  1.
         12    1    3    3    0    0 -0.51009304618E+01 -0.11129425889E+01  0.31327417779E+01  0.60886947558E+01  0.00000000000E+00 0. -1.
</event>
<event>
 7    1  0.2227588E-008  0.4614232E+02  0.7816164E-02  0.1320468E+00
        -11   -1    0    0    0    0  0.00000000000E+00  0.00000000000E+00  0.45593999997E+02  0.45594000000E+02  0.51100000000E-03 0. -1.
         11   -1    0    0    0    0 -0.00000000000E+00 -0.00000000000E+00 -0.45593999997E+02  0.45594000000E+02  0.51100000000E-03 0.  1.
    9900012    2    1    2    0    0 -0.95837736999E+00 -0.59462462875E+01 -0.44641204351E+02  0.46142318098E+02  0.10000003069E+02 0.  0.
         12    1    1    2    0    0  0.95837736999E+00  0.59462462875E+01  0.44641204351E+02  0.45045681902E+02  0.00000000000E+00 0. -1.
         11    1    3    3    0    0 -0.24190956094E+01 -0.11807164235E+00 -0.52909103178E+01  0.58189085516E+01  0.51100000000E-03 0. -1.
        -11    1    3    3    0    0 -0.18217300892E+01 -0.51357850640E+01 -0.24680894793E+02  0.25275315167E+02  0.51100000000E-03 0.  1.
         12    1    3    3    0    0  0.32824483286E+01 -0.69238958118E+00 -0.14669399241E+02  0.15048094379E+02  0.00000000000E+00 0. -1.
</event>
<event>
 7    1  0.2227287E-008  0.4614232E+02  0.7816164E-02  0.1320468E+00
        -11   -1    0    0    0    0  0.00000000000E+00  0.00000000000E+00  0.45593999997E+02  0.45594000000E+02  0.51100000000E-03 0. -1.
         11   -1    0    0    0    0 -0.00000000000E+00 -0.00000000000E+00 -0.45593999997E+02  0.45594000000E+02  0.51100000000E-03 0.  1.
    9900012    2    1    2    0    0 -0.21690632383E+01  0.35999473538E+02 -0.26989748789E+02  0.46142317965E+02  0.10000001859E+02 0.  0.
         12    1    1    2    0    0  0.21690632383E+01 -0.35999473538E+02  0.26989748789E+02  0.45045682035E+02  0.00000000000E+00 0. -1.
         11    1    3    3    0    0 -0.10375329982E+01  0.52970832015E+01 -0.51852122356E+01  0.74847839886E+01  0.51100000000E-03 0. -1.
        -11    1    3    3    0    0 -0.39630619849E+01  0.23829535406E+02 -0.18920021030E+02  0.30684194857E+02  0.51100000000E-03 0.  1.
         12    1    3    3    0    0  0.28315317448E+01  0.68728549299E+01 -0.28845155226E+01  0.79733391192E+01  0.00000000000E+00 0. -1.
</event>
<event>
 7    1  0.2227287E-008  0.4614232E+02  0.7816164E-02  0.1320468E+00
        -11   -1    0    0    0    0  0.00000000000E+00  0.00000000000E+00  0.45593999997E+02  0.45594000000E+02  0.51100000000E-03 0.  1.
         11   -1    0    0    0    0 -0.00000000000E+00 -0.00000000000E+00 -0.45593999997E+02  0.45594000000E+02  0.51100000000E-03 0. -1.
    9900012    2    1    2    0    0 -0.20559552946E+02  0.30229170529E+02  0.26317592671E+02  0.46142315943E+02  0.99999834211E+01 0.  0.
         12    1    1    2    0    0  0.20559552946E+02 -0.30229170529E+02 -0.26317592671E+02  0.45045684057E+02  0.00000000000E+00 0. -1.
         11    1    3    3    0    0 -0.29052156728E+01  0.16245367120E+00  0.16776813573E+01  0.33587623164E+01  0.51100000000E-03 0. -1.
        -11    1    3    3    0    0 -0.74043502872E+00  0.24355000860E+01  0.13289585702E+01  0.28715911692E+01  0.51100000000E-03 0.  1.
         12    1    3    3    0    0 -0.16913902244E+02  0.27631216772E+02  0.23310952743E+02  0.39911962457E+02  0.00000000000E+00 0. -1.
</event>
<event>
 7    1  0.2227287E-008  0.4614232E+02  0.7816164E-02  0.1320468E+00
        -11   -1    0    0    0    0  0.00000000000E+00  0.00000000000E+00  0.45593999997E+02  0.45594000000E+02  0.51100000000E-03 0.  1.
         11   -1    0    0    0    0 -0.00000000000E+00 -0.00000000000E+00 -0.45593999997E+02  0.45594000000E+02  0.51100000000E-03 0. -1.
    9900012    2    1    2    0    0  0.37965461175E+02  0.15982392879E+02  0.18229097138E+02  0.46142321996E+02  0.10000038620E+02 0.  0.
         12    1    1    2    0    0 -0.37965461175E+02 -0.15982392879E+02 -0.18229097138E+02  0.45045678004E+02  0.00000000000E+00 0. -1.
         11    1    3    3    0    0  0.41083549342E+01  0.41180725600E+01  0.15668408685E+01  0.60242918623E+01  0.51100000000E-03 0. -1.
        -11    1    3    3    0    0  0.23408611070E+01  0.74941530827E+00 -0.56243220940E+00  0.25214250490E+01  0.51100000000E-03 0.  1.
         12    1    3    3    0    0  0.31516245133E+02  0.11114905011E+02  0.17224688479E+02  0.37596605085E+02  0.00000000000E+00 0. -1.
</event>
<event>
 7    1  0.2227287E-008  0.4614232E+02  0.7816164E-02  0.1320468E+00
        -11   -1    0    0    0    0  0.00000000000E+00  0.00000000000E+00  0.45593999997E+02  0.45594000000E+02  0.51100000000E-03 0.  1.
         11   -1    0    0    0    0 -0.00000000000E+00 -0.00000000000E+00 -0.45593999997E+02  0.45594000000E+02  0.51100000000E-03 0. -1.
    9900012    2    1    2    0    0  0.23065274509E+02  0.16226703136E+02  0.35125492348E+02  0.46142323232E+02  0.10000049887E+02 0.  0.
         12    1    1    2    0    0 -0.23065274509E+02 -0.16226703136E+02 -0.35125492348E+02  0.45045676768E+02  0.00000000000E+00 0. -1.
         11    1    3    3    0    0  0.11374944636E+01 -0.42646150896E+00  0.94011663440E+00  0.15360932982E+01  0.51100000000E-03 0. -1.
        -11    1    3    3    0    0  0.17457987245E+01  0.49675017540E+01  0.75413239936E+01  0.91975787411E+01  0.51100000000E-03 0.  1.
        -12    1    3    3    0    0  0.20181981321E+02  0.11685662891E+02  0.26644051720E+02  0.35408651193E+02  0.00000000000E+00 0.  1.
</event>
<event>
 7    1  0.2227287E-008  0.4614232E+02  0.7816164E-02  0.1320468E+00
        -11   -1    0    0    0    0  0.00000000000E+00  0.00000000000E+00  0.45593999997E+02  0.45594000000E+02  0.51100000000E-03 0. -1.
         11   -1    0    0    0    0 -0.00000000000E+00 -0.00000000000E+00 -0.45593999997E+02  0.45594000000E+02  0.51100000000E-03 0.  1.
    9900012    2    1    2    0    0 -0.38306814428E+02  0.22172780079E+02  0.83707423587E+01  0.46142317236E+02  0.99999952113E+01 0.  0.
         12    1    1    2    0    0  0.38306814428E+02 -0.22172780079E+02 -0.83707423587E+01  0.45045682764E+02  0.00000000000E+00 0. -1.
         11    1    3    3    0    0 -0.11614502227E+02  0.10258926732E+02  0.22005213657E+01  0.15651981799E+02  0.51100000000E-03 0. -1.
        -11    1    3    3    0    0 -0.33546404444E+01 -0.49040215202E+00  0.20728956708E+00  0.33966271517E+01  0.51100000000E-03 0.  1.
        -12    1    3    3    0    0 -0.23337671756E+02  0.12404255499E+02  0.59629314259E+01  0.27093708286E+02  0.00000000000E+00 0.  1.
</event>
<event>
 7    1  0.2227287E-008  0.4614232E+02  0.7816164E-02  0.1320468E+00
        -11   -1    0    0    0    0  0.00000000000E+00  0.00000000000E+00  0.45593999997E+02  0.45594000000E+02  0.51100000000E-03 0. -1.
         11   -1    0    0    0    0 -0.00000000000E+00 -0.00000000000E+00 -0.45593999997E+02  0.45594000000E+02  0.51100000000E-03 0.  1.
    9900012    2    1    2    0    0 -0.15285670498E+02  0.40035702853E+02  0.13878192033E+02  0.46142318303E+02  0.10000004937E+02 0.  0.
         12    1    1    2    0    0  0.15285670498E+02 -0.40035702853E+02 -0.13878192033E+02  0.45045681697E+02  0.00000000000E+00 0. -1.
         11    1    3    3    0    0 -0.70537594123E+01  0.87484466787E+01  0.52905003730E+01  0.12420959528E+02  0.51100000000E-03 0.  1.
        -11    1    3    3    0    0 -0.21524798093E+01  0.14520548843E+02  0.51626628184E+01  0.15560610389E+02  0.51100000000E-03 0. -1.
        -12    1    3    3    0    0 -0.60794312762E+01  0.16766707331E+02  0.34250288412E+01  0.18160748386E+02  0.00000000000E+00 0.  1.
</event>
<event>
 7    1  0.2227287E-008  0.4614232E+02  0.7816164E-02  0.1320468E+00
        -11   -1    0    0    0    0  0.00000000000E+00  0.00000000000E+00  0.45593999997E+02  0.45594000000E+02  0.51100000000E-03 0.  1.
         11   -1    0    0    0    0 -0.00000000000E+00 -0.00000000000E+00 -0.45593999997E+02  0.45594000000E+02  0.51100000000E-03 0. -1.
    9900012    2    1    2    0    0  0.13758214621E+02  0.19102975993E+02  0.38404444420E+02  0.46142317492E+02  0.99999975505E+01 0.  0.
         12    1    1    2    0    0 -0.13758214621E+02 -0.19102975993E+02 -0.38404444420E+02  0.45045682508E+02  0.00000000000E+00 0. -1.
         11    1    3    3    0    0 -0.66720386394E+00  0.65103068215E+00  0.62198919031E+00  0.11206572889E+01  0.51100000000E-03 0. -1.
        -11    1    3    3    0    0  0.19076560266E+01  0.24724620372E-01  0.53115945247E+01  0.56438284417E+01  0.51100000000E-03 0.  1.
        -12    1    3    3    0    0  0.12517762458E+02  0.18427220691E+02  0.32470860705E+02  0.39377831762E+02  0.00000000000E+00 0.  1.
</event>
<event>
 7    1  0.2227287E-008  0.4614232E+02  0.7816164E-02  0.1320468E+00
        -11   -1    0    0    0    0  0.00000000000E+00  0.00000000000E+00  0.45593999997E+02  0.45594000000E+02  0.51100000000E-03 0. -1.
         11   -1    0    0    0    0 -0.00000000000E+00 -0.00000000000E+00 -0.45593999997E+02  0.45594000000E+02  0.51100000000E-03 0.  1.
    9900012    2    1    2    0    0  0.11980692663E+02 -0.37282817671E+02 -0.22261356495E+02  0.46142317819E+02  0.10000000525E+02 0.  0.
         12    1    1    2    0    0 -0.11980692663E+02  0.37282817671E+02  0.22261356495E+02  0.45045682181E+02  0.00000000000E+00 0. -1.
         11    1    3    3    0    0 -0.12937099935E+01 -0.44351137723E+01 -0.25984785896E+01  0.53005670416E+01  0.51100000000E-03 0. -1.
        -11    1    3    3    0    0  0.79643829555E+01 -0.14559765919E+02 -0.72504224167E+01  0.18110405986E+02  0.51100000000E-03 0.  1.
        -12    1    3    3    0    0  0.53100197012E+01 -0.18287937979E+02 -0.12412455488E+02  0.22731344791E+02  0.00000000000E+00 0.  1.
</event>
<event>
 7    1  0.2227287E-008  0.4614232E+02  0.7816164E-02  0.1320468E+00
        -11   -1    0    0    0    0  0.00000000000E+00  0.00000000000E+00  0.45593999997E+02  0.45594000000E+02  0.51100000000E-03 0.  1.
         11   -1    0    0    0    0 -0.00000000000E+00 -0.00000000000E+00 -0.45593999997E+02  0.45594000000E+02  0.51100000000E-03 0. -1.
    9900012    2    1    2    0    0 -0.43994020089E+02  0.15003528077E+01  0.95597414782E+01  0.46142317418E+02  0.99999968693E+01 0.  0.
         12    1    1    2    0    0  0.43994020089E+02 -0.15003528077E+01 -0.95597414782E+01  0.45045682582E+02  0.00000000000E+00 0. -1.
         11    1    3    3    0    0 -0.13036591754E+02 -0.40460101414E+00  0.46571848871E+01  0.13849397022E+02  0.51100000000E-03 0. -1.
        -11    1    3    3    0    0 -0.56492126191E+01  0.28460378245E+01  0.26798228475E+01  0.68698606441E+01  0.51100000000E-03 0.  1.
        -12    1    3    3    0    0 -0.25308215716E+02 -0.94108400267E+00  0.22227337436E+01  0.25423059751E+02  0.00000000000E+00 0.  1.
</event>
<event>
 7    1  0.2227287E-008  0.4614232E+02  0.7816164E-02  0.1320468E+00
        -11   -1    0    0    0    0  0.00000000000E+00  0.00000000000E+00  0.45593999997E+02  0.45594000000E+02  0.51100000000E-03 0. -1.
         11   -1    0    0    0    0 -0.00000000000E+00 -0.00000000000E+00 -0.45593999997E+02  0.45594000000E+02  0.51100000000E-03 0.  1.
    9900012    2    1    2    0    0 -0.88248484916E+00 -0.28109724332E+01 -0.44949229215E+02  0.46142317049E+02  0.99999935070E+01 0.  0.
         12    1    1    2    0    0  0.88248484916E+00  0.28109724332E+01  0.44949229215E+02  0.45045682951E+02  0.00000000000E+00 0. -1.
         11    1    3    3    0    0  0.15518367163E+01 -0.29022985699E+01 -0.16873363237E+02  0.17191332740E+02  0.51100000000E-03 0. -1.
        -11    1    3    3    0    0 -0.31084353313E+01 -0.26687246521E+01 -0.13807014659E+02  0.14402017759E+02  0.51100000000E-03 0.  1.
         12    1    3    3    0    0  0.67411376579E+00  0.27600507887E+01 -0.14268851319E+02  0.14548966550E+02  0.00000000000E+00 0. -1.
</event>
<event>
 7    1  0.2227287E-008  0.4614231E+02  0.7816164E-02  0.1320468E+00
        -11   -1    0    0    0    0  0.00000000000E+00  0.00000000000E+00  0.45593999997E+02  0.45594000000E+02  0.51100000000E-03 0. -1.
         11   -1    0    0    0    0 -0.00000000000E+00 -0.00000000000E+00 -0.45593999997E+02  0.45594000000E+02  0.51100000000E-03 0.  1.
    9900012    2    1    2    0    0 -0.42380236782E+02  0.48737793970E+01 -0.14466362066E+02  0.46142314006E+02  0.99999657545E+01 0.  0.
         12    1    1    2    0    0  0.42380236782E+02 -0.48737793970E+01  0.14466362066E+02  0.45045685994E+02  0.00000000000E+00 0. -1.
         11    1    3    3    0    0 -0.20833443914E+02  0.14316986474E+00 -0.27174283103E+01  0.21010409320E+02  0.51100000000E-03 0. -1.
        -11    1    3    3    0    0 -0.81964457368E+01  0.26993037808E+01 -0.35311734842E+01  0.93240093336E+01  0.51100000000E-03 0.  1.
         12    1    3    3    0    0 -0.13350347131E+02  0.20313057514E+01 -0.82177602714E+01  0.15807895352E+02  0.00000000000E+00 0. -1.
</event>
<event>
 7    1  0.2227287E-008  0.4614232E+02  0.7816164E-02  0.1320468E+00
        -11   -1    0    0    0    0  0.00000000000E+00  0.00000000000E+00  0.45593999997E+02  0.45594000000E+02  0.51100000000E-03 0. -1.
         11   -1    0    0    0    0 -0.00000000000E+00 -0.00000000000E+00 -0.45593999997E+02  0.45594000000E+02  0.51100000000E-03 0.  1.
    9900012    2    1    2    0    0  0.36081069676E+02 -0.13539028070E+02 -0.23323049800E+02  0.46142317388E+02  0.99999965976E+01 0.  0.
         12    1    1    2    0    0 -0.36081069676E+02  0.13539028070E+02  0.23323049800E+02  0.45045682612E+02  0.00000000000E+00 0. -1.
         11    1    3    3    0    0  0.19572627996E+02 -0.63551342048E+01 -0.13602438994E+02  0.24667830149E+02  0.51100000000E-03 0.  1.
        -11    1    3    3    0    0  0.12954338842E+02 -0.65612638689E+01 -0.46430069159E+01  0.15245412158E+02  0.51100000000E-03 0. -1.
         12    1    3    3    0    0  0.35541028376E+01 -0.62262999585E+00 -0.50776038902E+01  0.62290750805E+01  0.00000000000E+00 0. -1.
</event>
<event>
 7    1  0.2227287E-008  0.4614232E+02  0.7816164E-02  0.1320468E+00
        -11   -1    0    0    0    0  0.00000000000E+00  0.00000000000E+00  0.45593999997E+02  0.45594000000E+02  0.51100000000E-03 0. -1.
         11   -1    0    0    0    0 -0.00000000000E+00 -0.00000000000E+00 -0.45593999997E+02  0.45594000000E+02  0.51100000000E-03 0.  1.
    9900012    2    1    2    0    0 -0.83771268582E+00  0.45011597590E+02  0.15387697397E+01  0.46142317716E+02  0.99999995856E+01 0.  0.
         12    1    1    2    0    0  0.83771268582E+00 -0.45011597590E+02 -0.15387697397E+01  0.45045682284E+02  0.00000000000E+00 0. -1.
         11    1    3    3    0    0  0.99406520306E+00  0.16660051552E+02 -0.39797216936E+01  0.17157612549E+02  0.51100000000E-03 0. -1.
        -11    1    3    3    0    0 -0.44839238188E+00  0.10121952069E+02  0.12283332155E+01  0.10206065459E+02  0.51100000000E-03 0.  1.
         12    1    3    3    0    0 -0.13833855070E+01  0.18229593969E+02  0.42901582178E+01  0.18778639707E+02  0.00000000000E+00 0. -1.
</event>
<event>
 7    1  0.2227287E-008  0.4614232E+02  0.7816164E-02  0.1320468E+00
        -11   -1    0    0    0    0  0.00000000000E+00  0.00000000000E+00  0.45593999997E+02  0.45594000000E+02  0.51100000000E-03 0. -1.
         11   -1    0    0    0    0 -0.00000000000E+00 -0.00000000000E+00 -0.45593999997E+02  0.45594000000E+02  0.51100000000E-03 0.  1.
    9900012    2    1    2    0    0 -0.29942418152E+02 -0.32854225404E+02 -0.72914450918E+01  0.46142315376E+02  0.99999782551E+01 0.  0.
         12    1    1    2    0    0  0.29942418152E+02  0.32854225404E+02  0.72914450918E+01  0.45045684624E+02  0.00000000000E+00 0. -1.
         11    1    3    3    0    0 -0.11506394842E+02 -0.12652467076E+02 -0.33635384096E+01  0.17429728519E+02  0.51100000000E-03 0. -1.
        -11    1    3    3    0    0 -0.13748259151E+02 -0.19175367447E+02 -0.26264277835E+01  0.23740418480E+02  0.51100000000E-03 0.  1.
         12    1    3    3    0    0 -0.46877641591E+01 -0.10263908805E+01 -0.13014788986E+01  0.49721683775E+01  0.00000000000E+00 0. -1.
</event>
<event>
 7    1  0.2227287E-008  0.4614232E+02  0.7816164E-02  0.1320468E+00
        -11   -1    0    0    0    0  0.00000000000E+00  0.00000000000E+00  0.45593999997E+02  0.45594000000E+02  0.51100000000E-03 0.  1.
         11   -1    0    0    0    0 -0.00000000000E+00 -0.00000000000E+00 -0.45593999997E+02  0.45594000000E+02  0.51100000000E-03 0. -1.
    9900012    2    1    2    0    0 -0.12653077783E+02  0.85908147667E+01  0.42369931161E+02  0.46142317162E+02  0.99999945363E+01 0.  0.
         12    1    1    2    0    0  0.12653077783E+02 -0.85908147667E+01 -0.42369931161E+02  0.45045682838E+02  0.00000000000E+00 0. -1.
         11    1    3    3    0    0 -0.52576938679E+01  0.49460758027E+01  0.21670976818E+02  0.22841590294E+02  0.51100000000E-03 0. -1.
        -11    1    3    3    0    0 -0.40822251625E+01  0.49265133705E+01  0.17037135462E+02  0.18198875825E+02  0.51100000000E-03 0.  1.
        -12    1    3    3    0    0 -0.33131587526E+01 -0.12817744065E+01  0.36618188813E+01  0.51018510433E+01  0.00000000000E+00 0.  1.
</event>
<event>
 7    1  0.2227287E-008  0.4614232E+02  0.7816164E-02  0.1320468E+00
        -11   -1    0    0    0    0  0.00000000000E+00  0.00000000000E+00  0.45593999997E+02  0.45594000000E+02  0.51100000000E-03 0.  1.
         11   -1    0    0    0    0 -0.00000000000E+00 -0.00000000000E+00 -0.45593999997E+02  0.45594000000E+02  0.51100000000E-03 0. -1.
    9900012    2    1    2    0    0  0.34003347732E+02  0.57244873082E+01  0.28984755657E+02  0.46142317938E+02  0.10000001612E+02 0.  0.
         12    1    1    2    0    0 -0.34003347732E+02 -0.57244873082E+01 -0.28984755657E+02  0.45045682062E+02  0.00000000000E+00 0. -1.
         11    1    3    3    0    0 -0.49486905043E+00  0.62720025261E+00  0.16302176809E+00  0.81538450558E+00  0.51100000000E-03 0.  1.
        -11    1    3    3    0    0  0.69885470202E+00 -0.19336521722E+00  0.29435063824E+00  0.78257942800E+00  0.51100000000E-03 0. -1.
        -12    1    3    3    0    0  0.33799362081E+02  0.52906522728E+01  0.28527383250E+02  0.44544354004E+02  0.00000000000E+00 0.  1.
</event>
<event>
 7    1  0.2227287E-008  0.4614232E+02  0.7816164E-02  0.1320468E+00
        -11   -1    0    0    0    0  0.00000000000E+00  0.00000000000E+00  0.45593999997E+02  0.45594000000E+02  0.51100000000E-03 0. -1.
         11   -1    0    0    0    0 -0.00000000000E+00 -0.00000000000E+00 -0.45593999997E+02  0.45594000000E+02  0.51100000000E-03 0.  1.
    9900012    2    1    2    0    0  0.33695977924E+02  0.27775310845E+02 -0.11055617588E+02  0.46142317620E+02  0.99999987167E+01 0.  0.
         12    1    1    2    0    0 -0.33695977924E+02 -0.27775310845E+02  0.11055617588E+02  0.45045682380E+02  0.00000000000E+00 0. -1.
         11    1    3    3    0    0  0.17631462156E+01 -0.83977373016E-01 -0.15383066714E+01  0.23413936989E+01  0.51100000000E-03 0. -1.
        -11    1    3    3    0    0  0.26302322798E+02  0.19883267700E+02 -0.67894468190E+01  0.33663824907E+02  0.51100000000E-03 0.  1.
        -12    1    3    3    0    0  0.56305089105E+01  0.79760205181E+01 -0.27278640979E+01  0.10137099015E+02  0.00000000000E+00 0.  1.
</event>
<event>
 7    1  0.2227287E-008  0.4614232E+02  0.7816164E-02  0.1320468E+00
        -11   -1    0    0    0    0  0.00000000000E+00  0.00000000000E+00  0.45593999997E+02  0.45594000000E+02  0.51100000000E-03 0.  1.
         11   -1    0    0    0    0 -0.00000000000E+00 -0.00000000000E+00 -0.45593999997E+02  0.45594000000E+02  0.51100000000E-03 0. -1.
    9900012    2    1    2    0    0 -0.37505066012E+02 -0.20589550583E+02 -0.14090921579E+02  0.46142316070E+02  0.99999845788E+01 0.  0.
         12    1    1    2    0    0  0.37505066012E+02  0.20589550583E+02  0.14090921579E+02  0.45045683930E+02  0.00000000000E+00 0. -1.
         11    1    3    3    0    0 -0.19913767938E+02 -0.84027219024E+01 -0.82881451853E+01  0.23148590448E+02  0.51100000000E-03 0. -1.
        -11    1    3    3    0    0 -0.13914165178E+02 -0.11720295302E+02 -0.63030380376E+01  0.19253508858E+02  0.51100000000E-03 0.  1.
        -12    1    3    3    0    0 -0.36771328962E+01 -0.46653337768E+00  0.50026164375E+00  0.37402167639E+01  0.00000000000E+00 0.  1.
</event>
<event>
 7    1  0.2227287E-008  0.4614232E+02  0.7816164E-02  0.1320468E+00
        -11   -1    0    0    0    0  0.00000000000E+00  0.00000000000E+00  0.45593999997E+02  0.45594000000E+02  0.51100000000E-03 0.  1.
         11   -1    0    0    0    0 -0.00000000000E+00 -0.00000000000E+00 -0.45593999997E+02  0.45594000000E+02  0.51100000000E-03 0. -1.
    9900012    2    1    2    0    0  0.24291740973E+01 -0.23598524833E+02  0.38292585921E+02  0.46142318768E+02  0.10000009185E+02 0.  0.
         12    1    1    2    0    0 -0.24291740973E+01  0.23598524833E+02 -0.38292585921E+02  0.45045681232E+02  0.00000000000E+00 0. -1.
         11    1    3    3    0    0 -0.30041952667E+01 -0.65227621398E+01  0.92373076998E+01  0.11700404648E+02  0.51100000000E-03 0. -1.
        -11    1    3    3    0    0  0.63997027025E+00 -0.95209230196E+01  0.14610330295E+02  0.17450481044E+02  0.51100000000E-03 0.  1.
        -12    1    3    3    0    0  0.47933990938E+01 -0.75548396738E+01  0.14444947926E+02  0.16991433076E+02  0.00000000000E+00 0.  1.
</event>
<event>
 7    1  0.2227287E-008  0.4614231E+02  0.7816164E-02  0.1320468E+00
        -11   -1    0    0    0    0  0.00000000000E+00  0.00000000000E+00  0.45593999997E+02  0.45594000000E+02  0.51100000000E-03 0. -1.
         11   -1    0    0    0    0 -0.00000000000E+00 -0.00000000000E+00 -0.45593999997E+02  0.45594000000E+02  0.51100000000E-03 0.  1.
    9900012    2    1    2    0    0 -0.63594481468E+01 -0.44427912683E+02  0.38512860836E+01  0.46142307525E+02  0.99999066558E+01 0.  0.
         12    1    1    2    0    0  0.63594481468E+01  0.44427912683E+02 -0.38512860836E+01  0.45045692475E+02  0.00000000000E+00 0. -1.
         11    1    3    3    0    0 -0.19191370422E+01 -0.42973398585E+01  0.31475388993E+01  0.56619094155E+01  0.51100000000E-03 0. -1.
        -11    1    3    3    0    0 -0.14297900668E+01 -0.23268542250E+02 -0.40420011962E+00  0.23315933095E+02  0.51100000000E-03 0.  1.
         12    1    3    3    0    0 -0.30105210378E+01 -0.16862030574E+02  0.11079473040E+01  0.17164465014E+02  0.00000000000E+00 0. -1.
</event>
<event>
 7    1  0.2227287E-008  0.4614232E+02  0.7816164E-02  0.1320468E+00
        -11   -1    0    0    0    0  0.00000000000E+00  0.00000000000E+00  0.45593999997E+02  0.45594000000E+02  0.51100000000E-03 0. -1.
         11   -1    0    0    0    0 -0.00000000000E+00 -0.00000000000E+00 -0.45593999997E+02  0.45594000000E+02  0.51100000000E-03 0.  1.
    9900012    2    1    2    0    0  0.19380024683E+02  0.28496404289E+02 -0.29008327114E+02  0.46142318120E+02  0.10000003270E+02 0.  0.
         12    1    1    2    0    0 -0.19380024683E+02 -0.28496404289E+02  0.29008327114E+02  0.45045681880E+02  0.00000000000E+00 0. -1.
         11    1    3    3    0    0  0.50456422118E+01  0.38825045332E+01 -0.24540738182E+01  0.68231096536E+01  0.51100000000E-03 0. -1.
        -11    1    3    3    0    0  0.99686146722E+01  0.17710016247E+02 -0.15423488226E+02  0.25512779999E+02  0.51100000000E-03 0.  1.
        -12    1    3    3    0    0  0.43657677989E+01  0.69038835088E+01 -0.11130765070E+02  0.13806428467E+02  0.00000000000E+00 0.  1.
</event>
<event>
 7    1  0.2227287E-008  0.4614232E+02  0.7816164E-02  0.1320468E+00
        -11   -1    0    0    0    0  0.00000000000E+00  0.00000000000E+00  0.45593999997E+02  0.45594000000E+02  0.51100000000E-03 0. -1.
         11   -1    0    0    0    0 -0.00000000000E+00 -0.00000000000E+00 -0.45593999997E+02  0.45594000000E+02  0.51100000000E-03 0.  1.
    9900012    2    1    2    0    0 -0.39858386380E+02 -0.20858081485E+02 -0.23158204909E+01  0.46142317048E+02  0.99999935001E+01 0.  0.
         12    1    1    2    0    0  0.39858386380E+02  0.20858081485E+02  0.23158204909E+01  0.45045682952E+02  0.00000000000E+00 0. -1.
         11    1    3    3    0    0 -0.25080959768E+02 -0.13334844640E+02  0.81563469598E+00  0.28417211065E+02  0.51100000000E-03 0. -1.
        -11    1    3    3    0    0 -0.12969706605E+02 -0.83526110164E+01 -0.24337423403E+01  0.15617378213E+02  0.51100000000E-03 0.  1.
        -12    1    3    3    0    0 -0.18077200059E+01  0.82937417153E+00 -0.69771284661E+00  0.21077277700E+01  0.00000000000E+00 0.  1.
</event>
<event>
 7    1  0.2227287E-008  0.4614232E+02  0.7816164E-02  0.1320468E+00
        -11   -1    0    0    0    0  0.00000000000E+00  0.00000000000E+00  0.45593999997E+02  0.45594000000E+02  0.51100000000E-03 0.  1.
         11   -1    0    0    0    0 -0.00000000000E+00 -0.00000000000E+00 -0.45593999997E+02  0.45594000000E+02  0.51100000000E-03 0. -1.
    9900012    2    1    2    0    0  0.12199468145E+02 -0.17501241657E+02  0.39673581152E+02  0.46142317366E+02  0.99999963957E+01 0.  0.
         12    1    1    2    0    0 -0.12199468145E+02  0.17501241657E+02 -0.39673581152E+02  0.45045682634E+02  0.00000000000E+00 0. -1.
         11    1    3    3    0    0  0.64518419007E+01 -0.49247076761E+01  0.11567451771E+02  0.14130992546E+02  0.51100000000E-03 0. -1.
        -11    1    3    3    0    0  0.11678677026E+01  0.39579666914E+00  0.47248818269E+01  0.48831422787E+01  0.51100000000E-03 0.  1.
        -12    1    3    3    0    0  0.45797585420E+01 -0.12972330650E+02  0.23381247554E+02  0.27128182541E+02  0.00000000000E+00 0.  1.
</event>
<event>
 7    1  0.2227287E-008  0.4614232E+02  0.7816164E-02  0.1320468E+00
        -11   -1    0    0    0    0  0.00000000000E+00  0.00000000000E+00  0.45593999997E+02  0.45594000000E+02  0.51100000000E-03 0.  1.
         11   -1    0    0    0    0 -0.00000000000E+00 -0.00000000000E+00 -0.45593999997E+02  0.45594000000E+02  0.51100000000E-03 0. -1.
    9900012    2    1    2    0    0  0.99890771665E+01 -0.30988184667E+02  0.31129799644E+02  0.46142315662E+02  0.99999808600E+01 0.  0.
         12    1    1    2    0    0 -0.99890771665E+01  0.30988184667E+02 -0.31129799644E+02  0.45045684338E+02  0.00000000000E+00 0. -1.
         11    1    3    3    0    0 -0.89428263009E+00  0.14658342145E+00  0.81993398904E+00  0.12220966122E+01  0.51100000000E-03 0. -1.
        -11    1    3    3    0    0  0.10444852047E+01 -0.99426051283E+00  0.14897119685E+01  0.20733415831E+01  0.51100000000E-03 0.  1.
        -12    1    3    3    0    0  0.98388745919E+01 -0.30140507576E+02  0.28820153686E+02  0.42846877467E+02  0.00000000000E+00 0.  1.
</event>
<event>
 7    1  0.2227287E-008  0.4614232E+02  0.7816164E-02  0.1320468E+00
        -11   -1    0    0    0    0  0.00000000000E+00  0.00000000000E+00  0.45593999997E+02  0.45594000000E+02  0.51100000000E-03 0. -1.
         11   -1    0    0    0    0 -0.00000000000E+00 -0.00000000000E+00 -0.45593999997E+02  0.45594000000E+02  0.51100000000E-03 0.  1.
    9900012    2    1    2    0    0  0.78592522186E+01 -0.10564953203E+02 -0.43078155335E+02  0.46142317092E+02  0.99999938980E+01 0.  0.
         12    1    1    2    0    0 -0.78592522186E+01  0.10564953203E+02  0.43078155335E+02  0.45045682908E+02  0.00000000000E+00 0. -1.
         11    1    3    3    0    0  0.65495528261E+01 -0.41062417046E+01 -0.25499290947E+02  0.26645294186E+02  0.51100000000E-03 0. -1.
        -11    1    3    3    0    0  0.27743761313E+01 -0.18015879898E+01 -0.94791543928E+01  0.10039783387E+02  0.51100000000E-03 0.  1.
         12    1    3    3    0    0 -0.14646767388E+01 -0.46571235085E+01 -0.80997099945E+01  0.94572395189E+01  0.00000000000E+00 0. -1.
</event>
<event>
 7    1  0.2227287E-008  0.4614232E+02  0.7816164E-02  0.1320468E+00
        -11   -1    0    0    0    0  0.00000000000E+00  0.00000000000E+00  0.45593999997E+02  0.45594000000E+02  0.51100000000E-03 0.  1.
         11   -1    0    0    0    0 -0.00000000000E+00 -0.00000000000E+00 -0.45593999997E+02  0.45594000000E+02  0.51100000000E-03 0. -1.
    9900012    2    1    2    0    0 -0.32074488895E+02 -0.24441073784E+02  0.20074226770E+02  0.46142317565E+02  0.99999982113E+01 0.  0.
         12    1    1    2    0    0  0.32074488895E+02  0.24441073784E+02 -0.20074226770E+02  0.45045682435E+02  0.00000000000E+00 0. -1.
         11    1    3    3    0    0 -0.12756431131E+02 -0.10986172935E+02  0.42950418592E+01  0.17374404041E+02  0.51100000000E-03 0. -1.
        -11    1    3    3    0    0 -0.95661763329E+01 -0.94888678026E+01  0.79091135803E+01  0.15623841387E+02  0.51100000000E-03 0.  1.
        -12    1    3    3    0    0 -0.97518814318E+01 -0.39660330469E+01  0.78700713304E+01  0.13144072137E+02  0.00000000000E+00 0.  1.
</event>
<event>
 7    1  0.2227287E-008  0.4614232E+02  0.7816164E-02  0.1320468E+00
        -11   -1    0    0    0    0  0.00000000000E+00  0.00000000000E+00  0.45593999997E+02  0.45594000000E+02  0.51100000000E-03 0. -1.
         11   -1    0    0    0    0 -0.00000000000E+00 -0.00000000000E+00 -0.45593999997E+02  0.45594000000E+02  0.51100000000E-03 0.  1.
    9900012    2    1    2    0    0 -0.21256243102E+02  0.39539807149E+02  0.37268235508E+01  0.46142318365E+02  0.10000005505E+02 0.  0.
         12    1    1    2    0    0  0.21256243102E+02 -0.39539807149E+02 -0.37268235508E+01  0.45045681635E+02  0.00000000000E+00 0. -1.
         11    1    3    3    0    0 -0.10080894824E+01  0.57697583473E+01  0.14617599449E+00  0.58589865569E+01  0.51100000000E-03 0. -1.
        -11    1    3    3    0    0 -0.15148903618E+02  0.20198317864E+02  0.49221811041E+01  0.25723320012E+02  0.51100000000E-03 0.  1.
        -12    1    3    3    0    0 -0.50992500010E+01  0.13571730938E+02 -0.13415335478E+01  0.14560011796E+02  0.00000000000E+00 0.  1.
</event>
<event>
 7    1  0.2227287E-008  0.4614232E+02  0.7816164E-02  0.1320468E+00
        -11   -1    0    0    0    0  0.00000000000E+00  0.00000000000E+00  0.45593999997E+02  0.45594000000E+02  0.51100000000E-03 0.  1.
         11   -1    0    0    0    0 -0.00000000000E+00 -0.00000000000E+00 -0.45593999997E+02  0.45594000000E+02  0.51100000000E-03 0. -1.
    9900012    2    1    2    0    0  0.36180693964E+02 -0.85928728251E+01  0.25421120658E+02  0.46142318136E+02  0.10000003414E+02 0.  0.
         12    1    1    2    0    0 -0.36180693964E+02  0.85928728251E+01 -0.25421120658E+02  0.45045681864E+02  0.00000000000E+00 0. -1.
         11    1    3    3    0    0  0.27806936641E+02 -0.98779502706E+01  0.19214937461E+02  0.35213824683E+02  0.51100000000E-03 0.  1.
        -11    1    3    3    0    0  0.41826527171E+01  0.69630017417E-01  0.47470072781E+01  0.63272039994E+01  0.51100000000E-03 0. -1.
         12    1    3    3    0    0  0.41911046057E+01  0.12154474281E+01  0.14591759190E+01  0.46012894528E+01  0.00000000000E+00 0. -1.
</event>
<event>
 7    1  0.2227287E-008  0.4614232E+02  0.7816164E-02  0.1320468E+00
        -11   -1    0    0    0    0  0.00000000000E+00  0.00000000000E+00  0.45593999997E+02  0.45594000000E+02  0.51100000000E-03 0.  1.
         11   -1    0    0    0    0 -0.00000000000E+00 -0.00000000000E+00 -0.45593999997E+02  0.45594000000E+02  0.51100000000E-03 0. -1.
    9900012    2    1    2    0    0  0.15569194010E+01 -0.34188027045E+02  0.29289389004E+02  0.46142317638E+02  0.99999988733E+01 0.  0.
         12    1    1    2    0    0 -0.15569194010E+01  0.34188027045E+02 -0.29289389004E+02  0.45045682362E+02  0.00000000000E+00 0. -1.
         11    1    3    3    0    0  0.96031049704E+00 -0.10102362674E+01  0.14690611426E+01  0.20250714725E+01  0.51100000000E-03 0. -1.
        -11    1    3    3    0    0  0.30293123299E+01 -0.18045065576E+02  0.19242200559E+02  0.26553030099E+02  0.51100000000E-03 0.  1.
        -12    1    3    3    0    0 -0.24327034259E+01 -0.15132725202E+02  0.85781273022E+01  0.17564216066E+02  0.00000000000E+00 0.  1.
</event>
<event>
 7    1  0.2227287E-008  0.4614232E+02  0.7816164E-02  0.1320468E+00
        -11   -1    0    0    0    0  0.00000000000E+00  0.00000000000E+00  0.45593999997E+02  0.45594000000E+02  0.51100000000E-03 0.  1.
         11   -1    0    0    0    0 -0.00000000000E+00 -0.00000000000E+00 -0.45593999997E+02  0.45594000000E+02  0.51100000000E-03 0. -1.
    9900012    2    1    2    0    0  0.13885851998E+02 -0.23656952633E+02  0.35730173178E+02  0.46142316867E+02  0.99999918459E+01 0.  0.
         12    1    1    2    0    0 -0.13885851998E+02  0.23656952633E+02 -0.35730173178E+02  0.45045683133E+02  0.00000000000E+00 0. -1.
         11    1    3    3    0    0  0.77481527590E+01 -0.15756413213E+02  0.18617513241E+02  0.25591213884E+02  0.51100000000E-03 0.  1.
        -11    1    3    3    0    0  0.31863890985E+01 -0.35480949326E+01  0.33777634150E+01  0.58439147056E+01  0.51100000000E-03 0. -1.
        -12    1    3    3    0    0  0.29513101408E+01 -0.43524444881E+01  0.13734896521E+02  0.14707188277E+02  0.00000000000E+00 0.  1.
</event>
<event>
 7    1  0.2227287E-008  0.4614232E+02  0.7816164E-02  0.1320468E+00
        -11   -1    0    0    0    0  0.00000000000E+00  0.00000000000E+00  0.45593999997E+02  0.45594000000E+02  0.51100000000E-03 0.  1.
         11   -1    0    0    0    0 -0.00000000000E+00 -0.00000000000E+00 -0.45593999997E+02  0.45594000000E+02  0.51100000000E-03 0. -1.
    9900012    2    1    2    0    0  0.26618670125E+02  0.14102382264E+02  0.33491532464E+02  0.46142317282E+02  0.99999956296E+01 0.  0.
         12    1    1    2    0    0 -0.26618670125E+02 -0.14102382264E+02 -0.33491532464E+02  0.45045682718E+02  0.00000000000E+00 0. -1.
         11    1    3    3    0    0  0.17759815775E+02  0.88110456959E+01  0.15203643366E+02  0.24983921919E+02  0.51100000000E-03 0. -1.
        -11    1    3    3    0    0  0.27669560830E+01  0.31054465026E+01  0.67221835841E+01  0.79049096355E+01  0.51100000000E-03 0.  1.
         12    1    3    3    0    0  0.60918982670E+01  0.21858900659E+01  0.11565705514E+02  0.13253485727E+02  0.00000000000E+00 0. -1.
</event>
<event>
 7    1  0.2227287E-008  0.4614232E+02  0.7816164E-02  0.1320468E+00
        -11   -1    0    0    0    0  0.00000000000E+00  0.00000000000E+00  0.45593999997E+02  0.45594000000E+02  0.51100000000E-03 0.  1.
         11   -1    0    0    0    0 -0.00000000000E+00 -0.00000000000E+00 -0.45593999997E+02  0.45594000000E+02  0.51100000000E-03 0. -1.
    9900012    2    1    2    0    0  0.69660223582E+01  0.44432897366E+02 -0.25111143848E+01  0.46142317284E+02  0.99999956525E+01 0.  0.
         12    1    1    2    0    0 -0.69660223582E+01 -0.44432897366E+02  0.25111143848E+01  0.45045682716E+02  0.00000000000E+00 0. -1.
         11    1    3    3    0    0  0.30629409040E+01  0.26245539291E+02 -0.10892143582E+01  0.26446102319E+02  0.51100000000E-03 0. -1.
        -11    1    3    3    0    0  0.23199776822E+01  0.17785830358E+02 -0.17786558261E+01  0.18024474328E+02  0.51100000000E-03 0.  1.
         12    1    3    3    0    0  0.15831037720E+01  0.40152771681E+00  0.35675579955E+00  0.16717406380E+01  0.00000000000E+00 0. -1.
</event>
<event>
 7    1  0.2227287E-008  0.4614232E+02  0.7816164E-02  0.1320468E+00
        -11   -1    0    0    0    0  0.00000000000E+00  0.00000000000E+00  0.45593999997E+02  0.45594000000E+02  0.51100000000E-03 0.  1.
         11   -1    0    0    0    0 -0.00000000000E+00 -0.00000000000E+00 -0.45593999997E+02  0.45594000000E+02  0.51100000000E-03 0. -1.
    9900012    2    1    2    0    0 -0.31479501892E+02 -0.27162128808E+02  0.17331277423E+02  0.46142318099E+02  0.10000003083E+02 0.  0.
         12    1    1    2    0    0  0.31479501892E+02  0.27162128808E+02 -0.17331277423E+02  0.45045681901E+02  0.00000000000E+00 0. -1.
         11    1    3    3    0    0 -0.10329854067E+02 -0.10674757515E+02  0.87837303386E+01  0.17257179723E+02  0.51100000000E-03 0. -1.
        -11    1    3    3    0    0 -0.16278306481E+02 -0.15444816208E+02  0.82024579179E+01  0.23891545068E+02  0.51100000000E-03 0.  1.
         12    1    3    3    0    0 -0.48713413446E+01 -0.10425550855E+01  0.34508916676E+00  0.49935933090E+01  0.00000000000E+00 0. -1.
</event>
<event>
 7    1  0.2227287E-008  0.4614232E+02  0.7816164E-02  0.1320468E+00
        -11   -1    0    0    0    0  0.00000000000E+00  0.00000000000E+00  0.45593999997E+02  0.45594000000E+02  0.51100000000E-03 0.  1.
         11   -1    0    0    0    0 -0.00000000000E+00 -0.00000000000E+00 -0.45593999997E+02  0.45594000000E+02  0.51100000000E-03 0. -1.
    9900012    2    1    2    0    0  0.17481490450E+02 -0.37475377718E+02  0.17863564088E+02  0.46142319126E+02  0.10000012449E+02 0.  0.
         12    1    1    2    0    0 -0.17481490450E+02  0.37475377718E+02 -0.17863564088E+02  0.45045680874E+02  0.00000000000E+00 0. -1.
         11    1    3    3    0    0  0.61713111207E-01 -0.93767256809E+01  0.52448084191E+01  0.10744059224E+02  0.51100000000E-03 0. -1.
        -11    1    3    3    0    0  0.65711213095E+01 -0.11376090750E+02  0.48304520560E+01  0.13997440599E+02  0.51100000000E-03 0.  1.
         12    1    3    3    0    0  0.10848656029E+02 -0.16722561287E+02  0.77883036132E+01  0.21400819302E+02  0.00000000000E+00 0. -1.
</event>
<event>
 7    1  0.2227287E-008  0.4614232E+02  0.7816164E-02  0.1320468E+00
        -11   -1    0    0    0    0  0.00000000000E+00  0.00000000000E+00  0.45593999997E+02  0.45594000000E+02  0.51100000000E-03 0.  1.
         11   -1    0    0    0    0 -0.00000000000E+00 -0.00000000000E+00 -0.45593999997E+02  0.45594000000E+02  0.51100000000E-03 0. -1.
    9900012    2    1    2    0    0  0.39567531080E+02 -0.30426820161E+01  0.21313517542E+02  0.46142318080E+02  0.10000002907E+02 0.  0.
         12    1    1    2    0    0 -0.39567531080E+02  0.30426820161E+01 -0.21313517542E+02  0.45045681920E+02  0.00000000000E+00 0. -1.
         11    1    3    3    0    0  0.38423432256E+01 -0.14954752297E+01  0.41630136540E+01  0.58592431739E+01  0.51100000000E-03 0. -1.
        -11    1    3    3    0    0  0.11932554205E+01 -0.12282120256E+01 -0.28591395035E-01  0.17126532070E+01  0.51100000000E-03 0.  1.
        -12    1    3    3    0    0  0.34531932434E+02 -0.31899476074E+00  0.17179095283E+02  0.38570421699E+02  0.00000000000E+00 0.  1.
</event>
<event>
 7    1  0.2227287E-008  0.4614232E+02  0.7816164E-02  0.1320468E+00
        -11   -1    0    0    0    0  0.00000000000E+00  0.00000000000E+00  0.45593999997E+02  0.45594000000E+02  0.51100000000E-03 0.  1.
         11   -1    0    0    0    0 -0.00000000000E+00 -0.00000000000E+00 -0.45593999997E+02  0.45594000000E+02  0.51100000000E-03 0. -1.
    9900012    2    1    2    0    0 -0.85458362667E+01 -0.27978648331E+02  0.34253129932E+02  0.46142323292E+02  0.10000050439E+02 0.  0.
         12    1    1    2    0    0  0.85458362667E+01  0.27978648331E+02 -0.34253129932E+02  0.45045676708E+02  0.00000000000E+00 0. -1.
         11    1    3    3    0    0 -0.88233541827E+01 -0.19167820488E+02  0.22450381647E+02  0.30810331995E+02  0.51100000000E-03 0. -1.
        -11    1    3    3    0    0 -0.26190819207E+00 -0.88685989132E+01  0.11831546669E+02  0.14788716625E+02  0.51100000000E-03 0.  1.
        -12    1    3    3    0    0  0.53942610809E+00  0.57771070647E-01 -0.28798383466E-01  0.54327467232E+00  0.00000000000E+00 0.  1.
</event>
<event>
 7    1  0.2227287E-008  0.4614232E+02  0.7816164E-02  0.1320468E+00
        -11   -1    0    0    0    0  0.00000000000E+00  0.00000000000E+00  0.45593999997E+02  0.45594000000E+02  0.51100000000E-03 0. -1.
         11   -1    0    0    0    0 -0.00000000000E+00 -0.00000000000E+00 -0.45593999997E+02  0.45594000000E+02  0.51100000000E-03 0.  1.
    9900012    2    1    2    0    0 -0.93624217001E+01 -0.43995128072E+02 -0.24263694697E+01  0.46142317599E+02  0.99999985239E+01 0.  0.
         12    1    1    2    0    0  0.93624217001E+01  0.43995128072E+02  0.24263694697E+01  0.45045682401E+02  0.00000000000E+00 0. -1.
         11    1    3    3    0    0 -0.14438792700E+01 -0.63109184301E+01  0.14892258657E+01  0.66430619986E+01  0.51100000000E-03 0. -1.
        -11    1    3    3    0    0 -0.32506988524E+00 -0.20490613268E+02 -0.26007862696E+01  0.20657565007E+02  0.51100000000E-03 0.  1.
         12    1    3    3    0    0 -0.75934725449E+01 -0.17193596374E+02 -0.13148090658E+01  0.18841690594E+02  0.00000000000E+00 0. -1.
</event>
<event>
 7    1  0.2227287E-008  0.4614232E+02  0.7816164E-02  0.1320468E+00
        -11   -1    0    0    0    0  0.00000000000E+00  0.00000000000E+00  0.45593999997E+02  0.45594000000E+02  0.51100000000E-03 0. -1.
         11   -1    0    0    0    0 -0.00000000000E+00 -0.00000000000E+00 -0.45593999997E+02  0.45594000000E+02  0.51100000000E-03 0.  1.
    9900012    2    1    2    0    0 -0.14844713286E+02  0.39266020391E+02  0.16337918526E+02  0.46142318169E+02  0.10000003716E+02 0.  0.
         12    1    1    2    0    0  0.14844713286E+02 -0.39266020391E+02 -0.16337918526E+02  0.45045681831E+02  0.00000000000E+00 0. -1.
         11    1    3    3    0    0 -0.24211477073E+01  0.14406190280E+01 -0.68349194039E-01  0.28181574260E+01  0.51100000000E-03 0. -1.
        -11    1    3    3    0    0 -0.28674013766E+01  0.16242009989E+02  0.66965088224E+01  0.17800789584E+02  0.51100000000E-03 0.  1.
        -12    1    3    3    0    0 -0.95561642021E+01  0.21583391374E+02  0.97097588978E+01  0.25523371159E+02  0.00000000000E+00 0.  1.
</event>
<event>
 7    1  0.2227287E-008  0.4614232E+02  0.7816164E-02  0.1320468E+00
        -11   -1    0    0    0    0  0.00000000000E+00  0.00000000000E+00  0.45593999997E+02  0.45594000000E+02  0.51100000000E-03 0.  1.
         11   -1    0    0    0    0 -0.00000000000E+00 -0.00000000000E+00 -0.45593999997E+02  0.45594000000E+02  0.51100000000E-03 0. -1.
    9900012    2    1    2    0    0  0.58228528921E+01 -0.93046756715E+01  0.43687880222E+02  0.46142317816E+02  0.10000000502E+02 0.  0.
         12    1    1    2    0    0 -0.58228528921E+01  0.93046756715E+01 -0.43687880222E+02  0.45045682184E+02  0.00000000000E+00 0. -1.
         11    1    3    3    0    0  0.48891875978E+00 -0.60183537698E+01  0.13249513114E+02  0.14560536448E+02  0.51100000000E-03 0. -1.
        -11    1    3    3    0    0 -0.11213468743E+01  0.73052115791E-01  0.33775715045E+01  0.35595989877E+01  0.51100000000E-03 0.  1.
         12    1    3    3    0    0  0.64552810066E+01 -0.33593740175E+01  0.27060795603E+02  0.28022182380E+02  0.00000000000E+00 0. -1.
</event>
<event>
 7    1  0.2227287E-008  0.4614232E+02  0.7816164E-02  0.1320468E+00
        -11   -1    0    0    0    0  0.00000000000E+00  0.00000000000E+00  0.45593999997E+02  0.45594000000E+02  0.51100000000E-03 0.  1.
         11   -1    0    0    0    0 -0.00000000000E+00 -0.00000000000E+00 -0.45593999997E+02  0.45594000000E+02  0.51100000000E-03 0. -1.
    9900012    2    1    2    0    0  0.35261505274E+02  0.19142106931E+02  0.20477292162E+02  0.46142317563E+02  0.99999981894E+01 0.  0.
         12    1    1    2    0    0 -0.35261505274E+02 -0.19142106931E+02 -0.20477292162E+02  0.45045682437E+02  0.00000000000E+00 0. -1.
         11    1    3    3    0    0  0.93335710846E+01  0.21381828454E+01  0.20353107631E+01  0.97892729676E+01  0.51100000000E-03 0. -1.
        -11    1    3    3    0    0  0.11891074130E+02  0.54810253071E+01  0.89628954351E+01  0.15867349407E+02  0.51100000000E-03 0.  1.
        -12    1    3    3    0    0  0.14036860060E+02  0.11522898779E+02  0.94790859642E+01  0.20485695188E+02  0.00000000000E+00 0.  1.
</event>
<event>
 7    1  0.2227287E-008  0.4614232E+02  0.7816164E-02  0.1320468E+00
        -11   -1    0    0    0    0  0.00000000000E+00  0.00000000000E+00  0.45593999997E+02  0.45594000000E+02  0.51100000000E-03 0.  1.
         11   -1    0    0    0    0 -0.00000000000E+00 -0.00000000000E+00 -0.45593999997E+02  0.45594000000E+02  0.51100000000E-03 0. -1.
    9900012    2    1    2    0    0  0.33041543679E+01  0.33664017172E+02  0.29747772238E+02  0.46142318283E+02  0.10000004756E+02 0.  0.
         12    1    1    2    0    0 -0.33041543679E+01 -0.33664017172E+02 -0.29747772238E+02  0.45045681717E+02  0.00000000000E+00 0. -1.
         11    1    3    3    0    0  0.19873071152E+01  0.22141538873E+01  0.34989302034E+01  0.45928618351E+01  0.51100000000E-03 0. -1.
        -11    1    3    3    0    0  0.25451428429E+01  0.14671164159E+02  0.15967188344E+02  0.21832817357E+02  0.51100000000E-03 0.  1.
         12    1    3    3    0    0 -0.12282955902E+01  0.16778699126E+02  0.10281653691E+02  0.19716639091E+02  0.00000000000E+00 0. -1.
</event>
<event>
 7    1  0.2227287E-008  0.4614232E+02  0.7816164E-02  0.1320468E+00
        -11   -1    0    0    0    0  0.00000000000E+00  0.00000000000E+00  0.45593999997E+02  0.45594000000E+02  0.51100000000E-03 0.  1.
         11   -1    0    0    0    0 -0.00000000000E+00 -0.00000000000E+00 -0.45593999997E+02  0.45594000000E+02  0.51100000000E-03 0. -1.
    9900012    2    1    2    0    0 -0.29107845466E+02  0.11060667477E+02  0.32550092432E+02  0.46142317077E+02  0.99999937588E+01 0.  0.
         12    1    1    2    0    0  0.29107845466E+02 -0.11060667477E+02 -0.32550092432E+02  0.45045682923E+02  0.00000000000E+00 0. -1.
         11    1    3    3    0    0 -0.37652544759E+01 -0.14143765353E+01  0.46880591179E+01  0.61770139069E+01  0.51100000000E-03 0. -1.
        -11    1    3    3    0    0 -0.95849619752E+01  0.50258220750E+01  0.13999309147E+02  0.17694943923E+02  0.51100000000E-03 0.  1.
        -12    1    3    3    0    0 -0.15757629014E+02  0.74492219374E+01  0.13862724167E+02  0.22270359247E+02  0.00000000000E+00 0.  1.
</event>
<event>
 7    1  0.2227287E-008  0.4614232E+02  0.7816164E-02  0.1320468E+00
        -11   -1    0    0    0    0  0.00000000000E+00  0.00000000000E+00  0.45593999997E+02  0.45594000000E+02  0.51100000000E-03 0.  1.
         11   -1    0    0    0    0 -0.00000000000E+00 -0.00000000000E+00 -0.45593999997E+02  0.45594000000E+02  0.51100000000E-03 0. -1.
    9900012    2    1    2    0    0 -0.44294250310E+02  0.69049662683E+01  0.44106932894E+01  0.46142318908E+02  0.10000010463E+02 0.  0.
         12    1    1    2    0    0  0.44294250310E+02 -0.69049662683E+01 -0.44106932894E+01  0.45045681092E+02  0.00000000000E+00 0. -1.
         11    1    3    3    0    0 -0.89317459685E+01 -0.15636627089E+01 -0.38830433254E+00  0.90758970702E+01  0.51100000000E-03 0. -1.
        -11    1    3    3    0    0 -0.80806393031E+01 -0.14704386456E+00  0.19578007057E+01  0.83157283090E+01  0.51100000000E-03 0.  1.
         12    1    3    3    0    0 -0.27281865039E+02  0.86156728418E+01  0.28411969163E+01  0.28750693529E+02  0.00000000000E+00 0. -1.
</event>
<event>
 7    1  0.2227287E-008  0.4614232E+02  0.7816164E-02  0.1320468E+00
        -11   -1    0    0    0    0  0.00000000000E+00  0.00000000000E+00  0.45593999997E+02  0.45594000000E+02  0.51100000000E-03 0.  1.
         11   -1    0    0    0    0 -0.00000000000E+00 -0.00000000000E+00 -0.45593999997E+02  0.45594000000E+02  0.51100000000E-03 0. -1.
    9900012    2    1    2    0    0  0.30825590422E+02  0.18742318692E+02 -0.26974469457E+02  0.46142317218E+02  0.99999950438E+01 0.  0.
         12    1    1    2    0    0 -0.30825590422E+02 -0.18742318692E+02  0.26974469457E+02  0.45045682782E+02  0.00000000000E+00 0. -1.
         11    1    3    3    0    0  0.84143436377E+00  0.17411635727E+01 -0.26078087799E+01  0.32465873265E+01  0.51100000000E-03 0. -1.
        -11    1    3    3    0    0  0.87020506488E+01  0.67772646607E+01 -0.11788065377E+02  0.16143589668E+02  0.51100000000E-03 0.  1.
         12    1    3    3    0    0  0.21282105410E+02  0.10223890458E+02 -0.12578595300E+02  0.26752140223E+02  0.00000000000E+00 0. -1.
</event>
<event>
 7    1  0.2227287E-008  0.4614232E+02  0.7816164E-02  0.1320468E+00
        -11   -1    0    0    0    0  0.00000000000E+00  0.00000000000E+00  0.45593999997E+02  0.45594000000E+02  0.51100000000E-03 0.  1.
         11   -1    0    0    0    0 -0.00000000000E+00 -0.00000000000E+00 -0.45593999997E+02  0.45594000000E+02  0.51100000000E-03 0. -1.
    9900012    2    1    2    0    0  0.35906925208E+02 -0.15300462569E+02  0.22487821563E+02  0.46142317061E+02  0.99999936201E+01 0.  0.
         12    1    1    2    0    0 -0.35906925208E+02  0.15300462569E+02 -0.22487821563E+02  0.45045682939E+02  0.00000000000E+00 0. -1.
         11    1    3    3    0    0  0.15171306642E+02 -0.13518502310E+01  0.85436213349E+01  0.17463948867E+02  0.51100000000E-03 0. -1.
        -11    1    3    3    0    0  0.12732942990E+02 -0.78763147547E+01  0.75238589960E+01  0.16756271237E+02  0.51100000000E-03 0.  1.
        -12    1    3    3    0    0  0.80026755764E+01 -0.60722975838E+01  0.64203412317E+01  0.11922096957E+02  0.00000000000E+00 0.  1.
</event>
<event>
 7    1  0.2227287E-008  0.4614233E+02  0.7816164E-02  0.1320468E+00
        -11   -1    0    0    0    0  0.00000000000E+00  0.00000000000E+00  0.45593999997E+02  0.45594000000E+02  0.51100000000E-03 0.  1.
         11   -1    0    0    0    0 -0.00000000000E+00 -0.00000000000E+00 -0.45593999997E+02  0.45594000000E+02  0.51100000000E-03 0. -1.
    9900012    2    1    2    0    0 -0.32247304079E+02 -0.15925171479E+02  0.27122188532E+02  0.46142325205E+02  0.10000067879E+02 0.  0.
         12    1    1    2    0    0  0.32247304079E+02  0.15925171479E+02 -0.27122188532E+02  0.45045674795E+02  0.00000000000E+00 0. -1.
         11    1    3    3    0    0 -0.15927421199E+02 -0.11927252486E+02  0.16716270955E+02  0.25987993628E+02  0.51100000000E-03 0.  1.
        -11    1    3    3    0    0 -0.13501440837E+02 -0.46173374227E+01  0.94490285730E+01  0.17114112620E+02  0.51100000000E-03 0. -1.
         12    1    3    3    0    0 -0.28184420429E+01  0.61941842908E+00  0.95688900376E+00  0.30402189568E+01  0.00000000000E+00 0. -1.
</event>
<event>
 7    1  0.2227287E-008  0.4614232E+02  0.7816164E-02  0.1320468E+00
        -11   -1    0    0    0    0  0.00000000000E+00  0.00000000000E+00  0.45593999997E+02  0.45594000000E+02  0.51100000000E-03 0.  1.
         11   -1    0    0    0    0 -0.00000000000E+00 -0.00000000000E+00 -0.45593999997E+02  0.45594000000E+02  0.51100000000E-03 0. -1.
    9900012    2    1    2    0    0  0.13731975131E+02 -0.21335378309E+01  0.42848505323E+02  0.46142317265E+02  0.99999954734E+01 0.  0.
         12    1    1    2    0    0 -0.13731975131E+02  0.21335378309E+01 -0.42848505323E+02  0.45045682735E+02  0.00000000000E+00 0. -1.
         11    1    3    3    0    0  0.57094747157E+01  0.33985825265E+00  0.21688290778E+02  0.22429791847E+02  0.51100000000E-03 0.  1.
        -11    1    3    3    0    0  0.39403449504E+01  0.13438863974E+01  0.44563471681E+01  0.60984735238E+01  0.51100000000E-03 0. -1.
         12    1    3    3    0    0  0.40821554646E+01 -0.38172824810E+01  0.16703867377E+02  0.17614051894E+02  0.00000000000E+00 0. -1.
</event>
<event>
 7    1  0.2227287E-008  0.4614232E+02  0.7816164E-02  0.1320468E+00
        -11   -1    0    0    0    0  0.00000000000E+00  0.00000000000E+00  0.45593999997E+02  0.45594000000E+02  0.51100000000E-03 0.  1.
         11   -1    0    0    0    0 -0.00000000000E+00 -0.00000000000E+00 -0.45593999997E+02  0.45594000000E+02  0.51100000000E-03 0. -1.
    9900012    2    1    2    0    0  0.32771427696E+02 -0.30857040437E+02  0.17291746325E+01  0.46142318047E+02  0.10000002605E+02 0.  0.
         12    1    1    2    0    0 -0.32771427696E+02  0.30857040437E+02 -0.17291746325E+01  0.45045681953E+02  0.00000000000E+00 0. -1.
         11    1    3    3    0    0  0.91057284910E+01 -0.11526277016E+02 -0.16169198138E+01  0.14777813883E+02  0.51100000000E-03 0. -1.
        -11    1    3    3    0    0  0.21594157760E+01 -0.45924366620E+00  0.15471684813E+01  0.26958693976E+01  0.51100000000E-03 0.  1.
        -12    1    3    3    0    0  0.21506283429E+02 -0.18871519754E+02  0.17989259650E+01  0.28668634766E+02  0.00000000000E+00 0.  1.
</event>
<event>
 7    1  0.2227287E-008  0.4614232E+02  0.7816164E-02  0.1320468E+00
        -11   -1    0    0    0    0  0.00000000000E+00  0.00000000000E+00  0.45593999997E+02  0.45594000000E+02  0.51100000000E-03 0.  1.
         11   -1    0    0    0    0 -0.00000000000E+00 -0.00000000000E+00 -0.45593999997E+02  0.45594000000E+02  0.51100000000E-03 0. -1.
    9900012    2    1    2    0    0  0.12612319209E+02 -0.25858230789E+02  0.34661142343E+02  0.46142317811E+02  0.10000000454E+02 0.  0.
         12    1    1    2    0    0 -0.12612319209E+02  0.25858230789E+02 -0.34661142343E+02  0.45045682189E+02  0.00000000000E+00 0. -1.
         11    1    3    3    0    0  0.16304253262E+01 -0.60154029299E+01  0.10006027559E+02  0.11788297032E+02  0.51100000000E-03 0. -1.
        -11    1    3    3    0    0  0.42264220639E+01 -0.59884451145E+01  0.13382021065E+02  0.15257870310E+02  0.51100000000E-03 0.  1.
        -12    1    3    3    0    0  0.67554718185E+01 -0.13854382744E+02  0.11273093720E+02  0.19096150469E+02  0.00000000000E+00 0.  1.
</event>
<event>
 7    1  0.2227287E-008  0.4614232E+02  0.7816164E-02  0.1320468E+00
        -11   -1    0    0    0    0  0.00000000000E+00  0.00000000000E+00  0.45593999997E+02  0.45594000000E+02  0.51100000000E-03 0.  1.
         11   -1    0    0    0    0 -0.00000000000E+00 -0.00000000000E+00 -0.45593999997E+02  0.45594000000E+02  0.51100000000E-03 0. -1.
    9900012    2    1    2    0    0 -0.39459437035E+02 -0.17564179081E+02 -0.12789290079E+02  0.46142317647E+02  0.99999989597E+01 0.  0.
         12    1    1    2    0    0  0.39459437035E+02  0.17564179081E+02  0.12789290079E+02  0.45045682353E+02  0.00000000000E+00 0. -1.
         11    1    3    3    0    0 -0.11058986075E+02 -0.82350948426E+01 -0.19067815940E+01  0.13919546558E+02  0.51100000000E-03 0. -1.
        -11    1    3    3    0    0 -0.87744730004E+01 -0.46376072745E+01 -0.17680862193E+01  0.10080917955E+02  0.51100000000E-03 0.  1.
         12    1    3    3    0    0 -0.19625977960E+02 -0.46914769634E+01 -0.91144222660E+01  0.22141853135E+02  0.00000000000E+00 0. -1.
</event>
<event>
 7    1  0.2227287E-008  0.4614232E+02  0.7816164E-02  0.1320468E+00
        -11   -1    0    0    0    0  0.00000000000E+00  0.00000000000E+00  0.45593999997E+02  0.45594000000E+02  0.51100000000E-03 0.  1.
         11   -1    0    0    0    0 -0.00000000000E+00 -0.00000000000E+00 -0.45593999997E+02  0.45594000000E+02  0.51100000000E-03 0. -1.
    9900012    2    1    2    0    0  0.92553613039E+01 -0.27101215117E+02  0.34770330898E+02  0.46142317805E+02  0.10000000402E+02 0.  0.
         12    1    1    2    0    0 -0.92553613039E+01  0.27101215117E+02 -0.34770330898E+02  0.45045682195E+02  0.00000000000E+00 0. -1.
         11    1    3    3    0    0  0.48750872757E+01 -0.85347347401E+01  0.18591137117E+02  0.21029468671E+02  0.51100000000E-03 0. -1.
        -11    1    3    3    0    0  0.55627812236E+00 -0.15854041648E+01  0.70273455366E+00  0.18212050487E+01  0.51100000000E-03 0.  1.
         12    1    3    3    0    0  0.38239959058E+01 -0.16981076212E+02  0.15476459227E+02  0.23291644086E+02  0.00000000000E+00 0. -1.
</event>
<event>
 7    1  0.2323849E-008  0.4614232E+02  0.7816164E-02  0.1320468E+00
        -11   -1    0    0    0    0  0.00000000000E+00  0.00000000000E+00  0.45593999997E+02  0.45594000000E+02  0.51100000000E-03 0. -1.
         11   -1    0    0    0    0 -0.00000000000E+00 -0.00000000000E+00 -0.45593999997E+02  0.45594000000E+02  0.51100000000E-03 0.  1.
    9900012    2    1    2    0    0  0.19336259855E+02  0.15558662506E+02 -0.37591895224E+02  0.46142317514E+02  0.99999977421E+01 0.  0.
         12    1    1    2    0    0 -0.19336259855E+02 -0.15558662506E+02  0.37591895224E+02  0.45045682486E+02  0.00000000000E+00 0. -1.
         11    1    3    3    0    0  0.18360214008E+01 -0.29832761277E+00 -0.10317079255E+01  0.21270626351E+01  0.51100000000E-03 0. -1.
        -11    1    3    3    0    0 -0.58705283792E+00  0.37825358972E+00 -0.90920247677E+00  0.11464537573E+01  0.51100000000E-03 0.  1.
        -12    1    3    3    0    0  0.18087291292E+02  0.15478736529E+02 -0.35650984821E+02  0.42868801121E+02  0.00000000000E+00 0.  1.
</event>
<event>
 7    1  0.2227287E-008  0.4614232E+02  0.7816164E-02  0.1320468E+00
        -11   -1    0    0    0    0  0.00000000000E+00  0.00000000000E+00  0.45593999997E+02  0.45594000000E+02  0.51100000000E-03 0.  1.
         11   -1    0    0    0    0 -0.00000000000E+00 -0.00000000000E+00 -0.45593999997E+02  0.45594000000E+02  0.51100000000E-03 0. -1.
    9900012    2    1    2    0    0 -0.70020392612E+01 -0.25898419008E+02  0.36185035419E+02  0.46142318196E+02  0.10000003965E+02 0.  0.
         12    1    1    2    0    0  0.70020392612E+01  0.25898419008E+02 -0.36185035419E+02  0.45045681804E+02  0.00000000000E+00 0. -1.
         11    1    3    3    0    0 -0.22594757666E+01 -0.12975971911E+02  0.24350004983E+02  0.27683999363E+02  0.51100000000E-03 0. -1.
        -11    1    3    3    0    0 -0.14008317403E+00 -0.24624331307E+00  0.13407223083E+01  0.13703268347E+01  0.51100000000E-03 0.  1.
        -12    1    3    3    0    0 -0.46024803205E+01 -0.12676203783E+02  0.10494308128E+02  0.17087991998E+02  0.00000000000E+00 0.  1.
</event>
<event>
 7    1  0.2227287E-008  0.4614232E+02  0.7816164E-02  0.1320468E+00
        -11   -1    0    0    0    0  0.00000000000E+00  0.00000000000E+00  0.45593999997E+02  0.45594000000E+02  0.51100000000E-03 0. -1.
         11   -1    0    0    0    0 -0.00000000000E+00 -0.00000000000E+00 -0.45593999997E+02  0.45594000000E+02  0.51100000000E-03 0.  1.
    9900012    2    1    2    0    0 -0.98478323492E+01  0.29999156484E+02 -0.32127624336E+02  0.46142318329E+02  0.10000005180E+02 0.  0.
         12    1    1    2    0    0  0.98478323492E+01 -0.29999156484E+02  0.32127624336E+02  0.45045681671E+02  0.00000000000E+00 0. -1.
         11    1    3    3    0    0 -0.63063019171E+00  0.64464653471E+01 -0.42105325279E+01  0.77254899094E+01  0.51100000000E-03 0. -1.
        -11    1    3    3    0    0  0.40505511248E+00  0.12437438321E+01  0.12474762478E+00  0.13139751120E+01  0.51100000000E-03 0.  1.
        -12    1    3    3    0    0 -0.96222572700E+01  0.22308947305E+02 -0.28041839432E+02  0.37102853308E+02  0.00000000000E+00 0.  1.
</event>
<event>
 7    1  0.2227287E-008  0.4614232E+02  0.7816164E-02  0.1320468E+00
        -11   -1    0    0    0    0  0.00000000000E+00  0.00000000000E+00  0.45593999997E+02  0.45594000000E+02  0.51100000000E-03 0. -1.
         11   -1    0    0    0    0 -0.00000000000E+00 -0.00000000000E+00 -0.45593999997E+02  0.45594000000E+02  0.51100000000E-03 0.  1.
    9900012    2    1    2    0    0 -0.28291279762E+02  0.73839026047E+01 -0.34266526940E+02  0.46142318778E+02  0.10000009269E+02 0.  0.
         12    1    1    2    0    0  0.28291279762E+02 -0.73839026047E+01  0.34266526940E+02  0.45045681222E+02  0.00000000000E+00 0. -1.
         11    1    3    3    0    0 -0.84775757780E+01  0.57390420692E+01 -0.12909842372E+02  0.16476344415E+02  0.51100000000E-03 0.  1.
        -11    1    3    3    0    0 -0.19126538131E+01 -0.43776652242E+00 -0.35860660374E+00  0.19946135200E+01  0.51100000000E-03 0. -1.
        -12    1    3    3    0    0 -0.17901050171E+02  0.20826270579E+01 -0.20998077964E+02  0.27671360843E+02  0.00000000000E+00 0.  1.
</event>
<event>
 7    1  0.2227287E-008  0.4614232E+02  0.7816164E-02  0.1320468E+00
        -11   -1    0    0    0    0  0.00000000000E+00  0.00000000000E+00  0.45593999997E+02  0.45594000000E+02  0.51100000000E-03 0.  1.
         11   -1    0    0    0    0 -0.00000000000E+00 -0.00000000000E+00 -0.45593999997E+02  0.45594000000E+02  0.51100000000E-03 0. -1.
    9900012    2    1    2    0    0  0.13199970999E+02  0.34686034630E+02  0.25529458705E+02  0.46142317693E+02  0.99999993787E+01 0.  0.
         12    1    1    2    0    0 -0.13199970999E+02 -0.34686034630E+02 -0.25529458705E+02  0.45045682307E+02  0.00000000000E+00 0. -1.
         11    1    3    3    0    0  0.16831865509E+01  0.86303661778E+01  0.35900392797E+01  0.94976165231E+01  0.51100000000E-03 0.  1.
        -11    1    3    3    0    0  0.46005935172E+01  0.45766131961E+01  0.28475168070E+01  0.70865507325E+01  0.51100000000E-03 0. -1.
        -12    1    3    3    0    0  0.69161909314E+01  0.21479055256E+02  0.19091902619E+02  0.29558150437E+02  0.00000000000E+00 0.  1.
</event>
<event>
 7    1  0.2227287E-008  0.4614232E+02  0.7816164E-02  0.1320468E+00
        -11   -1    0    0    0    0  0.00000000000E+00  0.00000000000E+00  0.45593999997E+02  0.45594000000E+02  0.51100000000E-03 0.  1.
         11   -1    0    0    0    0 -0.00000000000E+00 -0.00000000000E+00 -0.45593999997E+02  0.45594000000E+02  0.51100000000E-03 0. -1.
    9900012    2    1    2    0    0 -0.20435049387E+02 -0.37163781115E+02  0.15178129058E+02  0.46142317944E+02  0.10000001668E+02 0.  0.
         12    1    1    2    0    0  0.20435049387E+02  0.37163781115E+02 -0.15178129058E+02  0.45045682056E+02  0.00000000000E+00 0. -1.
         11    1    3    3    0    0 -0.37021818297E+01 -0.54330460858E+01  0.40874663729E+01  0.77415451741E+01  0.51100000000E-03 0. -1.
        -11    1    3    3    0    0 -0.14926299083E+02 -0.21925464450E+02  0.10098063342E+02  0.28381178255E+02  0.51100000000E-03 0.  1.
         12    1    3    3    0    0 -0.18065684748E+01 -0.98052705792E+01  0.99259934301E+00  0.10019594515E+02  0.00000000000E+00 0. -1.
</event>
<event>
 7    1  0.2227287E-008  0.4614232E+02  0.7816164E-02  0.1320468E+00
        -11   -1    0    0    0    0  0.00000000000E+00  0.00000000000E+00  0.45593999997E+02  0.45594000000E+02  0.51100000000E-03 0.  1.
         11   -1    0    0    0    0 -0.00000000000E+00 -0.00000000000E+00 -0.45593999997E+02  0.45594000000E+02  0.51100000000E-03 0. -1.
    9900012    2    1    2    0    0  0.18065460248E+02  0.20828919207E+02  0.35621746788E+02  0.46142316816E+02  0.99999913825E+01 0.  0.
         12    1    1    2    0    0 -0.18065460248E+02 -0.20828919207E+02 -0.35621746788E+02  0.45045683184E+02  0.00000000000E+00 0. -1.
         11    1    3    3    0    0  0.13546450945E+00  0.22676908811E+01  0.16761742043E+01  0.28231777822E+01  0.51100000000E-03 0. -1.
        -11    1    3    3    0    0  0.16268368128E+02  0.19003144271E+02  0.32809835166E+02  0.41258509154E+02  0.51100000000E-03 0.  1.
        -12    1    3    3    0    0  0.16616276112E+01 -0.44191594552E+00  0.11357374177E+01  0.20606298802E+01  0.00000000000E+00 0.  1.
</event>
<event>
 7    1  0.2227287E-008  0.4614232E+02  0.7816164E-02  0.1320468E+00
        -11   -1    0    0    0    0  0.00000000000E+00  0.00000000000E+00  0.45593999997E+02  0.45594000000E+02  0.51100000000E-03 0.  1.
         11   -1    0    0    0    0 -0.00000000000E+00 -0.00000000000E+00 -0.45593999997E+02  0.45594000000E+02  0.51100000000E-03 0. -1.
    9900012    2    1    2    0    0 -0.28971527629E+02 -0.34275881586E+02 -0.38637023930E+01  0.46142315769E+02  0.99999818340E+01 0.  0.
         12    1    1    2    0    0  0.28971527629E+02  0.34275881586E+02  0.38637023930E+01  0.45045684231E+02  0.00000000000E+00 0. -1.
         11    1    3    3    0    0 -0.30426431567E+01 -0.49048994805E+01 -0.34309954056E+01  0.67147186111E+01  0.51100000000E-03 0. -1.
        -11    1    3    3    0    0 -0.14683893233E+02 -0.19233875551E+02 -0.15412932486E+01  0.24247356028E+02  0.51100000000E-03 0.  1.
         12    1    3    3    0    0 -0.11244991239E+02 -0.10137106554E+02  0.11085862612E+01  0.15180241130E+02  0.00000000000E+00 0. -1.
</event>
<event>
 7    1  0.2227287E-008  0.4614232E+02  0.7816164E-02  0.1320468E+00
        -11   -1    0    0    0    0  0.00000000000E+00  0.00000000000E+00  0.45593999997E+02  0.45594000000E+02  0.51100000000E-03 0. -1.
         11   -1    0    0    0    0 -0.00000000000E+00 -0.00000000000E+00 -0.45593999997E+02  0.45594000000E+02  0.51100000000E-03 0.  1.
    9900012    2    1    2    0    0  0.23123363629E+02  0.32465195492E+02 -0.20986534462E+02  0.46142317714E+02  0.99999995726E+01 0.  0.
         12    1    1    2    0    0 -0.23123363629E+02 -0.32465195492E+02  0.20986534462E+02  0.45045682286E+02  0.00000000000E+00 0. -1.
         11    1    3    3    0    0  0.11567826843E+01 -0.68707915703E-01 -0.79661904888E+00  0.14062251336E+01  0.51100000000E-03 0. -1.
        -11    1    3    3    0    0  0.36635640336E+01  0.16635805725E+01 -0.23252280746E+01  0.46471375716E+01  0.51100000000E-03 0.  1.
        -12    1    3    3    0    0  0.18303016911E+02  0.30870322835E+02 -0.17864687338E+02  0.40088955009E+02  0.00000000000E+00 0.  1.
</event>
<event>
 7    1  0.2227287E-008  0.4614232E+02  0.7816164E-02  0.1320468E+00
        -11   -1    0    0    0    0  0.00000000000E+00  0.00000000000E+00  0.45593999997E+02  0.45594000000E+02  0.51100000000E-03 0.  1.
         11   -1    0    0    0    0 -0.00000000000E+00 -0.00000000000E+00 -0.45593999997E+02  0.45594000000E+02  0.51100000000E-03 0. -1.
    9900012    2    1    2    0    0 -0.19664314708E+02  0.35806450184E+02  0.18982261731E+02  0.46142318652E+02  0.10000008119E+02 0.  0.
         12    1    1    2    0    0  0.19664314708E+02 -0.35806450184E+02 -0.18982261731E+02  0.45045681348E+02  0.00000000000E+00 0. -1.
         11    1    3    3    0    0 -0.19865833207E+01  0.42455788494E+01  0.10074902620E+01  0.47944227959E+01  0.51100000000E-03 0. -1.
        -11    1    3    3    0    0 -0.14564133587E+02  0.23819398717E+02  0.17583023311E+02  0.32994551844E+02  0.51100000000E-03 0.  1.
        -12    1    3    3    0    0 -0.31135978002E+01  0.77414726181E+01  0.39174815789E+00  0.83533440117E+01  0.00000000000E+00 0.  1.
</event>
<event>
 7    1  0.2227287E-008  0.4614232E+02  0.7816164E-02  0.1320468E+00
        -11   -1    0    0    0    0  0.00000000000E+00  0.00000000000E+00  0.45593999997E+02  0.45594000000E+02  0.51100000000E-03 0.  1.
         11   -1    0    0    0    0 -0.00000000000E+00 -0.00000000000E+00 -0.45593999997E+02  0.45594000000E+02  0.51100000000E-03 0. -1.
    9900012    2    1    2    0    0 -0.25958154021E+02  0.33559676208E+02 -0.15133930831E+02  0.46142317746E+02  0.99999998616E+01 0.  0.
         12    1    1    2    0    0  0.25958154021E+02 -0.33559676208E+02  0.15133930831E+02  0.45045682254E+02  0.00000000000E+00 0. -1.
         11    1    3    3    0    0 -0.28984398942E+01  0.58844556864E+01 -0.16499762071E+01  0.67638889915E+01  0.51100000000E-03 0. -1.
        -11    1    3    3    0    0 -0.52577123571E+01  0.95316832655E+01 -0.76334427157E+01  0.13295336515E+02  0.51100000000E-03 0.  1.
        -12    1    3    3    0    0 -0.17802001770E+02  0.18143537256E+02 -0.58505119085E+01  0.26083092239E+02  0.00000000000E+00 0.  1.
</event>
<event>
 7    1  0.2227287E-008  0.4614232E+02  0.7816164E-02  0.1320468E+00
        -11   -1    0    0    0    0  0.00000000000E+00  0.00000000000E+00  0.45593999997E+02  0.45594000000E+02  0.51100000000E-03 0.  1.
         11   -1    0    0    0    0 -0.00000000000E+00 -0.00000000000E+00 -0.45593999997E+02  0.45594000000E+02  0.51100000000E-03 0. -1.
    9900012    2    1    2    0    0 -0.37805950636E+02  0.21473123457E+02  0.11778309562E+02  0.46142317514E+02  0.99999977461E+01 0.  0.
         12    1    1    2    0    0  0.37805950636E+02 -0.21473123457E+02 -0.11778309562E+02  0.45045682486E+02  0.00000000000E+00 0. -1.
         11    1    3    3    0    0  0.50989626730E-01  0.13659726402E+01 -0.83750722003E-01  0.13694873641E+01  0.51100000000E-03 0. -1.
        -11    1    3    3    0    0 -0.10269677592E+02  0.41426449425E+01  0.10856786710E+01  0.11126836181E+02  0.51100000000E-03 0.  1.
         12    1    3    3    0    0 -0.27587262671E+02  0.15964505874E+02  0.10776381613E+02  0.33645993969E+02  0.00000000000E+00 0. -1.
</event>
<event>
 7    1  0.2227287E-008  0.4614232E+02  0.7816164E-02  0.1320468E+00
        -11   -1    0    0    0    0  0.00000000000E+00  0.00000000000E+00  0.45593999997E+02  0.45594000000E+02  0.51100000000E-03 0.  1.
         11   -1    0    0    0    0 -0.00000000000E+00 -0.00000000000E+00 -0.45593999997E+02  0.45594000000E+02  0.51100000000E-03 0. -1.
    9900012    2    1    2    0    0 -0.84202712882E+01  0.65301243158E+01  0.43767224940E+02  0.46142317953E+02  0.10000001750E+02 0.  0.
         12    1    1    2    0    0  0.84202712882E+01 -0.65301243158E+01 -0.43767224940E+02  0.45045682047E+02  0.00000000000E+00 0. -1.
         11    1    3    3    0    0  0.10511223538E+01 -0.10985598118E+01  0.42798729148E+01  0.45419163676E+01  0.51100000000E-03 0. -1.
        -11    1    3    3    0    0 -0.22278369643E+01  0.26539482600E+00  0.12583138315E+02  0.12781590749E+02  0.51100000000E-03 0.  1.
         12    1    3    3    0    0 -0.72435566776E+01  0.73632893015E+01  0.26904213710E+02  0.28818810836E+02  0.00000000000E+00 0. -1.
</event>
<event>
 7    1  0.2227287E-008  0.4614232E+02  0.7816164E-02  0.1320468E+00
        -11   -1    0    0    0    0  0.00000000000E+00  0.00000000000E+00  0.45593999997E+02  0.45594000000E+02  0.51100000000E-03 0. -1.
         11   -1    0    0    0    0 -0.00000000000E+00 -0.00000000000E+00 -0.45593999997E+02  0.45594000000E+02  0.51100000000E-03 0.  1.
    9900012    2    1    2    0    0 -0.37994088840E+02 -0.24195771682E+02 -0.35686919574E+00  0.46142317524E+02  0.99999978413E+01 0.  0.
         12    1    1    2    0    0  0.37994088840E+02  0.24195771682E+02  0.35686919574E+00  0.45045682476E+02  0.00000000000E+00 0. -1.
         11    1    3    3    0    0 -0.11158714850E+02 -0.22004713280E+01  0.16682590298E+00  0.11374832848E+02  0.51100000000E-03 0. -1.
        -11    1    3    3    0    0 -0.14339613634E+02 -0.10372263583E+02 -0.22091108150E+00  0.17699072658E+02  0.51100000000E-03 0.  1.
         12    1    3    3    0    0 -0.12495760356E+02 -0.11623036772E+02 -0.30278401723E+00  0.17068412019E+02  0.00000000000E+00 0. -1.
</event>
<event>
 7    1  0.2227287E-008  0.4614232E+02  0.7816164E-02  0.1320468E+00
        -11   -1    0    0    0    0  0.00000000000E+00  0.00000000000E+00  0.45593999997E+02  0.45594000000E+02  0.51100000000E-03 0.  1.
         11   -1    0    0    0    0 -0.00000000000E+00 -0.00000000000E+00 -0.45593999997E+02  0.45594000000E+02  0.51100000000E-03 0. -1.
    9900012    2    1    2    0    0  0.23832671280E+02 -0.10958050878E+02 -0.36620191255E+02  0.46142317555E+02  0.99999981200E+01 0.  0.
         12    1    1    2    0    0 -0.23832671280E+02  0.10958050878E+02  0.36620191255E+02  0.45045682445E+02  0.00000000000E+00 0. -1.
         11    1    3    3    0    0  0.35738561278E+01 -0.30173587974E+01 -0.11155711429E+02  0.12096561473E+02  0.51100000000E-03 0. -1.
        -11    1    3    3    0    0  0.18888422640E+02 -0.54936354819E+01 -0.23360957634E+02  0.30539922764E+02  0.51100000000E-03 0.  1.
        -12    1    3    3    0    0  0.13703925124E+01 -0.24470565983E+01 -0.21035221927E+01  0.35058333173E+01  0.00000000000E+00 0.  1.
</event>
<event>
 7    1  0.2227287E-008  0.4614232E+02  0.7816164E-02  0.1320468E+00
        -11   -1    0    0    0    0  0.00000000000E+00  0.00000000000E+00  0.45593999997E+02  0.45594000000E+02  0.51100000000E-03 0.  1.
         11   -1    0    0    0    0 -0.00000000000E+00 -0.00000000000E+00 -0.45593999997E+02  0.45594000000E+02  0.51100000000E-03 0. -1.
    9900012    2    1    2    0    0 -0.65158992781E+01  0.43737101338E+02  0.85861648204E+01  0.46142320927E+02  0.10000028866E+02 0.  0.
         12    1    1    2    0    0  0.65158992781E+01 -0.43737101338E+02 -0.85861648204E+01  0.45045679073E+02  0.00000000000E+00 0. -1.
         11    1    3    3    0    0 -0.53315157820E+01  0.11879385787E+02  0.27833638397E+01  0.13315103520E+02  0.51100000000E-03 0.  1.
        -11    1    3    3    0    0 -0.14340073243E+01  0.26102941779E+01 -0.13817875040E+00  0.29814604357E+01  0.51100000000E-03 0. -1.
        -12    1    3    3    0    0  0.24962382826E+00  0.29247421373E+02  0.59409797311E+01  0.29845756971E+02  0.00000000000E+00 0.  1.
</event>
<event>
 7    1  0.2227287E-008  0.4614232E+02  0.7816164E-02  0.1320468E+00
        -11   -1    0    0    0    0  0.00000000000E+00  0.00000000000E+00  0.45593999997E+02  0.45594000000E+02  0.51100000000E-03 0.  1.
         11   -1    0    0    0    0 -0.00000000000E+00 -0.00000000000E+00 -0.45593999997E+02  0.45594000000E+02  0.51100000000E-03 0. -1.
    9900012    2    1    2    0    0  0.22333928034E+01  0.22719399078E+02  0.38832387553E+02  0.46142318066E+02  0.10000002777E+02 0.  0.
         12    1    1    2    0    0 -0.22333928034E+01 -0.22719399078E+02 -0.38832387553E+02  0.45045681934E+02  0.00000000000E+00 0. -1.
         11    1    3    3    0    0  0.10348067234E+01  0.12121117871E+01  0.42672684372E+00  0.16498896931E+01  0.51100000000E-03 0. -1.
        -11    1    3    3    0    0  0.95654525090E+00  0.99978644002E+01  0.24243858807E+02  0.26241893253E+02  0.51100000000E-03 0.  1.
         12    1    3    3    0    0  0.24204082911E+00  0.11509422891E+02  0.14161801902E+02  0.18250535120E+02  0.00000000000E+00 0. -1.
</event>
<event>
 7    1  0.2227287E-008  0.4614232E+02  0.7816164E-02  0.1320468E+00
        -11   -1    0    0    0    0  0.00000000000E+00  0.00000000000E+00  0.45593999997E+02  0.45594000000E+02  0.51100000000E-03 0.  1.
         11   -1    0    0    0    0 -0.00000000000E+00 -0.00000000000E+00 -0.45593999997E+02  0.45594000000E+02  0.51100000000E-03 0. -1.
    9900012    2    1    2    0    0 -0.14526497460E+02 -0.26027513709E+01  0.42559605879E+02  0.46142317679E+02  0.99999992512E+01 0.  0.
         12    1    1    2    0    0  0.14526497460E+02  0.26027513709E+01 -0.42559605879E+02  0.45045682321E+02  0.00000000000E+00 0. -1.
         11    1    3    3    0    0 -0.71368639176E+01 -0.43457356558E-02  0.17075558213E+02  0.18507013103E+02  0.51100000000E-03 0.  1.
        -11    1    3    3    0    0  0.13942730871E+01 -0.71685718342E+00  0.24185198204E+01  0.28822074953E+01  0.51100000000E-03 0. -1.
         12    1    3    3    0    0 -0.87839066298E+01 -0.18815484518E+01  0.23065527846E+02  0.24753097081E+02  0.00000000000E+00 0. -1.
</event>
<event>
 7    1  0.2227287E-008  0.4614232E+02  0.7816164E-02  0.1320468E+00
        -11   -1    0    0    0    0  0.00000000000E+00  0.00000000000E+00  0.45593999997E+02  0.45594000000E+02  0.51100000000E-03 0.  1.
         11   -1    0    0    0    0 -0.00000000000E+00 -0.00000000000E+00 -0.45593999997E+02  0.45594000000E+02  0.51100000000E-03 0. -1.
    9900012    2    1    2    0    0  0.19419127955E+02 -0.38727554503E+02  0.12336429994E+02  0.46142317484E+02  0.99999974774E+01 0.  0.
         12    1    1    2    0    0 -0.19419127955E+02  0.38727554503E+02 -0.12336429994E+02  0.45045682516E+02  0.00000000000E+00 0. -1.
         11    1    3    3    0    0  0.12308830897E+02 -0.19413401487E+02  0.67000717090E+01  0.23943233627E+02  0.51100000000E-03 0. -1.
        -11    1    3    3    0    0  0.62008231099E+01 -0.18329029256E+02  0.67115767490E+01  0.20480448809E+02  0.51100000000E-03 0.  1.
        -12    1    3    3    0    0  0.90947394801E+00 -0.98512376023E+00 -0.10752184642E+01  0.17186350488E+01  0.00000000000E+00 0.  1.
</event>
<event>
 7    1  0.2227287E-008  0.4614232E+02  0.7816164E-02  0.1320468E+00
        -11   -1    0    0    0    0  0.00000000000E+00  0.00000000000E+00  0.45593999997E+02  0.45594000000E+02  0.51100000000E-03 0. -1.
         11   -1    0    0    0    0 -0.00000000000E+00 -0.00000000000E+00 -0.45593999997E+02  0.45594000000E+02  0.51100000000E-03 0.  1.
    9900012    2    1    2    0    0  0.40989870157E+01  0.95459622978E+01 -0.43831341995E+02  0.46142316169E+02  0.99999854811E+01 0.  0.
         12    1    1    2    0    0 -0.40989870157E+01 -0.95459622978E+01  0.43831341995E+02  0.45045683831E+02  0.00000000000E+00 0. -1.
         11    1    3    3    0    0 -0.17741938886E+01  0.27581050960E+00 -0.44152384295E+01  0.47663577333E+01  0.51100000000E-03 0. -1.
        -11    1    3    3    0    0 -0.10984720987E+01  0.17842936878E+00 -0.29796665621E+01  0.31807060653E+01  0.51100000000E-03 0.  1.
        -12    1    3    3    0    0  0.69716530030E+01  0.90917224194E+01 -0.36436437003E+02  0.38195252370E+02  0.00000000000E+00 0.  1.
</event>
<event>
 7    1  0.2227287E-008  0.4614232E+02  0.7816164E-02  0.1320468E+00
        -11   -1    0    0    0    0  0.00000000000E+00  0.00000000000E+00  0.45593999997E+02  0.45594000000E+02  0.51100000000E-03 0. -1.
         11   -1    0    0    0    0 -0.00000000000E+00 -0.00000000000E+00 -0.45593999997E+02  0.45594000000E+02  0.51100000000E-03 0.  1.
    9900012    2    1    2    0    0 -0.22147073648E+02 -0.15642033349E+01 -0.39194054142E+02  0.46142317817E+02  0.10000000510E+02 0.  0.
         12    1    1    2    0    0  0.22147073648E+02  0.15642033349E+01  0.39194054142E+02  0.45045682183E+02  0.00000000000E+00 0. -1.
         11    1    3    3    0    0 -0.41247806581E+01 -0.16862197450E+01 -0.82074186597E+01  0.93391045515E+01  0.51100000000E-03 0. -1.
        -11    1    3    3    0    0 -0.12107395129E+02 -0.16384878244E+01 -0.26476303131E+02  0.29159360194E+02  0.51100000000E-03 0.  1.
         12    1    3    3    0    0 -0.59148978611E+01  0.17605042345E+01 -0.45103323513E+01  0.76438530720E+01  0.00000000000E+00 0. -1.
</event>
<event>
 7    1  0.2227287E-008  0.4614232E+02  0.7816164E-02  0.1320468E+00
        -11   -1    0    0    0    0  0.00000000000E+00  0.00000000000E+00  0.45593999997E+02  0.45594000000E+02  0.51100000000E-03 0.  1.
         11   -1    0    0    0    0 -0.00000000000E+00 -0.00000000000E+00 -0.45593999997E+02  0.45594000000E+02  0.51100000000E-03 0. -1.
    9900012    2    1    2    0    0 -0.26551440549E+01  0.33749196183E+02  0.29716249333E+02  0.46142317550E+02  0.99999980788E+01 0.  0.
         12    1    1    2    0    0  0.26551440549E+01 -0.33749196183E+02 -0.29716249333E+02  0.45045682450E+02  0.00000000000E+00 0. -1.
         11    1    3    3    0    0  0.59455672131E+00  0.65178950444E+01  0.28373142181E+01  0.71334988426E+01  0.51100000000E-03 0. -1.
        -11    1    3    3    0    0 -0.31326044249E+01  0.26405614081E+02  0.23366148852E+02  0.35398397956E+02  0.51100000000E-03 0.  1.
        -12    1    3    3    0    0 -0.11709635133E+00  0.82568705778E+00  0.35127862629E+01  0.36104207513E+01  0.00000000000E+00 0.  1.
</event>
<event>
 7    1  0.2227287E-008  0.4614232E+02  0.7816164E-02  0.1320468E+00
        -11   -1    0    0    0    0  0.00000000000E+00  0.00000000000E+00  0.45593999997E+02  0.45594000000E+02  0.51100000000E-03 0.  1.
         11   -1    0    0    0    0 -0.00000000000E+00 -0.00000000000E+00 -0.45593999997E+02  0.45594000000E+02  0.51100000000E-03 0. -1.
    9900012    2    1    2    0    0  0.12386815898E+02 -0.13232476321E+02  0.41238110833E+02  0.46142318489E+02  0.10000006640E+02 0.  0.
         12    1    1    2    0    0 -0.12386815898E+02  0.13232476321E+02 -0.41238110833E+02  0.45045681511E+02  0.00000000000E+00 0. -1.
         11    1    3    3    0    0  0.69141867762E+01 -0.47540127808E+01  0.12802838484E+02  0.15307491297E+02  0.51100000000E-03 0. -1.
        -11    1    3    3    0    0  0.61419368493E+01 -0.91220325208E+01  0.26257991596E+02  0.28467823740E+02  0.51100000000E-03 0.  1.
         12    1    3    3    0    0 -0.66930772740E+00  0.64356898033E+00  0.21772807534E+01  0.23670034528E+01  0.00000000000E+00 0. -1.
</event>
<event>
 7    1  0.2227287E-008  0.4614232E+02  0.7816164E-02  0.1320468E+00
        -11   -1    0    0    0    0  0.00000000000E+00  0.00000000000E+00  0.45593999997E+02  0.45594000000E+02  0.51100000000E-03 0.  1.
         11   -1    0    0    0    0 -0.00000000000E+00 -0.00000000000E+00 -0.45593999997E+02  0.45594000000E+02  0.51100000000E-03 0. -1.
    9900012    2    1    2    0    0 -0.21422084327E+02 -0.85435568858E+01  0.38693868146E+02  0.46142317707E+02  0.99999995032E+01 0.  0.
         12    1    1    2    0    0  0.21422084327E+02  0.85435568858E+01 -0.38693868146E+02  0.45045682293E+02  0.00000000000E+00 0. -1.
         11    1    3    3    0    0 -0.10904517111E+02 -0.49698836967E+01  0.14085446060E+02  0.18493459070E+02  0.51100000000E-03 0. -1.
        -11    1    3    3    0    0 -0.99264909038E+01 -0.49600325704E+01  0.21784585734E+02  0.24448012611E+02  0.51100000000E-03 0.  1.
         12    1    3    3    0    0 -0.59107631232E+00  0.13863593813E+01  0.28238363516E+01  0.32008460259E+01  0.00000000000E+00 0. -1.
</event>
<event>
 7    1  0.2227287E-008  0.4614232E+02  0.7816164E-02  0.1320468E+00
        -11   -1    0    0    0    0  0.00000000000E+00  0.00000000000E+00  0.45593999997E+02  0.45594000000E+02  0.51100000000E-03 0. -1.
         11   -1    0    0    0    0 -0.00000000000E+00 -0.00000000000E+00 -0.45593999997E+02  0.45594000000E+02  0.51100000000E-03 0.  1.
    9900012    2    1    2    0    0  0.23561384716E+02 -0.35354769205E+02  0.14967121238E+02  0.46142320147E+02  0.10000021753E+02 0.  0.
         12    1    1    2    0    0 -0.23561384716E+02  0.35354769205E+02 -0.14967121238E+02  0.45045679853E+02  0.00000000000E+00 0. -1.
         11    1    3    3    0    0  0.55657970615E+01 -0.44077583894E+01  0.42907084114E+01  0.82955777304E+01  0.51100000000E-03 0. -1.
        -11    1    3    3    0    0  0.67465169510E+01 -0.17485152134E+02  0.48139404071E+01  0.19349936916E+02  0.51100000000E-03 0.  1.
         12    1    3    3    0    0  0.11249070704E+02 -0.13461858682E+02  0.58624724194E+01  0.18496805501E+02  0.00000000000E+00 0. -1.
</event>
<event>
 7    1  0.2227287E-008  0.4614232E+02  0.7816164E-02  0.1320468E+00
        -11   -1    0    0    0    0  0.00000000000E+00  0.00000000000E+00  0.45593999997E+02  0.45594000000E+02  0.51100000000E-03 0.  1.
         11   -1    0    0    0    0 -0.00000000000E+00 -0.00000000000E+00 -0.45593999997E+02  0.45594000000E+02  0.51100000000E-03 0. -1.
    9900012    2    1    2    0    0  0.37535153845E+02  0.22330817503E+02  0.11025436219E+02  0.46142318428E+02  0.10000006078E+02 0.  0.
         12    1    1    2    0    0 -0.37535153845E+02 -0.22330817503E+02 -0.11025436219E+02  0.45045681572E+02  0.00000000000E+00 0. -1.
         11    1    3    3    0    0  0.66664349158E+01  0.65639169268E+00  0.29970439558E+01  0.73385609812E+01  0.51100000000E-03 0. -1.
        -11    1    3    3    0    0  0.11463256648E+02  0.71219057551E+01  0.48500369319E+01  0.14340524853E+02  0.51100000000E-03 0.  1.
         12    1    3    3    0    0  0.19405462281E+02  0.14552520055E+02  0.31783553310E+01  0.24463232593E+02  0.00000000000E+00 0. -1.
</event>
<event>
 7    1  0.2227287E-008  0.4614232E+02  0.7816164E-02  0.1320468E+00
        -11   -1    0    0    0    0  0.00000000000E+00  0.00000000000E+00  0.45593999997E+02  0.45594000000E+02  0.51100000000E-03 0.  1.
         11   -1    0    0    0    0 -0.00000000000E+00 -0.00000000000E+00 -0.45593999997E+02  0.45594000000E+02  0.51100000000E-03 0. -1.
    9900012    2    1    2    0    0  0.30722230159E+02  0.35740064037E+01  0.32748804041E+02  0.46142321918E+02  0.10000037910E+02 0.  0.
         12    1    1    2    0    0 -0.30722230159E+02 -0.35740064037E+01 -0.32748804041E+02  0.45045678082E+02  0.00000000000E+00 0. -1.
         11    1    3    3    0    0  0.14444047590E+02  0.23238597946E+01  0.12409880405E+02  0.19184263526E+02  0.51100000000E-03 0. -1.
        -11    1    3    3    0    0  0.15917797252E+02  0.23431137065E+01  0.16910471197E+02  0.23341604220E+02  0.51100000000E-03 0.  1.
        -12    1    3    3    0    0  0.36038531741E+00 -0.10929670974E+01  0.34284524392E+01  0.36164541723E+01  0.00000000000E+00 0.  1.
</event>
<event>
 7    1  0.2227287E-008  0.4614231E+02  0.7816164E-02  0.1320468E+00
        -11   -1    0    0    0    0  0.00000000000E+00  0.00000000000E+00  0.45593999997E+02  0.45594000000E+02  0.51100000000E-03 0.  1.
         11   -1    0    0    0    0 -0.00000000000E+00 -0.00000000000E+00 -0.45593999997E+02  0.45594000000E+02  0.51100000000E-03 0. -1.
    9900012    2    1    2    0    0  0.99693841828E+01 -0.39438086662E+02 -0.19348466693E+02  0.46142306933E+02  0.99999012587E+01 0.  0.
         12    1    1    2    0    0 -0.99693841828E+01  0.39438086662E+02  0.19348466693E+02  0.45045693067E+02  0.00000000000E+00 0. -1.
         11    1    3    3    0    0  0.42447987211E+01 -0.13338665543E+02 -0.96315702382E+01  0.16991334855E+02  0.51100000000E-03 0. -1.
        -11    1    3    3    0    0  0.21069186842E+00 -0.12856161528E+02 -0.66728674561E+01  0.14486284570E+02  0.51100000000E-03 0.  1.
        -12    1    3    3    0    0  0.55138935933E+01 -0.13243259590E+02 -0.30440289988E+01  0.14664687507E+02  0.00000000000E+00 0.  1.
</event>
<event>
 7    1  0.2227287E-008  0.4614232E+02  0.7816164E-02  0.1320468E+00
        -11   -1    0    0    0    0  0.00000000000E+00  0.00000000000E+00  0.45593999997E+02  0.45594000000E+02  0.51100000000E-03 0.  1.
         11   -1    0    0    0    0 -0.00000000000E+00 -0.00000000000E+00 -0.45593999997E+02  0.45594000000E+02  0.51100000000E-03 0. -1.
    9900012    2    1    2    0    0  0.21103504257E+02 -0.28660612528E+01  0.39693089774E+02  0.46142316801E+02  0.99999912482E+01 0.  0.
         12    1    1    2    0    0 -0.21103504257E+02  0.28660612528E+01 -0.39693089774E+02  0.45045683199E+02  0.00000000000E+00 0. -1.
         11    1    3    3    0    0  0.41899196036E+01  0.69945925965E-01  0.44349175773E+01  0.61015418457E+01  0.51100000000E-03 0. -1.
        -11    1    3    3    0    0  0.98339601490E+01 -0.47462682005E+01  0.15380561798E+02  0.18862542658E+02  0.51100000000E-03 0.  1.
        -12    1    3    3    0    0  0.70796245048E+01  0.18102610218E+01  0.19877610399E+02  0.21178232298E+02  0.00000000000E+00 0.  1.
</event>
<event>
 7    1  0.2227287E-008  0.4614232E+02  0.7816164E-02  0.1320468E+00
        -11   -1    0    0    0    0  0.00000000000E+00  0.00000000000E+00  0.45593999997E+02  0.45594000000E+02  0.51100000000E-03 0.  1.
         11   -1    0    0    0    0 -0.00000000000E+00 -0.00000000000E+00 -0.45593999997E+02  0.45594000000E+02  0.51100000000E-03 0. -1.
    9900012    2    1    2    0    0 -0.14555765208E+02  0.35243394696E+02  0.23982207761E+02  0.46142318081E+02  0.10000002913E+02 0.  0.
         12    1    1    2    0    0  0.14555765208E+02 -0.35243394696E+02 -0.23982207761E+02  0.45045681919E+02  0.00000000000E+00 0. -1.
         11    1    3    3    0    0 -0.34676394063E+01  0.13760624775E+02  0.60713121943E+01  0.15435029941E+02  0.51100000000E-03 0. -1.
        -11    1    3    3    0    0 -0.61544237200E+01  0.17658676287E+02  0.13400297084E+02  0.23005950137E+02  0.51100000000E-03 0.  1.
         12    1    3    3    0    0 -0.49337020818E+01  0.38240936346E+01  0.45105984826E+01  0.77013380025E+01  0.00000000000E+00 0. -1.
</event>
<event>
 7    1  0.2227287E-008  0.4614233E+02  0.7816164E-02  0.1320468E+00
        -11   -1    0    0    0    0  0.00000000000E+00  0.00000000000E+00  0.45593999997E+02  0.45594000000E+02  0.51100000000E-03 0.  1.
         11   -1    0    0    0    0 -0.00000000000E+00 -0.00000000000E+00 -0.45593999997E+02  0.45594000000E+02  0.51100000000E-03 0. -1.
    9900012    2    1    2    0    0  0.16985482930E+02 -0.38998552806E+02  0.14822906063E+02  0.46142331002E+02  0.10000120741E+02 0.  0.
         12    1    1    2    0    0 -0.16985482930E+02  0.38998552806E+02 -0.14822906063E+02  0.45045668998E+02  0.00000000000E+00 0. -1.
         11    1    3    3    0    0  0.15949480481E+00 -0.49798745249E+01  0.19695129287E-01  0.49824669628E+01  0.51100000000E-03 0. -1.
        -11    1    3    3    0    0  0.83622691826E+01 -0.20187175433E+02  0.57771100706E+01  0.22601429133E+02  0.51100000000E-03 0.  1.
         12    1    3    3    0    0  0.84637189422E+01 -0.13831502849E+02  0.90261008626E+01  0.18558434906E+02  0.00000000000E+00 0. -1.
</event>
<event>
 7    1  0.2227287E-008  0.4614232E+02  0.7816164E-02  0.1320468E+00
        -11   -1    0    0    0    0  0.00000000000E+00  0.00000000000E+00  0.45593999997E+02  0.45594000000E+02  0.51100000000E-03 0.  1.
         11   -1    0    0    0    0 -0.00000000000E+00 -0.00000000000E+00 -0.45593999997E+02  0.45594000000E+02  0.51100000000E-03 0. -1.
    9900012    2    1    2    0    0  0.10792393835E+02  0.16704176983E+02  0.40417920199E+02  0.46142316893E+02  0.99999920810E+01 0.  0.
         12    1    1    2    0    0 -0.10792393835E+02 -0.16704176983E+02 -0.40417920199E+02  0.45045683107E+02  0.00000000000E+00 0. -1.
         11    1    3    3    0    0  0.75520923854E+01  0.85752039666E+01  0.15521579672E+02  0.19274015104E+02  0.51100000000E-03 0. -1.
        -11    1    3    3    0    0  0.38562614155E+01  0.85271331696E+01  0.23394637842E+02  0.25197059991E+02  0.51100000000E-03 0.  1.
         12    1    3    3    0    0 -0.61595996631E+00 -0.39816015341E+00  0.15017026861E+01  0.16712417974E+01  0.00000000000E+00 0. -1.
</event>
<event>
 7    1  0.2227287E-008  0.4614232E+02  0.7816164E-02  0.1320468E+00
        -11   -1    0    0    0    0  0.00000000000E+00  0.00000000000E+00  0.45593999997E+02  0.45594000000E+02  0.51100000000E-03 0. -1.
         11   -1    0    0    0    0 -0.00000000000E+00 -0.00000000000E+00 -0.45593999997E+02  0.45594000000E+02  0.51100000000E-03 0.  1.
    9900012    2    1    2    0    0 -0.19144522651E+02  0.26811350738E+02 -0.30720550904E+02  0.46142317368E+02  0.99999964134E+01 0.  0.
         12    1    1    2    0    0  0.19144522651E+02 -0.26811350738E+02  0.30720550904E+02  0.45045682632E+02  0.00000000000E+00 0. -1.
         11    1    3    3    0    0 -0.12283339292E+02  0.11191578377E+02 -0.16283612772E+02  0.23265594682E+02  0.51100000000E-03 0. -1.
        -11    1    3    3    0    0 -0.70880876121E+01  0.12084740962E+02 -0.12790548937E+02  0.18970505858E+02  0.51100000000E-03 0.  1.
         12    1    3    3    0    0  0.22690425252E+00  0.35350313985E+01 -0.16463891955E+01  0.39062168285E+01  0.00000000000E+00 0. -1.
</event>
<event>
 7    1  0.2227287E-008  0.4614232E+02  0.7816164E-02  0.1320468E+00
        -11   -1    0    0    0    0  0.00000000000E+00  0.00000000000E+00  0.45593999997E+02  0.45594000000E+02  0.51100000000E-03 0.  1.
         11   -1    0    0    0    0 -0.00000000000E+00 -0.00000000000E+00 -0.45593999997E+02  0.45594000000E+02  0.51100000000E-03 0. -1.
    9900012    2    1    2    0    0 -0.38672937251E+01 -0.41637381553E+02  0.16747713109E+02  0.46142318767E+02  0.10000009175E+02 0.  0.
         12    1    1    2    0    0  0.38672937251E+01  0.41637381553E+02 -0.16747713109E+02  0.45045681233E+02  0.00000000000E+00 0. -1.
         11    1    3    3    0    0 -0.12044656068E-01 -0.87430695052E+01  0.22482059823E+01  0.90275046301E+01  0.51100000000E-03 0. -1.
        -11    1    3    3    0    0  0.16726454786E+01 -0.76962918214E+01  0.61738587921E+01  0.10007356461E+02  0.51100000000E-03 0.  1.
        -12    1    3    3    0    0 -0.55278945476E+01 -0.25198020226E+02  0.83256483349E+01  0.27107457676E+02  0.00000000000E+00 0.  1.
</event>
<event>
 7    1  0.2227287E-008  0.4614232E+02  0.7816164E-02  0.1320468E+00
        -11   -1    0    0    0    0  0.00000000000E+00  0.00000000000E+00  0.45593999997E+02  0.45594000000E+02  0.51100000000E-03 0.  1.
         11   -1    0    0    0    0 -0.00000000000E+00 -0.00000000000E+00 -0.45593999997E+02  0.45594000000E+02  0.51100000000E-03 0. -1.
    9900012    2    1    2    0    0 -0.39977914789E+02  0.15640005486E+01  0.20698641038E+02  0.46142317527E+02  0.99999978678E+01 0.  0.
         12    1    1    2    0    0  0.39977914789E+02 -0.15640005486E+01 -0.20698641038E+02  0.45045682473E+02  0.00000000000E+00 0. -1.
         11    1    3    3    0    0 -0.25328851909E+02  0.26412872162E+01  0.97425676216E+01  0.27266183475E+02  0.51100000000E-03 0. -1.
        -11    1    3    3    0    0 -0.12299369769E+02 -0.35803973226E+00  0.68281988644E+01  0.14072206264E+02  0.51100000000E-03 0.  1.
         12    1    3    3    0    0 -0.23496931120E+01 -0.71924693535E+00  0.41278745520E+01  0.48039277879E+01  0.00000000000E+00 0. -1.
</event>
<event>
 7    1  0.2227287E-008  0.4614232E+02  0.7816164E-02  0.1320468E+00
        -11   -1    0    0    0    0  0.00000000000E+00  0.00000000000E+00  0.45593999997E+02  0.45594000000E+02  0.51100000000E-03 0.  1.
         11   -1    0    0    0    0 -0.00000000000E+00 -0.00000000000E+00 -0.45593999997E+02  0.45594000000E+02  0.51100000000E-03 0. -1.
    9900012    2    1    2    0    0 -0.17742370214E+02 -0.28530946951E+02  0.30005114028E+02  0.46142317603E+02  0.99999985593E+01 0.  0.
         12    1    1    2    0    0  0.17742370214E+02  0.28530946951E+02 -0.30005114028E+02  0.45045682397E+02  0.00000000000E+00 0. -1.
         11    1    3    3    0    0 -0.66419488789E+01 -0.52307034076E+01  0.10878858814E+02  0.13777710710E+02  0.51100000000E-03 0. -1.
        -11    1    3    3    0    0 -0.97000230417E+01 -0.17002722607E+02  0.15463545475E+02  0.24946026978E+02  0.51100000000E-03 0.  1.
        -12    1    3    3    0    0 -0.14003982936E+01 -0.62975209363E+01  0.36627097394E+01  0.74185799152E+01  0.00000000000E+00 0.  1.
</event>
<event>
 7    1  0.2227287E-008  0.4614232E+02  0.7816164E-02  0.1320468E+00
        -11   -1    0    0    0    0  0.00000000000E+00  0.00000000000E+00  0.45593999997E+02  0.45594000000E+02  0.51100000000E-03 0.  1.
         11   -1    0    0    0    0 -0.00000000000E+00 -0.00000000000E+00 -0.45593999997E+02  0.45594000000E+02  0.51100000000E-03 0. -1.
    9900012    2    1    2    0    0 -0.17049204169E+02  0.35785545695E+00  0.41693046921E+02  0.46142316689E+02  0.99999902267E+01 0.  0.
         12    1    1    2    0    0  0.17049204169E+02 -0.35785545695E+00 -0.41693046921E+02  0.45045683311E+02  0.00000000000E+00 0. -1.
         11    1    3    3    0    0 -0.12277966105E+02 -0.27041754566E+01  0.27313415325E+02  0.30067984195E+02  0.51100000000E-03 0. -1.
        -11    1    3    3    0    0  0.12733238224E+00 -0.76472663187E+00  0.30979311985E+01  0.31934618095E+01  0.51100000000E-03 0.  1.
        -12    1    3    3    0    0 -0.48985704471E+01  0.38267575454E+01  0.11281700398E+02  0.12880870685E+02  0.00000000000E+00 0.  1.
</event>
<event>
 7    1  0.2227287E-008  0.4614232E+02  0.7816164E-02  0.1320468E+00
        -11   -1    0    0    0    0  0.00000000000E+00  0.00000000000E+00  0.45593999997E+02  0.45594000000E+02  0.51100000000E-03 0.  1.
         11   -1    0    0    0    0 -0.00000000000E+00 -0.00000000000E+00 -0.45593999997E+02  0.45594000000E+02  0.51100000000E-03 0. -1.
    9900012    2    1    2    0    0 -0.44029426821E+02 -0.85337629490E+01 -0.42069047603E+01  0.46142316700E+02  0.99999903279E+01 0.  0.
         12    1    1    2    0    0  0.44029426821E+02  0.85337629490E+01  0.42069047603E+01  0.45045683300E+02  0.00000000000E+00 0. -1.
         11    1    3    3    0    0 -0.57076408444E+01  0.98459139260E+00 -0.23523449101E+01  0.62514087257E+01  0.51100000000E-03 0. -1.
        -11    1    3    3    0    0 -0.39184801589E+01 -0.19698217813E+01  0.11713734616E+01  0.45394714068E+01  0.51100000000E-03 0.  1.
         12    1    3    3    0    0 -0.34403305818E+02 -0.75485325603E+01 -0.30259333118E+01  0.35351436568E+02  0.00000000000E+00 0. -1.
</event>
<event>
 7    1  0.2227287E-008  0.4614232E+02  0.7816164E-02  0.1320468E+00
        -11   -1    0    0    0    0  0.00000000000E+00  0.00000000000E+00  0.45593999997E+02  0.45594000000E+02  0.51100000000E-03 0. -1.
         11   -1    0    0    0    0 -0.00000000000E+00 -0.00000000000E+00 -0.45593999997E+02  0.45594000000E+02  0.51100000000E-03 0.  1.
    9900012    2    1    2    0    0  0.21273017721E+02  0.38173957938E+02 -0.10923406231E+02  0.46142321503E+02  0.10000034118E+02 0.  0.
         12    1    1    2    0    0 -0.21273017721E+02 -0.38173957938E+02  0.10923406231E+02  0.45045678497E+02  0.00000000000E+00 0. -1.
         11    1    3    3    0    0  0.11780802133E+02  0.20072224968E+02 -0.12552503152E+01  0.23307877803E+02  0.51100000000E-03 0. -1.
        -11    1    3    3    0    0  0.82705920723E+01  0.13518106490E+02 -0.64918324524E+01  0.17125588607E+02  0.51100000000E-03 0.  1.
        -12    1    3    3    0    0  0.12216235158E+01  0.45836264801E+01 -0.31763234630E+01  0.57088550923E+01  0.00000000000E+00 0.  1.
</event>
<event>
 7    1  0.2227287E-008  0.4614232E+02  0.7816164E-02  0.1320468E+00
        -11   -1    0    0    0    0  0.00000000000E+00  0.00000000000E+00  0.45593999997E+02  0.45594000000E+02  0.51100000000E-03 0.  1.
         11   -1    0    0    0    0 -0.00000000000E+00 -0.00000000000E+00 -0.45593999997E+02  0.45594000000E+02  0.51100000000E-03 0. -1.
    9900012    2    1    2    0    0  0.26366726881E+02 -0.31243203725E+02  0.18914845792E+02  0.46142318112E+02  0.10000003196E+02 0.  0.
         12    1    1    2    0    0 -0.26366726881E+02  0.31243203725E+02 -0.18914845792E+02  0.45045681888E+02  0.00000000000E+00 0. -1.
         11    1    3    3    0    0  0.72894955999E+01 -0.62838955355E+01  0.75186754527E+01  0.12212885410E+02  0.51100000000E-03 0. -1.
        -11    1    3    3    0    0  0.26348326161E+01 -0.30266565450E+01  0.36991775924E+01  0.54577383482E+01  0.51100000000E-03 0.  1.
         12    1    3    3    0    0  0.16442398665E+02 -0.21932651644E+02  0.76969927472E+01  0.28471694354E+02  0.00000000000E+00 0. -1.
</event>
<event>
 7    1  0.2227287E-008  0.4614232E+02  0.7816164E-02  0.1320468E+00
        -11   -1    0    0    0    0  0.00000000000E+00  0.00000000000E+00  0.45593999997E+02  0.45594000000E+02  0.51100000000E-03 0. -1.
         11   -1    0    0    0    0 -0.00000000000E+00 -0.00000000000E+00 -0.45593999997E+02  0.45594000000E+02  0.51100000000E-03 0.  1.
    9900012    2    1    2    0    0  0.20049561077E+01  0.21184823185E+02 -0.39702605235E+02  0.46142318244E+02  0.10000004406E+02 0.  0.
         12    1    1    2    0    0 -0.20049561077E+01 -0.21184823185E+02  0.39702605235E+02  0.45045681756E+02  0.00000000000E+00 0. -1.
         11    1    3    3    0    0 -0.11350085428E+01  0.52851527858E+01 -0.65303117393E+01  0.84773849762E+01  0.51100000000E-03 0. -1.
        -11    1    3    3    0    0  0.44844480596E+01  0.12493940138E+02 -0.20085993886E+02  0.24076045465E+02  0.51100000000E-03 0.  1.
        -12    1    3    3    0    0 -0.13444834091E+01  0.34057302609E+01 -0.13086299610E+02  0.13588887803E+02  0.00000000000E+00 0.  1.
</event>
<event>
 7    1  0.2227287E-008  0.4614232E+02  0.7816164E-02  0.1320468E+00
        -11   -1    0    0    0    0  0.00000000000E+00  0.00000000000E+00  0.45593999997E+02  0.45594000000E+02  0.51100000000E-03 0.  1.
         11   -1    0    0    0    0 -0.00000000000E+00 -0.00000000000E+00 -0.45593999997E+02  0.45594000000E+02  0.51100000000E-03 0. -1.
    9900012    2    1    2    0    0 -0.23917313941E+02  0.32519994852E+02  0.19988134629E+02  0.46142317662E+02  0.99999990955E+01 0.  0.
         12    1    1    2    0    0  0.23917313941E+02 -0.32519994852E+02 -0.19988134629E+02  0.45045682338E+02  0.00000000000E+00 0. -1.
         11    1    3    3    0    0 -0.34853610121E+01  0.66181979936E+01  0.18929294888E+01  0.77156638325E+01  0.51100000000E-03 0. -1.
        -11    1    3    3    0    0 -0.73109201269E+01  0.15413253025E+02  0.81585130918E+01  0.18909766208E+02  0.51100000000E-03 0.  1.
         12    1    3    3    0    0 -0.13121032803E+02  0.10488543833E+02  0.99366920489E+01  0.19516887621E+02  0.00000000000E+00 0. -1.
</event>
<event>
 7    1  0.2227287E-008  0.4614232E+02  0.7816164E-02  0.1320468E+00
        -11   -1    0    0    0    0  0.00000000000E+00  0.00000000000E+00  0.45593999997E+02  0.45594000000E+02  0.51100000000E-03 0.  1.
         11   -1    0    0    0    0 -0.00000000000E+00 -0.00000000000E+00 -0.45593999997E+02  0.45594000000E+02  0.51100000000E-03 0. -1.
    9900012    2    1    2    0    0  0.17814694436E+01 -0.43993603466E+02 -0.95132883336E+01  0.46142318362E+02  0.10000005484E+02 0.  0.
         12    1    1    2    0    0 -0.17814694436E+01  0.43993603466E+02  0.95132883336E+01  0.45045681638E+02  0.00000000000E+00 0. -1.
         11    1    3    3    0    0 -0.32420924936E+00 -0.12366227786E+02 -0.65302971231E+01  0.13988333785E+02  0.51100000000E-03 0. -1.
        -11    1    3    3    0    0  0.28704100900E+01 -0.13024981412E+02 -0.22137933568E+01  0.13519995420E+02  0.51100000000E-03 0.  1.
        -12    1    3    3    0    0 -0.76473139705E+00 -0.18602394268E+02 -0.76919785362E+00  0.18633989158E+02  0.00000000000E+00 0.  1.
</event>
<event>
 7    1  0.2227287E-008  0.4614232E+02  0.7816164E-02  0.1320468E+00
        -11   -1    0    0    0    0  0.00000000000E+00  0.00000000000E+00  0.45593999997E+02  0.45594000000E+02  0.51100000000E-03 0.  1.
         11   -1    0    0    0    0 -0.00000000000E+00 -0.00000000000E+00 -0.45593999997E+02  0.45594000000E+02  0.51100000000E-03 0. -1.
    9900012    2    1    2    0    0  0.39675777354E+02 -0.21318717763E+02  0.67715635261E+00  0.46142316784E+02  0.99999910870E+01 0.  0.
         12    1    1    2    0    0 -0.39675777354E+02  0.21318717763E+02 -0.67715635261E+00  0.45045683216E+02  0.00000000000E+00 0. -1.
         11    1    3    3    0    0  0.23179931731E+01 -0.15563635733E+01  0.51840572545E+00  0.28397367272E+01  0.51100000000E-03 0. -1.
        -11    1    3    3    0    0  0.35515821787E+02 -0.19632439757E+02 -0.17868981125E+01  0.40620183322E+02  0.51100000000E-03 0.  1.
         12    1    3    3    0    0  0.18419623946E+01 -0.12991443219E+00  0.19456487396E+01  0.26823967344E+01  0.00000000000E+00 0. -1.
</event>
<event>
 7    1  0.2227287E-008  0.4614233E+02  0.7816164E-02  0.1320468E+00
        -11   -1    0    0    0    0  0.00000000000E+00  0.00000000000E+00  0.45593999997E+02  0.45594000000E+02  0.51100000000E-03 0. -1.
         11   -1    0    0    0    0 -0.00000000000E+00 -0.00000000000E+00 -0.45593999997E+02  0.45594000000E+02  0.51100000000E-03 0.  1.
    9900012    2    1    2    0    0 -0.10828327273E+02  0.15099766467E+02 -0.41034826898E+02  0.46142327206E+02  0.10000086125E+02 0.  0.
         12    1    1    2    0    0  0.10828327273E+02 -0.15099766467E+02  0.41034826898E+02  0.45045672794E+02  0.00000000000E+00 0. -1.
         11    1    3    3    0    0 -0.76070769392E+01  0.32436602228E+01 -0.11822354605E+02  0.14427647760E+02  0.51100000000E-03 0. -1.
        -11    1    3    3    0    0 -0.19969476529E+00  0.22977155178E+01 -0.48543564844E+01  0.53743978025E+01  0.51100000000E-03 0.  1.
         12    1    3    3    0    0 -0.30215555689E+01  0.95583907268E+01 -0.24358115808E+02  0.26340281644E+02  0.00000000000E+00 0. -1.
</event>
<event>
 7    1  0.2227287E-008  0.4614231E+02  0.7816164E-02  0.1320468E+00
        -11   -1    0    0    0    0  0.00000000000E+00  0.00000000000E+00  0.45593999997E+02  0.45594000000E+02  0.51100000000E-03 0. -1.
         11   -1    0    0    0    0 -0.00000000000E+00 -0.00000000000E+00 -0.45593999997E+02  0.45594000000E+02  0.51100000000E-03 0.  1.
    9900012    2    1    2    0    0  0.34354030050E+02  0.77701920305E+01 -0.28080932652E+02  0.46142311600E+02  0.99999438172E+01 0.  0.
         12    1    1    2    0    0 -0.34354030050E+02 -0.77701920305E+01  0.28080932652E+02  0.45045688400E+02  0.00000000000E+00 0. -1.
         11    1    3    3    0    0  0.95345798155E+01  0.30613226460E+01 -0.99442483693E+01  0.14112688776E+02  0.51100000000E-03 0. -1.
        -11    1    3    3    0    0  0.84329798204E+01  0.13899009052E+00 -0.10263355617E+02  0.13284236361E+02  0.51100000000E-03 0.  1.
        -12    1    3    3    0    0  0.16386470414E+02  0.45698792939E+01 -0.78733286652E+01  0.18745386463E+02  0.00000000000E+00 0.  1.
</event>
<event>
 7    1  0.2227287E-008  0.4614232E+02  0.7816164E-02  0.1320468E+00
        -11   -1    0    0    0    0  0.00000000000E+00  0.00000000000E+00  0.45593999997E+02  0.45594000000E+02  0.51100000000E-03 0.  1.
         11   -1    0    0    0    0 -0.00000000000E+00 -0.00000000000E+00 -0.45593999997E+02  0.45594000000E+02  0.51100000000E-03 0. -1.
    9900012    2    1    2    0    0 -0.10453992451E+02 -0.35973527921E+02  0.25014652513E+02  0.46142317525E+02  0.99999978514E+01 0.  0.
         12    1    1    2    0    0  0.10453992451E+02  0.35973527921E+02 -0.25014652513E+02  0.45045682475E+02  0.00000000000E+00 0. -1.
         11    1    3    3    0    0 -0.37165973634E+01 -0.13551803996E+02  0.12571626029E+02  0.18854979946E+02  0.51100000000E-03 0. -1.
        -11    1    3    3    0    0 -0.24212154286E+01 -0.55763569869E+01  0.31728327311E+00  0.60875865771E+01  0.51100000000E-03 0.  1.
         12    1    3    3    0    0 -0.43161796593E+01 -0.16845366938E+02  0.12125743211E+02  0.21199751002E+02  0.00000000000E+00 0. -1.
</event>
<event>
 7    1  0.2227287E-008  0.4614232E+02  0.7816164E-02  0.1320468E+00
        -11   -1    0    0    0    0  0.00000000000E+00  0.00000000000E+00  0.45593999997E+02  0.45594000000E+02  0.51100000000E-03 0.  1.
         11   -1    0    0    0    0 -0.00000000000E+00 -0.00000000000E+00 -0.45593999997E+02  0.45594000000E+02  0.51100000000E-03 0. -1.
    9900012    2    1    2    0    0 -0.26185569534E+02 -0.16737079775E-01  0.36652820055E+02  0.46142317078E+02  0.99999937691E+01 0.  0.
         12    1    1    2    0    0  0.26185569534E+02  0.16737079775E-01 -0.36652820055E+02  0.45045682922E+02  0.00000000000E+00 0. -1.
         11    1    3    3    0    0 -0.13299044587E+01 -0.18826598005E+01  0.28125136703E+01  0.36363838082E+01  0.51100000000E-03 0. -1.
        -11    1    3    3    0    0 -0.11467837922E+02 -0.12578977234E+01  0.19378387847E+02  0.22552506049E+02  0.51100000000E-03 0.  1.
        -12    1    3    3    0    0 -0.13387827154E+02  0.31238204441E+01  0.14461918537E+02  0.19953427220E+02  0.00000000000E+00 0.  1.
</event>
<event>
 7    1  0.2227287E-008  0.4614232E+02  0.7816164E-02  0.1320468E+00
        -11   -1    0    0    0    0  0.00000000000E+00  0.00000000000E+00  0.45593999997E+02  0.45594000000E+02  0.51100000000E-03 0. -1.
         11   -1    0    0    0    0 -0.00000000000E+00 -0.00000000000E+00 -0.45593999997E+02  0.45594000000E+02  0.51100000000E-03 0.  1.
    9900012    2    1    2    0    0 -0.89105704477E+01  0.17155148857E+02 -0.40686804388E+02  0.46142318195E+02  0.10000003958E+02 0.  0.
         12    1    1    2    0    0  0.89105704477E+01 -0.17155148857E+02  0.40686804388E+02  0.45045681805E+02  0.00000000000E+00 0. -1.
         11    1    3    3    0    0 -0.28605774448E+01  0.10172471040E+02 -0.16857222494E+02  0.19895427134E+02  0.51100000000E-03 0.  1.
        -11    1    3    3    0    0 -0.88140891704E+00 -0.67953798439E+00 -0.64124680730E+00  0.12844653675E+01  0.51100000000E-03 0. -1.
        -12    1    3    3    0    0 -0.51685840858E+01  0.76622158012E+01 -0.23188335086E+02  0.24962425694E+02  0.00000000000E+00 0.  1.
</event>
<event>
 7    1  0.2227287E-008  0.4614232E+02  0.7816164E-02  0.1320468E+00
        -11   -1    0    0    0    0  0.00000000000E+00  0.00000000000E+00  0.45593999997E+02  0.45594000000E+02  0.51100000000E-03 0.  1.
         11   -1    0    0    0    0 -0.00000000000E+00 -0.00000000000E+00 -0.45593999997E+02  0.45594000000E+02  0.51100000000E-03 0. -1.
    9900012    2    1    2    0    0  0.39031472575E+02 -0.22212869765E+02  0.34994398920E+01  0.46142317476E+02  0.99999973983E+01 0.  0.
         12    1    1    2    0    0 -0.39031472575E+02  0.22212869765E+02 -0.34994398920E+01  0.45045682524E+02  0.00000000000E+00 0. -1.
         11    1    3    3    0    0  0.20890847155E+02 -0.14211738394E+02  0.61792151797E+00  0.25274153404E+02  0.51100000000E-03 0. -1.
        -11    1    3    3    0    0  0.11931983165E+02 -0.80923460562E+01  0.14040741897E+01  0.14485500045E+02  0.51100000000E-03 0.  1.
        -12    1    3    3    0    0  0.62086422546E+01  0.91214686177E-01  0.14774441844E+01  0.63826640270E+01  0.00000000000E+00 0.  1.
</event>
<event>
 7    1  0.2227287E-008  0.4614232E+02  0.7816164E-02  0.1320468E+00
        -11   -1    0    0    0    0  0.00000000000E+00  0.00000000000E+00  0.45593999997E+02  0.45594000000E+02  0.51100000000E-03 0. -1.
         11   -1    0    0    0    0 -0.00000000000E+00 -0.00000000000E+00 -0.45593999997E+02  0.45594000000E+02  0.51100000000E-03 0.  1.
    9900012    2    1    2    0    0  0.40525845012E+02 -0.31271216222E+01 -0.19416244755E+02  0.46142316922E+02  0.99999923489E+01 0.  0.
         12    1    1    2    0    0 -0.40525845012E+02  0.31271216222E+01  0.19416244755E+02  0.45045683078E+02  0.00000000000E+00 0. -1.
         11    1    3    3    0    0  0.90477602192E+00  0.64924060546E+00 -0.13489297621E+01  0.17492126165E+01  0.51100000000E-03 0. -1.
        -11    1    3    3    0    0  0.15520166022E+02 -0.18149539751E+01 -0.11299176032E+02  0.19283178953E+02  0.51100000000E-03 0.  1.
         12    1    3    3    0    0  0.24100902968E+02 -0.19614082525E+01 -0.67681389611E+01  0.25109925352E+02  0.00000000000E+00 0. -1.
</event>
<event>
 7    1  0.2227287E-008  0.4614232E+02  0.7816164E-02  0.1320468E+00
        -11   -1    0    0    0    0  0.00000000000E+00  0.00000000000E+00  0.45593999997E+02  0.45594000000E+02  0.51100000000E-03 0.  1.
         11   -1    0    0    0    0 -0.00000000000E+00 -0.00000000000E+00 -0.45593999997E+02  0.45594000000E+02  0.51100000000E-03 0. -1.
    9900012    2    1    2    0    0  0.27234580354E+02 -0.62040288261E+01  0.35339793933E+02  0.46142319009E+02  0.10000011380E+02 0.  0.
         12    1    1    2    0    0 -0.27234580354E+02  0.62040288261E+01 -0.35339793933E+02  0.45045680991E+02  0.00000000000E+00 0. -1.
         11    1    3    3    0    0  0.78495553416E+01 -0.24811633508E+01  0.75453941643E+01  0.11167124249E+02  0.51100000000E-03 0. -1.
        -11    1    3    3    0    0  0.14601475658E+02 -0.26939177262E+00  0.15262350404E+02  0.21123801823E+02  0.51100000000E-03 0.  1.
         12    1    3    3    0    0  0.47835493541E+01 -0.34534737026E+01  0.12532049364E+02  0.13851392937E+02  0.00000000000E+00 0. -1.
</event>
<event>
 7    1  0.2227287E-008  0.4614232E+02  0.7816164E-02  0.1320468E+00
        -11   -1    0    0    0    0  0.00000000000E+00  0.00000000000E+00  0.45593999997E+02  0.45594000000E+02  0.51100000000E-03 0. -1.
         11   -1    0    0    0    0 -0.00000000000E+00 -0.00000000000E+00 -0.45593999997E+02  0.45594000000E+02  0.51100000000E-03 0.  1.
    9900012    2    1    2    0    0 -0.21168022656E+00 -0.34860125911E+02 -0.28527887721E+02  0.46142316912E+02  0.99999922575E+01 0.  0.
         12    1    1    2    0    0  0.21168022656E+00  0.34860125911E+02  0.28527887721E+02  0.45045683088E+02  0.00000000000E+00 0. -1.
         11    1    3    3    0    0 -0.99558839158E-01 -0.10513540208E+01 -0.19373904561E+01  0.22065219872E+01  0.51100000000E-03 0. -1.
        -11    1    3    3    0    0 -0.44867343968E+01 -0.15842076561E+02 -0.13246539191E+02  0.21132273330E+02  0.51100000000E-03 0.  1.
         12    1    3    3    0    0  0.43746130094E+01 -0.17966695329E+02 -0.13343958074E+02  0.22803521595E+02  0.00000000000E+00 0. -1.
</event>
<event>
 7    1  0.2227287E-008  0.4614232E+02  0.7816164E-02  0.1320468E+00
        -11   -1    0    0    0    0  0.00000000000E+00  0.00000000000E+00  0.45593999997E+02  0.45594000000E+02  0.51100000000E-03 0.  1.
         11   -1    0    0    0    0 -0.00000000000E+00 -0.00000000000E+00 -0.45593999997E+02  0.45594000000E+02  0.51100000000E-03 0. -1.
    9900012    2    1    2    0    0 -0.20849317988E+02  0.87711696097E+01  0.38954916728E+02  0.46142323024E+02  0.10000047995E+02 0.  0.
         12    1    1    2    0    0  0.20849317988E+02 -0.87711696097E+01 -0.38954916728E+02  0.45045676976E+02  0.00000000000E+00 0. -1.
         11    1    3    3    0    0 -0.61088525199E+01 -0.21766550167E+00  0.57624435477E+01  0.84006674307E+01  0.51100000000E-03 0. -1.
        -11    1    3    3    0    0 -0.25198254041E+01  0.10223925197E+01  0.22376087688E+01  0.35216047187E+01  0.51100000000E-03 0.  1.
        -12    1    3    3    0    0 -0.12220640064E+02  0.79664425917E+01  0.30954864411E+02  0.34220050875E+02  0.00000000000E+00 0.  1.
</event>
<event>
 7    1  0.2227287E-008  0.4614232E+02  0.7816164E-02  0.1320468E+00
        -11   -1    0    0    0    0  0.00000000000E+00  0.00000000000E+00  0.45593999997E+02  0.45594000000E+02  0.51100000000E-03 0.  1.
         11   -1    0    0    0    0 -0.00000000000E+00 -0.00000000000E+00 -0.45593999997E+02  0.45594000000E+02  0.51100000000E-03 0. -1.
    9900012    2    1    2    0    0  0.39032527461E+02 -0.15092107268E+02  0.16667437689E+02  0.46142318954E+02  0.10000010875E+02 0.  0.
         12    1    1    2    0    0 -0.39032527461E+02  0.15092107268E+02 -0.16667437689E+02  0.45045681046E+02  0.00000000000E+00 0. -1.
         11    1    3    3    0    0  0.13034356856E+02 -0.55266166201E+01  0.16853279461E+01  0.14257569234E+02  0.51100000000E-03 0. -1.
        -11    1    3    3    0    0  0.19638737009E+02 -0.74894871046E+01  0.88354448166E+01  0.22799945038E+02  0.51100000000E-03 0.  1.
        -12    1    3    3    0    0  0.63594335966E+01 -0.20760035430E+01  0.61466649264E+01  0.90848046813E+01  0.00000000000E+00 0.  1.
</event>
<event>
 7    1  0.2227287E-008  0.4614232E+02  0.7816164E-02  0.1320468E+00
        -11   -1    0    0    0    0  0.00000000000E+00  0.00000000000E+00  0.45593999997E+02  0.45594000000E+02  0.51100000000E-03 0.  1.
         11   -1    0    0    0    0 -0.00000000000E+00 -0.00000000000E+00 -0.45593999997E+02  0.45594000000E+02  0.51100000000E-03 0. -1.
    9900012    2    1    2    0    0 -0.36902961956E+02 -0.31980949091E+01  0.25633124787E+02  0.46142317648E+02  0.99999989703E+01 0.  0.
         12    1    1    2    0    0  0.36902961956E+02  0.31980949091E+01 -0.25633124787E+02  0.45045682352E+02  0.00000000000E+00 0. -1.
         11    1    3    3    0    0 -0.16474447911E+02 -0.32033849612E+01  0.14735117374E+02  0.22333669503E+02  0.51100000000E-03 0.  1.
        -11    1    3    3    0    0 -0.19485195622E+02 -0.82800644930E+00  0.11232673788E+02  0.22506252549E+02  0.51100000000E-03 0. -1.
         12    1    3    3    0    0 -0.94331842343E+00  0.83329650147E+00 -0.33466637491E+00  0.13023955965E+01  0.00000000000E+00 0. -1.
</event>
<event>
 7    1  0.2305318E-008  0.4614232E+02  0.7816164E-02  0.1320468E+00
        -11   -1    0    0    0    0  0.00000000000E+00  0.00000000000E+00  0.45593999997E+02  0.45594000000E+02  0.51100000000E-03 0. -1.
         11   -1    0    0    0    0 -0.00000000000E+00 -0.00000000000E+00 -0.45593999997E+02  0.45594000000E+02  0.51100000000E-03 0.  1.
    9900012    2    1    2    0    0  0.18729411639E+02 -0.20709380928E+02 -0.35347475428E+02  0.46142319431E+02  0.10000015230E+02 0.  0.
         12    1    1    2    0    0 -0.18729411639E+02  0.20709380928E+02  0.35347475428E+02  0.45045680569E+02  0.00000000000E+00 0. -1.
         11    1    3    3    0    0  0.78534746750E+00  0.84682673700E+00 -0.11558725912E+01  0.16339913939E+01  0.51100000000E-03 0. -1.
        -11    1    3    3    0    0  0.26715382151E+01 -0.92882652284E+00 -0.33952568691E+01  0.44190049347E+01  0.51100000000E-03 0.  1.
        -12    1    3    3    0    0  0.15272525956E+02 -0.20627381142E+02 -0.30796345968E+02  0.40089323103E+02  0.00000000000E+00 0.  1.
</event>
<event>
 7    1  0.2479338E-008  0.4614232E+02  0.7816164E-02  0.1320468E+00
        -11   -1    0    0    0    0  0.00000000000E+00  0.00000000000E+00  0.45593999997E+02  0.45594000000E+02  0.51100000000E-03 0. -1.
         11   -1    0    0    0    0 -0.00000000000E+00 -0.00000000000E+00 -0.45593999997E+02  0.45594000000E+02  0.51100000000E-03 0.  1.
    9900012    2    1    2    0    0  0.43678194711E+02  0.56473569417E+00 -0.11000447732E+02  0.46142317966E+02  0.10000001865E+02 0.  0.
         12    1    1    2    0    0 -0.43678194711E+02 -0.56473569417E+00  0.11000447732E+02  0.45045682034E+02  0.00000000000E+00 0. -1.
         11    1    3    3    0    0  0.64533314461E+01  0.16250759945E+00 -0.75392154975E+00  0.64992532984E+01  0.51100000000E-03 0. -1.
        -11    1    3    3    0    0  0.31006669108E+02  0.31711550258E+00 -0.48023926557E+01  0.31377971045E+02  0.51100000000E-03 0.  1.
         12    1    3    3    0    0  0.62181941567E+01  0.85112592137E-01 -0.54441335265E+01  0.82650936219E+01  0.00000000000E+00 0. -1.
</event>
<event>
 7    1  0.2227287E-008  0.4614232E+02  0.7816164E-02  0.1320468E+00
        -11   -1    0    0    0    0  0.00000000000E+00  0.00000000000E+00  0.45593999997E+02  0.45594000000E+02  0.51100000000E-03 0. -1.
         11   -1    0    0    0    0 -0.00000000000E+00 -0.00000000000E+00 -0.45593999997E+02  0.45594000000E+02  0.51100000000E-03 0.  1.
    9900012    2    1    2    0    0 -0.12761910466E+02  0.42988373482E+02  0.42716391078E+01  0.46142317476E+02  0.99999974005E+01 0.  0.
         12    1    1    2    0    0  0.12761910466E+02 -0.42988373482E+02 -0.42716391078E+01  0.45045682524E+02  0.00000000000E+00 0. -1.
         11    1    3    3    0    0 -0.40637671887E+01  0.16117462726E+02  0.92942363352E+00  0.16647841813E+02  0.51100000000E-03 0. -1.
        -11    1    3    3    0    0 -0.10009582832E+02  0.23069209825E+02  0.18874839370E+01  0.25217906065E+02  0.51100000000E-03 0.  1.
         12    1    3    3    0    0  0.13114395556E+01  0.38017009309E+01  0.14547315374E+01  0.42765695974E+01  0.00000000000E+00 0. -1.
</event>
<event>
 7    1  0.2227287E-008  0.4614232E+02  0.7816164E-02  0.1320468E+00
        -11   -1    0    0    0    0  0.00000000000E+00  0.00000000000E+00  0.45593999997E+02  0.45594000000E+02  0.51100000000E-03 0.  1.
         11   -1    0    0    0    0 -0.00000000000E+00 -0.00000000000E+00 -0.45593999997E+02  0.45594000000E+02  0.51100000000E-03 0. -1.
    9900012    2    1    2    0    0 -0.23864754975E+02  0.97895756673E+01  0.36929002103E+02  0.46142317431E+02  0.99999969895E+01 0.  0.
         12    1    1    2    0    0  0.23864754975E+02 -0.97895756673E+01 -0.36929002103E+02  0.45045682569E+02  0.00000000000E+00 0. -1.
         11    1    3    3    0    0 -0.13839458589E+01  0.67707374075E-01  0.30608089082E+01  0.33598276537E+01  0.51100000000E-03 0. -1.
        -11    1    3    3    0    0 -0.20036116998E+02  0.47481903328E+01  0.27076430215E+02  0.34016530823E+02  0.51100000000E-03 0.  1.
         12    1    3    3    0    0 -0.24446921179E+01  0.49736779604E+01  0.67917629805E+01  0.87659589543E+01  0.00000000000E+00 0. -1.
</event>
<event>
 7    1  0.2227287E-008  0.4614232E+02  0.7816164E-02  0.1320468E+00
        -11   -1    0    0    0    0  0.00000000000E+00  0.00000000000E+00  0.45593999997E+02  0.45594000000E+02  0.51100000000E-03 0.  1.
         11   -1    0    0    0    0 -0.00000000000E+00 -0.00000000000E+00 -0.45593999997E+02  0.45594000000E+02  0.51100000000E-03 0. -1.
    9900012    2    1    2    0    0 -0.19595294948E+01  0.44495416542E+02  0.67402929173E+01  0.46142318768E+02  0.10000009179E+02 0.  0.
         12    1    1    2    0    0  0.19595294948E+01 -0.44495416542E+02 -0.67402929173E+01  0.45045681232E+02  0.00000000000E+00 0. -1.
         11    1    3    3    0    0 -0.11300318383E+01  0.97367660197E+01 -0.12453908254E+01  0.98809201518E+01  0.51100000000E-03 0.  1.
        -11    1    3    3    0    0 -0.28054001480E+01  0.10928990618E+02  0.42637047965E+01  0.12062018272E+02  0.51100000000E-03 0. -1.
        -12    1    3    3    0    0  0.19759024916E+01  0.23829659904E+02  0.37219789462E+01  0.24199380344E+02  0.00000000000E+00 0.  1.
</event>
<event>
 7    1  0.2227287E-008  0.4614232E+02  0.7816164E-02  0.1320468E+00
        -11   -1    0    0    0    0  0.00000000000E+00  0.00000000000E+00  0.45593999997E+02  0.45594000000E+02  0.51100000000E-03 0.  1.
         11   -1    0    0    0    0 -0.00000000000E+00 -0.00000000000E+00 -0.45593999997E+02  0.45594000000E+02  0.51100000000E-03 0. -1.
    9900012    2    1    2    0    0 -0.31427556286E+01 -0.23393823467E+02  0.38366205457E+02  0.46142316405E+02  0.99999876376E+01 0.  0.
         12    1    1    2    0    0  0.31427556286E+01  0.23393823467E+02 -0.38366205457E+02  0.45045683595E+02  0.00000000000E+00 0. -1.
         11    1    3    3    0    0 -0.46766249555E+01 -0.62157212448E+01  0.13898416834E+02  0.15927083924E+02  0.51100000000E-03 0. -1.
        -11    1    3    3    0    0  0.12070383862E+01 -0.46053824453E+01  0.41293700486E+01  0.63022366183E+01  0.51100000000E-03 0.  1.
         12    1    3    3    0    0  0.32683094075E+00 -0.12572719777E+02  0.20338418574E+02  0.23912995863E+02  0.00000000000E+00 0. -1.
</event>
<event>
 7    1  0.2227287E-008  0.4614232E+02  0.7816164E-02  0.1320468E+00
        -11   -1    0    0    0    0  0.00000000000E+00  0.00000000000E+00  0.45593999997E+02  0.45594000000E+02  0.51100000000E-03 0.  1.
         11   -1    0    0    0    0 -0.00000000000E+00 -0.00000000000E+00 -0.45593999997E+02  0.45594000000E+02  0.51100000000E-03 0. -1.
    9900012    2    1    2    0    0 -0.96298078213E+01  0.12821285034E+02  0.42095071464E+02  0.46142316631E+02  0.99999896957E+01 0.  0.
         12    1    1    2    0    0  0.96298078213E+01 -0.12821285034E+02 -0.42095071464E+02  0.45045683369E+02  0.00000000000E+00 0. -1.
         11    1    3    3    0    0 -0.31624059495E+01 -0.58162409264E+00  0.43045050060E+01  0.53728820555E+01  0.51100000000E-03 0. -1.
        -11    1    3    3    0    0 -0.31392614994E+01  0.43940594543E+01  0.17623568423E+02  0.18432386863E+02  0.51100000000E-03 0.  1.
         12    1    3    3    0    0 -0.33281403724E+01  0.90088496727E+01  0.20166998035E+02  0.22337047712E+02  0.00000000000E+00 0. -1.
</event>
<event>
 7    1  0.2227287E-008  0.4614232E+02  0.7816164E-02  0.1320468E+00
        -11   -1    0    0    0    0  0.00000000000E+00  0.00000000000E+00  0.45593999997E+02  0.45594000000E+02  0.51100000000E-03 0. -1.
         11   -1    0    0    0    0 -0.00000000000E+00 -0.00000000000E+00 -0.45593999997E+02  0.45594000000E+02  0.51100000000E-03 0.  1.
    9900012    2    1    2    0    0 -0.30067911659E+02 -0.37543979512E+01 -0.33330748671E+02  0.46142316273E+02  0.99999864311E+01 0.  0.
         12    1    1    2    0    0  0.30067911659E+02  0.37543979512E+01  0.33330748671E+02  0.45045683727E+02  0.00000000000E+00 0. -1.
         11    1    3    3    0    0 -0.48046622455E+01 -0.14336408325E+01 -0.19518256657E+01  0.53804952394E+01  0.51100000000E-03 0. -1.
        -11    1    3    3    0    0 -0.23354206366E+01 -0.13195338102E+01 -0.58386094319E+01  0.64253186213E+01  0.51100000000E-03 0.  1.
         12    1    3    3    0    0 -0.22927828776E+02 -0.10012233084E+01 -0.25540313573E+02  0.34336502412E+02  0.00000000000E+00 0. -1.
</event>
<event>
 7    1  0.2227287E-008  0.4614232E+02  0.7816164E-02  0.1320468E+00
        -11   -1    0    0    0    0  0.00000000000E+00  0.00000000000E+00  0.45593999997E+02  0.45594000000E+02  0.51100000000E-03 0. -1.
         11   -1    0    0    0    0 -0.00000000000E+00 -0.00000000000E+00 -0.45593999997E+02  0.45594000000E+02  0.51100000000E-03 0.  1.
    9900012    2    1    2    0    0 -0.25144064996E+02 -0.87891666042E+01 -0.36326852930E+02  0.46142315435E+02  0.99999787852E+01 0.  0.
         12    1    1    2    0    0  0.25144064996E+02  0.87891666042E+01  0.36326852930E+02  0.45045684565E+02  0.00000000000E+00 0. -1.
         11    1    3    3    0    0 -0.65251662121E+01 -0.15680736697E+01 -0.52068062118E+01  0.84939672896E+01  0.51100000000E-03 0. -1.
        -11    1    3    3    0    0 -0.17561559290E+02 -0.83412961178E+01 -0.27177810509E+02  0.33415849083E+02  0.51100000000E-03 0.  1.
        -12    1    3    3    0    0 -0.10573394947E+01  0.11202031832E+01 -0.39422362092E+01  0.42324990618E+01  0.00000000000E+00 0.  1.
</event>
<event>
 7    1  0.2227287E-008  0.4614232E+02  0.7816164E-02  0.1320468E+00
        -11   -1    0    0    0    0  0.00000000000E+00  0.00000000000E+00  0.45593999997E+02  0.45594000000E+02  0.51100000000E-03 0. -1.
         11   -1    0    0    0    0 -0.00000000000E+00 -0.00000000000E+00 -0.45593999997E+02  0.45594000000E+02  0.51100000000E-03 0.  1.
    9900012    2    1    2    0    0  0.38221558196E+02 -0.18108118003E+02 -0.15502325786E+02  0.46142317040E+02  0.99999934289E+01 0.  0.
         12    1    1    2    0    0 -0.38221558196E+02  0.18108118003E+02  0.15502325786E+02  0.45045682960E+02  0.00000000000E+00 0. -1.
         11    1    3    3    0    0  0.26296185196E+01 -0.35825194192E+01 -0.47251038547E+00  0.44690720819E+01  0.51100000000E-03 0. -1.
        -11    1    3    3    0    0  0.11497828510E+02 -0.35901191544E+01 -0.21132765086E+01  0.12229266284E+02  0.51100000000E-03 0.  1.
         12    1    3    3    0    0  0.24094111166E+02 -0.10935479429E+02 -0.12916538891E+02  0.29443978674E+02  0.00000000000E+00 0. -1.
</event>
<event>
 7    1  0.2227287E-008  0.4614232E+02  0.7816164E-02  0.1320468E+00
        -11   -1    0    0    0    0  0.00000000000E+00  0.00000000000E+00  0.45593999997E+02  0.45594000000E+02  0.51100000000E-03 0.  1.
         11   -1    0    0    0    0 -0.00000000000E+00 -0.00000000000E+00 -0.45593999997E+02  0.45594000000E+02  0.51100000000E-03 0. -1.
    9900012    2    1    2    0    0  0.16086222571E+02 -0.11362010026E+02  0.40512364564E+02  0.46142317510E+02  0.99999977089E+01 0.  0.
         12    1    1    2    0    0 -0.16086222571E+02  0.11362010026E+02 -0.40512364564E+02  0.45045682490E+02  0.00000000000E+00 0. -1.
         11    1    3    3    0    0  0.26117326304E+01  0.31188753205E+00  0.14452977625E+01  0.30012175944E+01  0.51100000000E-03 0. -1.
        -11    1    3    3    0    0  0.54361569367E+01 -0.24894794426E+01  0.15214879788E+02  0.16347534290E+02  0.51100000000E-03 0.  1.
         12    1    3    3    0    0  0.80383330037E+01 -0.91844181155E+01  0.23852187013E+02  0.26793565625E+02  0.00000000000E+00 0. -1.
</event>
<event>
 7    1  0.2227287E-008  0.4614232E+02  0.7816164E-02  0.1320468E+00
        -11   -1    0    0    0    0  0.00000000000E+00  0.00000000000E+00  0.45593999997E+02  0.45594000000E+02  0.51100000000E-03 0.  1.
         11   -1    0    0    0    0 -0.00000000000E+00 -0.00000000000E+00 -0.45593999997E+02  0.45594000000E+02  0.51100000000E-03 0. -1.
    9900012    2    1    2    0    0  0.14099832251E+02  0.40977724130E+02 -0.12293679159E+02  0.46142315504E+02  0.99999794195E+01 0.  0.
         12    1    1    2    0    0 -0.14099832251E+02 -0.40977724130E+02  0.12293679159E+02  0.45045684496E+02  0.00000000000E+00 0. -1.
         11    1    3    3    0    0  0.92732016008E+00  0.52914762629E+01  0.15150862130E+01  0.55816780823E+01  0.51100000000E-03 0. -1.
        -11    1    3    3    0    0  0.10183834650E+01  0.38580551259E+01 -0.67491094223E+00  0.40468752486E+01  0.51100000000E-03 0.  1.
         12    1    3    3    0    0  0.12154128626E+02  0.31828192742E+02 -0.13133854430E+02  0.36513762173E+02  0.00000000000E+00 0. -1.
</event>
<event>
 7    1  0.2227287E-008  0.4614232E+02  0.7816164E-02  0.1320468E+00
        -11   -1    0    0    0    0  0.00000000000E+00  0.00000000000E+00  0.45593999997E+02  0.45594000000E+02  0.51100000000E-03 0. -1.
         11   -1    0    0    0    0 -0.00000000000E+00 -0.00000000000E+00 -0.45593999997E+02  0.45594000000E+02  0.51100000000E-03 0.  1.
    9900012    2    1    2    0    0 -0.29572253103E+02 -0.33643382336E+02 -0.47663581368E+01  0.46142317649E+02  0.99999989782E+01 0.  0.
         12    1    1    2    0    0  0.29572253103E+02  0.33643382336E+02  0.47663581368E+01  0.45045682351E+02  0.00000000000E+00 0. -1.
         11    1    3    3    0    0 -0.44192913426E+01 -0.41323774768E+01 -0.11081911412E+01  0.61509972727E+01  0.51100000000E-03 0.  1.
        -11    1    3    3    0    0 -0.99321193160E+01 -0.69303632548E+01  0.17235060028E+01  0.12233045498E+02  0.51100000000E-03 0. -1.
         12    1    3    3    0    0 -0.15220842444E+02 -0.22580641604E+02 -0.53816729983E+01  0.27758274879E+02  0.00000000000E+00 0. -1.
</event>
<event>
 7    1  0.2227287E-008  0.4614232E+02  0.7816164E-02  0.1320468E+00
        -11   -1    0    0    0    0  0.00000000000E+00  0.00000000000E+00  0.45593999997E+02  0.45594000000E+02  0.51100000000E-03 0.  1.
         11   -1    0    0    0    0 -0.00000000000E+00 -0.00000000000E+00 -0.45593999997E+02  0.45594000000E+02  0.51100000000E-03 0. -1.
    9900012    2    1    2    0    0 -0.93083038204E+01 -0.33764674897E+02  0.28326942384E+02  0.46142318124E+02  0.10000003306E+02 0.  0.
         12    1    1    2    0    0  0.93083038204E+01  0.33764674897E+02 -0.28326942384E+02  0.45045681876E+02  0.00000000000E+00 0. -1.
         11    1    3    3    0    0 -0.95875272207E+01 -0.24581268785E+02  0.20574233523E+02  0.33458310457E+02  0.51100000000E-03 0.  1.
        -11    1    3    3    0    0 -0.12282690876E+01 -0.36536402210E+01  0.50341986476E+01  0.63404170289E+01  0.51100000000E-03 0. -1.
        -12    1    3    3    0    0  0.15074924880E+01 -0.55297658904E+01  0.27185102133E+01  0.63435906381E+01  0.00000000000E+00 0.  1.
</event>
<event>
 7    1  0.2227287E-008  0.4614231E+02  0.7816164E-02  0.1320468E+00
        -11   -1    0    0    0    0  0.00000000000E+00  0.00000000000E+00  0.45593999997E+02  0.45594000000E+02  0.51100000000E-03 0.  1.
         11   -1    0    0    0    0 -0.00000000000E+00 -0.00000000000E+00 -0.45593999997E+02  0.45594000000E+02  0.51100000000E-03 0. -1.
    9900012    2    1    2    0    0  0.40179611707E+02 -0.14445605243E+02  0.14353996972E+02  0.46142312783E+02  0.99999546042E+01 0.  0.
         12    1    1    2    0    0 -0.40179611707E+02  0.14445605243E+02 -0.14353996972E+02  0.45045687217E+02  0.00000000000E+00 0. -1.
         11    1    3    3    0    0  0.99318684061E+01 -0.50179694019E+01  0.45268687722E+01  0.12013099854E+02  0.51100000000E-03 0. -1.
        -11    1    3    3    0    0  0.13230397727E+02 -0.82157524793E+01  0.37516439685E+01  0.16019264825E+02  0.51100000000E-03 0.  1.
         12    1    3    3    0    0  0.17017345574E+02 -0.12118833617E+01  0.60754842315E+01  0.18109948104E+02  0.00000000000E+00 0. -1.
</event>
<event>
 7    1  0.2227287E-008  0.4614232E+02  0.7816164E-02  0.1320468E+00
        -11   -1    0    0    0    0  0.00000000000E+00  0.00000000000E+00  0.45593999997E+02  0.45594000000E+02  0.51100000000E-03 0.  1.
         11   -1    0    0    0    0 -0.00000000000E+00 -0.00000000000E+00 -0.45593999997E+02  0.45594000000E+02  0.51100000000E-03 0. -1.
    9900012    2    1    2    0    0  0.89480033779E+01  0.58800228700E+01  0.43754682025E+02  0.46142316161E+02  0.99999854088E+01 0.  0.
         12    1    1    2    0    0 -0.89480033779E+01 -0.58800228700E+01 -0.43754682025E+02  0.45045683839E+02  0.00000000000E+00 0. -1.
         11    1    3    3    0    0 -0.24096073889E-01 -0.13495303022E+01  0.70080424709E+01  0.71368390898E+01  0.51100000000E-03 0. -1.
        -11    1    3    3    0    0  0.81808976117E+01  0.32647981364E+01  0.28338190521E+02  0.29675562925E+02  0.51100000000E-03 0.  1.
         12    1    3    3    0    0  0.79120184005E+00  0.39647550358E+01  0.84084490328E+01  0.93299141466E+01  0.00000000000E+00 0. -1.
</event>
<event>
 7    1  0.2227287E-008  0.4614232E+02  0.7816164E-02  0.1320468E+00
        -11   -1    0    0    0    0  0.00000000000E+00  0.00000000000E+00  0.45593999997E+02  0.45594000000E+02  0.51100000000E-03 0. -1.
         11   -1    0    0    0    0 -0.00000000000E+00 -0.00000000000E+00 -0.45593999997E+02  0.45594000000E+02  0.51100000000E-03 0.  1.
    9900012    2    1    2    0    0  0.11177809459E+02 -0.42000673340E+02 -0.11836953812E+02  0.46142318066E+02  0.10000002784E+02 0.  0.
         12    1    1    2    0    0 -0.11177809459E+02  0.42000673340E+02  0.11836953812E+02  0.45045681934E+02  0.00000000000E+00 0. -1.
         11    1    3    3    0    0  0.65612565257E+01 -0.17087376966E+02 -0.19221144134E+01  0.18404430522E+02  0.51100000000E-03 0. -1.
        -11    1    3    3    0    0  0.31807967224E+01 -0.53652830194E+01 -0.15503882389E+01  0.64270859353E+01  0.51100000000E-03 0.  1.
         12    1    3    3    0    0  0.14357562110E+01 -0.19548013355E+02 -0.83644511597E+01  0.21310801609E+02  0.00000000000E+00 0. -1.
</event>
<event>
 7    1  0.2227287E-008  0.4614232E+02  0.7816164E-02  0.1320468E+00
        -11   -1    0    0    0    0  0.00000000000E+00  0.00000000000E+00  0.45593999997E+02  0.45594000000E+02  0.51100000000E-03 0.  1.
         11   -1    0    0    0    0 -0.00000000000E+00 -0.00000000000E+00 -0.45593999997E+02  0.45594000000E+02  0.51100000000E-03 0. -1.
    9900012    2    1    2    0    0 -0.23507985037E+02 -0.24682783210E+02  0.29449080132E+02  0.46142317986E+02  0.10000002046E+02 0.  0.
         12    1    1    2    0    0  0.23507985037E+02  0.24682783210E+02 -0.29449080132E+02  0.45045682014E+02  0.00000000000E+00 0. -1.
         11    1    3    3    0    0 -0.10084603846E+02 -0.10965757380E+02  0.15749024649E+02  0.21678995532E+02  0.51100000000E-03 0. -1.
        -11    1    3    3    0    0 -0.28834043697E+01 -0.13986049516E+01 -0.50487018952E-01  0.32050999626E+01  0.51100000000E-03 0.  1.
        -12    1    3    3    0    0 -0.10539976822E+02 -0.12318420879E+02  0.13750542502E+02  0.21258222491E+02  0.00000000000E+00 0.  1.
</event>
<event>
 7    1  0.2227287E-008  0.4614232E+02  0.7816164E-02  0.1320468E+00
        -11   -1    0    0    0    0  0.00000000000E+00  0.00000000000E+00  0.45593999997E+02  0.45594000000E+02  0.51100000000E-03 0.  1.
         11   -1    0    0    0    0 -0.00000000000E+00 -0.00000000000E+00 -0.45593999997E+02  0.45594000000E+02  0.51100000000E-03 0. -1.
    9900012    2    1    2    0    0  0.29291795843E+02  0.45428060260E+01  0.33918535908E+02  0.46142317982E+02  0.10000002016E+02 0.  0.
         12    1    1    2    0    0 -0.29291795843E+02 -0.45428060260E+01 -0.33918535908E+02  0.45045682018E+02  0.00000000000E+00 0. -1.
         11    1    3    3    0    0  0.11726993788E+02  0.18465379516E+01  0.98398813005E+01  0.15419317429E+02  0.51100000000E-03 0. -1.
        -11    1    3    3    0    0  0.14123374319E+02  0.37367027672E+01  0.14908900447E+02  0.20873618817E+02  0.51100000000E-03 0.  1.
         12    1    3    3    0    0  0.34414277359E+01 -0.10404346928E+01  0.91697541611E+01  0.98493817362E+01  0.00000000000E+00 0. -1.
</event>
<event>
 7    1  0.2227287E-008  0.4614232E+02  0.7816164E-02  0.1320468E+00
        -11   -1    0    0    0    0  0.00000000000E+00  0.00000000000E+00  0.45593999997E+02  0.45594000000E+02  0.51100000000E-03 0.  1.
         11   -1    0    0    0    0 -0.00000000000E+00 -0.00000000000E+00 -0.45593999997E+02  0.45594000000E+02  0.51100000000E-03 0. -1.
    9900012    2    1    2    0    0 -0.29722764809E+02 -0.28118959866E+02  0.18841304988E+02  0.46142318459E+02  0.10000006363E+02 0.  0.
         12    1    1    2    0    0  0.29722764809E+02  0.28118959866E+02 -0.18841304988E+02  0.45045681541E+02  0.00000000000E+00 0. -1.
         11    1    3    3    0    0 -0.49573153565E+01 -0.77494846142E+01  0.21822824611E+01  0.94547260315E+01  0.51100000000E-03 0. -1.
        -11    1    3    3    0    0 -0.13646324542E+02 -0.77032841134E+01  0.62036244517E+01  0.16853715206E+02  0.51100000000E-03 0.  1.
        -12    1    3    3    0    0 -0.11119124911E+02 -0.12666191138E+02  0.10455398075E+02  0.19833877222E+02  0.00000000000E+00 0.  1.
</event>
<event>
 7    1  0.2227287E-008  0.4614232E+02  0.7816164E-02  0.1320468E+00
        -11   -1    0    0    0    0  0.00000000000E+00  0.00000000000E+00  0.45593999997E+02  0.45594000000E+02  0.51100000000E-03 0.  1.
         11   -1    0    0    0    0 -0.00000000000E+00 -0.00000000000E+00 -0.45593999997E+02  0.45594000000E+02  0.51100000000E-03 0. -1.
    9900012    2    1    2    0    0  0.24234786047E+02 -0.62468774285E+01  0.37453506101E+02  0.46142318169E+02  0.10000003722E+02 0.  0.
         12    1    1    2    0    0 -0.24234786047E+02  0.62468774285E+01 -0.37453506101E+02  0.45045681831E+02  0.00000000000E+00 0. -1.
         11    1    3    3    0    0  0.48120459776E+01 -0.42849568674E+01  0.74127585628E+01  0.98216918918E+01  0.51100000000E-03 0. -1.
        -11    1    3    3    0    0  0.11001351386E+02  0.39061409119E+00  0.21191920540E+02  0.23880531990E+02  0.51100000000E-03 0.  1.
        -12    1    3    3    0    0  0.84213886825E+01 -0.23525346523E+01  0.88488269979E+01  0.12440094287E+02  0.00000000000E+00 0.  1.
</event>
<event>
 7    1  0.2227287E-008  0.4614232E+02  0.7816164E-02  0.1320468E+00
        -11   -1    0    0    0    0  0.00000000000E+00  0.00000000000E+00  0.45593999997E+02  0.45594000000E+02  0.51100000000E-03 0.  1.
         11   -1    0    0    0    0 -0.00000000000E+00 -0.00000000000E+00 -0.45593999997E+02  0.45594000000E+02  0.51100000000E-03 0. -1.
    9900012    2    1    2    0    0 -0.19255188032E+01 -0.13756684487E+02  0.42850431958E+02  0.46142317524E+02  0.99999978421E+01 0.  0.
         12    1    1    2    0    0  0.19255188032E+01  0.13756684487E+02 -0.42850431958E+02  0.45045682476E+02  0.00000000000E+00 0. -1.
         11    1    3    3    0    0  0.28116591612E-01  0.32909982094E+00  0.47424037661E+00  0.57792856894E+00  0.51100000000E-03 0. -1.
        -11    1    3    3    0    0 -0.36609929683E+01 -0.55805792336E+01  0.98283100223E+01  0.11880295125E+02  0.51100000000E-03 0.  1.
        -12    1    3    3    0    0  0.17073575735E+01 -0.85052050743E+01  0.32547881559E+02  0.33684093831E+02  0.00000000000E+00 0.  1.
</event>
<event>
 7    1  0.2227287E-008  0.4614232E+02  0.7816164E-02  0.1320468E+00
        -11   -1    0    0    0    0  0.00000000000E+00  0.00000000000E+00  0.45593999997E+02  0.45594000000E+02  0.51100000000E-03 0. -1.
         11   -1    0    0    0    0 -0.00000000000E+00 -0.00000000000E+00 -0.45593999997E+02  0.45594000000E+02  0.51100000000E-03 0.  1.
    9900012    2    1    2    0    0 -0.33110003290E+02  0.12326362267E+02 -0.27944622983E+02  0.46142317873E+02  0.10000001021E+02 0.  0.
         12    1    1    2    0    0  0.33110003290E+02 -0.12326362267E+02  0.27944622983E+02  0.45045682127E+02  0.00000000000E+00 0. -1.
         11    1    3    3    0    0 -0.16320054374E+02  0.85239649433E+01 -0.13621042249E+02  0.22902727901E+02  0.51100000000E-03 0. -1.
        -11    1    3    3    0    0 -0.17275557419E+02  0.40574977285E+01 -0.13994897895E+02  0.22600118125E+02  0.51100000000E-03 0.  1.
         12    1    3    3    0    0  0.48560850190E+00 -0.25510040452E+00 -0.32868283931E+00  0.63947184642E+00  0.00000000000E+00 0. -1.
</event>
<event>
 7    1  0.2227287E-008  0.4614232E+02  0.7816164E-02  0.1320468E+00
        -11   -1    0    0    0    0  0.00000000000E+00  0.00000000000E+00  0.45593999997E+02  0.45594000000E+02  0.51100000000E-03 0.  1.
         11   -1    0    0    0    0 -0.00000000000E+00 -0.00000000000E+00 -0.45593999997E+02  0.45594000000E+02  0.51100000000E-03 0. -1.
    9900012    2    1    2    0    0 -0.12530834769E+02  0.30134245593E+01  0.43162609452E+02  0.46142318716E+02  0.10000008708E+02 0.  0.
         12    1    1    2    0    0  0.12530834769E+02 -0.30134245593E+01 -0.43162609452E+02  0.45045681284E+02  0.00000000000E+00 0. -1.
         11    1    3    3    0    0 -0.24508811336E+01  0.19011632790E+01  0.45014588604E+01  0.54666600661E+01  0.51100000000E-03 0. -1.
        -11    1    3    3    0    0 -0.17706325619E+00  0.16618496487E+01  0.13929288495E+02  0.14029190065E+02  0.51100000000E-03 0.  1.
        -12    1    3    3    0    0 -0.99028903796E+01 -0.54958836846E+00  0.24731862097E+02  0.26646468585E+02  0.00000000000E+00 0.  1.
</event>
<event>
 7    1  0.2227287E-008  0.4614232E+02  0.7816164E-02  0.1320468E+00
        -11   -1    0    0    0    0  0.00000000000E+00  0.00000000000E+00  0.45593999997E+02  0.45594000000E+02  0.51100000000E-03 0.  1.
         11   -1    0    0    0    0 -0.00000000000E+00 -0.00000000000E+00 -0.45593999997E+02  0.45594000000E+02  0.51100000000E-03 0. -1.
    9900012    2    1    2    0    0  0.15970949543E+02 -0.17571222797E+02  0.38279162670E+02  0.46142318802E+02  0.10000009493E+02 0.  0.
         12    1    1    2    0    0 -0.15970949543E+02  0.17571222797E+02 -0.38279162670E+02  0.45045681198E+02  0.00000000000E+00 0. -1.
         11    1    3    3    0    0  0.12627289331E+02 -0.13299205600E+02  0.27482411503E+02  0.33039374203E+02  0.51100000000E-03 0.  1.
        -11    1    3    3    0    0  0.78900811907E+00  0.86927245834E+00  0.41850808587E+01  0.43466159796E+01  0.51100000000E-03 0. -1.
         12    1    3    3    0    0  0.25546520931E+01 -0.51412896550E+01  0.66116703085E+01  0.87563286200E+01  0.00000000000E+00 0. -1.
</event>
<event>
 7    1  0.2227287E-008  0.4614232E+02  0.7816164E-02  0.1320468E+00
        -11   -1    0    0    0    0  0.00000000000E+00  0.00000000000E+00  0.45593999997E+02  0.45594000000E+02  0.51100000000E-03 0.  1.
         11   -1    0    0    0    0 -0.00000000000E+00 -0.00000000000E+00 -0.45593999997E+02  0.45594000000E+02  0.51100000000E-03 0. -1.
    9900012    2    1    2    0    0  0.11349225155E+02 -0.23127915387E+02  0.36951429062E+02  0.46142317727E+02  0.99999996854E+01 0.  0.
         12    1    1    2    0    0 -0.11349225155E+02  0.23127915387E+02 -0.36951429062E+02  0.45045682273E+02  0.00000000000E+00 0. -1.
         11    1    3    3    0    0  0.74868527013E+01 -0.10509525018E+02  0.18579371715E+02  0.22620701427E+02  0.51100000000E-03 0. -1.
        -11    1    3    3    0    0  0.41181209468E+01 -0.56523936198E+01  0.12845804295E+02  0.14626112334E+02  0.51100000000E-03 0.  1.
         12    1    3    3    0    0 -0.25574849314E+00 -0.69659967492E+01  0.55262530519E+01  0.88955039652E+01  0.00000000000E+00 0. -1.
</event>
<event>
 7    1  0.2227287E-008  0.4614232E+02  0.7816164E-02  0.1320468E+00
        -11   -1    0    0    0    0  0.00000000000E+00  0.00000000000E+00  0.45593999997E+02  0.45594000000E+02  0.51100000000E-03 0.  1.
         11   -1    0    0    0    0 -0.00000000000E+00 -0.00000000000E+00 -0.45593999997E+02  0.45594000000E+02  0.51100000000E-03 0. -1.
    9900012    2    1    2    0    0  0.19307260637E+02 -0.27572219508E+02  0.29935194644E+02  0.46142317851E+02  0.10000000819E+02 0.  0.
         12    1    1    2    0    0 -0.19307260637E+02  0.27572219508E+02 -0.29935194644E+02  0.45045682149E+02  0.00000000000E+00 0. -1.
         11    1    3    3    0    0  0.64387278488E+00 -0.18444478922E+01 -0.30100842442E+00  0.19766553880E+01  0.51100000000E-03 0. -1.
        -11    1    3    3    0    0  0.11517775175E+01 -0.44057062007E+01  0.51540357712E+01  0.68775666895E+01  0.51100000000E-03 0.  1.
        -12    1    3    3    0    0  0.17511610335E+02 -0.21322065415E+02  0.25082167297E+02  0.37288095773E+02  0.00000000000E+00 0.  1.
</event>
<event>
 7    1  0.2227287E-008  0.4614232E+02  0.7816164E-02  0.1320468E+00
        -11   -1    0    0    0    0  0.00000000000E+00  0.00000000000E+00  0.45593999997E+02  0.45594000000E+02  0.51100000000E-03 0.  1.
         11   -1    0    0    0    0 -0.00000000000E+00 -0.00000000000E+00 -0.45593999997E+02  0.45594000000E+02  0.51100000000E-03 0. -1.
    9900012    2    1    2    0    0 -0.44637863222E+02 -0.87147328378E+00  0.59845779275E+01  0.46142317946E+02  0.10000001690E+02 0.  0.
         12    1    1    2    0    0  0.44637863222E+02  0.87147328378E+00 -0.59845779275E+01  0.45045682054E+02  0.00000000000E+00 0. -1.
         11    1    3    3    0    0 -0.23455343997E+02 -0.12924682074E+01  0.21216126097E+00  0.23491884742E+02  0.51100000000E-03 0. -1.
        -11    1    3    3    0    0 -0.56582501162E+01 -0.17903688231E+01  0.32546870020E+01  0.67686189612E+01  0.51100000000E-03 0.  1.
        -12    1    3    3    0    0 -0.15524269109E+02  0.22113637467E+01  0.25177296645E+01  0.15881814243E+02  0.00000000000E+00 0.  1.
</event>
<event>
 7    1  0.2227287E-008  0.4614232E+02  0.7816164E-02  0.1320468E+00
        -11   -1    0    0    0    0  0.00000000000E+00  0.00000000000E+00  0.45593999997E+02  0.45594000000E+02  0.51100000000E-03 0.  1.
         11   -1    0    0    0    0 -0.00000000000E+00 -0.00000000000E+00 -0.45593999997E+02  0.45594000000E+02  0.51100000000E-03 0. -1.
    9900012    2    1    2    0    0  0.18362976886E+02  0.39845266104E+02  0.10211236159E+02  0.46142317689E+02  0.99999993391E+01 0.  0.
         12    1    1    2    0    0 -0.18362976886E+02 -0.39845266104E+02 -0.10211236159E+02  0.45045682311E+02  0.00000000000E+00 0. -1.
         11    1    3    3    0    0 -0.48370693904E+00  0.21587005775E+00 -0.14610890413E+00  0.54947279978E+00  0.51100000000E-03 0. -1.
        -11    1    3    3    0    0  0.43096460054E+00  0.33227542166E+01 -0.66729103399E+00  0.34163875155E+01  0.51100000000E-03 0.  1.
        -12    1    3    3    0    0  0.18415719225E+02  0.36306641829E+02  0.11024636097E+02  0.42176457373E+02  0.00000000000E+00 0.  1.
</event>
<event>
 7    1  0.2227287E-008  0.4614232E+02  0.7816164E-02  0.1320468E+00
        -11   -1    0    0    0    0  0.00000000000E+00  0.00000000000E+00  0.45593999997E+02  0.45594000000E+02  0.51100000000E-03 0. -1.
         11   -1    0    0    0    0 -0.00000000000E+00 -0.00000000000E+00 -0.45593999997E+02  0.45594000000E+02  0.51100000000E-03 0.  1.
    9900012    2    1    2    0    0  0.24677465211E+02 -0.57644751285E+01  0.37241200631E+02  0.46142317774E+02  0.10000000116E+02 0.  0.
         12    1    1    2    0    0 -0.24677465211E+02  0.57644751285E+01 -0.37241200631E+02  0.45045682226E+02  0.00000000000E+00 0. -1.
         11    1    3    3    0    0  0.10913666163E+02 -0.20125176964E+01  0.11570925985E+02  0.16032612545E+02  0.51100000000E-03 0. -1.
        -11    1    3    3    0    0  0.59908091918E+01  0.16849859454E+01  0.11045585041E+02  0.12678088246E+02  0.51100000000E-03 0.  1.
        -12    1    3    3    0    0  0.77729898560E+01 -0.54369433776E+01  0.14624689605E+02  0.17431616983E+02  0.00000000000E+00 0.  1.
</event>
<event>
 7    1  0.2227287E-008  0.4614232E+02  0.7816164E-02  0.1320468E+00
        -11   -1    0    0    0    0  0.00000000000E+00  0.00000000000E+00  0.45593999997E+02  0.45594000000E+02  0.51100000000E-03 0. -1.
         11   -1    0    0    0    0 -0.00000000000E+00 -0.00000000000E+00 -0.45593999997E+02  0.45594000000E+02  0.51100000000E-03 0.  1.
    9900012    2    1    2    0    0  0.48450815692E+01 -0.87330634977E+01 -0.43924619861E+02  0.46142318260E+02  0.10000004548E+02 0.  0.
         12    1    1    2    0    0 -0.48450815692E+01  0.87330634977E+01  0.43924619861E+02  0.45045681740E+02  0.00000000000E+00 0. -1.
         11    1    3    3    0    0  0.40802716723E+01 -0.55282532524E+01 -0.12346958163E+02  0.14130023959E+02  0.51100000000E-03 0. -1.
        -11    1    3    3    0    0 -0.45494263158E+00 -0.24932035788E+01 -0.79880508166E+01  0.83804530303E+01  0.51100000000E-03 0.  1.
         12    1    3    3    0    0  0.12197525285E+01 -0.71160666653E+00 -0.23589610882E+02  0.23631841271E+02  0.00000000000E+00 0. -1.
</event>
<event>
 7    1  0.2227287E-008  0.4614232E+02  0.7816164E-02  0.1320468E+00
        -11   -1    0    0    0    0  0.00000000000E+00  0.00000000000E+00  0.45593999997E+02  0.45594000000E+02  0.51100000000E-03 0.  1.
         11   -1    0    0    0    0 -0.00000000000E+00 -0.00000000000E+00 -0.45593999997E+02  0.45594000000E+02  0.51100000000E-03 0. -1.
    9900012    2    1    2    0    0 -0.30530524343E+02  0.27538902925E+01  0.33006312449E+02  0.46142317744E+02  0.99999998466E+01 0.  0.
         12    1    1    2    0    0  0.30530524343E+02 -0.27538902925E+01 -0.33006312449E+02  0.45045682256E+02  0.00000000000E+00 0. -1.
         11    1    3    3    0    0 -0.20409159757E+02  0.34604279158E+01  0.19843276711E+02  0.28675145932E+02  0.51100000000E-03 0.  1.
        -11    1    3    3    0    0 -0.40667751857E+01  0.21660050983E+01  0.68841109514E+01  0.82837927515E+01  0.51100000000E-03 0. -1.
        -12    1    3    3    0    0 -0.60545894008E+01 -0.28725427216E+01  0.62789247864E+01  0.91833790607E+01  0.00000000000E+00 0.  1.
</event>
<event>
 7    1  0.2227287E-008  0.4614232E+02  0.7816164E-02  0.1320468E+00
        -11   -1    0    0    0    0  0.00000000000E+00  0.00000000000E+00  0.45593999997E+02  0.45594000000E+02  0.51100000000E-03 0. -1.
         11   -1    0    0    0    0 -0.00000000000E+00 -0.00000000000E+00 -0.45593999997E+02  0.45594000000E+02  0.51100000000E-03 0.  1.
    9900012    2    1    2    0    0  0.38173745710E+02 -0.22745289007E+02 -0.73844321008E+01  0.46142324614E+02  0.10000062487E+02 0.  0.
         12    1    1    2    0    0 -0.38173745710E+02  0.22745289007E+02  0.73844321008E+01  0.45045675386E+02  0.00000000000E+00 0. -1.
         11    1    3    3    0    0  0.11746274657E+02 -0.36004442909E+01 -0.12966045465E+01  0.12353920472E+02  0.51100000000E-03 0.  1.
        -11    1    3    3    0    0  0.86531853375E+01 -0.64912620452E+01 -0.50696464326E+01  0.11946355705E+02  0.51100000000E-03 0. -1.
         12    1    3    3    0    0  0.17774285716E+02 -0.12653582671E+02 -0.10181811217E+01  0.21842048437E+02  0.00000000000E+00 0. -1.
</event>
<event>
 7    1  0.2227287E-008  0.4614232E+02  0.7816164E-02  0.1320468E+00
        -11   -1    0    0    0    0  0.00000000000E+00  0.00000000000E+00  0.45593999997E+02  0.45594000000E+02  0.51100000000E-03 0.  1.
         11   -1    0    0    0    0 -0.00000000000E+00 -0.00000000000E+00 -0.45593999997E+02  0.45594000000E+02  0.51100000000E-03 0. -1.
    9900012    2    1    2    0    0 -0.84355458016E+01  0.19485704025E+02  0.39727352845E+02  0.46142315873E+02  0.99999827867E+01 0.  0.
         12    1    1    2    0    0  0.84355458016E+01 -0.19485704025E+02 -0.39727352845E+02  0.45045684127E+02  0.00000000000E+00 0. -1.
         11    1    3    3    0    0 -0.18408327178E+01  0.11592976134E+01  0.98133369677E+01  0.10051577924E+02  0.51100000000E-03 0. -1.
        -11    1    3    3    0    0 -0.51024222976E+01  0.13390100808E+02  0.17302904556E+02  0.22465974702E+02  0.51100000000E-03 0.  1.
         12    1    3    3    0    0 -0.14922907862E+01  0.49363056036E+01  0.12611111322E+02  0.13624763248E+02  0.00000000000E+00 0. -1.
</event>
<event>
 7    1  0.2227287E-008  0.4614232E+02  0.7816164E-02  0.1320468E+00
        -11   -1    0    0    0    0  0.00000000000E+00  0.00000000000E+00  0.45593999997E+02  0.45594000000E+02  0.51100000000E-03 0.  1.
         11   -1    0    0    0    0 -0.00000000000E+00 -0.00000000000E+00 -0.45593999997E+02  0.45594000000E+02  0.51100000000E-03 0. -1.
    9900012    2    1    2    0    0  0.27439759694E+02  0.32786627375E+02  0.14184859150E+02  0.46142316790E+02  0.99999911484E+01 0.  0.
         12    1    1    2    0    0 -0.27439759694E+02 -0.32786627375E+02 -0.14184859150E+02  0.45045683210E+02  0.00000000000E+00 0. -1.
         11    1    3    3    0    0  0.72910688950E+01  0.75001071223E+01  0.28157206470E+01  0.10832339336E+02  0.51100000000E-03 0. -1.
        -11    1    3    3    0    0  0.80800235897E+01  0.15960424842E+02  0.84353918197E+01  0.19778214726E+02  0.51100000000E-03 0.  1.
         12    1    3    3    0    0  0.12068667210E+02  0.93260954108E+01  0.29337466836E+01  0.15531762728E+02  0.00000000000E+00 0. -1.
</event>
<event>
 7    1  0.2227287E-008  0.4614232E+02  0.7816164E-02  0.1320468E+00
        -11   -1    0    0    0    0  0.00000000000E+00  0.00000000000E+00  0.45593999997E+02  0.45594000000E+02  0.51100000000E-03 0.  1.
         11   -1    0    0    0    0 -0.00000000000E+00 -0.00000000000E+00 -0.45593999997E+02  0.45594000000E+02  0.51100000000E-03 0. -1.
    9900012    2    1    2    0    0  0.18745062644E+02  0.39492724735E+02  0.10865580271E+02  0.46142317463E+02  0.99999972857E+01 0.  0.
         12    1    1    2    0    0 -0.18745062644E+02 -0.39492724735E+02 -0.10865580271E+02  0.45045682537E+02  0.00000000000E+00 0. -1.
         11    1    3    3    0    0  0.17220540577E+01  0.66008572159E+00  0.53765227166E-01  0.18450133599E+01  0.51100000000E-03 0. -1.
        -11    1    3    3    0    0  0.15029190045E+02  0.31366728230E+02  0.62949828620E+01  0.35346499158E+02  0.51100000000E-03 0.  1.
        -12    1    3    3    0    0  0.19938185417E+01  0.74659107837E+01  0.45168321818E+01  0.89508049451E+01  0.00000000000E+00 0.  1.
</event>
<event>
 7    1  0.2227287E-008  0.4614232E+02  0.7816164E-02  0.1320468E+00
        -11   -1    0    0    0    0  0.00000000000E+00  0.00000000000E+00  0.45593999997E+02  0.45594000000E+02  0.51100000000E-03 0.  1.
         11   -1    0    0    0    0 -0.00000000000E+00 -0.00000000000E+00 -0.45593999997E+02  0.45594000000E+02  0.51100000000E-03 0. -1.
    9900012    2    1    2    0    0  0.11721818405E+02  0.50188181713E+01  0.43203286144E+02  0.46142317675E+02  0.99999992111E+01 0.  0.
         12    1    1    2    0    0 -0.11721818405E+02 -0.50188181713E+01 -0.43203286144E+02  0.45045682325E+02  0.00000000000E+00 0. -1.
         11    1    3    3    0    0  0.17066374175E+01  0.36063049729E+00  0.23097530198E+01  0.28944127045E+01  0.51100000000E-03 0. -1.
        -11    1    3    3    0    0  0.89941585566E+01  0.65121797144E+01  0.27002457902E+02  0.29196508452E+02  0.51100000000E-03 0.  1.
         12    1    3    3    0    0  0.10210224305E+01 -0.18539920404E+01  0.13891075222E+02  0.14051396519E+02  0.00000000000E+00 0. -1.
</event>
<event>
 7    1  0.2227287E-008  0.4614232E+02  0.7816164E-02  0.1320468E+00
        -11   -1    0    0    0    0  0.00000000000E+00  0.00000000000E+00  0.45593999997E+02  0.45594000000E+02  0.51100000000E-03 0.  1.
         11   -1    0    0    0    0 -0.00000000000E+00 -0.00000000000E+00 -0.45593999997E+02  0.45594000000E+02  0.51100000000E-03 0. -1.
    9900012    2    1    2    0    0  0.14349248160E+02 -0.42655275914E+02 -0.19338981428E+01  0.46142318208E+02  0.10000004073E+02 0.  0.
         12    1    1    2    0    0 -0.14349248160E+02  0.42655275914E+02  0.19338981428E+01  0.45045681792E+02  0.00000000000E+00 0. -1.
         11    1    3    3    0    0  0.86779722608E+00 -0.96829925529E+01 -0.34716400531E+01  0.10323066488E+02  0.51100000000E-03 0.  1.
        -11    1    3    3    0    0  0.28324410723E+01 -0.39969041818E+01  0.59287545972E+00  0.49345179134E+01  0.51100000000E-03 0. -1.
        -12    1    3    3    0    0  0.10649009862E+02 -0.28975379180E+02  0.94486645058E+00  0.30884733806E+02  0.00000000000E+00 0.  1.
</event>
<event>
 7    1  0.2227287E-008  0.4614232E+02  0.7816164E-02  0.1320468E+00
        -11   -1    0    0    0    0  0.00000000000E+00  0.00000000000E+00  0.45593999997E+02  0.45594000000E+02  0.51100000000E-03 0.  1.
         11   -1    0    0    0    0 -0.00000000000E+00 -0.00000000000E+00 -0.45593999997E+02  0.45594000000E+02  0.51100000000E-03 0. -1.
    9900012    2    1    2    0    0 -0.12143963510E+02  0.20319642383E+02  0.38324274495E+02  0.46142315058E+02  0.99999753554E+01 0.  0.
         12    1    1    2    0    0  0.12143963510E+02 -0.20319642383E+02 -0.38324274495E+02  0.45045684942E+02  0.00000000000E+00 0. -1.
         11    1    3    3    0    0 -0.10144211098E+02  0.17106716519E+02  0.33805244079E+02  0.39221668710E+02  0.51100000000E-03 0. -1.
        -11    1    3    3    0    0 -0.12455154448E+01  0.39680501262E+01  0.38018745376E+01  0.56348008650E+01  0.51100000000E-03 0.  1.
         12    1    3    3    0    0 -0.75423696703E+00 -0.75512426266E+00  0.71715587815E+00  0.12858454837E+01  0.00000000000E+00 0. -1.
</event>
<event>
 7    1  0.2227287E-008  0.4614232E+02  0.7816164E-02  0.1320468E+00
        -11   -1    0    0    0    0  0.00000000000E+00  0.00000000000E+00  0.45593999997E+02  0.45594000000E+02  0.51100000000E-03 0.  1.
         11   -1    0    0    0    0 -0.00000000000E+00 -0.00000000000E+00 -0.45593999997E+02  0.45594000000E+02  0.51100000000E-03 0. -1.
    9900012    2    1    2    0    0 -0.13215739838E+02 -0.32049976348E+02  0.28762070404E+02  0.46142318106E+02  0.10000003144E+02 0.  0.
         12    1    1    2    0    0  0.13215739838E+02  0.32049976348E+02 -0.28762070404E+02  0.45045681894E+02  0.00000000000E+00 0. -1.
         11    1    3    3    0    0 -0.12896225977E+02 -0.27497661552E+02  0.22269324779E+02  0.37661078870E+02  0.51100000000E-03 0.  1.
        -11    1    3    3    0    0  0.60140075286E+00 -0.76141272533E+00  0.78034608809E-01  0.97340734800E+00  0.51100000000E-03 0. -1.
        -12    1    3    3    0    0 -0.92091461407E+00 -0.37909020705E+01  0.64147110162E+01  0.75078318878E+01  0.00000000000E+00 0.  1.
</event>
<event>
 7    1  0.2227287E-008  0.4614232E+02  0.7816164E-02  0.1320468E+00
        -11   -1    0    0    0    0  0.00000000000E+00  0.00000000000E+00  0.45593999997E+02  0.45594000000E+02  0.51100000000E-03 0. -1.
         11   -1    0    0    0    0 -0.00000000000E+00 -0.00000000000E+00 -0.45593999997E+02  0.45594000000E+02  0.51100000000E-03 0.  1.
    9900012    2    1    2    0    0 -0.69611318218E+01  0.41873410765E+02 -0.15075595727E+02  0.46142317945E+02  0.10000001673E+02 0.  0.
         12    1    1    2    0    0  0.69611318218E+01 -0.41873410765E+02  0.15075595727E+02  0.45045682055E+02  0.00000000000E+00 0. -1.
         11    1    3    3    0    0 -0.10613583158E+01  0.19090990770E+02 -0.59935627397E+01  0.20037844311E+02  0.51100000000E-03 0. -1.
        -11    1    3    3    0    0  0.14091558578E+01  0.39995419460E+01 -0.80498593372E+00  0.43162551621E+01  0.51100000000E-03 0.  1.
        -12    1    3    3    0    0 -0.73089293638E+01  0.18782878049E+02 -0.82770470532E+01  0.21788218471E+02  0.00000000000E+00 0.  1.
</event>
<event>
 7    1  0.2227287E-008  0.4614232E+02  0.7816164E-02  0.1320468E+00
        -11   -1    0    0    0    0  0.00000000000E+00  0.00000000000E+00  0.45593999997E+02  0.45594000000E+02  0.51100000000E-03 0.  1.
         11   -1    0    0    0    0 -0.00000000000E+00 -0.00000000000E+00 -0.45593999997E+02  0.45594000000E+02  0.51100000000E-03 0. -1.
    9900012    2    1    2    0    0 -0.46534091735E+01 -0.13443681856E+02  0.42740223833E+02  0.46142317276E+02  0.99999955800E+01 0.  0.
         12    1    1    2    0    0  0.46534091735E+01  0.13443681856E+02 -0.42740223833E+02  0.45045682724E+02  0.00000000000E+00 0. -1.
         11    1    3    3    0    0 -0.56355304384E+01 -0.70854694290E+01  0.16226292575E+02  0.18581056249E+02  0.51100000000E-03 0. -1.
        -11    1    3    3    0    0 -0.15180232378E+01 -0.24947299877E+01  0.10701914284E+02  0.11093198000E+02  0.51100000000E-03 0.  1.
         12    1    3    3    0    0  0.25001445027E+01 -0.38634824389E+01  0.15812016974E+02  0.16468063027E+02  0.00000000000E+00 0. -1.
</event>
<event>
 7    1  0.2227287E-008  0.4614232E+02  0.7816164E-02  0.1320468E+00
        -11   -1    0    0    0    0  0.00000000000E+00  0.00000000000E+00  0.45593999997E+02  0.45594000000E+02  0.51100000000E-03 0.  1.
         11   -1    0    0    0    0 -0.00000000000E+00 -0.00000000000E+00 -0.45593999997E+02  0.45594000000E+02  0.51100000000E-03 0. -1.
    9900012    2    1    2    0    0  0.33087356426E+02 -0.27483466734E+02  0.13379064899E+02  0.46142317892E+02  0.10000001194E+02 0.  0.
         12    1    1    2    0    0 -0.33087356426E+02  0.27483466734E+02 -0.13379064899E+02  0.45045682108E+02  0.00000000000E+00 0. -1.
         11    1    3    3    0    0  0.16982269389E+02 -0.12087834257E+02  0.42212986263E+01  0.21268111646E+02  0.51100000000E-03 0. -1.
        -11    1    3    3    0    0  0.77575555379E+01 -0.51223119749E+01  0.65778697831E+01  0.11387981342E+02  0.51100000000E-03 0.  1.
        -12    1    3    3    0    0  0.83475314989E+01 -0.10273320503E+02  0.25798964893E+01  0.13486224905E+02  0.00000000000E+00 0.  1.
</event>
<event>
 7    1  0.2227287E-008  0.4614232E+02  0.7816164E-02  0.1320468E+00
        -11   -1    0    0    0    0  0.00000000000E+00  0.00000000000E+00  0.45593999997E+02  0.45594000000E+02  0.51100000000E-03 0. -1.
         11   -1    0    0    0    0 -0.00000000000E+00 -0.00000000000E+00 -0.45593999997E+02  0.45594000000E+02  0.51100000000E-03 0.  1.
    9900012    2    1    2    0    0  0.18298343031E+01  0.41307441361E+02 -0.17873457047E+02  0.46142317941E+02  0.10000001640E+02 0.  0.
         12    1    1    2    0    0 -0.18298343031E+01 -0.41307441361E+02  0.17873457047E+02  0.45045682059E+02  0.00000000000E+00 0. -1.
         11    1    3    3    0    0  0.53471091805E+00  0.22542348531E+02 -0.10078639977E+02  0.24698631077E+02  0.51100000000E-03 0. -1.
        -11    1    3    3    0    0  0.23554669758E+01  0.52102589984E+01 -0.49279254330E+01  0.75484748684E+01  0.51100000000E-03 0.  1.
         12    1    3    3    0    0 -0.10603435908E+01  0.13554833832E+02 -0.28668916371E+01  0.13895211995E+02  0.00000000000E+00 0. -1.
</event>
<event>
 7    1  0.2227287E-008  0.4614232E+02  0.7816164E-02  0.1320468E+00
        -11   -1    0    0    0    0  0.00000000000E+00  0.00000000000E+00  0.45593999997E+02  0.45594000000E+02  0.51100000000E-03 0.  1.
         11   -1    0    0    0    0 -0.00000000000E+00 -0.00000000000E+00 -0.45593999997E+02  0.45594000000E+02  0.51100000000E-03 0. -1.
    9900012    2    1    2    0    0  0.10405207961E+02  0.34029108864E+02  0.27620008633E+02  0.46142317858E+02  0.10000000881E+02 0.  0.
         12    1    1    2    0    0 -0.10405207961E+02 -0.34029108864E+02 -0.27620008633E+02  0.45045682142E+02  0.00000000000E+00 0. -1.
         11    1    3    3    0    0  0.18531823340E+01  0.13127313096E+02  0.11139020810E+02  0.17315842999E+02  0.51100000000E-03 0.  1.
        -11    1    3    3    0    0 -0.20657383642E+00  0.85765287240E+00  0.30109281524E+01  0.31375037529E+01  0.51100000000E-03 0. -1.
         12    1    3    3    0    0  0.87585994631E+01  0.20044142895E+02  0.13470059671E+02  0.25688971106E+02  0.00000000000E+00 0. -1.
</event>
<event>
 7    1  0.2227287E-008  0.4614232E+02  0.7816164E-02  0.1320468E+00
        -11   -1    0    0    0    0  0.00000000000E+00  0.00000000000E+00  0.45593999997E+02  0.45594000000E+02  0.51100000000E-03 0.  1.
         11   -1    0    0    0    0 -0.00000000000E+00 -0.00000000000E+00 -0.45593999997E+02  0.45594000000E+02  0.51100000000E-03 0. -1.
    9900012    2    1    2    0    0 -0.72294574081E+00 -0.13311607881E+01  0.45020206654E+02  0.46142316003E+02  0.99999839714E+01 0.  0.
         12    1    1    2    0    0  0.72294574081E+00  0.13311607881E+01 -0.45020206654E+02  0.45045683997E+02  0.00000000000E+00 0. -1.
         11    1    3    3    0    0  0.14107268848E+01 -0.14797321609E+01  0.34720673797E+01  0.40292691349E+01  0.51100000000E-03 0. -1.
        -11    1    3    3    0    0  0.21579506782E+01  0.11680691848E+01  0.15945202912E+02  0.16132905285E+02  0.51100000000E-03 0.  1.
         12    1    3    3    0    0 -0.42916233038E+01 -0.10194978120E+01  0.25602936362E+02  0.25980141584E+02  0.00000000000E+00 0. -1.
</event>
<event>
 7    1  0.2227287E-008  0.4614232E+02  0.7816164E-02  0.1320468E+00
        -11   -1    0    0    0    0  0.00000000000E+00  0.00000000000E+00  0.45593999997E+02  0.45594000000E+02  0.51100000000E-03 0. -1.
         11   -1    0    0    0    0 -0.00000000000E+00 -0.00000000000E+00 -0.45593999997E+02  0.45594000000E+02  0.51100000000E-03 0.  1.
    9900012    2    1    2    0    0 -0.64350704179E+01  0.12524821637E+02 -0.42788224790E+02  0.46142317976E+02  0.10000001956E+02 0.  0.
         12    1    1    2    0    0  0.64350704179E+01 -0.12524821637E+02  0.42788224790E+02  0.45045682024E+02  0.00000000000E+00 0. -1.
         11    1    3    3    0    0 -0.20765572919E+01  0.19735066043E+01 -0.42099029076E+01  0.50921607650E+01  0.51100000000E-03 0. -1.
        -11    1    3    3    0    0 -0.51656284295E+01  0.32944453175E+01 -0.23666212048E+02  0.24446404234E+02  0.51100000000E-03 0.  1.
         12    1    3    3    0    0  0.80711530346E+00  0.72568697153E+01 -0.14912109835E+02  0.16603752976E+02  0.00000000000E+00 0. -1.
</event>
<event>
 7    1  0.2227287E-008  0.4614232E+02  0.7816164E-02  0.1320468E+00
        -11   -1    0    0    0    0  0.00000000000E+00  0.00000000000E+00  0.45593999997E+02  0.45594000000E+02  0.51100000000E-03 0. -1.
         11   -1    0    0    0    0 -0.00000000000E+00 -0.00000000000E+00 -0.45593999997E+02  0.45594000000E+02  0.51100000000E-03 0.  1.
    9900012    2    1    2    0    0  0.31722519860E+01  0.17648193304E+02 -0.41323010218E+02  0.46142322261E+02  0.10000041030E+02 0.  0.
         12    1    1    2    0    0 -0.31722519860E+01 -0.17648193304E+02  0.41323010218E+02  0.45045677739E+02  0.00000000000E+00 0. -1.
         11    1    3    3    0    0  0.22593265871E+01  0.15323026094E+02 -0.33298252269E+02  0.36724287463E+02  0.51100000000E-03 0. -1.
        -11    1    3    3    0    0 -0.77722315810E+00  0.77459533847E+00 -0.66584570560E+01  0.67482682522E+01  0.51100000000E-03 0.  1.
         12    1    3    3    0    0  0.16901485570E+01  0.15505718719E+01 -0.13663008930E+01  0.26697665450E+01  0.00000000000E+00 0. -1.
</event>
<event>
 7    1  0.2227287E-008  0.4614232E+02  0.7816164E-02  0.1320468E+00
        -11   -1    0    0    0    0  0.00000000000E+00  0.00000000000E+00  0.45593999997E+02  0.45594000000E+02  0.51100000000E-03 0. -1.
         11   -1    0    0    0    0 -0.00000000000E+00 -0.00000000000E+00 -0.45593999997E+02  0.45594000000E+02  0.51100000000E-03 0.  1.
    9900012    2    1    2    0    0  0.31211523273E+02  0.10588916875E+02 -0.30705522714E+02  0.46142317957E+02  0.10000001784E+02 0.  0.
         12    1    1    2    0    0 -0.31211523273E+02 -0.10588916875E+02  0.30705522714E+02  0.45045682043E+02  0.00000000000E+00 0. -1.
         11    1    3    3    0    0  0.18567012640E+02  0.71294211836E+01 -0.14628789500E+02  0.24689351698E+02  0.51100000000E-03 0. -1.
        -11    1    3    3    0    0  0.12260190946E+02  0.33506064509E+01 -0.16528336033E+02  0.20850053666E+02  0.51100000000E-03 0.  1.
         12    1    3    3    0    0  0.38431968640E+00  0.10888924039E+00  0.45160281828E+00  0.60291259193E+00  0.00000000000E+00 0. -1.
</event>
<event>
 7    1  0.2227287E-008  0.4614232E+02  0.7816164E-02  0.1320468E+00
        -11   -1    0    0    0    0  0.00000000000E+00  0.00000000000E+00  0.45593999997E+02  0.45594000000E+02  0.51100000000E-03 0.  1.
         11   -1    0    0    0    0 -0.00000000000E+00 -0.00000000000E+00 -0.45593999997E+02  0.45594000000E+02  0.51100000000E-03 0. -1.
    9900012    2    1    2    0    0  0.21571387893E+02  0.34651211277E+02  0.19054714143E+02  0.46142319300E+02  0.10000014036E+02 0.  0.
         12    1    1    2    0    0 -0.21571387893E+02 -0.34651211277E+02 -0.19054714143E+02  0.45045680700E+02  0.00000000000E+00 0. -1.
         11    1    3    3    0    0  0.58378606809E+01  0.53168051036E+01  0.72485933560E+01  0.10718728457E+02  0.51100000000E-03 0. -1.
        -11    1    3    3    0    0  0.34094281062E+01  0.81590161574E+01  0.22430426066E+01  0.91227728825E+01  0.51100000000E-03 0.  1.
         12    1    3    3    0    0  0.12324099106E+02  0.21175390016E+02  0.95630781805E+01  0.26300817961E+02  0.00000000000E+00 0. -1.
</event>
<event>
 7    1  0.2227287E-008  0.4614232E+02  0.7816164E-02  0.1320468E+00
        -11   -1    0    0    0    0  0.00000000000E+00  0.00000000000E+00  0.45593999997E+02  0.45594000000E+02  0.51100000000E-03 0.  1.
         11   -1    0    0    0    0 -0.00000000000E+00 -0.00000000000E+00 -0.45593999997E+02  0.45594000000E+02  0.51100000000E-03 0. -1.
    9900012    2    1    2    0    0 -0.39545630769E+02  0.19574010061E+02  0.90617157812E+01  0.46142317902E+02  0.10000001283E+02 0.  0.
         12    1    1    2    0    0  0.39545630769E+02 -0.19574010061E+02 -0.90617157812E+01  0.45045682098E+02  0.00000000000E+00 0. -1.
         11    1    3    3    0    0 -0.26330689414E+01  0.20246278993E+01  0.14042413332E+01  0.36061148295E+01  0.51100000000E-03 0. -1.
        -11    1    3    3    0    0 -0.16573815141E+02  0.83873842598E+01 -0.10140937538E+01  0.18602901641E+02  0.51100000000E-03 0.  1.
        -12    1    3    3    0    0 -0.20338746687E+02  0.91619979020E+01  0.86715682018E+01  0.23933301432E+02  0.00000000000E+00 0.  1.
</event>
<event>
 7    1  0.2227287E-008  0.4614232E+02  0.7816164E-02  0.1320468E+00
        -11   -1    0    0    0    0  0.00000000000E+00  0.00000000000E+00  0.45593999997E+02  0.45594000000E+02  0.51100000000E-03 0.  1.
         11   -1    0    0    0    0 -0.00000000000E+00 -0.00000000000E+00 -0.45593999997E+02  0.45594000000E+02  0.51100000000E-03 0. -1.
    9900012    2    1    2    0    0  0.15328821212E+02 -0.17740195878E+02  0.38463309662E+02  0.46142317636E+02  0.99999988582E+01 0.  0.
         12    1    1    2    0    0 -0.15328821212E+02  0.17740195878E+02 -0.38463309662E+02  0.45045682364E+02  0.00000000000E+00 0. -1.
         11    1    3    3    0    0  0.59378472444E+01 -0.11804118008E+02  0.22544704321E+02  0.26131569509E+02  0.51100000000E-03 0. -1.
        -11    1    3    3    0    0 -0.21409113769E+00 -0.15331154891E+01  0.17555721080E+01  0.23405793739E+01  0.51100000000E-03 0.  1.
        -12    1    3    3    0    0  0.96050651049E+01 -0.44029623807E+01  0.14163033233E+02  0.17670168753E+02  0.00000000000E+00 0.  1.
</event>
<event>
 7    1  0.2227287E-008  0.4614232E+02  0.7816164E-02  0.1320468E+00
        -11   -1    0    0    0    0  0.00000000000E+00  0.00000000000E+00  0.45593999997E+02  0.45594000000E+02  0.51100000000E-03 0.  1.
         11   -1    0    0    0    0 -0.00000000000E+00 -0.00000000000E+00 -0.45593999997E+02  0.45594000000E+02  0.51100000000E-03 0. -1.
    9900012    2    1    2    0    0  0.38731562765E+02 -0.11488527259E+00  0.22999265638E+02  0.46142319044E+02  0.10000011702E+02 0.  0.
         12    1    1    2    0    0 -0.38731562765E+02  0.11488527259E+00 -0.22999265638E+02  0.45045680956E+02  0.00000000000E+00 0. -1.
         11    1    3    3    0    0  0.87212418682E+01 -0.15905868074E+01  0.30790254919E+01  0.93845843998E+01  0.51100000000E-03 0. -1.
        -11    1    3    3    0    0  0.24407058027E+02 -0.15636983216E+01  0.14847709194E+02  0.28611258318E+02  0.51100000000E-03 0.  1.
         12    1    3    3    0    0  0.56032628698E+01  0.30393998564E+01  0.50725309528E+01  0.81464763268E+01  0.00000000000E+00 0. -1.
</event>
<event>
 7    1  0.2227287E-008  0.4614232E+02  0.7816164E-02  0.1320468E+00
        -11   -1    0    0    0    0  0.00000000000E+00  0.00000000000E+00  0.45593999997E+02  0.45594000000E+02  0.51100000000E-03 0.  1.
         11   -1    0    0    0    0 -0.00000000000E+00 -0.00000000000E+00 -0.45593999997E+02  0.45594000000E+02  0.51100000000E-03 0. -1.
    9900012    2    1    2    0    0  0.35082897292E+02 -0.70085739682E+01  0.27371219496E+02  0.46142318207E+02  0.10000004067E+02 0.  0.
         12    1    1    2    0    0 -0.35082897292E+02  0.70085739682E+01 -0.27371219496E+02  0.45045681793E+02  0.00000000000E+00 0. -1.
         11    1    3    3    0    0  0.34368522257E+01 -0.24588305835E+01  0.76431286084E+00  0.42944121215E+01  0.51100000000E-03 0. -1.
        -11    1    3    3    0    0  0.40227874003E+01 -0.13721408319E+01  0.19165279707E+01  0.46624745205E+01  0.51100000000E-03 0.  1.
        -12    1    3    3    0    0  0.27623257666E+02 -0.31776025528E+01  0.24690378665E+02  0.37185431565E+02  0.00000000000E+00 0.  1.
</event>
<event>
 7    1  0.2227287E-008  0.4614232E+02  0.7816164E-02  0.1320468E+00
        -11   -1    0    0    0    0  0.00000000000E+00  0.00000000000E+00  0.45593999997E+02  0.45594000000E+02  0.51100000000E-03 0. -1.
         11   -1    0    0    0    0 -0.00000000000E+00 -0.00000000000E+00 -0.45593999997E+02  0.45594000000E+02  0.51100000000E-03 0.  1.
    9900012    2    1    2    0    0  0.12542429031E+02 -0.14859814928E+02 -0.40632337881E+02  0.46142317550E+02  0.99999980747E+01 0.  0.
         12    1    1    2    0    0 -0.12542429031E+02  0.14859814928E+02  0.40632337881E+02  0.45045682450E+02  0.00000000000E+00 0. -1.
         11    1    3    3    0    0  0.46394873120E+01 -0.46788208677E+01 -0.82484928100E+01  0.10557170129E+02  0.51100000000E-03 0. -1.
        -11    1    3    3    0    0  0.12296594900E+01 -0.73810934174E+01 -0.17618320519E+02  0.19141520855E+02  0.51100000000E-03 0.  1.
        -12    1    3    3    0    0  0.66732822295E+01 -0.27999006424E+01 -0.14765524553E+02  0.16443626566E+02  0.00000000000E+00 0.  1.
</event>
<event>
 7    1  0.2227287E-008  0.4614232E+02  0.7816164E-02  0.1320468E+00
        -11   -1    0    0    0    0  0.00000000000E+00  0.00000000000E+00  0.45593999997E+02  0.45594000000E+02  0.51100000000E-03 0.  1.
         11   -1    0    0    0    0 -0.00000000000E+00 -0.00000000000E+00 -0.45593999997E+02  0.45594000000E+02  0.51100000000E-03 0. -1.
    9900012    2    1    2    0    0  0.27776882537E+02  0.29949212421E+02  0.18989538088E+02  0.46142322240E+02  0.10000040838E+02 0.  0.
         12    1    1    2    0    0 -0.27776882537E+02 -0.29949212421E+02 -0.18989538088E+02  0.45045677760E+02  0.00000000000E+00 0. -1.
         11    1    3    3    0    0  0.42991338509E+01  0.95844983598E+01  0.70517110759E+01  0.12651948073E+02  0.51100000000E-03 0. -1.
        -11    1    3    3    0    0  0.20635764848E+01  0.22008885581E+01  0.23303321421E+01  0.38121787087E+01  0.51100000000E-03 0.  1.
         12    1    3    3    0    0  0.21414172201E+02  0.18163825503E+02  0.96074948703E+01  0.29678195458E+02  0.00000000000E+00 0. -1.
</event>
<event>
 7    1  0.2227287E-008  0.4614232E+02  0.7816164E-02  0.1320468E+00
        -11   -1    0    0    0    0  0.00000000000E+00  0.00000000000E+00  0.45593999997E+02  0.45594000000E+02  0.51100000000E-03 0. -1.
         11   -1    0    0    0    0 -0.00000000000E+00 -0.00000000000E+00 -0.45593999997E+02  0.45594000000E+02  0.51100000000E-03 0.  1.
    9900012    2    1    2    0    0  0.19800871240E+02 -0.28103539897E+02 -0.29107215344E+02  0.46142318279E+02  0.10000004725E+02 0.  0.
         12    1    1    2    0    0 -0.19800871240E+02  0.28103539897E+02  0.29107215344E+02  0.45045681721E+02  0.00000000000E+00 0. -1.
         11    1    3    3    0    0  0.99365400772E+01 -0.10874318565E+02 -0.16722008389E+02  0.22284775022E+02  0.51100000000E-03 0. -1.
        -11    1    3    3    0    0  0.88317740046E+01 -0.11217804060E+02 -0.90824626403E+01  0.16921302783E+02  0.51100000000E-03 0.  1.
         12    1    3    3    0    0  0.10325571579E+01 -0.60114172730E+01 -0.33027443142E+01  0.69362404744E+01  0.00000000000E+00 0. -1.
</event>
<event>
 7    1  0.2227287E-008  0.4614232E+02  0.7816164E-02  0.1320468E+00
        -11   -1    0    0    0    0  0.00000000000E+00  0.00000000000E+00  0.45593999997E+02  0.45594000000E+02  0.51100000000E-03 0.  1.
         11   -1    0    0    0    0 -0.00000000000E+00 -0.00000000000E+00 -0.45593999997E+02  0.45594000000E+02  0.51100000000E-03 0. -1.
    9900012    2    1    2    0    0 -0.26544964105E+02 -0.28494404360E+02  0.22639507196E+02  0.46142317796E+02  0.10000000316E+02 0.  0.
         12    1    1    2    0    0  0.26544964105E+02  0.28494404360E+02 -0.22639507196E+02  0.45045682204E+02  0.00000000000E+00 0. -1.
         11    1    3    3    0    0 -0.72971171128E+01 -0.99144720930E+01  0.27870647249E+01  0.12621901801E+02  0.51100000000E-03 0. -1.
        -11    1    3    3    0    0 -0.40656589782E+01 -0.20816582970E+01  0.38641383712E+01  0.59828462963E+01  0.51100000000E-03 0.  1.
        -12    1    3    3    0    0 -0.15182188014E+02 -0.16498273969E+02  0.15988304100E+02  0.27537569698E+02  0.00000000000E+00 0.  1.
</event>
<event>
 7    1  0.2227287E-008  0.4614232E+02  0.7816164E-02  0.1320468E+00
        -11   -1    0    0    0    0  0.00000000000E+00  0.00000000000E+00  0.45593999997E+02  0.45594000000E+02  0.51100000000E-03 0.  1.
         11   -1    0    0    0    0 -0.00000000000E+00 -0.00000000000E+00 -0.45593999997E+02  0.45594000000E+02  0.51100000000E-03 0. -1.
    9900012    2    1    2    0    0 -0.21377440784E+02  0.56199329965E+01  0.39249647683E+02  0.46142318025E+02  0.10000002410E+02 0.  0.
         12    1    1    2    0    0  0.21377440784E+02 -0.56199329965E+01 -0.39249647683E+02  0.45045681975E+02  0.00000000000E+00 0. -1.
         11    1    3    3    0    0 -0.16158791437E+01  0.31751264287E+01  0.26579900293E+01  0.44449302022E+01  0.51100000000E-03 0. -1.
        -11    1    3    3    0    0 -0.38069888702E+01 -0.87481508243E-01  0.61052930293E+01  0.71955139154E+01  0.51100000000E-03 0.  1.
         12    1    3    3    0    0 -0.15954572770E+02  0.25322880760E+01  0.30486364624E+02  0.34501873908E+02  0.00000000000E+00 0. -1.
</event>
<event>
 7    1  0.2227287E-008  0.4614232E+02  0.7816164E-02  0.1320468E+00
        -11   -1    0    0    0    0  0.00000000000E+00  0.00000000000E+00  0.45593999997E+02  0.45594000000E+02  0.51100000000E-03 0.  1.
         11   -1    0    0    0    0 -0.00000000000E+00 -0.00000000000E+00 -0.45593999997E+02  0.45594000000E+02  0.51100000000E-03 0. -1.
    9900012    2    1    2    0    0 -0.11328589924E+02  0.40303881784E+02  0.16624490795E+02  0.46142317291E+02  0.99999957164E+01 0.  0.
         12    1    1    2    0    0  0.11328589924E+02 -0.40303881784E+02 -0.16624490795E+02  0.45045682709E+02  0.00000000000E+00 0. -1.
         11    1    3    3    0    0 -0.14195480144E+00  0.69425351634E+01  0.46381028380E+01  0.83505056049E+01  0.51100000000E-03 0. -1.
        -11    1    3    3    0    0 -0.17365249876E+01  0.12141733024E+02  0.66731888876E+01  0.13963117490E+02  0.51100000000E-03 0.  1.
         12    1    3    3    0    0 -0.94501101353E+01  0.21219613596E+02  0.53131990692E+01  0.23828694196E+02  0.00000000000E+00 0. -1.
</event>
<event>
 7    1  0.2227287E-008  0.4614232E+02  0.7816164E-02  0.1320468E+00
        -11   -1    0    0    0    0  0.00000000000E+00  0.00000000000E+00  0.45593999997E+02  0.45594000000E+02  0.51100000000E-03 0. -1.
         11   -1    0    0    0    0 -0.00000000000E+00 -0.00000000000E+00 -0.45593999997E+02  0.45594000000E+02  0.51100000000E-03 0.  1.
    9900012    2    1    2    0    0 -0.10513595336E+02  0.23942434275E+02 -0.36678844203E+02  0.46142318098E+02  0.10000003075E+02 0.  0.
         12    1    1    2    0    0  0.10513595336E+02 -0.23942434275E+02  0.36678844203E+02  0.45045681902E+02  0.00000000000E+00 0. -1.
         11    1    3    3    0    0 -0.28135117578E+01  0.55461990448E+01 -0.28640297769E+01  0.68468123298E+01  0.51100000000E-03 0. -1.
        -11    1    3    3    0    0 -0.60993488333E+01  0.12955746540E+02 -0.25115674550E+02  0.28911079761E+02  0.51100000000E-03 0.  1.
         12    1    3    3    0    0 -0.16007347451E+01  0.54404886908E+01 -0.86991398758E+01  0.10384426007E+02  0.00000000000E+00 0. -1.
</event>
<event>
 7    1  0.2227287E-008  0.4614232E+02  0.7816164E-02  0.1320468E+00
        -11   -1    0    0    0    0  0.00000000000E+00  0.00000000000E+00  0.45593999997E+02  0.45594000000E+02  0.51100000000E-03 0.  1.
         11   -1    0    0    0    0 -0.00000000000E+00 -0.00000000000E+00 -0.45593999997E+02  0.45594000000E+02  0.51100000000E-03 0. -1.
    9900012    2    1    2    0    0 -0.14309567368E+01  0.36878080344E+02  0.25827755323E+02  0.46142318831E+02  0.10000009753E+02 0.  0.
         12    1    1    2    0    0  0.14309567368E+01 -0.36878080344E+02 -0.25827755323E+02  0.45045681169E+02  0.00000000000E+00 0. -1.
         11    1    3    3    0    0  0.90741643835E+00  0.22881608391E+02  0.12875951742E+02  0.26271306413E+02  0.51100000000E-03 0.  1.
        -11    1    3    3    0    0 -0.25135282402E+01  0.38720660526E+01  0.22414472553E+01  0.51317449069E+01  0.51100000000E-03 0. -1.
         12    1    3    3    0    0  0.17515506501E+00  0.10124405900E+02  0.10710356325E+02  0.14739267510E+02  0.00000000000E+00 0. -1.
</event>
<event>
 7    1  0.2227287E-008  0.4614232E+02  0.7816164E-02  0.1320468E+00
        -11   -1    0    0    0    0  0.00000000000E+00  0.00000000000E+00  0.45593999997E+02  0.45594000000E+02  0.51100000000E-03 0.  1.
         11   -1    0    0    0    0 -0.00000000000E+00 -0.00000000000E+00 -0.45593999997E+02  0.45594000000E+02  0.51100000000E-03 0. -1.
    9900012    2    1    2    0    0 -0.13459276646E+02  0.34560952574E+02  0.25563683218E+02  0.46142317961E+02  0.10000001825E+02 0.  0.
         12    1    1    2    0    0  0.13459276646E+02 -0.34560952574E+02 -0.25563683218E+02  0.45045682039E+02  0.00000000000E+00 0. -1.
         11    1    3    3    0    0 -0.34731788064E+01  0.55364616362E+01  0.18434918661E+01  0.67907172664E+01  0.51100000000E-03 0. -1.
        -11    1    3    3    0    0 -0.21467221477E+01  0.16379037584E+02  0.12681806798E+02  0.20825693556E+02  0.51100000000E-03 0.  1.
        -12    1    3    3    0    0 -0.78393756919E+01  0.12645453354E+02  0.11038384554E+02  0.18525907139E+02  0.00000000000E+00 0.  1.
</event>
<event>
 7    1  0.2227287E-008  0.4614232E+02  0.7816164E-02  0.1320468E+00
        -11   -1    0    0    0    0  0.00000000000E+00  0.00000000000E+00  0.45593999997E+02  0.45594000000E+02  0.51100000000E-03 0.  1.
         11   -1    0    0    0    0 -0.00000000000E+00 -0.00000000000E+00 -0.45593999997E+02  0.45594000000E+02  0.51100000000E-03 0. -1.
    9900012    2    1    2    0    0  0.68663790753E+01  0.16796236229E+02  0.41229272565E+02  0.46142316196E+02  0.99999857326E+01 0.  0.
         12    1    1    2    0    0 -0.68663790753E+01 -0.16796236229E+02 -0.41229272565E+02  0.45045683804E+02  0.00000000000E+00 0. -1.
         11    1    3    3    0    0  0.32470540286E+01  0.75610865163E+01  0.13255681749E+02  0.15602130882E+02  0.51100000000E-03 0. -1.
        -11    1    3    3    0    0  0.57027783638E+01  0.64859730676E+01  0.22114114311E+02  0.23740757775E+02  0.51100000000E-03 0.  1.
        -12    1    3    3    0    0 -0.20834533171E+01  0.27491766452E+01  0.58594765052E+01  0.67994275395E+01  0.00000000000E+00 0.  1.
</event>
<event>
 7    1  0.2227287E-008  0.4614233E+02  0.7816164E-02  0.1320468E+00
        -11   -1    0    0    0    0  0.00000000000E+00  0.00000000000E+00  0.45593999997E+02  0.45594000000E+02  0.51100000000E-03 0.  1.
         11   -1    0    0    0    0 -0.00000000000E+00 -0.00000000000E+00 -0.45593999997E+02  0.45594000000E+02  0.51100000000E-03 0. -1.
    9900012    2    1    2    0    0 -0.40764149139E+02 -0.58153749958E+01  0.18264128584E+02  0.46142325021E+02  0.10000066203E+02 0.  0.
         12    1    1    2    0    0  0.40764149139E+02  0.58153749958E+01 -0.18264128584E+02  0.45045674979E+02  0.00000000000E+00 0. -1.
         11    1    3    3    0    0 -0.11392183990E+01 -0.10426533520E+01  0.10133694874E+01  0.18471227767E+01  0.51100000000E-03 0. -1.
        -11    1    3    3    0    0 -0.31613753853E+02 -0.62486263985E+01  0.16241707514E+02  0.36086948164E+02  0.51100000000E-03 0.  1.
         12    1    3    3    0    0 -0.80111768866E+01  0.14759047546E+01  0.10090515829E+01  0.82082540805E+01  0.00000000000E+00 0. -1.
</event>
<event>
 7    1  0.2227287E-008  0.4614232E+02  0.7816164E-02  0.1320468E+00
        -11   -1    0    0    0    0  0.00000000000E+00  0.00000000000E+00  0.45593999997E+02  0.45594000000E+02  0.51100000000E-03 0.  1.
         11   -1    0    0    0    0 -0.00000000000E+00 -0.00000000000E+00 -0.45593999997E+02  0.45594000000E+02  0.51100000000E-03 0. -1.
    9900012    2    1    2    0    0  0.24820565237E+02  0.15611759509E+02  0.34195408653E+02  0.46142318003E+02  0.10000002203E+02 0.  0.
         12    1    1    2    0    0 -0.24820565237E+02 -0.15611759509E+02 -0.34195408653E+02  0.45045681997E+02  0.00000000000E+00 0. -1.
         11    1    3    3    0    0  0.25416934407E+01 -0.64536625799E+00  0.19645947213E+01  0.32766348337E+01  0.51100000000E-03 0. -1.
        -11    1    3    3    0    0  0.59495757161E+01  0.13143417599E+01  0.61285576656E+01  0.86420000454E+01  0.51100000000E-03 0.  1.
        -12    1    3    3    0    0  0.16329296080E+02  0.14942784007E+02  0.26102256266E+02  0.34223683124E+02  0.00000000000E+00 0.  1.
</event>
<event>
 7    1  0.2227287E-008  0.4614232E+02  0.7816164E-02  0.1320468E+00
        -11   -1    0    0    0    0  0.00000000000E+00  0.00000000000E+00  0.45593999997E+02  0.45594000000E+02  0.51100000000E-03 0. -1.
         11   -1    0    0    0    0 -0.00000000000E+00 -0.00000000000E+00 -0.45593999997E+02  0.45594000000E+02  0.51100000000E-03 0.  1.
    9900012    2    1    2    0    0  0.33958668475E+02 -0.27888210141E+02 -0.99080811541E+01  0.46142317614E+02  0.99999986554E+01 0.  0.
         12    1    1    2    0    0 -0.33958668475E+02  0.27888210141E+02  0.99080811541E+01  0.45045682386E+02  0.00000000000E+00 0. -1.
         11    1    3    3    0    0  0.15454518822E+02 -0.14102953983E+02 -0.26096240559E+01  0.21084250070E+02  0.51100000000E-03 0. -1.
        -11    1    3    3    0    0  0.10372665889E+02 -0.10579399168E+02 -0.23127995380E+01  0.14995496870E+02  0.51100000000E-03 0.  1.
        -12    1    3    3    0    0  0.81314837644E+01 -0.32058569901E+01 -0.49856575602E+01  0.10062570674E+02  0.00000000000E+00 0.  1.
</event>
<event>
 7    1  0.2227287E-008  0.4614232E+02  0.7816164E-02  0.1320468E+00
        -11   -1    0    0    0    0  0.00000000000E+00  0.00000000000E+00  0.45593999997E+02  0.45594000000E+02  0.51100000000E-03 0.  1.
         11   -1    0    0    0    0 -0.00000000000E+00 -0.00000000000E+00 -0.45593999997E+02  0.45594000000E+02  0.51100000000E-03 0. -1.
    9900012    2    1    2    0    0 -0.79072262926E+01  0.28858077673E+02  0.33671956935E+02  0.46142316983E+02  0.99999929074E+01 0.  0.
         12    1    1    2    0    0  0.79072262926E+01 -0.28858077673E+02 -0.33671956935E+02  0.45045683017E+02  0.00000000000E+00 0. -1.
         11    1    3    3    0    0 -0.34402970870E+01  0.35667765750E+01  0.69908680931E+01  0.85691175823E+01  0.51100000000E-03 0. -1.
        -11    1    3    3    0    0 -0.52347826315E+01  0.12060776322E+02  0.14491284500E+02  0.19566875106E+02  0.51100000000E-03 0.  1.
         12    1    3    3    0    0  0.76785342594E+00  0.13230524776E+02  0.12189804342E+02  0.18006324295E+02  0.00000000000E+00 0. -1.
</event>
<event>
 7    1  0.2227287E-008  0.4614232E+02  0.7816164E-02  0.1320468E+00
        -11   -1    0    0    0    0  0.00000000000E+00  0.00000000000E+00  0.45593999997E+02  0.45594000000E+02  0.51100000000E-03 0.  1.
         11   -1    0    0    0    0 -0.00000000000E+00 -0.00000000000E+00 -0.45593999997E+02  0.45594000000E+02  0.51100000000E-03 0. -1.
    9900012    2    1    2    0    0  0.29829997582E+01 -0.22827332676E+02  0.38718576332E+02  0.46142316990E+02  0.99999929687E+01 0.  0.
         12    1    1    2    0    0 -0.29829997582E+01  0.22827332676E+02 -0.38718576332E+02  0.45045683010E+02  0.00000000000E+00 0. -1.
         11    1    3    3    0    0 -0.83366579914E+00 -0.55949997224E+01  0.40801179575E+01  0.69746959336E+01  0.51100000000E-03 0. -1.
        -11    1    3    3    0    0  0.42012954434E+01 -0.11738510874E+02  0.20489602514E+02  0.23984731235E+02  0.51100000000E-03 0.  1.
        -12    1    3    3    0    0 -0.38462988608E+00 -0.54938220802E+01  0.14148855860E+02  0.15182889822E+02  0.00000000000E+00 0.  1.
</event>
<event>
 7    1  0.2227287E-008  0.4614232E+02  0.7816164E-02  0.1320468E+00
        -11   -1    0    0    0    0  0.00000000000E+00  0.00000000000E+00  0.45593999997E+02  0.45594000000E+02  0.51100000000E-03 0. -1.
         11   -1    0    0    0    0 -0.00000000000E+00 -0.00000000000E+00 -0.45593999997E+02  0.45594000000E+02  0.51100000000E-03 0.  1.
    9900012    2    1    2    0    0 -0.33842280127E+02  0.29213997932E+02  0.55096219851E+01  0.46142317257E+02  0.99999953999E+01 0.  0.
         12    1    1    2    0    0  0.33842280127E+02 -0.29213997932E+02 -0.55096219851E+01  0.45045682743E+02  0.00000000000E+00 0. -1.
         11    1    3    3    0    0 -0.15074799097E+02  0.12047438985E+02 -0.14354705561E+00  0.19297952221E+02  0.51100000000E-03 0. -1.
        -11    1    3    3    0    0 -0.92104160837E+00  0.72392203755E-01  0.15343208671E+01  0.17910050418E+01  0.51100000000E-03 0.  1.
        -12    1    3    3    0    0 -0.17846439422E+02  0.17094166744E+02  0.41188481736E+01  0.25053359994E+02  0.00000000000E+00 0.  1.
</event>
<event>
 7    1  0.2227287E-008  0.4614232E+02  0.7816164E-02  0.1320468E+00
        -11   -1    0    0    0    0  0.00000000000E+00  0.00000000000E+00  0.45593999997E+02  0.45594000000E+02  0.51100000000E-03 0.  1.
         11   -1    0    0    0    0 -0.00000000000E+00 -0.00000000000E+00 -0.45593999997E+02  0.45594000000E+02  0.51100000000E-03 0. -1.
    9900012    2    1    2    0    0  0.32799026608E+01 -0.17633870228E+02  0.41320725070E+02  0.46142318065E+02  0.10000002774E+02 0.  0.
         12    1    1    2    0    0 -0.32799026608E+01  0.17633870228E+02 -0.41320725070E+02  0.45045681935E+02  0.00000000000E+00 0. -1.
         11    1    3    3    0    0 -0.16021219901E+01 -0.11312239978E+02  0.17610221635E+02  0.20991747771E+02  0.51100000000E-03 0. -1.
        -11    1    3    3    0    0  0.35917897511E+00 -0.23238190510E+01  0.65339271564E+01  0.69441593346E+01  0.51100000000E-03 0.  1.
        -12    1    3    3    0    0  0.45228456757E+01 -0.39978111990E+01  0.17176576278E+02  0.18206410959E+02  0.00000000000E+00 0.  1.
</event>
<event>
 7    1  0.2227287E-008  0.4614232E+02  0.7816164E-02  0.1320468E+00
        -11   -1    0    0    0    0  0.00000000000E+00  0.00000000000E+00  0.45593999997E+02  0.45594000000E+02  0.51100000000E-03 0.  1.
         11   -1    0    0    0    0 -0.00000000000E+00 -0.00000000000E+00 -0.45593999997E+02  0.45594000000E+02  0.51100000000E-03 0. -1.
    9900012    2    1    2    0    0 -0.36160493845E+02 -0.17235887537E+02  0.20602337274E+02  0.46142318349E+02  0.10000005360E+02 0.  0.
         12    1    1    2    0    0  0.36160493845E+02  0.17235887537E+02 -0.20602337274E+02  0.45045681651E+02  0.00000000000E+00 0. -1.
         11    1    3    3    0    0 -0.14023626571E+02 -0.31131697114E+01  0.74964793207E+01  0.16203429586E+02  0.51100000000E-03 0. -1.
        -11    1    3    3    0    0 -0.16241750053E+02 -0.70478318320E+01  0.88621217025E+01  0.19799080273E+02  0.51100000000E-03 0.  1.
        -12    1    3    3    0    0 -0.58951172201E+01 -0.70748859934E+01  0.42437362506E+01  0.10139808490E+02  0.00000000000E+00 0.  1.
</event>
<event>
 7    1  0.2227287E-008  0.4614232E+02  0.7816164E-02  0.1320468E+00
        -11   -1    0    0    0    0  0.00000000000E+00  0.00000000000E+00  0.45593999997E+02  0.45594000000E+02  0.51100000000E-03 0.  1.
         11   -1    0    0    0    0 -0.00000000000E+00 -0.00000000000E+00 -0.45593999997E+02  0.45594000000E+02  0.51100000000E-03 0. -1.
    9900012    2    1    2    0    0  0.41833013015E+02  0.85401788460E+01  0.14358894182E+02  0.46142317912E+02  0.10000001377E+02 0.  0.
         12    1    1    2    0    0 -0.41833013015E+02 -0.85401788460E+01 -0.14358894182E+02  0.45045682088E+02  0.00000000000E+00 0. -1.
         11    1    3    3    0    0  0.15271029327E+02  0.33178200975E+01  0.93628585629E+01  0.18217447341E+02  0.51100000000E-03 0. -1.
        -11    1    3    3    0    0  0.14432424011E+02  0.48443661548E+01  0.15089446554E+01  0.15298354830E+02  0.51100000000E-03 0.  1.
         12    1    3    3    0    0  0.12129559677E+02  0.37799259366E+00  0.34870909639E+01  0.12626515740E+02  0.00000000000E+00 0. -1.
</event>
<event>
 7    1  0.2227287E-008  0.4614232E+02  0.7816164E-02  0.1320468E+00
        -11   -1    0    0    0    0  0.00000000000E+00  0.00000000000E+00  0.45593999997E+02  0.45594000000E+02  0.51100000000E-03 0. -1.
         11   -1    0    0    0    0 -0.00000000000E+00 -0.00000000000E+00 -0.45593999997E+02  0.45594000000E+02  0.51100000000E-03 0.  1.
    9900012    2    1    2    0    0 -0.41763973546E+02  0.18492460541E+00 -0.16877495063E+02  0.46142317376E+02  0.99999964871E+01 0.  0.
         12    1    1    2    0    0  0.41763973546E+02 -0.18492460541E+00  0.16877495063E+02  0.45045682624E+02  0.00000000000E+00 0. -1.
         11    1    3    3    0    0 -0.11973544795E+02 -0.33658894014E+01 -0.68614745406E+01  0.14204746374E+02  0.51100000000E-03 0.  1.
        -11    1    3    3    0    0 -0.29555774055E+00  0.38940750454E+00 -0.68350500960E+00  0.84034037262E+00  0.51100000000E-03 0. -1.
        -12    1    3    3    0    0 -0.29494871011E+02  0.31614065023E+01 -0.93325155126E+01  0.31097230629E+02  0.00000000000E+00 0.  1.
</event>
<event>
 7    1  0.2227287E-008  0.4614232E+02  0.7816164E-02  0.1320468E+00
        -11   -1    0    0    0    0  0.00000000000E+00  0.00000000000E+00  0.45593999997E+02  0.45594000000E+02  0.51100000000E-03 0.  1.
         11   -1    0    0    0    0 -0.00000000000E+00 -0.00000000000E+00 -0.45593999997E+02  0.45594000000E+02  0.51100000000E-03 0. -1.
    9900012    2    1    2    0    0  0.34582659329E+02 -0.47981354170E+01  0.28462797165E+02  0.46142320383E+02  0.10000023905E+02 0.  0.
         12    1    1    2    0    0 -0.34582659329E+02  0.47981354170E+01 -0.28462797165E+02  0.45045679617E+02  0.00000000000E+00 0. -1.
         11    1    3    3    0    0  0.12625202838E+02 -0.78090382442E+00  0.67666694046E+01  0.14345500081E+02  0.51100000000E-03 0. -1.
        -11    1    3    3    0    0  0.14155579722E+02 -0.47710631334E+01  0.17118763681E+02  0.22719937300E+02  0.51100000000E-03 0.  1.
        -12    1    3    3    0    0  0.78018767696E+01  0.75383154085E+00  0.45773640797E+01  0.90768830023E+01  0.00000000000E+00 0.  1.
</event>
<event>
 7    1  0.2227287E-008  0.4614232E+02  0.7816164E-02  0.1320468E+00
        -11   -1    0    0    0    0  0.00000000000E+00  0.00000000000E+00  0.45593999997E+02  0.45594000000E+02  0.51100000000E-03 0.  1.
         11   -1    0    0    0    0 -0.00000000000E+00 -0.00000000000E+00 -0.45593999997E+02  0.45594000000E+02  0.51100000000E-03 0. -1.
    9900012    2    1    2    0    0  0.38466272956E+02  0.22227529344E+02 -0.74428708866E+01  0.46142317156E+02  0.99999944813E+01 0.  0.
         12    1    1    2    0    0 -0.38466272956E+02 -0.22227529344E+02  0.74428708866E+01  0.45045682844E+02  0.00000000000E+00 0. -1.
         11    1    3    3    0    0  0.42111299762E+01  0.12114887607E+01 -0.60416959309E+00  0.44233857905E+01  0.51100000000E-03 0. -1.
        -11    1    3    3    0    0  0.29468113642E+02  0.14248202902E+02 -0.67913816497E+01  0.33429087223E+02  0.51100000000E-03 0.  1.
        -12    1    3    3    0    0  0.47870293373E+01  0.67678376817E+01 -0.47319643765E-01  0.82898441427E+01  0.00000000000E+00 0.  1.
</event>
<event>
 7    1  0.2227287E-008  0.4614232E+02  0.7816164E-02  0.1320468E+00
        -11   -1    0    0    0    0  0.00000000000E+00  0.00000000000E+00  0.45593999997E+02  0.45594000000E+02  0.51100000000E-03 0.  1.
         11   -1    0    0    0    0 -0.00000000000E+00 -0.00000000000E+00 -0.45593999997E+02  0.45594000000E+02  0.51100000000E-03 0. -1.
    9900012    2    1    2    0    0  0.41918141390E+02 -0.15362637953E+02  0.59976876285E+01  0.46142317861E+02  0.10000000908E+02 0.  0.
         12    1    1    2    0    0 -0.41918141390E+02  0.15362637953E+02 -0.59976876285E+01  0.45045682139E+02  0.00000000000E+00 0. -1.
         11    1    3    3    0    0  0.16343750894E+02 -0.36855345265E+01  0.18859431323E+01  0.16859956696E+02  0.51100000000E-03 0. -1.
        -11    1    3    3    0    0  0.23393807041E+02 -0.10410796491E+02  0.14964905362E+01  0.25649451761E+02  0.51100000000E-03 0.  1.
         12    1    3    3    0    0  0.21805834556E+01 -0.12663069359E+01  0.26152539600E+01  0.36329094041E+01  0.00000000000E+00 0. -1.
</event>
<event>
 7    1  0.2227287E-008  0.4614232E+02  0.7816164E-02  0.1320468E+00
        -11   -1    0    0    0    0  0.00000000000E+00  0.00000000000E+00  0.45593999997E+02  0.45594000000E+02  0.51100000000E-03 0.  1.
         11   -1    0    0    0    0 -0.00000000000E+00 -0.00000000000E+00 -0.45593999997E+02  0.45594000000E+02  0.51100000000E-03 0. -1.
    9900012    2    1    2    0    0 -0.42452183666E+02 -0.38534924777E+00 -0.15059112498E+02  0.46142320282E+02  0.10000022986E+02 0.  0.
         12    1    1    2    0    0  0.42452183666E+02  0.38534924777E+00  0.15059112498E+02  0.45045679718E+02  0.00000000000E+00 0. -1.
         11    1    3    3    0    0 -0.41096611622E+01  0.37384634303E+00 -0.24746576608E+01  0.48117571381E+01  0.51100000000E-03 0.  1.
        -11    1    3    3    0    0 -0.25813396491E+02  0.36790548563E+01 -0.81458544263E+01  0.27317061109E+02  0.51100000000E-03 0. -1.
        -12    1    3    3    0    0 -0.12529126013E+02 -0.44382504470E+01 -0.44386004106E+01  0.14013502035E+02  0.00000000000E+00 0.  1.
</event>
<event>
 7    1  0.2227287E-008  0.4614232E+02  0.7816164E-02  0.1320468E+00
        -11   -1    0    0    0    0  0.00000000000E+00  0.00000000000E+00  0.45593999997E+02  0.45594000000E+02  0.51100000000E-03 0.  1.
         11   -1    0    0    0    0 -0.00000000000E+00 -0.00000000000E+00 -0.45593999997E+02  0.45594000000E+02  0.51100000000E-03 0. -1.
    9900012    2    1    2    0    0  0.39899664054E+01  0.67463572301E+01  0.44358543238E+02  0.46142317344E+02  0.99999961963E+01 0.  0.
         12    1    1    2    0    0 -0.39899664054E+01 -0.67463572301E+01 -0.44358543238E+02  0.45045682656E+02  0.00000000000E+00 0. -1.
         11    1    3    3    0    0  0.19120714626E-01 -0.51174646964E+00  0.53432340516E-01  0.51488379956E+00  0.51100000000E-03 0. -1.
        -11    1    3    3    0    0  0.29081494906E+01  0.71934314781E+00  0.25779976854E+02  0.25953458245E+02  0.51100000000E-03 0.  1.
        -12    1    3    3    0    0  0.10626962002E+01  0.65387605519E+01  0.18525134043E+02  0.19673975300E+02  0.00000000000E+00 0.  1.
</event>
<event>
 7    1  0.2227287E-008  0.4614232E+02  0.7816164E-02  0.1320468E+00
        -11   -1    0    0    0    0  0.00000000000E+00  0.00000000000E+00  0.45593999997E+02  0.45594000000E+02  0.51100000000E-03 0. -1.
         11   -1    0    0    0    0 -0.00000000000E+00 -0.00000000000E+00 -0.45593999997E+02  0.45594000000E+02  0.51100000000E-03 0.  1.
    9900012    2    1    2    0    0 -0.11330231659E+02 -0.17550530774E+01 -0.43562129674E+02  0.46142317605E+02  0.99999985721E+01 0.  0.
         12    1    1    2    0    0  0.11330231659E+02  0.17550530774E+01  0.43562129674E+02  0.45045682395E+02  0.00000000000E+00 0. -1.
         11    1    3    3    0    0 -0.28395415239E+01  0.32792867292E+01 -0.10617515965E+02  0.11469453476E+02  0.51100000000E-03 0. -1.
        -11    1    3    3    0    0 -0.24135404542E+01 -0.62358616398E+00 -0.15226657619E+02  0.15429359667E+02  0.51100000000E-03 0.  1.
        -12    1    3    3    0    0 -0.60771496813E+01 -0.44107536427E+01 -0.17717956090E+02  0.19243504461E+02  0.00000000000E+00 0.  1.
</event>
<event>
 7    1  0.2227287E-008  0.4614232E+02  0.7816164E-02  0.1320468E+00
        -11   -1    0    0    0    0  0.00000000000E+00  0.00000000000E+00  0.45593999997E+02  0.45594000000E+02  0.51100000000E-03 0. -1.
         11   -1    0    0    0    0 -0.00000000000E+00 -0.00000000000E+00 -0.45593999997E+02  0.45594000000E+02  0.51100000000E-03 0.  1.
    9900012    2    1    2    0    0  0.30844621337E+02 -0.10614798273E+02 -0.31065237328E+02  0.46142316766E+02  0.99999909237E+01 0.  0.
         12    1    1    2    0    0 -0.30844621337E+02  0.10614798273E+02  0.31065237328E+02  0.45045683234E+02  0.00000000000E+00 0. -1.
         11    1    3    3    0    0  0.15268498183E+02 -0.33370272080E+01 -0.11902669139E+02  0.19645262030E+02  0.51100000000E-03 0. -1.
        -11    1    3    3    0    0  0.13690777133E+02 -0.76700107665E+01 -0.14161310637E+02  0.21137860887E+02  0.51100000000E-03 0.  1.
         12    1    3    3    0    0  0.18853460210E+01  0.39223970120E+00 -0.50012575522E+01  0.53591938485E+01  0.00000000000E+00 0. -1.
</event>
<event>
 7    1  0.2227287E-008  0.4614232E+02  0.7816164E-02  0.1320468E+00
        -11   -1    0    0    0    0  0.00000000000E+00  0.00000000000E+00  0.45593999997E+02  0.45594000000E+02  0.51100000000E-03 0. -1.
         11   -1    0    0    0    0 -0.00000000000E+00 -0.00000000000E+00 -0.45593999997E+02  0.45594000000E+02  0.51100000000E-03 0.  1.
    9900012    2    1    2    0    0 -0.52306593702E+00  0.44746945957E+02  0.51527319040E+01  0.46142318558E+02  0.10000007268E+02 0.  0.
         12    1    1    2    0    0  0.52306593702E+00 -0.44746945957E+02 -0.51527319040E+01  0.45045681442E+02  0.00000000000E+00 0. -1.
         11    1    3    3    0    0 -0.27086552214E+01  0.28612604800E+02  0.29845654917E+01  0.28895079131E+02  0.51100000000E-03 0.  1.
        -11    1    3    3    0    0 -0.79350150149E+00  0.36385456313E+01  0.23434308303E+01  0.44000371887E+01  0.51100000000E-03 0. -1.
        -12    1    3    3    0    0  0.29790907859E+01  0.12495795526E+02 -0.17526441802E+00  0.12847202239E+02  0.00000000000E+00 0.  1.
</event>
<event>
 7    1  0.2227287E-008  0.4614232E+02  0.7816164E-02  0.1320468E+00
        -11   -1    0    0    0    0  0.00000000000E+00  0.00000000000E+00  0.45593999997E+02  0.45594000000E+02  0.51100000000E-03 0. -1.
         11   -1    0    0    0    0 -0.00000000000E+00 -0.00000000000E+00 -0.45593999997E+02  0.45594000000E+02  0.51100000000E-03 0.  1.
    9900012    2    1    2    0    0  0.38162472617E+02 -0.14762923468E+02 -0.18836009414E+02  0.46142317896E+02  0.10000001228E+02 0.  0.
         12    1    1    2    0    0 -0.38162472617E+02  0.14762923468E+02  0.18836009414E+02  0.45045682104E+02  0.00000000000E+00 0. -1.
         11    1    3    3    0    0  0.12744976823E+02 -0.27545595255E+01 -0.10051267640E+02  0.16463596625E+02  0.51100000000E-03 0. -1.
        -11    1    3    3    0    0  0.15663326287E+02 -0.87021801200E+01 -0.69409022006E+01  0.19215718900E+02  0.51100000000E-03 0.  1.
         12    1    3    3    0    0  0.97541695072E+01 -0.33061838221E+01 -0.18438395738E+01  0.10463002371E+02  0.00000000000E+00 0. -1.
</event>
<event>
 7    1  0.2227287E-008  0.4614232E+02  0.7816164E-02  0.1320468E+00
        -11   -1    0    0    0    0  0.00000000000E+00  0.00000000000E+00  0.45593999997E+02  0.45594000000E+02  0.51100000000E-03 0.  1.
         11   -1    0    0    0    0 -0.00000000000E+00 -0.00000000000E+00 -0.45593999997E+02  0.45594000000E+02  0.51100000000E-03 0. -1.
    9900012    2    1    2    0    0 -0.23468711876E+02 -0.21865693392E+02  0.31626326050E+02  0.46142317809E+02  0.10000000439E+02 0.  0.
         12    1    1    2    0    0  0.23468711876E+02  0.21865693392E+02 -0.31626326050E+02  0.45045682191E+02  0.00000000000E+00 0. -1.
         11    1    3    3    0    0 -0.20619133882E+01  0.48100514427E+00  0.10577529673E+01  0.23667898872E+01  0.51100000000E-03 0. -1.
        -11    1    3    3    0    0 -0.12205108138E+02 -0.10416943767E+02  0.18360389528E+02  0.24384037524E+02  0.51100000000E-03 0.  1.
         12    1    3    3    0    0 -0.92016903504E+01 -0.11929754769E+02  0.12208183554E+02  0.19391490398E+02  0.00000000000E+00 0. -1.
</event>
<event>
 7    1  0.2227287E-008  0.4614232E+02  0.7816164E-02  0.1320468E+00
        -11   -1    0    0    0    0  0.00000000000E+00  0.00000000000E+00  0.45593999997E+02  0.45594000000E+02  0.51100000000E-03 0.  1.
         11   -1    0    0    0    0 -0.00000000000E+00 -0.00000000000E+00 -0.45593999997E+02  0.45594000000E+02  0.51100000000E-03 0. -1.
    9900012    2    1    2    0    0 -0.41522666638E+02 -0.26831569854E+01 -0.17256370371E+02  0.46142317693E+02  0.99999993792E+01 0.  0.
         12    1    1    2    0    0  0.41522666638E+02  0.26831569854E+01  0.17256370371E+02  0.45045682307E+02  0.00000000000E+00 0. -1.
         11    1    3    3    0    0  0.48347997700E-01  0.15749800419E+00 -0.10116055850E+00  0.19333098542E+00  0.51100000000E-03 0. -1.
        -11    1    3    3    0    0 -0.35777368576E+02 -0.55415282541E+01 -0.15189588027E+02  0.39261332406E+02  0.51100000000E-03 0.  1.
         12    1    3    3    0    0 -0.57936460597E+01  0.27008732645E+01 -0.19656217862E+01  0.66876543020E+01  0.00000000000E+00 0. -1.
</event>
<event>
 7    1  0.2227287E-008  0.4614232E+02  0.7816164E-02  0.1320468E+00
        -11   -1    0    0    0    0  0.00000000000E+00  0.00000000000E+00  0.45593999997E+02  0.45594000000E+02  0.51100000000E-03 0. -1.
         11   -1    0    0    0    0 -0.00000000000E+00 -0.00000000000E+00 -0.45593999997E+02  0.45594000000E+02  0.51100000000E-03 0.  1.
    9900012    2    1    2    0    0 -0.16056812617E+02  0.41035877923E+02 -0.93460660121E+01  0.46142318095E+02  0.10000003049E+02 0.  0.
         12    1    1    2    0    0  0.16056812617E+02 -0.41035877923E+02  0.93460660121E+01  0.45045681905E+02  0.00000000000E+00 0. -1.
         11    1    3    3    0    0 -0.93384158661E+01  0.29901137501E+02 -0.60048359925E+01  0.31895800512E+02  0.51100000000E-03 0.  1.
        -11    1    3    3    0    0 -0.66249149822E+01  0.97839512078E+01 -0.43145452966E+01  0.12578970591E+02  0.51100000000E-03 0. -1.
        -12    1    3    3    0    0 -0.93481768376E-01  0.13507892149E+01  0.97331527698E+00  0.16675469926E+01  0.00000000000E+00 0.  1.
</event>
<event>
 7    1  0.2227287E-008  0.4614232E+02  0.7816164E-02  0.1320468E+00
        -11   -1    0    0    0    0  0.00000000000E+00  0.00000000000E+00  0.45593999997E+02  0.45594000000E+02  0.51100000000E-03 0.  1.
         11   -1    0    0    0    0 -0.00000000000E+00 -0.00000000000E+00 -0.45593999997E+02  0.45594000000E+02  0.51100000000E-03 0. -1.
    9900012    2    1    2    0    0 -0.25524426783E+02 -0.36273999854E+02  0.78621919549E+01  0.46142317739E+02  0.99999998023E+01 0.  0.
         12    1    1    2    0    0  0.25524426783E+02  0.36273999854E+02 -0.78621919549E+01  0.45045682261E+02  0.00000000000E+00 0. -1.
         11    1    3    3    0    0 -0.23395702049E+01 -0.13695359062E+01 -0.29194879076E+00  0.27266190969E+01  0.51100000000E-03 0. -1.
        -11    1    3    3    0    0 -0.16693249006E+02 -0.23330097292E+02  0.19133935901E+01  0.28750983937E+02  0.51100000000E-03 0.  1.
        -12    1    3    3    0    0 -0.64916075717E+01 -0.11574366656E+02  0.62407471556E+01  0.14664714706E+02  0.00000000000E+00 0.  1.
</event>
<event>
 7    1  0.2227287E-008  0.4614232E+02  0.7816164E-02  0.1320468E+00
        -11   -1    0    0    0    0  0.00000000000E+00  0.00000000000E+00  0.45593999997E+02  0.45594000000E+02  0.51100000000E-03 0. -1.
         11   -1    0    0    0    0 -0.00000000000E+00 -0.00000000000E+00 -0.45593999997E+02  0.45594000000E+02  0.51100000000E-03 0.  1.
    9900012    2    1    2    0    0 -0.38398180844E+02  0.22301737978E+02 -0.75713707863E+01  0.46142318025E+02  0.10000002405E+02 0.  0.
         12    1    1    2    0    0  0.38398180844E+02 -0.22301737978E+02  0.75713707863E+01  0.45045681975E+02  0.00000000000E+00 0. -1.
         11    1    3    3    0    0 -0.16540672319E+02  0.13244015418E+02 -0.27718399119E+01  0.21370093166E+02  0.51100000000E-03 0. -1.
        -11    1    3    3    0    0 -0.19082400122E+02  0.68491832002E+01 -0.57990623408E+01  0.21087399774E+02  0.51100000000E-03 0.  1.
        -12    1    3    3    0    0 -0.27751084037E+01  0.22085393607E+01  0.99953146634E+00  0.36848250857E+01  0.00000000000E+00 0.  1.
</event>
<event>
 7    1  0.2227287E-008  0.4614231E+02  0.7816164E-02  0.1320468E+00
        -11   -1    0    0    0    0  0.00000000000E+00  0.00000000000E+00  0.45593999997E+02  0.45594000000E+02  0.51100000000E-03 0.  1.
         11   -1    0    0    0    0 -0.00000000000E+00 -0.00000000000E+00 -0.45593999997E+02  0.45594000000E+02  0.51100000000E-03 0. -1.
    9900012    2    1    2    0    0 -0.48232712579E+01 -0.13253327327E+02  0.42780829178E+02  0.46142312348E+02  0.99999506412E+01 0.  0.
         12    1    1    2    0    0  0.48232712579E+01  0.13253327327E+02 -0.42780829178E+02  0.45045687652E+02  0.00000000000E+00 0. -1.
         11    1    3    3    0    0  0.25589328805E+01 -0.24881704682E+01  0.71336458532E+01  0.79767181965E+01  0.51100000000E-03 0. -1.
        -11    1    3    3    0    0 -0.57410061904E+01 -0.76852193507E+01  0.30283119432E+02  0.31766162364E+02  0.51100000000E-03 0.  1.
         12    1    3    3    0    0 -0.16411979481E+01 -0.30799375085E+01  0.53640638923E+01  0.63994317874E+01  0.00000000000E+00 0. -1.
</event>
<event>
 7    1  0.2227287E-008  0.4614232E+02  0.7816164E-02  0.1320468E+00
        -11   -1    0    0    0    0  0.00000000000E+00  0.00000000000E+00  0.45593999997E+02  0.45594000000E+02  0.51100000000E-03 0. -1.
         11   -1    0    0    0    0 -0.00000000000E+00 -0.00000000000E+00 -0.45593999997E+02  0.45594000000E+02  0.51100000000E-03 0.  1.
    9900012    2    1    2    0    0 -0.20811053612E+01  0.42052718589E+02  0.16010974988E+02  0.46142318072E+02  0.10000002836E+02 0.  0.
         12    1    1    2    0    0  0.20811053612E+01 -0.42052718589E+02 -0.16010974988E+02  0.45045681928E+02  0.00000000000E+00 0. -1.
         11    1    3    3    0    0 -0.37759664697E+00  0.57985861281E+01  0.60078258062E+01  0.83582385400E+01  0.51100000000E-03 0. -1.
        -11    1    3    3    0    0  0.52434997764E+00  0.20418755312E+02  0.62165600767E+01  0.21350553408E+02  0.51100000000E-03 0.  1.
         12    1    3    3    0    0 -0.22278586919E+01  0.15835377150E+02  0.37865891051E+01  0.16433526124E+02  0.00000000000E+00 0. -1.
</event>
<event>
 7    1  0.2227287E-008  0.4614232E+02  0.7816164E-02  0.1320468E+00
        -11   -1    0    0    0    0  0.00000000000E+00  0.00000000000E+00  0.45593999997E+02  0.45594000000E+02  0.51100000000E-03 0. -1.
         11   -1    0    0    0    0 -0.00000000000E+00 -0.00000000000E+00 -0.45593999997E+02  0.45594000000E+02  0.51100000000E-03 0.  1.
    9900012    2    1    2    0    0 -0.71191214632E+01  0.42652922234E+02 -0.12615852105E+02  0.46142318854E+02  0.10000009967E+02 0.  0.
         12    1    1    2    0    0  0.71191214632E+01 -0.42652922234E+02  0.12615852105E+02  0.45045681146E+02  0.00000000000E+00 0. -1.
         11    1    3    3    0    0  0.81016117067E+00  0.28717020049E+01  0.17389901202E+00  0.29888584200E+01  0.51100000000E-03 0. -1.
        -11    1    3    3    0    0 -0.21606514713E+01  0.12283849197E+02 -0.75305840771E+01  0.14569525136E+02  0.51100000000E-03 0.  1.
        -12    1    3    3    0    0 -0.57686311625E+01  0.27497371032E+02 -0.52591670403E+01  0.28583935298E+02  0.00000000000E+00 0.  1.
</event>
<event>
 7    1  0.2227287E-008  0.4614232E+02  0.7816164E-02  0.1320468E+00
        -11   -1    0    0    0    0  0.00000000000E+00  0.00000000000E+00  0.45593999997E+02  0.45594000000E+02  0.51100000000E-03 0.  1.
         11   -1    0    0    0    0 -0.00000000000E+00 -0.00000000000E+00 -0.45593999997E+02  0.45594000000E+02  0.51100000000E-03 0. -1.
    9900012    2    1    2    0    0 -0.22898079646E+02  0.38730451883E+02 -0.21778623641E+01  0.46142322749E+02  0.10000045484E+02 0.  0.
         12    1    1    2    0    0  0.22898079646E+02 -0.38730451883E+02  0.21778623641E+01  0.45045677251E+02  0.00000000000E+00 0. -1.
         11    1    3    3    0    0 -0.50888669153E+01  0.18198190792E+02 -0.47337136603E+00  0.18902243129E+02  0.51100000000E-03 0. -1.
        -11    1    3    3    0    0 -0.12325278889E+02  0.14498088206E+02 -0.98525492793E+00  0.19054600202E+02  0.51100000000E-03 0.  1.
         12    1    3    3    0    0 -0.54839338418E+01  0.60341728844E+01 -0.71923607015E+00  0.81854794181E+01  0.00000000000E+00 0. -1.
</event>
<event>
 7    1  0.2227287E-008  0.4614232E+02  0.7816164E-02  0.1320468E+00
        -11   -1    0    0    0    0  0.00000000000E+00  0.00000000000E+00  0.45593999997E+02  0.45594000000E+02  0.51100000000E-03 0.  1.
         11   -1    0    0    0    0 -0.00000000000E+00 -0.00000000000E+00 -0.45593999997E+02  0.45594000000E+02  0.51100000000E-03 0. -1.
    9900012    2    1    2    0    0  0.16309678305E+02 -0.20257604368E+02  0.36779580528E+02  0.46142315578E+02  0.99999800970E+01 0.  0.
         12    1    1    2    0    0 -0.16309678305E+02  0.20257604368E+02 -0.36779580528E+02  0.45045684422E+02  0.00000000000E+00 0. -1.
         11    1    3    3    0    0  0.27522661064E+01 -0.78547914328E+01  0.14575595936E+02  0.16784537954E+02  0.51100000000E-03 0. -1.
        -11    1    3    3    0    0  0.89963761987E+01 -0.51313900010E+01  0.14534185781E+02  0.17846806567E+02  0.51100000000E-03 0.  1.
        -12    1    3    3    0    0  0.45610359998E+01 -0.72714229346E+01  0.76697988105E+01  0.11510971057E+02  0.00000000000E+00 0.  1.
</event>
<event>
 7    1  0.2227287E-008  0.4614232E+02  0.7816164E-02  0.1320468E+00
        -11   -1    0    0    0    0  0.00000000000E+00  0.00000000000E+00  0.45593999997E+02  0.45594000000E+02  0.51100000000E-03 0.  1.
         11   -1    0    0    0    0 -0.00000000000E+00 -0.00000000000E+00 -0.45593999997E+02  0.45594000000E+02  0.51100000000E-03 0. -1.
    9900012    2    1    2    0    0  0.61170825909E+01  0.43183727033E+02  0.11263239249E+02  0.46142317207E+02  0.99999949484E+01 0.  0.
         12    1    1    2    0    0 -0.61170825909E+01 -0.43183727033E+02 -0.11263239249E+02  0.45045682793E+02  0.00000000000E+00 0. -1.
         11    1    3    3    0    0 -0.61739723885E+00  0.16482827956E+01  0.86838694526E+00  0.19626797173E+01  0.51100000000E-03 0. -1.
        -11    1    3    3    0    0  0.16516583167E+01  0.21043912240E+02  0.11736740846E+01  0.21141232903E+02  0.51100000000E-03 0.  1.
        -12    1    3    3    0    0  0.50828215130E+01  0.20491531998E+02  0.92211782190E+01  0.23038404587E+02  0.00000000000E+00 0.  1.
</event>
<event>
 7    1  0.2227287E-008  0.4614232E+02  0.7816164E-02  0.1320468E+00
        -11   -1    0    0    0    0  0.00000000000E+00  0.00000000000E+00  0.45593999997E+02  0.45594000000E+02  0.51100000000E-03 0.  1.
         11   -1    0    0    0    0 -0.00000000000E+00 -0.00000000000E+00 -0.45593999997E+02  0.45594000000E+02  0.51100000000E-03 0. -1.
    9900012    2    1    2    0    0 -0.43283608935E+02  0.28719409089E+01  0.12140618298E+02  0.46142318080E+02  0.10000002904E+02 0.  0.
         12    1    1    2    0    0  0.43283608935E+02 -0.28719409089E+01 -0.12140618298E+02  0.45045681920E+02  0.00000000000E+00 0. -1.
         11    1    3    3    0    0 -0.65099027082E+01  0.12900272567E+01  0.49225502282E+01  0.82628387739E+01  0.51100000000E-03 0. -1.
        -11    1    3    3    0    0 -0.22556233418E+02  0.12119180207E-01  0.19655797255E+01  0.22641716295E+02  0.51100000000E-03 0.  1.
         12    1    3    3    0    0 -0.14217472809E+02  0.15697944720E+01  0.52524883440E+01  0.15237763010E+02  0.00000000000E+00 0. -1.
</event>
<event>
 7    1  0.2227287E-008  0.4614232E+02  0.7816164E-02  0.1320468E+00
        -11   -1    0    0    0    0  0.00000000000E+00  0.00000000000E+00  0.45593999997E+02  0.45594000000E+02  0.51100000000E-03 0.  1.
         11   -1    0    0    0    0 -0.00000000000E+00 -0.00000000000E+00 -0.45593999997E+02  0.45594000000E+02  0.51100000000E-03 0. -1.
    9900012    2    1    2    0    0  0.29149972790E+02  0.29647659833E+02 -0.17332305430E+02  0.46142318090E+02  0.10000002997E+02 0.  0.
         12    1    1    2    0    0 -0.29149972790E+02 -0.29647659833E+02  0.17332305430E+02  0.45045681910E+02  0.00000000000E+00 0. -1.
         11    1    3    3    0    0  0.76351556975E+01  0.10477611271E+02 -0.32862074405E+01  0.13374419616E+02  0.51100000000E-03 0. -1.
        -11    1    3    3    0    0  0.10824442071E+02  0.14038253315E+02 -0.89987750142E+01  0.19880117060E+02  0.51100000000E-03 0.  1.
         12    1    3    3    0    0  0.10690375021E+02  0.51317952474E+01 -0.50473229754E+01  0.12887781414E+02  0.00000000000E+00 0. -1.
</event>
<event>
 7    1  0.2227287E-008  0.4614232E+02  0.7816164E-02  0.1320468E+00
        -11   -1    0    0    0    0  0.00000000000E+00  0.00000000000E+00  0.45593999997E+02  0.45594000000E+02  0.51100000000E-03 0. -1.
         11   -1    0    0    0    0 -0.00000000000E+00 -0.00000000000E+00 -0.45593999997E+02  0.45594000000E+02  0.51100000000E-03 0.  1.
    9900012    2    1    2    0    0 -0.40526112622E+02  0.16438030090E+02 -0.10795318260E+02  0.46142317256E+02  0.99999953959E+01 0.  0.
         12    1    1    2    0    0  0.40526112622E+02 -0.16438030090E+02  0.10795318260E+02  0.45045682744E+02  0.00000000000E+00 0. -1.
         11    1    3    3    0    0 -0.71010356197E+01  0.34562987855E+01  0.11524267529E+01  0.79811525389E+01  0.51100000000E-03 0. -1.
        -11    1    3    3    0    0 -0.12034579410E+00  0.72846676426E+00 -0.41475464325E+00  0.84685808257E+00  0.51100000000E-03 0.  1.
        -12    1    3    3    0    0 -0.33304731209E+02  0.12253264540E+02 -0.11532990370E+02  0.37314306635E+02  0.00000000000E+00 0.  1.
</event>
<event>
 7    1  0.2227287E-008  0.4614232E+02  0.7816164E-02  0.1320468E+00
        -11   -1    0    0    0    0  0.00000000000E+00  0.00000000000E+00  0.45593999997E+02  0.45594000000E+02  0.51100000000E-03 0.  1.
         11   -1    0    0    0    0 -0.00000000000E+00 -0.00000000000E+00 -0.45593999997E+02  0.45594000000E+02  0.51100000000E-03 0. -1.
    9900012    2    1    2    0    0 -0.23829822298E+02 -0.25153252725E+02  0.28784835942E+02  0.46142319479E+02  0.10000015662E+02 0.  0.
         12    1    1    2    0    0  0.23829822298E+02  0.25153252725E+02 -0.28784835942E+02  0.45045680521E+02  0.00000000000E+00 0. -1.
         11    1    3    3    0    0 -0.22212686715E+01 -0.52793893753E+00  0.31529898478E+01  0.38928266432E+01  0.51100000000E-03 0. -1.
        -11    1    3    3    0    0 -0.98286693360E+01 -0.10366928572E+02  0.15810793647E+02  0.21308616683E+02  0.51100000000E-03 0.  1.
         12    1    3    3    0    0 -0.11779884291E+02 -0.14258385215E+02  0.98210524475E+01  0.20940876152E+02  0.00000000000E+00 0. -1.
</event>
<event>
 7    1  0.2227287E-008  0.4614232E+02  0.7816164E-02  0.1320468E+00
        -11   -1    0    0    0    0  0.00000000000E+00  0.00000000000E+00  0.45593999997E+02  0.45594000000E+02  0.51100000000E-03 0.  1.
         11   -1    0    0    0    0 -0.00000000000E+00 -0.00000000000E+00 -0.45593999997E+02  0.45594000000E+02  0.51100000000E-03 0. -1.
    9900012    2    1    2    0    0 -0.35154073248E+02  0.18900535497E+02  0.20882391578E+02  0.46142318897E+02  0.10000010357E+02 0.  0.
         12    1    1    2    0    0  0.35154073248E+02 -0.18900535497E+02 -0.20882391578E+02  0.45045681103E+02  0.00000000000E+00 0. -1.
         11    1    3    3    0    0 -0.14688189000E+02  0.81111050762E+01  0.10532477797E+02  0.19810754919E+02  0.51100000000E-03 0. -1.
        -11    1    3    3    0    0 -0.11373823184E+02  0.97637982289E+01  0.74083037406E+01  0.16720603286E+02  0.51100000000E-03 0.  1.
         12    1    3    3    0    0 -0.90920610645E+01  0.10256321918E+01  0.29416100412E+01  0.96109606922E+01  0.00000000000E+00 0. -1.
</event>
<event>
 7    1  0.2227287E-008  0.4614232E+02  0.7816164E-02  0.1320468E+00
        -11   -1    0    0    0    0  0.00000000000E+00  0.00000000000E+00  0.45593999997E+02  0.45594000000E+02  0.51100000000E-03 0.  1.
         11   -1    0    0    0    0 -0.00000000000E+00 -0.00000000000E+00 -0.45593999997E+02  0.45594000000E+02  0.51100000000E-03 0. -1.
    9900012    2    1    2    0    0 -0.15776454621E+02 -0.37134422124E+02  0.20031267037E+02  0.46142317787E+02  0.10000000237E+02 0.  0.
         12    1    1    2    0    0  0.15776454621E+02  0.37134422124E+02 -0.20031267037E+02  0.45045682213E+02  0.00000000000E+00 0. -1.
         11    1    3    3    0    0 -0.37636975866E+01 -0.93926947698E+01  0.67603016826E+01  0.12169215820E+02  0.51100000000E-03 0.  1.
        -11    1    3    3    0    0 -0.12034379986E+02 -0.28254254327E+02  0.12781384460E+02  0.33263989211E+02  0.51100000000E-03 0. -1.
         12    1    3    3    0    0  0.21622951356E-01  0.51252697272E+00  0.48958089457E+00  0.70911275699E+00  0.00000000000E+00 0. -1.
</event>
<event>
 7    1  0.2227287E-008  0.4614232E+02  0.7816164E-02  0.1320468E+00
        -11   -1    0    0    0    0  0.00000000000E+00  0.00000000000E+00  0.45593999997E+02  0.45594000000E+02  0.51100000000E-03 0.  1.
         11   -1    0    0    0    0 -0.00000000000E+00 -0.00000000000E+00 -0.45593999997E+02  0.45594000000E+02  0.51100000000E-03 0. -1.
    9900012    2    1    2    0    0 -0.12224181898E+02 -0.19920815275E+02  0.38507716068E+02  0.46142315400E+02  0.99999784721E+01 0.  0.
         12    1    1    2    0    0  0.12224181898E+02  0.19920815275E+02 -0.38507716068E+02  0.45045684600E+02  0.00000000000E+00 0. -1.
         11    1    3    3    0    0  0.33490598560E+00 -0.21549679497E+01  0.52938777004E+01  0.57254860276E+01  0.51100000000E-03 0. -1.
        -11    1    3    3    0    0 -0.12021461233E+02 -0.17913156986E+02  0.33456613360E+02  0.39808814366E+02  0.51100000000E-03 0.  1.
         12    1    3    3    0    0 -0.53762665039E+00  0.14730966089E+00 -0.24277499310E+00  0.60801500695E+00  0.00000000000E+00 0. -1.
</event>
<event>
 7    1  0.2227287E-008  0.4614232E+02  0.7816164E-02  0.1320468E+00
        -11   -1    0    0    0    0  0.00000000000E+00  0.00000000000E+00  0.45593999997E+02  0.45594000000E+02  0.51100000000E-03 0.  1.
         11   -1    0    0    0    0 -0.00000000000E+00 -0.00000000000E+00 -0.45593999997E+02  0.45594000000E+02  0.51100000000E-03 0. -1.
    9900012    2    1    2    0    0  0.14290462716E+02 -0.23968105611E+02  0.35361361162E+02  0.46142320135E+02  0.10000021649E+02 0.  0.
         12    1    1    2    0    0 -0.14290462716E+02  0.23968105611E+02 -0.35361361162E+02  0.45045679865E+02  0.00000000000E+00 0. -1.
         11    1    3    3    0    0  0.38631534544E+01 -0.53502098450E+01  0.43372108941E+01  0.78968410519E+01  0.51100000000E-03 0. -1.
        -11    1    3    3    0    0  0.65232098246E+01 -0.13065950316E+02  0.15465937148E+02  0.21271260804E+02  0.51100000000E-03 0.  1.
        -12    1    3    3    0    0  0.39040994368E+01 -0.55519454506E+01  0.15558213120E+02  0.16974218279E+02  0.00000000000E+00 0.  1.
</event>
<event>
 7    1  0.2227287E-008  0.4614232E+02  0.7816164E-02  0.1320468E+00
        -11   -1    0    0    0    0  0.00000000000E+00  0.00000000000E+00  0.45593999997E+02  0.45594000000E+02  0.51100000000E-03 0.  1.
         11   -1    0    0    0    0 -0.00000000000E+00 -0.00000000000E+00 -0.45593999997E+02  0.45594000000E+02  0.51100000000E-03 0. -1.
    9900012    2    1    2    0    0 -0.26816195497E+02 -0.34021272399E+02  0.12351445694E+02  0.46142317329E+02  0.99999960597E+01 0.  0.
         12    1    1    2    0    0  0.26816195497E+02  0.34021272399E+02 -0.12351445694E+02  0.45045682671E+02  0.00000000000E+00 0. -1.
         11    1    3    3    0    0 -0.53090025780E+01 -0.12315815654E+02  0.14102159125E+01  0.13485308035E+02  0.51100000000E-03 0. -1.
        -11    1    3    3    0    0 -0.71175493154E+01 -0.70189223671E+01  0.54038495381E+01  0.11363378439E+02  0.51100000000E-03 0.  1.
        -12    1    3    3    0    0 -0.14389643604E+02 -0.14686534377E+02  0.55373802432E+01  0.21293630856E+02  0.00000000000E+00 0.  1.
</event>
<event>
 7    1  0.2227287E-008  0.4614232E+02  0.7816164E-02  0.1320468E+00
        -11   -1    0    0    0    0  0.00000000000E+00  0.00000000000E+00  0.45593999997E+02  0.45594000000E+02  0.51100000000E-03 0.  1.
         11   -1    0    0    0    0 -0.00000000000E+00 -0.00000000000E+00 -0.45593999997E+02  0.45594000000E+02  0.51100000000E-03 0. -1.
    9900012    2    1    2    0    0  0.19926816512E+01  0.21260076892E+02  0.39662975936E+02  0.46142319744E+02  0.10000018084E+02 0.  0.
         12    1    1    2    0    0 -0.19926816512E+01 -0.21260076892E+02 -0.39662975936E+02  0.45045680256E+02  0.00000000000E+00 0. -1.
         11    1    3    3    0    0 -0.14801276092E+01  0.41684621959E+01  0.10887307212E+02  0.11751608971E+02  0.51100000000E-03 0. -1.
        -11    1    3    3    0    0  0.34861623276E+01  0.38044162464E+01  0.51830043206E+01  0.73137162099E+01  0.51100000000E-03 0.  1.
        -12    1    3    3    0    0 -0.13353067182E-01  0.13287198450E+02  0.23592664403E+02  0.27076994564E+02  0.00000000000E+00 0.  1.
</event>
<event>
 7    1  0.2227287E-008  0.4614232E+02  0.7816164E-02  0.1320468E+00
        -11   -1    0    0    0    0  0.00000000000E+00  0.00000000000E+00  0.45593999997E+02  0.45594000000E+02  0.51100000000E-03 0. -1.
         11   -1    0    0    0    0 -0.00000000000E+00 -0.00000000000E+00 -0.45593999997E+02  0.45594000000E+02  0.51100000000E-03 0.  1.
    9900012    2    1    2    0    0  0.35347072365E+02 -0.27593301783E+02  0.42787621408E+01  0.46142316150E+02  0.99999853064E+01 0.  0.
         12    1    1    2    0    0 -0.35347072365E+02  0.27593301783E+02 -0.42787621408E+01  0.45045683850E+02  0.00000000000E+00 0. -1.
         11    1    3    3    0    0  0.11228430005E+02 -0.68374369973E+01  0.36391294999E+01  0.13640800887E+02  0.51100000000E-03 0.  1.
        -11    1    3    3    0    0  0.31450120165E+01 -0.47986464336E+01 -0.18549857217E+01  0.60298491248E+01  0.51100000000E-03 0. -1.
         12    1    3    3    0    0  0.20973630344E+02 -0.15957218352E+02  0.24946183626E+01  0.26471666138E+02  0.00000000000E+00 0. -1.
</event>
<event>
 7    1  0.2227287E-008  0.4614232E+02  0.7816164E-02  0.1320468E+00
        -11   -1    0    0    0    0  0.00000000000E+00  0.00000000000E+00  0.45593999997E+02  0.45594000000E+02  0.51100000000E-03 0.  1.
         11   -1    0    0    0    0 -0.00000000000E+00 -0.00000000000E+00 -0.45593999997E+02  0.45594000000E+02  0.51100000000E-03 0. -1.
    9900012    2    1    2    0    0 -0.26999191406E+02  0.23198739949E+02  0.27603903023E+02  0.46142319475E+02  0.10000015631E+02 0.  0.
         12    1    1    2    0    0  0.26999191406E+02 -0.23198739949E+02 -0.27603903023E+02  0.45045680525E+02  0.00000000000E+00 0. -1.
         11    1    3    3    0    0 -0.15367020300E+02  0.90609335658E+01  0.12549926257E+02  0.21811613404E+02  0.51100000000E-03 0. -1.
        -11    1    3    3    0    0 -0.32605844401E+01  0.80233489327E+01  0.57029633314E+01  0.10369634999E+02  0.51100000000E-03 0.  1.
        -12    1    3    3    0    0 -0.83715866659E+01  0.61144574510E+01  0.93510134351E+01  0.13961071072E+02  0.00000000000E+00 0.  1.
</event>
<event>
 7    1  0.2227287E-008  0.4614232E+02  0.7816164E-02  0.1320468E+00
        -11   -1    0    0    0    0  0.00000000000E+00  0.00000000000E+00  0.45593999997E+02  0.45594000000E+02  0.51100000000E-03 0.  1.
         11   -1    0    0    0    0 -0.00000000000E+00 -0.00000000000E+00 -0.45593999997E+02  0.45594000000E+02  0.51100000000E-03 0. -1.
    9900012    2    1    2    0    0  0.41611240892E+02  0.51493603728E+01  0.16465182256E+02  0.46142317548E+02  0.99999980555E+01 0.  0.
         12    1    1    2    0    0 -0.41611240892E+02 -0.51493603728E+01 -0.16465182256E+02  0.45045682452E+02  0.00000000000E+00 0. -1.
         11    1    3    3    0    0  0.30549513257E+01  0.29178906264E+01  0.11597344904E+01  0.43808444003E+01  0.51100000000E-03 0. -1.
        -11    1    3    3    0    0  0.89658298786E+01 -0.12819839685E+01  0.34932656487E+01  0.97073422450E+01  0.51100000000E-03 0.  1.
        -12    1    3    3    0    0  0.29590459688E+02  0.35134537150E+01  0.11812182117E+02  0.32054130903E+02  0.00000000000E+00 0.  1.
</event>
<event>
 7    1  0.2227287E-008  0.4614232E+02  0.7816164E-02  0.1320468E+00
        -11   -1    0    0    0    0  0.00000000000E+00  0.00000000000E+00  0.45593999997E+02  0.45594000000E+02  0.51100000000E-03 0.  1.
         11   -1    0    0    0    0 -0.00000000000E+00 -0.00000000000E+00 -0.45593999997E+02  0.45594000000E+02  0.51100000000E-03 0. -1.
    9900012    2    1    2    0    0  0.32438768390E+02  0.22168002773E+02 -0.22032236837E+02  0.46142317614E+02  0.99999986586E+01 0.  0.
         12    1    1    2    0    0 -0.32438768390E+02 -0.22168002773E+02  0.22032236837E+02  0.45045682386E+02  0.00000000000E+00 0. -1.
         11    1    3    3    0    0  0.35224019443E+01  0.39118030373E+01 -0.51348895885E+01  0.73536800180E+01  0.51100000000E-03 0. -1.
        -11    1    3    3    0    0  0.64180930557E+01  0.77243584097E+01 -0.41355876328E+01  0.10860972178E+02  0.51100000000E-03 0.  1.
         12    1    3    3    0    0  0.22498273390E+02  0.10531841326E+02 -0.12761759615E+02  0.27927665418E+02  0.00000000000E+00 0. -1.
</event>
<event>
 7    1  0.2227287E-008  0.4614232E+02  0.7816164E-02  0.1320468E+00
        -11   -1    0    0    0    0  0.00000000000E+00  0.00000000000E+00  0.45593999997E+02  0.45594000000E+02  0.51100000000E-03 0. -1.
         11   -1    0    0    0    0 -0.00000000000E+00 -0.00000000000E+00 -0.45593999997E+02  0.45594000000E+02  0.51100000000E-03 0.  1.
    9900012    2    1    2    0    0 -0.72385056773E+01 -0.43152251648E+02 -0.10705169868E+02  0.46142318202E+02  0.10000004024E+02 0.  0.
         12    1    1    2    0    0  0.72385056773E+01  0.43152251648E+02  0.10705169868E+02  0.45045681798E+02  0.00000000000E+00 0. -1.
         11    1    3    3    0    0  0.20301224651E+00 -0.77732065012E+01 -0.94114510397E+00  0.78326054190E+01  0.51100000000E-03 0. -1.
        -11    1    3    3    0    0  0.75821136207E+00 -0.15792853020E+02 -0.42234696734E+01  0.16365414365E+02  0.51100000000E-03 0.  1.
         12    1    3    3    0    0 -0.81997292859E+01 -0.19586192126E+02 -0.55405550904E+01  0.21944298419E+02  0.00000000000E+00 0. -1.
</event>
<event>
 7    1  0.2227287E-008  0.4614232E+02  0.7816164E-02  0.1320468E+00
        -11   -1    0    0    0    0  0.00000000000E+00  0.00000000000E+00  0.45593999997E+02  0.45594000000E+02  0.51100000000E-03 0.  1.
         11   -1    0    0    0    0 -0.00000000000E+00 -0.00000000000E+00 -0.45593999997E+02  0.45594000000E+02  0.51100000000E-03 0. -1.
    9900012    2    1    2    0    0  0.41905538055E+01 -0.54366367523E+01  0.44519610140E+02  0.46142318216E+02  0.10000004149E+02 0.  0.
         12    1    1    2    0    0 -0.41905538055E+01  0.54366367523E+01 -0.44519610140E+02  0.45045681784E+02  0.00000000000E+00 0. -1.
         11    1    3    3    0    0 -0.98452489013E+00 -0.90974081543E+00  0.16266133243E+02  0.16321274722E+02  0.51100000000E-03 0. -1.
        -11    1    3    3    0    0 -0.12707508558E+01 -0.44446119393E+00  0.91785784145E+01  0.92767804470E+01  0.51100000000E-03 0.  1.
         12    1    3    3    0    0  0.64458295515E+01 -0.40824347429E+01  0.19074898483E+02  0.20544263047E+02  0.00000000000E+00 0. -1.
</event>
<event>
 7    1  0.2227287E-008  0.4614231E+02  0.7816164E-02  0.1320468E+00
        -11   -1    0    0    0    0  0.00000000000E+00  0.00000000000E+00  0.45593999997E+02  0.45594000000E+02  0.51100000000E-03 0.  1.
         11   -1    0    0    0    0 -0.00000000000E+00 -0.00000000000E+00 -0.45593999997E+02  0.45594000000E+02  0.51100000000E-03 0. -1.
    9900012    2    1    2    0    0 -0.43603605046E+02 -0.11306536906E+02  0.46019117382E-01  0.46142309112E+02  0.99999211331E+01 0.  0.
         12    1    1    2    0    0  0.43603605046E+02  0.11306536906E+02 -0.46019117382E-01  0.45045690888E+02  0.00000000000E+00 0. -1.
         11    1    3    3    0    0 -0.16990133275E+01 -0.24119506420E+01 -0.66297124401E+00  0.30238523968E+01  0.51100000000E-03 0. -1.
        -11    1    3    3    0    0 -0.11912103336E+02 -0.34040854975E+01  0.22370265254E+01  0.12589292748E+02  0.51100000000E-03 0.  1.
        -12    1    3    3    0    0 -0.29992488382E+02 -0.54905007664E+01 -0.15280361640E+01  0.30529163968E+02  0.00000000000E+00 0.  1.
</event>
<event>
 7    1  0.2227287E-008  0.4614232E+02  0.7816164E-02  0.1320468E+00
        -11   -1    0    0    0    0  0.00000000000E+00  0.00000000000E+00  0.45593999997E+02  0.45594000000E+02  0.51100000000E-03 0.  1.
         11   -1    0    0    0    0 -0.00000000000E+00 -0.00000000000E+00 -0.45593999997E+02  0.45594000000E+02  0.51100000000E-03 0. -1.
    9900012    2    1    2    0    0  0.12495579661E+01  0.43373917721E+02  0.12093606688E+02  0.46142318117E+02  0.10000003244E+02 0.  0.
         12    1    1    2    0    0 -0.12495579661E+01 -0.43373917721E+02 -0.12093606688E+02  0.45045681883E+02  0.00000000000E+00 0. -1.
         11    1    3    3    0    0  0.96752944654E+00  0.19437651121E+02  0.78307488023E+01  0.20978060477E+02  0.51100000000E-03 0. -1.
        -11    1    3    3    0    0  0.21020618447E+01  0.10102293421E+02  0.43819836510E+01  0.11210565433E+02  0.51100000000E-03 0.  1.
         12    1    3    3    0    0 -0.18200333251E+01  0.13833973180E+02 -0.11912576488E+00  0.13953692206E+02  0.00000000000E+00 0. -1.
</event>
<event>
 7    1  0.2227287E-008  0.4614231E+02  0.7816164E-02  0.1320468E+00
        -11   -1    0    0    0    0  0.00000000000E+00  0.00000000000E+00  0.45593999997E+02  0.45594000000E+02  0.51100000000E-03 0.  1.
         11   -1    0    0    0    0 -0.00000000000E+00 -0.00000000000E+00 -0.45593999997E+02  0.45594000000E+02  0.51100000000E-03 0. -1.
    9900012    2    1    2    0    0  0.28413859596E+02  0.28751149702E+02  0.19878072283E+02  0.46142314480E+02  0.99999700760E+01 0.  0.
         12    1    1    2    0    0 -0.28413859596E+02 -0.28751149702E+02 -0.19878072283E+02  0.45045685520E+02  0.00000000000E+00 0. -1.
         11    1    3    3    0    0  0.23285331837E+01  0.31896085979E+01  0.16679640978E+01  0.42869306372E+01  0.51100000000E-03 0. -1.
        -11    1    3    3    0    0  0.24108289538E+02  0.25679726888E+02  0.18606696908E+02  0.39835501347E+02  0.51100000000E-03 0.  1.
         12    1    3    3    0    0  0.19770368739E+01 -0.11818578327E+00 -0.39658872293E+00  0.20198824954E+01  0.00000000000E+00 0. -1.
</event>
<event>
 7    1  0.2227287E-008  0.4614232E+02  0.7816164E-02  0.1320468E+00
        -11   -1    0    0    0    0  0.00000000000E+00  0.00000000000E+00  0.45593999997E+02  0.45594000000E+02  0.51100000000E-03 0. -1.
         11   -1    0    0    0    0 -0.00000000000E+00 -0.00000000000E+00 -0.45593999997E+02  0.45594000000E+02  0.51100000000E-03 0.  1.
    9900012    2    1    2    0    0 -0.11644024993E+02  0.16816150376E+02 -0.40134115132E+02  0.46142318421E+02  0.10000006017E+02 0.  0.
         12    1    1    2    0    0  0.11644024993E+02 -0.16816150376E+02  0.40134115132E+02  0.45045681579E+02  0.00000000000E+00 0. -1.
         11    1    3    3    0    0 -0.32783081375E+01  0.53506531101E+00 -0.74734646049E+01  0.81784028143E+01  0.51100000000E-03 0. -1.
        -11    1    3    3    0    0  0.25936549105E+00  0.24730286901E+01 -0.82947926777E+01  0.86594876978E+01  0.51100000000E-03 0.  1.
         12    1    3    3    0    0 -0.86250823467E+01  0.13808056375E+02 -0.24365857849E+02  0.29304427909E+02  0.00000000000E+00 0. -1.
</event>
<event>
 7    1  0.2227287E-008  0.4614232E+02  0.7816164E-02  0.1320468E+00
        -11   -1    0    0    0    0  0.00000000000E+00  0.00000000000E+00  0.45593999997E+02  0.45594000000E+02  0.51100000000E-03 0.  1.
         11   -1    0    0    0    0 -0.00000000000E+00 -0.00000000000E+00 -0.45593999997E+02  0.45594000000E+02  0.51100000000E-03 0. -1.
    9900012    2    1    2    0    0  0.44721880582E+02  0.15779845484E+01  0.51552776186E+01  0.46142317350E+02  0.99999962522E+01 0.  0.
         12    1    1    2    0    0 -0.44721880582E+02 -0.15779845484E+01 -0.51552776186E+01  0.45045682650E+02  0.00000000000E+00 0. -1.
         11    1    3    3    0    0  0.93492469926E+01 -0.11168687922E+00 -0.18503604039E+01  0.95312500321E+01  0.51100000000E-03 0. -1.
        -11    1    3    3    0    0  0.10656589451E+01  0.52504806640E+00  0.13892048222E+01  0.18278935304E+01  0.51100000000E-03 0.  1.
        -12    1    3    3    0    0  0.34306974645E+02  0.11646233612E+01  0.56164332003E+01  0.34783173788E+02  0.00000000000E+00 0.  1.
</event>
<event>
 7    1  0.2227287E-008  0.4614232E+02  0.7816164E-02  0.1320468E+00
        -11   -1    0    0    0    0  0.00000000000E+00  0.00000000000E+00  0.45593999997E+02  0.45594000000E+02  0.51100000000E-03 0. -1.
         11   -1    0    0    0    0 -0.00000000000E+00 -0.00000000000E+00 -0.45593999997E+02  0.45594000000E+02  0.51100000000E-03 0.  1.
    9900012    2    1    2    0    0 -0.28343773754E+02 -0.72783618060E+01 -0.34245721625E+02  0.46142317512E+02  0.99999977293E+01 0.  0.
         12    1    1    2    0    0  0.28343773754E+02  0.72783618060E+01  0.34245721625E+02  0.45045682488E+02  0.00000000000E+00 0. -1.
         11    1    3    3    0    0 -0.86232150979E+01 -0.26813555148E+01 -0.13717061535E+02  0.16422767228E+02  0.51100000000E-03 0. -1.
        -11    1    3    3    0    0 -0.17081116148E+02 -0.60189841173E+01 -0.19336075368E+02  0.26492952074E+02  0.51100000000E-03 0.  1.
         12    1    3    3    0    0 -0.26394425083E+01  0.14219778262E+01 -0.11925847217E+01  0.32265982104E+01  0.00000000000E+00 0. -1.
</event>
<event>
 7    1  0.2227287E-008  0.4614232E+02  0.7816164E-02  0.1320468E+00
        -11   -1    0    0    0    0  0.00000000000E+00  0.00000000000E+00  0.45593999997E+02  0.45594000000E+02  0.51100000000E-03 0. -1.
         11   -1    0    0    0    0 -0.00000000000E+00 -0.00000000000E+00 -0.45593999997E+02  0.45594000000E+02  0.51100000000E-03 0.  1.
    9900012    2    1    2    0    0  0.11393450891E+02 -0.42353269840E+02  0.10271477438E+02  0.46142318319E+02  0.10000005086E+02 0.  0.
         12    1    1    2    0    0 -0.11393450891E+02  0.42353269840E+02 -0.10271477438E+02  0.45045681681E+02  0.00000000000E+00 0. -1.
         11    1    3    3    0    0  0.80662243913E+01 -0.18373261375E+02  0.76575648674E+01  0.21477406954E+02  0.51100000000E-03 0. -1.
        -11    1    3    3    0    0 -0.79121938396E+00 -0.41438111395E+01 -0.13020973647E+00  0.42206816641E+01  0.51100000000E-03 0.  1.
        -12    1    3    3    0    0  0.41184458834E+01 -0.19836197326E+02  0.27441223069E+01  0.20444229701E+02  0.00000000000E+00 0.  1.
</event>
<event>
 7    1  0.2227287E-008  0.4614232E+02  0.7816164E-02  0.1320468E+00
        -11   -1    0    0    0    0  0.00000000000E+00  0.00000000000E+00  0.45593999997E+02  0.45594000000E+02  0.51100000000E-03 0.  1.
         11   -1    0    0    0    0 -0.00000000000E+00 -0.00000000000E+00 -0.45593999997E+02  0.45594000000E+02  0.51100000000E-03 0. -1.
    9900012    2    1    2    0    0 -0.38546715822E+01  0.74236858546E+01  0.44262217691E+02  0.46142317415E+02  0.99999968395E+01 0.  0.
         12    1    1    2    0    0  0.38546715822E+01 -0.74236858546E+01 -0.44262217691E+02  0.45045682585E+02  0.00000000000E+00 0. -1.
         11    1    3    3    0    0 -0.41872098376E+01  0.79797409740E+01  0.31095211565E+02  0.32374699609E+02  0.51100000000E-03 0.  1.
        -11    1    3    3    0    0  0.17027084906E+01  0.89210874649E+00  0.48985072830E+01  0.52621714227E+01  0.51100000000E-03 0. -1.
        -12    1    3    3    0    0 -0.13701702352E+01 -0.14481638659E+01  0.82684988426E+01  0.85054463825E+01  0.00000000000E+00 0.  1.
</event>
<event>
 7    1  0.2227287E-008  0.4614232E+02  0.7816164E-02  0.1320468E+00
        -11   -1    0    0    0    0  0.00000000000E+00  0.00000000000E+00  0.45593999997E+02  0.45594000000E+02  0.51100000000E-03 0.  1.
         11   -1    0    0    0    0 -0.00000000000E+00 -0.00000000000E+00 -0.45593999997E+02  0.45594000000E+02  0.51100000000E-03 0. -1.
    9900012    2    1    2    0    0  0.32599982519E+02 -0.19462059387E+02  0.24240108104E+02  0.46142318113E+02  0.10000003205E+02 0.  0.
         12    1    1    2    0    0 -0.32599982519E+02  0.19462059387E+02 -0.24240108104E+02  0.45045681887E+02  0.00000000000E+00 0. -1.
         11    1    3    3    0    0  0.13183029894E+02 -0.92640056022E+01  0.11941078110E+02  0.20055009940E+02  0.51100000000E-03 0. -1.
        -11    1    3    3    0    0  0.11816461742E+02 -0.52191946703E+01  0.10884002799E+02  0.16891722183E+02  0.51100000000E-03 0.  1.
         12    1    3    3    0    0  0.76004908826E+01 -0.49788591141E+01  0.14150271943E+01  0.91955859898E+01  0.00000000000E+00 0. -1.
</event>
<event>
 7    1  0.2227287E-008  0.4614232E+02  0.7816164E-02  0.1320468E+00
        -11   -1    0    0    0    0  0.00000000000E+00  0.00000000000E+00  0.45593999997E+02  0.45594000000E+02  0.51100000000E-03 0.  1.
         11   -1    0    0    0    0 -0.00000000000E+00 -0.00000000000E+00 -0.45593999997E+02  0.45594000000E+02  0.51100000000E-03 0. -1.
    9900012    2    1    2    0    0  0.30416691785E+02  0.28138635597E+02  0.17667924603E+02  0.46142317497E+02  0.99999975898E+01 0.  0.
         12    1    1    2    0    0 -0.30416691785E+02 -0.28138635597E+02 -0.17667924603E+02  0.45045682503E+02  0.00000000000E+00 0. -1.
         11    1    3    3    0    0  0.24882771455E+02  0.22139746694E+02  0.17032130088E+02  0.37408744359E+02  0.51100000000E-03 0. -1.
        -11    1    3    3    0    0  0.51608194516E+01  0.63597565973E+01  0.56554629496E+00  0.82097749215E+01  0.51100000000E-03 0.  1.
        -12    1    3    3    0    0  0.37310087877E+00 -0.36086769435E+00  0.70248219440E-01  0.52379821582E+00  0.00000000000E+00 0.  1.
</event>
<event>
 7    1  0.2227287E-008  0.4614232E+02  0.7816164E-02  0.1320468E+00
        -11   -1    0    0    0    0  0.00000000000E+00  0.00000000000E+00  0.45593999997E+02  0.45594000000E+02  0.51100000000E-03 0.  1.
         11   -1    0    0    0    0 -0.00000000000E+00 -0.00000000000E+00 -0.45593999997E+02  0.45594000000E+02  0.51100000000E-03 0. -1.
    9900012    2    1    2    0    0 -0.31284722235E+02  0.16504221197E+02  0.27892477825E+02  0.46142317833E+02  0.10000000657E+02 0.  0.
         12    1    1    2    0    0  0.31284722235E+02 -0.16504221197E+02 -0.27892477825E+02  0.45045682167E+02  0.00000000000E+00 0. -1.
         11    1    3    3    0    0 -0.12356458168E+02  0.94958195902E+01  0.15856564385E+02  0.22232482599E+02  0.51100000000E-03 0. -1.
        -11    1    3    3    0    0 -0.17495383574E+01  0.14560138623E+01  0.12218585464E+00  0.22794276640E+01  0.51100000000E-03 0.  1.
        -12    1    3    3    0    0 -0.17178725710E+02  0.55523877446E+01  0.11913727585E+02  0.21630407571E+02  0.00000000000E+00 0.  1.
</event>
<event>
 7    1  0.2227287E-008  0.4614232E+02  0.7816164E-02  0.1320468E+00
        -11   -1    0    0    0    0  0.00000000000E+00  0.00000000000E+00  0.45593999997E+02  0.45594000000E+02  0.51100000000E-03 0.  1.
         11   -1    0    0    0    0 -0.00000000000E+00 -0.00000000000E+00 -0.45593999997E+02  0.45594000000E+02  0.51100000000E-03 0. -1.
    9900012    2    1    2    0    0 -0.25385237173E+02 -0.29214707497E+02  0.23047864600E+02  0.46142318042E+02  0.10000002564E+02 0.  0.
         12    1    1    2    0    0  0.25385237173E+02  0.29214707497E+02 -0.23047864600E+02  0.45045681958E+02  0.00000000000E+00 0. -1.
         11    1    3    3    0    0 -0.85223760801E+01 -0.10301172503E+02  0.81685468463E+01  0.15667488849E+02  0.51100000000E-03 0. -1.
        -11    1    3    3    0    0 -0.13214442603E+02 -0.13243338496E+02  0.14591865249E+02  0.23726146748E+02  0.51100000000E-03 0.  1.
         12    1    3    3    0    0 -0.36484184900E+01 -0.56701964979E+01  0.28745250433E+00  0.67486824452E+01  0.00000000000E+00 0. -1.
</event>
<event>
 7    1  0.2227287E-008  0.4614232E+02  0.7816164E-02  0.1320468E+00
        -11   -1    0    0    0    0  0.00000000000E+00  0.00000000000E+00  0.45593999997E+02  0.45594000000E+02  0.51100000000E-03 0.  1.
         11   -1    0    0    0    0 -0.00000000000E+00 -0.00000000000E+00 -0.45593999997E+02  0.45594000000E+02  0.51100000000E-03 0. -1.
    9900012    2    1    2    0    0  0.40315894668E+02 -0.66736685770E+01  0.18952686402E+02  0.46142317221E+02  0.99999950790E+01 0.  0.
         12    1    1    2    0    0 -0.40315894668E+02  0.66736685770E+01 -0.18952686402E+02  0.45045682779E+02  0.00000000000E+00 0. -1.
         11    1    3    3    0    0  0.69823920775E+01 -0.15113721542E+01  0.39824518898E+01  0.81791178148E+01  0.51100000000E-03 0. -1.
        -11    1    3    3    0    0  0.21361309482E+02 -0.56392782099E+00  0.12932379348E+02  0.24977389640E+02  0.51100000000E-03 0.  1.
         12    1    3    3    0    0  0.11972193109E+02 -0.45983686018E+01  0.20378551637E+01  0.12985809767E+02  0.00000000000E+00 0. -1.
</event>
<event>
 7    1  0.2227287E-008  0.4614232E+02  0.7816164E-02  0.1320468E+00
        -11   -1    0    0    0    0  0.00000000000E+00  0.00000000000E+00  0.45593999997E+02  0.45594000000E+02  0.51100000000E-03 0.  1.
         11   -1    0    0    0    0 -0.00000000000E+00 -0.00000000000E+00 -0.45593999997E+02  0.45594000000E+02  0.51100000000E-03 0. -1.
    9900012    2    1    2    0    0 -0.19358162296E+02 -0.26179912726E+02  0.31128559291E+02  0.46142317838E+02  0.10000000704E+02 0.  0.
         12    1    1    2    0    0  0.19358162296E+02  0.26179912726E+02 -0.31128559291E+02  0.45045682162E+02  0.00000000000E+00 0. -1.
         11    1    3    3    0    0 -0.14503853543E+01 -0.69452216111E+01  0.38545030213E+01  0.80744606448E+01  0.51100000000E-03 0. -1.
        -11    1    3    3    0    0 -0.66941723436E+01 -0.77396452392E+01  0.80557334062E+01  0.13023397896E+02  0.51100000000E-03 0.  1.
         12    1    3    3    0    0 -0.11213604598E+02 -0.11495045876E+02  0.19218322864E+02  0.25044459297E+02  0.00000000000E+00 0. -1.
</event>
<event>
 7    1  0.2227287E-008  0.4614232E+02  0.7816164E-02  0.1320468E+00
        -11   -1    0    0    0    0  0.00000000000E+00  0.00000000000E+00  0.45593999997E+02  0.45594000000E+02  0.51100000000E-03 0.  1.
         11   -1    0    0    0    0 -0.00000000000E+00 -0.00000000000E+00 -0.45593999997E+02  0.45594000000E+02  0.51100000000E-03 0. -1.
    9900012    2    1    2    0    0  0.70603536903E+01 -0.27168064784E+02  0.35230115164E+02  0.46142319266E+02  0.10000013722E+02 0.  0.
         12    1    1    2    0    0 -0.70603536903E+01  0.27168064784E+02 -0.35230115164E+02  0.45045680734E+02  0.00000000000E+00 0. -1.
         11    1    3    3    0    0  0.16867480974E+01 -0.10445120943E+01  0.63751256560E+01  0.66767021838E+01  0.51100000000E-03 0. -1.
        -11    1    3    3    0    0  0.58579202196E+01 -0.24431705548E+02  0.27465898142E+02  0.37223635318E+02  0.51100000000E-03 0.  1.
         12    1    3    3    0    0 -0.48431462660E+00 -0.16918471413E+01  0.13890913665E+01  0.22419817643E+01  0.00000000000E+00 0. -1.
</event>
<event>
 7    1  0.2227287E-008  0.4614232E+02  0.7816164E-02  0.1320468E+00
        -11   -1    0    0    0    0  0.00000000000E+00  0.00000000000E+00  0.45593999997E+02  0.45594000000E+02  0.51100000000E-03 0. -1.
         11   -1    0    0    0    0 -0.00000000000E+00 -0.00000000000E+00 -0.45593999997E+02  0.45594000000E+02  0.51100000000E-03 0.  1.
    9900012    2    1    2    0    0  0.13471218676E+02  0.39689295696E+02 -0.16504533522E+02  0.46142317052E+02  0.99999935344E+01 0.  0.
         12    1    1    2    0    0 -0.13471218676E+02 -0.39689295696E+02  0.16504533522E+02  0.45045682948E+02  0.00000000000E+00 0. -1.
         11    1    3    3    0    0  0.32435844866E+01  0.64858330136E+01 -0.70771593395E+01  0.10132771328E+02  0.51100000000E-03 0.  1.
        -11    1    3    3    0    0  0.58526570060E+01  0.18071948518E+02 -0.48130425139E+01  0.19596282703E+02  0.51100000000E-03 0. -1.
        -12    1    3    3    0    0  0.43749771828E+01  0.15131514165E+02 -0.46143316687E+01  0.16413263022E+02  0.00000000000E+00 0.  1.
</event>
<event>
 7    1  0.2227287E-008  0.4614232E+02  0.7816164E-02  0.1320468E+00
        -11   -1    0    0    0    0  0.00000000000E+00  0.00000000000E+00  0.45593999997E+02  0.45594000000E+02  0.51100000000E-03 0. -1.
         11   -1    0    0    0    0 -0.00000000000E+00 -0.00000000000E+00 -0.45593999997E+02  0.45594000000E+02  0.51100000000E-03 0.  1.
    9900012    2    1    2    0    0 -0.28270252708E+02 -0.22504836592E+02  0.26896817599E+02  0.46142315909E+02  0.99999831131E+01 0.  0.
         12    1    1    2    0    0  0.28270252708E+02  0.22504836592E+02 -0.26896817599E+02  0.45045684091E+02  0.00000000000E+00 0. -1.
         11    1    3    3    0    0 -0.26568086308E+02 -0.19025233063E+02  0.23592247810E+02  0.40304055133E+02  0.51100000000E-03 0.  1.
        -11    1    3    3    0    0 -0.14378819163E+01 -0.34734839257E+01  0.37566234155E+01  0.53145850952E+01  0.51100000000E-03 0. -1.
        -12    1    3    3    0    0 -0.26428448375E+00 -0.61196032908E-02 -0.45205362607E+00  0.52367568087E+00  0.00000000000E+00 0.  1.
</event>
<event>
 7    1  0.2227287E-008  0.4614232E+02  0.7816164E-02  0.1320468E+00
        -11   -1    0    0    0    0  0.00000000000E+00  0.00000000000E+00  0.45593999997E+02  0.45594000000E+02  0.51100000000E-03 0.  1.
         11   -1    0    0    0    0 -0.00000000000E+00 -0.00000000000E+00 -0.45593999997E+02  0.45594000000E+02  0.51100000000E-03 0. -1.
    9900012    2    1    2    0    0  0.16789743588E+01 -0.98698815299E+01  0.43919014245E+02  0.46142319535E+02  0.10000016178E+02 0.  0.
         12    1    1    2    0    0 -0.16789743588E+01  0.98698815299E+01 -0.43919014245E+02  0.45045680465E+02  0.00000000000E+00 0. -1.
         11    1    3    3    0    0  0.31740711931E+01 -0.98600451731E+00  0.22080765033E+02  0.22329512256E+02  0.51100000000E-03 0. -1.
        -11    1    3    3    0    0 -0.74961015814E+00 -0.27148937129E+01  0.10635614454E+02  0.11002220610E+02  0.51100000000E-03 0.  1.
         12    1    3    3    0    0 -0.74548667617E+00 -0.61689832998E+01  0.11202634757E+02  0.12810586670E+02  0.00000000000E+00 0. -1.
</event>
<event>
 7    1  0.2227287E-008  0.4614232E+02  0.7816164E-02  0.1320468E+00
        -11   -1    0    0    0    0  0.00000000000E+00  0.00000000000E+00  0.45593999997E+02  0.45594000000E+02  0.51100000000E-03 0.  1.
         11   -1    0    0    0    0 -0.00000000000E+00 -0.00000000000E+00 -0.45593999997E+02  0.45594000000E+02  0.51100000000E-03 0. -1.
    9900012    2    1    2    0    0  0.38243330623E+01 -0.12065382570E+02  0.43230946146E+02  0.46142315583E+02  0.99999801378E+01 0.  0.
         12    1    1    2    0    0 -0.38243330623E+01  0.12065382570E+02 -0.43230946146E+02  0.45045684417E+02  0.00000000000E+00 0. -1.
         11    1    3    3    0    0  0.15763363797E+01 -0.36245925993E+01  0.54836951521E+01  0.67596908713E+01  0.51100000000E-03 0. -1.
        -11    1    3    3    0    0  0.33780378390E+01 -0.70140630466E+01  0.18800213804E+02  0.20348372402E+02  0.51100000000E-03 0.  1.
        -12    1    3    3    0    0 -0.11300411564E+01 -0.14267269244E+01  0.18947037189E+02  0.19034252310E+02  0.00000000000E+00 0.  1.
</event>
<event>
 7    1  0.2227287E-008  0.4614232E+02  0.7816164E-02  0.1320468E+00
        -11   -1    0    0    0    0  0.00000000000E+00  0.00000000000E+00  0.45593999997E+02  0.45594000000E+02  0.51100000000E-03 0.  1.
         11   -1    0    0    0    0 -0.00000000000E+00 -0.00000000000E+00 -0.45593999997E+02  0.45594000000E+02  0.51100000000E-03 0. -1.
    9900012    2    1    2    0    0  0.11426760279E+02 -0.24331627670E+01  0.43504275935E+02  0.46142321448E+02  0.10000033623E+02 0.  0.
         12    1    1    2    0    0 -0.11426760279E+02  0.24331627670E+01 -0.43504275935E+02  0.45045678552E+02  0.00000000000E+00 0. -1.
         11    1    3    3    0    0 -0.21499683021E+00  0.65281542611E+00  0.48460275326E+00  0.84097069340E+00  0.51100000000E-03 0. -1.
        -11    1    3    3    0    0  0.33734126730E+01 -0.44163081411E+01  0.13060400908E+02  0.14193581747E+02  0.51100000000E-03 0.  1.
         12    1    3    3    0    0  0.82683444357E+01  0.13303299479E+01  0.29959272274E+02  0.31107769008E+02  0.00000000000E+00 0. -1.
</event>
<event>
 7    1  0.2227287E-008  0.4614232E+02  0.7816164E-02  0.1320468E+00
        -11   -1    0    0    0    0  0.00000000000E+00  0.00000000000E+00  0.45593999997E+02  0.45594000000E+02  0.51100000000E-03 0. -1.
         11   -1    0    0    0    0 -0.00000000000E+00 -0.00000000000E+00 -0.45593999997E+02  0.45594000000E+02  0.51100000000E-03 0.  1.
    9900012    2    1    2    0    0  0.21450306166E+02 -0.38914562273E+02  0.73928792636E+01  0.46142318128E+02  0.10000003346E+02 0.  0.
         12    1    1    2    0    0 -0.21450306166E+02  0.38914562273E+02 -0.73928792636E+01  0.45045681872E+02  0.00000000000E+00 0. -1.
         11    1    3    3    0    0  0.82109426797E+01 -0.20019118847E+02  0.44212769659E+01  0.22084664122E+02  0.51100000000E-03 0. -1.
        -11    1    3    3    0    0  0.89402447254E+01 -0.15527871387E+02  0.16679340734E+00  0.17918442618E+02  0.51100000000E-03 0.  1.
         12    1    3    3    0    0  0.42991187613E+01 -0.33675720392E+01  0.28048088903E+01  0.61392113886E+01  0.00000000000E+00 0. -1.
</event>
<event>
 7    1  0.2227287E-008  0.4614232E+02  0.7816164E-02  0.1320468E+00
        -11   -1    0    0    0    0  0.00000000000E+00  0.00000000000E+00  0.45593999997E+02  0.45594000000E+02  0.51100000000E-03 0.  1.
         11   -1    0    0    0    0 -0.00000000000E+00 -0.00000000000E+00 -0.45593999997E+02  0.45594000000E+02  0.51100000000E-03 0. -1.
    9900012    2    1    2    0    0 -0.14000570964E+02 -0.56644414399E+01  0.42438328596E+02  0.46142316321E+02  0.99999868643E+01 0.  0.
         12    1    1    2    0    0  0.14000570964E+02  0.56644414399E+01 -0.42438328596E+02  0.45045683679E+02  0.00000000000E+00 0. -1.
         11    1    3    3    0    0 -0.27837444569E+01 -0.24719240274E+01  0.13244224397E+02  0.13757511466E+02  0.51100000000E-03 0. -1.
        -11    1    3    3    0    0 -0.11346152456E+02 -0.42130937181E+01  0.28873004341E+02  0.31307119225E+02  0.51100000000E-03 0.  1.
         12    1    3    3    0    0  0.12932594889E+00  0.10205763057E+01  0.32109985716E+00  0.10776856290E+01  0.00000000000E+00 0. -1.
</event>
<event>
 7    1  0.2227287E-008  0.4614232E+02  0.7816164E-02  0.1320468E+00
        -11   -1    0    0    0    0  0.00000000000E+00  0.00000000000E+00  0.45593999997E+02  0.45594000000E+02  0.51100000000E-03 0.  1.
         11   -1    0    0    0    0 -0.00000000000E+00 -0.00000000000E+00 -0.45593999997E+02  0.45594000000E+02  0.51100000000E-03 0. -1.
    9900012    2    1    2    0    0  0.17798063932E+02  0.33369146719E+02  0.24471257452E+02  0.46142317923E+02  0.10000001480E+02 0.  0.
         12    1    1    2    0    0 -0.17798063932E+02 -0.33369146719E+02 -0.24471257452E+02  0.45045682077E+02  0.00000000000E+00 0. -1.
         11    1    3    3    0    0 -0.25100586646E+00  0.79252175013E+00 -0.18143643227E+00  0.85089018651E+00  0.51100000000E-03 0. -1.
        -11    1    3    3    0    0  0.60511376495E+01  0.48275694051E+01  0.44199539939E+01  0.89139041269E+01  0.51100000000E-03 0.  1.
        -12    1    3    3    0    0  0.11997932149E+02  0.27749055563E+02  0.20232739891E+02  0.36377523610E+02  0.00000000000E+00 0.  1.
</event>
<event>
 7    1  0.2227287E-008  0.4614232E+02  0.7816164E-02  0.1320468E+00
        -11   -1    0    0    0    0  0.00000000000E+00  0.00000000000E+00  0.45593999997E+02  0.45594000000E+02  0.51100000000E-03 0. -1.
         11   -1    0    0    0    0 -0.00000000000E+00 -0.00000000000E+00 -0.45593999997E+02  0.45594000000E+02  0.51100000000E-03 0.  1.
    9900012    2    1    2    0    0  0.35366109366E+02  0.11548799966E+02 -0.25396395930E+02  0.46142318758E+02  0.10000009091E+02 0.  0.
         12    1    1    2    0    0 -0.35366109366E+02 -0.11548799966E+02  0.25396395930E+02  0.45045681242E+02  0.00000000000E+00 0. -1.
         11    1    3    3    0    0  0.21118536599E+02  0.42676498704E+01 -0.97646156653E+01  0.23654875668E+02  0.51100000000E-03 0. -1.
        -11    1    3    3    0    0  0.11276510394E+02  0.58187422995E+01 -0.10998242471E+02  0.16792223984E+02  0.51100000000E-03 0.  1.
         12    1    3    3    0    0  0.29710623718E+01  0.14624077964E+01 -0.46335377934E+01  0.56952191058E+01  0.00000000000E+00 0. -1.
</event>
<event>
 7    1  0.2227287E-008  0.4614232E+02  0.7816164E-02  0.1320468E+00
        -11   -1    0    0    0    0  0.00000000000E+00  0.00000000000E+00  0.45593999997E+02  0.45594000000E+02  0.51100000000E-03 0.  1.
         11   -1    0    0    0    0 -0.00000000000E+00 -0.00000000000E+00 -0.45593999997E+02  0.45594000000E+02  0.51100000000E-03 0. -1.
    9900012    2    1    2    0    0  0.30320459291E+02  0.28827501811E+02  0.16696057973E+02  0.46142318030E+02  0.10000002455E+02 0.  0.
         12    1    1    2    0    0 -0.30320459291E+02 -0.28827501811E+02 -0.16696057973E+02  0.45045681970E+02  0.00000000000E+00 0. -1.
         11    1    3    3    0    0  0.40057953792E+01  0.60784930347E+01  0.31503917296E+01  0.79321776647E+01  0.51100000000E-03 0. -1.
        -11    1    3    3    0    0  0.20804612797E+02  0.20872528560E+02  0.13435270121E+02  0.32388282535E+02  0.51100000000E-03 0.  1.
         12    1    3    3    0    0  0.55100511149E+01  0.18764802167E+01  0.11039612206E+00  0.58218578303E+01  0.00000000000E+00 0. -1.
</event>
<event>
 7    1  0.2227287E-008  0.4614232E+02  0.7816164E-02  0.1320468E+00
        -11   -1    0    0    0    0  0.00000000000E+00  0.00000000000E+00  0.45593999997E+02  0.45594000000E+02  0.51100000000E-03 0.  1.
         11   -1    0    0    0    0 -0.00000000000E+00 -0.00000000000E+00 -0.45593999997E+02  0.45594000000E+02  0.51100000000E-03 0. -1.
    9900012    2    1    2    0    0 -0.22489112667E+02 -0.39020425411E+02 -0.87169694729E+00  0.46142316041E+02  0.99999843134E+01 0.  0.
         12    1    1    2    0    0  0.22489112667E+02  0.39020425411E+02  0.87169694729E+00  0.45045683959E+02  0.00000000000E+00 0. -1.
         11    1    3    3    0    0 -0.62674651468E+01 -0.89744584574E+01 -0.26336825733E+01  0.11258699220E+02  0.51100000000E-03 0. -1.
        -11    1    3    3    0    0 -0.43479310207E+01 -0.29462371398E+01  0.23098740287E+00  0.52572020017E+01  0.51100000000E-03 0.  1.
        -12    1    3    3    0    0 -0.11873716499E+02 -0.27099729814E+02  0.15309982231E+01  0.29626414819E+02  0.00000000000E+00 0.  1.
</event>
<event>
 7    1  0.2227287E-008  0.4614232E+02  0.7816164E-02  0.1320468E+00
        -11   -1    0    0    0    0  0.00000000000E+00  0.00000000000E+00  0.45593999997E+02  0.45594000000E+02  0.51100000000E-03 0.  1.
         11   -1    0    0    0    0 -0.00000000000E+00 -0.00000000000E+00 -0.45593999997E+02  0.45594000000E+02  0.51100000000E-03 0. -1.
    9900012    2    1    2    0    0  0.54959454175E+01  0.28224490860E+02  0.34673999045E+02  0.46142317520E+02  0.99999977983E+01 0.  0.
         12    1    1    2    0    0 -0.54959454175E+01 -0.28224490860E+02 -0.34673999045E+02  0.45045682480E+02  0.00000000000E+00 0. -1.
         11    1    3    3    0    0  0.92175312303E+00  0.14948778217E+02  0.14900459637E+02  0.21126743636E+02  0.51100000000E-03 0. -1.
        -11    1    3    3    0    0  0.48345702811E+00  0.92400458200E+01  0.96119474256E+01  0.13341728187E+02  0.51100000000E-03 0.  1.
         12    1    3    3    0    0  0.40907352664E+01  0.40356668234E+01  0.10161591982E+02  0.11673845696E+02  0.00000000000E+00 0. -1.
</event>
<event>
 7    1  0.2227287E-008  0.4614232E+02  0.7816164E-02  0.1320468E+00
        -11   -1    0    0    0    0  0.00000000000E+00  0.00000000000E+00  0.45593999997E+02  0.45594000000E+02  0.51100000000E-03 0. -1.
         11   -1    0    0    0    0 -0.00000000000E+00 -0.00000000000E+00 -0.45593999997E+02  0.45594000000E+02  0.51100000000E-03 0.  1.
    9900012    2    1    2    0    0  0.35815172742E+02 -0.26669845903E+02  0.59250531894E+01  0.46142317251E+02  0.99999953495E+01 0.  0.
         12    1    1    2    0    0 -0.35815172742E+02  0.26669845903E+02 -0.59250531894E+01  0.45045682749E+02  0.00000000000E+00 0. -1.
         11    1    3    3    0    0  0.18542803085E+01 -0.23552707887E+01 -0.41781126588E+00  0.30265859422E+01  0.51100000000E-03 0. -1.
        -11    1    3    3    0    0  0.43018437534E+01 -0.73408549754E-01  0.12006319459E+01  0.44668518919E+01  0.51100000000E-03 0.  1.
        -12    1    3    3    0    0  0.29659048680E+02 -0.24241166564E+02  0.51422325094E+01  0.38648879417E+02  0.00000000000E+00 0.  1.
</event>
<event>
 7    1  0.2227287E-008  0.4614232E+02  0.7816164E-02  0.1320468E+00
        -11   -1    0    0    0    0  0.00000000000E+00  0.00000000000E+00  0.45593999997E+02  0.45594000000E+02  0.51100000000E-03 0.  1.
         11   -1    0    0    0    0 -0.00000000000E+00 -0.00000000000E+00 -0.45593999997E+02  0.45594000000E+02  0.51100000000E-03 0. -1.
    9900012    2    1    2    0    0  0.31491336337E+02  0.17235417276E+02  0.27209366615E+02  0.46142317582E+02  0.99999983646E+01 0.  0.
         12    1    1    2    0    0 -0.31491336337E+02 -0.17235417276E+02 -0.27209366615E+02  0.45045682418E+02  0.00000000000E+00 0. -1.
         11    1    3    3    0    0  0.43450731063E+01  0.10103414430E+01  0.13064147132E+01  0.46483512986E+01  0.51100000000E-03 0. -1.
        -11    1    3    3    0    0  0.26777257765E+01  0.45985929483E+01  0.40094576696E+01  0.66628089800E+01  0.51100000000E-03 0.  1.
        -12    1    3    3    0    0  0.24468537454E+02  0.11626482885E+02  0.21893494232E+02  0.34831157303E+02  0.00000000000E+00 0.  1.
</event>
<event>
 7    1  0.2227287E-008  0.4614232E+02  0.7816164E-02  0.1320468E+00
        -11   -1    0    0    0    0  0.00000000000E+00  0.00000000000E+00  0.45593999997E+02  0.45594000000E+02  0.51100000000E-03 0.  1.
         11   -1    0    0    0    0 -0.00000000000E+00 -0.00000000000E+00 -0.45593999997E+02  0.45594000000E+02  0.51100000000E-03 0. -1.
    9900012    2    1    2    0    0 -0.11123807858E+02 -0.14559795812E+02  0.41150781215E+02  0.46142317077E+02  0.99999937646E+01 0.  0.
         12    1    1    2    0    0  0.11123807858E+02  0.14559795812E+02 -0.41150781215E+02  0.45045682923E+02  0.00000000000E+00 0. -1.
         11    1    3    3    0    0 -0.56682478297E+01 -0.37021768653E+01  0.16842059533E+02  0.18151862620E+02  0.51100000000E-03 0.  1.
        -11    1    3    3    0    0 -0.56240566441E+01 -0.11529695171E+02  0.20986013074E+02  0.24596272663E+02  0.51100000000E-03 0. -1.
         12    1    3    3    0    0  0.16849661537E+00  0.67207622511E+00  0.33227086075E+01  0.33941817942E+01  0.00000000000E+00 0. -1.
</event>
<event>
 7    1  0.2227287E-008  0.4614232E+02  0.7816164E-02  0.1320468E+00
        -11   -1    0    0    0    0  0.00000000000E+00  0.00000000000E+00  0.45593999997E+02  0.45594000000E+02  0.51100000000E-03 0. -1.
         11   -1    0    0    0    0 -0.00000000000E+00 -0.00000000000E+00 -0.45593999997E+02  0.45594000000E+02  0.51100000000E-03 0.  1.
    9900012    2    1    2    0    0 -0.35609419044E+02 -0.91485141089E+01 -0.26026668909E+02  0.46142317304E+02  0.99999958319E+01 0.  0.
         12    1    1    2    0    0  0.35609419044E+02  0.91485141089E+01  0.26026668909E+02  0.45045682696E+02  0.00000000000E+00 0. -1.
         11    1    3    3    0    0 -0.11754021129E+02 -0.44484149342E+01 -0.56341925352E+01  0.13772782359E+02  0.51100000000E-03 0. -1.
        -11    1    3    3    0    0 -0.83360135452E+00 -0.16954050025E+01 -0.19886132439E+01  0.27429677788E+01  0.51100000000E-03 0.  1.
        -12    1    3    3    0    0 -0.23021796560E+02 -0.30046941722E+01 -0.18403863130E+02  0.29626567166E+02  0.00000000000E+00 0.  1.
</event>
<event>
 7    1  0.2227287E-008  0.4614232E+02  0.7816164E-02  0.1320468E+00
        -11   -1    0    0    0    0  0.00000000000E+00  0.00000000000E+00  0.45593999997E+02  0.45594000000E+02  0.51100000000E-03 0.  1.
         11   -1    0    0    0    0 -0.00000000000E+00 -0.00000000000E+00 -0.45593999997E+02  0.45594000000E+02  0.51100000000E-03 0. -1.
    9900012    2    1    2    0    0 -0.23180191942E+02 -0.10472020838E+02  0.37176993926E+02  0.46142318783E+02  0.10000009322E+02 0.  0.
         12    1    1    2    0    0  0.23180191942E+02  0.10472020838E+02 -0.37176993926E+02  0.45045681217E+02  0.00000000000E+00 0. -1.
         11    1    3    3    0    0 -0.10105125706E+01  0.10008239941E+01  0.31773135214E+01  0.34811069787E+01  0.51100000000E-03 0. -1.
        -11    1    3    3    0    0 -0.17209400775E+02 -0.10240796543E+02  0.30425125743E+02  0.36424245574E+02  0.51100000000E-03 0.  1.
        -12    1    3    3    0    0 -0.49602785962E+01 -0.12320482890E+01  0.35745546615E+01  0.62369662310E+01  0.00000000000E+00 0.  1.
</event>
<event>
 7    1  0.2227287E-008  0.4614232E+02  0.7816164E-02  0.1320468E+00
        -11   -1    0    0    0    0  0.00000000000E+00  0.00000000000E+00  0.45593999997E+02  0.45594000000E+02  0.51100000000E-03 0.  1.
         11   -1    0    0    0    0 -0.00000000000E+00 -0.00000000000E+00 -0.45593999997E+02  0.45594000000E+02  0.51100000000E-03 0. -1.
    9900012    2    1    2    0    0  0.17937721046E+02 -0.27506102693E+02  0.30834493053E+02  0.46142317815E+02  0.10000000493E+02 0.  0.
         12    1    1    2    0    0 -0.17937721046E+02  0.27506102693E+02 -0.30834493053E+02  0.45045682185E+02  0.00000000000E+00 0. -1.
         11    1    3    3    0    0  0.26181642810E+01 -0.17644086192E+01  0.11539419316E+01  0.33614735192E+01  0.51100000000E-03 0. -1.
        -11    1    3    3    0    0  0.15024036493E+02 -0.25913676228E+02  0.29940151080E+02  0.42351539938E+02  0.51100000000E-03 0.  1.
        -12    1    3    3    0    0  0.29552027245E+00  0.17198215486E+00 -0.25959995863E+00  0.42930435770E+00  0.00000000000E+00 0.  1.
</event>
<event>
 7    1  0.2227287E-008  0.4614232E+02  0.7816164E-02  0.1320468E+00
        -11   -1    0    0    0    0  0.00000000000E+00  0.00000000000E+00  0.45593999997E+02  0.45594000000E+02  0.51100000000E-03 0. -1.
         11   -1    0    0    0    0 -0.00000000000E+00 -0.00000000000E+00 -0.45593999997E+02  0.45594000000E+02  0.51100000000E-03 0.  1.
    9900012    2    1    2    0    0 -0.40824346140E+02  0.16800699311E+02 -0.89567172710E+01  0.46142317417E+02  0.99999968665E+01 0.  0.
         12    1    1    2    0    0  0.40824346140E+02 -0.16800699311E+02  0.89567172710E+01  0.45045682583E+02  0.00000000000E+00 0. -1.
         11    1    3    3    0    0 -0.29789712344E+01  0.10505316438E+01  0.16225361613E+01  0.35511280188E+01  0.51100000000E-03 0. -1.
        -11    1    3    3    0    0 -0.23324777064E+02  0.81974350067E+01 -0.82236023465E+01  0.26055149234E+02  0.51100000000E-03 0.  1.
        -12    1    3    3    0    0 -0.14520597841E+02  0.75527326601E+01 -0.23556510859E+01  0.16536040165E+02  0.00000000000E+00 0.  1.
</event>
<event>
 7    1  0.2227287E-008  0.4614232E+02  0.7816164E-02  0.1320468E+00
        -11   -1    0    0    0    0  0.00000000000E+00  0.00000000000E+00  0.45593999997E+02  0.45594000000E+02  0.51100000000E-03 0. -1.
         11   -1    0    0    0    0 -0.00000000000E+00 -0.00000000000E+00 -0.45593999997E+02  0.45594000000E+02  0.51100000000E-03 0.  1.
    9900012    2    1    2    0    0  0.28359887594E+02  0.30169448859E+02 -0.17737942120E+02  0.46142318082E+02  0.10000002927E+02 0.  0.
         12    1    1    2    0    0 -0.28359887594E+02 -0.30169448859E+02  0.17737942120E+02  0.45045681918E+02  0.00000000000E+00 0. -1.
         11    1    3    3    0    0  0.12915987463E+02  0.90789375219E+01 -0.74821520687E+01  0.17470902624E+02  0.51100000000E-03 0. -1.
        -11    1    3    3    0    0  0.12700323018E+02  0.13691779440E+02 -0.88103026344E+01  0.20649078957E+02  0.51100000000E-03 0.  1.
         12    1    3    3    0    0  0.27435771127E+01  0.73987318971E+01 -0.14454874170E+01  0.80223365008E+01  0.00000000000E+00 0. -1.
</event>
<event>
 7    1  0.2227287E-008  0.4614232E+02  0.7816164E-02  0.1320468E+00
        -11   -1    0    0    0    0  0.00000000000E+00  0.00000000000E+00  0.45593999997E+02  0.45594000000E+02  0.51100000000E-03 0. -1.
         11   -1    0    0    0    0 -0.00000000000E+00 -0.00000000000E+00 -0.45593999997E+02  0.45594000000E+02  0.51100000000E-03 0.  1.
    9900012    2    1    2    0    0 -0.40505658490E+02 -0.60294678363E+01  0.18763017975E+02  0.46142315460E+02  0.99999790180E+01 0.  0.
         12    1    1    2    0    0  0.40505658490E+02  0.60294678363E+01 -0.18763017975E+02  0.45045684540E+02  0.00000000000E+00 0. -1.
         11    1    3    3    0    0 -0.15802533465E+02 -0.52094982234E+01  0.49999451983E+01  0.17374072289E+02  0.51100000000E-03 0. -1.
        -11    1    3    3    0    0 -0.11954637079E+02 -0.25195931877E+01  0.49756875577E+01  0.13191632365E+02  0.51100000000E-03 0.  1.
         12    1    3    3    0    0 -0.12748487946E+02  0.16996235748E+01  0.87873852194E+01  0.15576610806E+02  0.00000000000E+00 0. -1.
</event>
<event>
 7    1  0.2227287E-008  0.4614233E+02  0.7816164E-02  0.1320468E+00
        -11   -1    0    0    0    0  0.00000000000E+00  0.00000000000E+00  0.45593999997E+02  0.45594000000E+02  0.51100000000E-03 0.  1.
         11   -1    0    0    0    0 -0.00000000000E+00 -0.00000000000E+00 -0.45593999997E+02  0.45594000000E+02  0.51100000000E-03 0. -1.
    9900012    2    1    2    0    0  0.43892459889E+01  0.14972790117E+02  0.42257101238E+02  0.46142328407E+02  0.10000097077E+02 0.  0.
         12    1    1    2    0    0 -0.43892459889E+01 -0.14972790117E+02 -0.42257101238E+02  0.45045671593E+02  0.00000000000E+00 0. -1.
         11    1    3    3    0    0  0.23443325831E+01  0.13042256034E+02  0.32351493713E+02  0.34960198561E+02  0.51100000000E-03 0. -1.
        -11    1    3    3    0    0  0.29409885999E+01  0.74136904113E+00  0.88544249351E+01  0.93594809254E+01  0.51100000000E-03 0.  1.
         12    1    3    3    0    0 -0.89607519412E+00  0.11891650416E+01  0.10511825897E+01  0.18226489202E+01  0.00000000000E+00 0. -1.
</event>
<event>
 7    1  0.2227287E-008  0.4614232E+02  0.7816164E-02  0.1320468E+00
        -11   -1    0    0    0    0  0.00000000000E+00  0.00000000000E+00  0.45593999997E+02  0.45594000000E+02  0.51100000000E-03 0.  1.
         11   -1    0    0    0    0 -0.00000000000E+00 -0.00000000000E+00 -0.45593999997E+02  0.45594000000E+02  0.51100000000E-03 0. -1.
    9900012    2    1    2    0    0  0.44838768324E+02  0.38663427932E+01 -0.19104331190E+01  0.46142317564E+02  0.99999982065E+01 0.  0.
         12    1    1    2    0    0 -0.44838768324E+02 -0.38663427932E+01  0.19104331190E+01  0.45045682436E+02  0.00000000000E+00 0. -1.
         11    1    3    3    0    0  0.40245910683E+01  0.28820894877E+00 -0.10575787772E+01  0.41711953678E+01  0.51100000000E-03 0. -1.
        -11    1    3    3    0    0  0.21517068467E+02  0.56780016232E+01 -0.29451143970E+01  0.22447664397E+02  0.51100000000E-03 0.  1.
         12    1    3    3    0    0  0.19297108789E+02 -0.20998677788E+01  0.20922600552E+01  0.19523457799E+02  0.00000000000E+00 0. -1.
</event>
<event>
 7    1  0.2227287E-008  0.4614232E+02  0.7816164E-02  0.1320468E+00
        -11   -1    0    0    0    0  0.00000000000E+00  0.00000000000E+00  0.45593999997E+02  0.45594000000E+02  0.51100000000E-03 0.  1.
         11   -1    0    0    0    0 -0.00000000000E+00 -0.00000000000E+00 -0.45593999997E+02  0.45594000000E+02  0.51100000000E-03 0. -1.
    9900012    2    1    2    0    0  0.43314605456E+02 -0.11962425955E+02  0.31398634545E+01  0.46142318486E+02  0.10000006611E+02 0.  0.
         12    1    1    2    0    0 -0.43314605456E+02  0.11962425955E+02 -0.31398634545E+01  0.45045681514E+02  0.00000000000E+00 0. -1.
         11    1    3    3    0    0  0.35319925260E+01 -0.38162101561E+01 -0.70282964979E-01  0.52003241356E+01  0.51100000000E-03 0. -1.
        -11    1    3    3    0    0  0.26002661146E+02 -0.60756702408E+01  0.39202741704E+01  0.26989270190E+02  0.51100000000E-03 0.  1.
         12    1    3    3    0    0  0.13779951784E+02 -0.20705455582E+01 -0.71012775099E+00  0.13952724160E+02  0.00000000000E+00 0. -1.
</event>
<event>
 7    1  0.2227287E-008  0.4614232E+02  0.7816164E-02  0.1320468E+00
        -11   -1    0    0    0    0  0.00000000000E+00  0.00000000000E+00  0.45593999997E+02  0.45594000000E+02  0.51100000000E-03 0. -1.
         11   -1    0    0    0    0 -0.00000000000E+00 -0.00000000000E+00 -0.45593999997E+02  0.45594000000E+02  0.51100000000E-03 0.  1.
    9900012    2    1    2    0    0 -0.39378473265E+02  0.21309070489E+02  0.49368816112E+01  0.46142318278E+02  0.10000004711E+02 0.  0.
         12    1    1    2    0    0  0.39378473265E+02 -0.21309070489E+02 -0.49368816112E+01  0.45045681722E+02  0.00000000000E+00 0. -1.
         11    1    3    3    0    0 -0.60355692290E+01  0.20608838757E+01  0.23889497931E+01  0.68104639814E+01  0.51100000000E-03 0. -1.
        -11    1    3    3    0    0 -0.15984112006E+02  0.74975885026E+01  0.46710187086E+01  0.18262641814E+02  0.51100000000E-03 0.  1.
         12    1    3    3    0    0 -0.17358792029E+02  0.11750598111E+02 -0.21230868905E+01  0.21069212482E+02  0.00000000000E+00 0. -1.
</event>
<event>
 7    1  0.2227287E-008  0.4614231E+02  0.7816164E-02  0.1320468E+00
        -11   -1    0    0    0    0  0.00000000000E+00  0.00000000000E+00  0.45593999997E+02  0.45594000000E+02  0.51100000000E-03 0.  1.
         11   -1    0    0    0    0 -0.00000000000E+00 -0.00000000000E+00 -0.45593999997E+02  0.45594000000E+02  0.51100000000E-03 0. -1.
    9900012    2    1    2    0    0 -0.44350991458E+02 -0.65232972786E+01  0.44215283564E+01  0.46142314705E+02  0.99999721334E+01 0.  0.
         12    1    1    2    0    0  0.44350991458E+02  0.65232972786E+01 -0.44215283564E+01  0.45045685295E+02  0.00000000000E+00 0. -1.
         11    1    3    3    0    0 -0.17173651686E+02 -0.66880696241E+01  0.31900910738E+01  0.18704044184E+02  0.51100000000E-03 0. -1.
        -11    1    3    3    0    0 -0.12946036607E+01 -0.74203799961E+00 -0.16955447112E+00  0.15017882710E+01  0.51100000000E-03 0.  1.
        -12    1    3    3    0    0 -0.25882736112E+02  0.90681034516E+00  0.14009917537E+01  0.25936482250E+02  0.00000000000E+00 0.  1.
</event>
<event>
 7    1  0.2227287E-008  0.4614232E+02  0.7816164E-02  0.1320468E+00
        -11   -1    0    0    0    0  0.00000000000E+00  0.00000000000E+00  0.45593999997E+02  0.45594000000E+02  0.51100000000E-03 0. -1.
         11   -1    0    0    0    0 -0.00000000000E+00 -0.00000000000E+00 -0.45593999997E+02  0.45594000000E+02  0.51100000000E-03 0.  1.
    9900012    2    1    2    0    0  0.78011792196E+01  0.13393903469E+02 -0.42294898352E+02  0.46142317921E+02  0.10000001459E+02 0.  0.
         12    1    1    2    0    0 -0.78011792196E+01 -0.13393903469E+02  0.42294898352E+02  0.45045682079E+02  0.00000000000E+00 0. -1.
         11    1    3    3    0    0  0.77479530986E+01  0.11312977349E+02 -0.26649078453E+02  0.29969778384E+02  0.51100000000E-03 0. -1.
        -11    1    3    3    0    0  0.16490287569E+01  0.18512822662E+01 -0.97467313398E+01  0.10057102661E+02  0.51100000000E-03 0.  1.
         12    1    3    3    0    0 -0.15958026358E+01  0.22964385305E+00 -0.58990885588E+01  0.61154368754E+01  0.00000000000E+00 0. -1.
</event>
<event>
 7    1  0.2227287E-008  0.4614232E+02  0.7816164E-02  0.1320468E+00
        -11   -1    0    0    0    0  0.00000000000E+00  0.00000000000E+00  0.45593999997E+02  0.45594000000E+02  0.51100000000E-03 0.  1.
         11   -1    0    0    0    0 -0.00000000000E+00 -0.00000000000E+00 -0.45593999997E+02  0.45594000000E+02  0.51100000000E-03 0. -1.
    9900012    2    1    2    0    0  0.17286377355E+02 -0.35970056904E+02  0.20891377767E+02  0.46142317624E+02  0.99999987496E+01 0.  0.
         12    1    1    2    0    0 -0.17286377355E+02  0.35970056904E+02 -0.20891377767E+02  0.45045682376E+02  0.00000000000E+00 0. -1.
         11    1    3    3    0    0  0.90644207083E+01 -0.18237879568E+02  0.95594329139E+01  0.22498149520E+02  0.51100000000E-03 0. -1.
        -11    1    3    3    0    0  0.59405979204E+01 -0.17003488242E+02  0.84442274143E+01  0.19892568786E+02  0.51100000000E-03 0.  1.
         12    1    3    3    0    0  0.22813587265E+01 -0.72868909369E+00  0.28877174387E+01  0.37515993176E+01  0.00000000000E+00 0. -1.
</event>
<event>
 7    1  0.2227287E-008  0.4614232E+02  0.7816164E-02  0.1320468E+00
        -11   -1    0    0    0    0  0.00000000000E+00  0.00000000000E+00  0.45593999997E+02  0.45594000000E+02  0.51100000000E-03 0.  1.
         11   -1    0    0    0    0 -0.00000000000E+00 -0.00000000000E+00 -0.45593999997E+02  0.45594000000E+02  0.51100000000E-03 0. -1.
    9900012    2    1    2    0    0  0.12310866928E+02 -0.20697343176E+02  0.38068045869E+02  0.46142316796E+02  0.99999911993E+01 0.  0.
         12    1    1    2    0    0 -0.12310866928E+02  0.20697343176E+02 -0.38068045869E+02  0.45045683204E+02  0.00000000000E+00 0. -1.
         11    1    3    3    0    0  0.39609826828E+01 -0.13671004188E+02  0.20478204673E+02  0.24938777159E+02  0.51100000000E-03 0.  1.
        -11    1    3    3    0    0  0.18571148666E+01 -0.37118808396E+01  0.91754408013E+01  0.10070533708E+02  0.51100000000E-03 0. -1.
        -12    1    3    3    0    0  0.64927693786E+01 -0.33144581487E+01  0.84144003945E+01  0.11133005929E+02  0.00000000000E+00 0.  1.
</event>
<event>
 7    1  0.2227287E-008  0.4614233E+02  0.7816164E-02  0.1320468E+00
        -11   -1    0    0    0    0  0.00000000000E+00  0.00000000000E+00  0.45593999997E+02  0.45594000000E+02  0.51100000000E-03 0.  1.
         11   -1    0    0    0    0 -0.00000000000E+00 -0.00000000000E+00 -0.45593999997E+02  0.45594000000E+02  0.51100000000E-03 0. -1.
    9900012    2    1    2    0    0 -0.79225341517E+01 -0.19629256044E+02  0.39762267194E+02  0.46142332809E+02  0.10000137218E+02 0.  0.
         12    1    1    2    0    0  0.79225341517E+01  0.19629256044E+02 -0.39762267194E+02  0.45045667191E+02  0.00000000000E+00 0. -1.
         11    1    3    3    0    0 -0.89945628678E+00 -0.16773988586E+01  0.13533614292E+01  0.23354391368E+01  0.51100000000E-03 0. -1.
        -11    1    3    3    0    0 -0.77202073246E+01 -0.96503567912E+01  0.18759100847E+02  0.22464079153E+02  0.51100000000E-03 0.  1.
         12    1    3    3    0    0  0.69712945968E+00 -0.83015003947E+01  0.19649804918E+02  0.21342814520E+02  0.00000000000E+00 0. -1.
</event>
<event>
 7    1  0.2227287E-008  0.4614232E+02  0.7816164E-02  0.1320468E+00
        -11   -1    0    0    0    0  0.00000000000E+00  0.00000000000E+00  0.45593999997E+02  0.45594000000E+02  0.51100000000E-03 0. -1.
         11   -1    0    0    0    0 -0.00000000000E+00 -0.00000000000E+00 -0.45593999997E+02  0.45594000000E+02  0.51100000000E-03 0.  1.
    9900012    2    1    2    0    0 -0.26983513118E+02 -0.32467408467E+02 -0.15712126078E+02  0.46142317647E+02  0.99999989557E+01 0.  0.
         12    1    1    2    0    0  0.26983513118E+02  0.32467408467E+02  0.15712126078E+02  0.45045682353E+02  0.00000000000E+00 0. -1.
         11    1    3    3    0    0 -0.10333118698E+02 -0.16405996101E+02 -0.49600606620E+01  0.20013301880E+02  0.51100000000E-03 0. -1.
        -11    1    3    3    0    0 -0.16561943464E+02 -0.13830577155E+02 -0.95976075421E+01  0.23615607266E+02  0.51100000000E-03 0.  1.
        -12    1    3    3    0    0 -0.88450956602E-01 -0.22308352106E+01 -0.11544578743E+01  0.25134085008E+01  0.00000000000E+00 0.  1.
</event>
<event>
 7    1  0.2227287E-008  0.4614231E+02  0.7816164E-02  0.1320468E+00
        -11   -1    0    0    0    0  0.00000000000E+00  0.00000000000E+00  0.45593999997E+02  0.45594000000E+02  0.51100000000E-03 0.  1.
         11   -1    0    0    0    0 -0.00000000000E+00 -0.00000000000E+00 -0.45593999997E+02  0.45594000000E+02  0.51100000000E-03 0. -1.
    9900012    2    1    2    0    0  0.22288200397E+02  0.37603376433E+02 -0.10878250719E+02  0.46142310586E+02  0.99999345688E+01 0.  0.
         12    1    1    2    0    0 -0.22288200397E+02 -0.37603376433E+02  0.10878250719E+02  0.45045689414E+02  0.00000000000E+00 0. -1.
         11    1    3    3    0    0  0.66737054752E+01  0.96642136015E+01  0.41865950432E+00  0.11752048560E+02  0.51100000000E-03 0.  1.
        -11    1    3    3    0    0  0.12816424052E+02  0.19676997115E+02 -0.62012368583E+01  0.24287862808E+02  0.51100000000E-03 0. -1.
         12    1    3    3    0    0  0.27980708699E+01  0.82621657162E+01 -0.50956733652E+01  0.10102399218E+02  0.00000000000E+00 0. -1.
</event>
<event>
 7    1  0.2227287E-008  0.4614232E+02  0.7816164E-02  0.1320468E+00
        -11   -1    0    0    0    0  0.00000000000E+00  0.00000000000E+00  0.45593999997E+02  0.45594000000E+02  0.51100000000E-03 0.  1.
         11   -1    0    0    0    0 -0.00000000000E+00 -0.00000000000E+00 -0.45593999997E+02  0.45594000000E+02  0.51100000000E-03 0. -1.
    9900012    2    1    2    0    0 -0.86142757306E+01 -0.26801825048E+02  0.35164894996E+02  0.46142318605E+02  0.10000007695E+02 0.  0.
         12    1    1    2    0    0  0.86142757306E+01  0.26801825048E+02 -0.35164894996E+02  0.45045681395E+02  0.00000000000E+00 0. -1.
         11    1    3    3    0    0 -0.23278430363E+01 -0.56250843327E+01  0.12186520703E+02  0.13622470924E+02  0.51100000000E-03 0. -1.
        -11    1    3    3    0    0 -0.66629157362E+01 -0.17799097396E+02  0.16347528785E+02  0.25068785608E+02  0.51100000000E-03 0.  1.
        -12    1    3    3    0    0  0.37648304193E+00 -0.33776433190E+01  0.66308455076E+01  0.74510620731E+01  0.00000000000E+00 0.  1.
</event>
<event>
 7    1  0.2227287E-008  0.4614232E+02  0.7816164E-02  0.1320468E+00
        -11   -1    0    0    0    0  0.00000000000E+00  0.00000000000E+00  0.45593999997E+02  0.45594000000E+02  0.51100000000E-03 0.  1.
         11   -1    0    0    0    0 -0.00000000000E+00 -0.00000000000E+00 -0.45593999997E+02  0.45594000000E+02  0.51100000000E-03 0. -1.
    9900012    2    1    2    0    0 -0.80641029861E+01  0.11374747232E+02  0.42833384606E+02  0.46142317983E+02  0.10000002028E+02 0.  0.
         12    1    1    2    0    0  0.80641029861E+01 -0.11374747232E+02 -0.42833384606E+02  0.45045682017E+02  0.00000000000E+00 0. -1.
         11    1    3    3    0    0 -0.38176729356E+01  0.74205931651E+01  0.15828452718E+02  0.17893567148E+02  0.51100000000E-03 0. -1.
        -11    1    3    3    0    0 -0.51517061563E+01  0.28782023679E+01  0.14351056600E+02  0.15516989109E+02  0.51100000000E-03 0.  1.
         12    1    3    3    0    0  0.90527610588E+00  0.10759516988E+01  0.12653875287E+02  0.12731761727E+02  0.00000000000E+00 0. -1.
</event>
<event>
 7    1  0.2227287E-008  0.4614232E+02  0.7816164E-02  0.1320468E+00
        -11   -1    0    0    0    0  0.00000000000E+00  0.00000000000E+00  0.45593999997E+02  0.45594000000E+02  0.51100000000E-03 0.  1.
         11   -1    0    0    0    0 -0.00000000000E+00 -0.00000000000E+00 -0.45593999997E+02  0.45594000000E+02  0.51100000000E-03 0. -1.
    9900012    2    1    2    0    0  0.41759626300E+02 -0.34713940722E+01  0.16528656918E+02  0.46142318020E+02  0.10000002362E+02 0.  0.
         12    1    1    2    0    0 -0.41759626300E+02  0.34713940722E+01 -0.16528656918E+02  0.45045681980E+02  0.00000000000E+00 0. -1.
         11    1    3    3    0    0  0.32078962437E+01  0.13016625733E+01  0.33482012672E+01  0.48161577789E+01  0.51100000000E-03 0. -1.
        -11    1    3    3    0    0  0.15744532810E+02 -0.44091856442E+01  0.51029208860E+01  0.17128077337E+02  0.51100000000E-03 0.  1.
        -12    1    3    3    0    0  0.22807197247E+02 -0.36387100137E+00  0.80775347644E+01  0.24198082904E+02  0.00000000000E+00 0.  1.
</event>
<event>
 7    1  0.2227287E-008  0.4614232E+02  0.7816164E-02  0.1320468E+00
        -11   -1    0    0    0    0  0.00000000000E+00  0.00000000000E+00  0.45593999997E+02  0.45594000000E+02  0.51100000000E-03 0.  1.
         11   -1    0    0    0    0 -0.00000000000E+00 -0.00000000000E+00 -0.45593999997E+02  0.45594000000E+02  0.51100000000E-03 0. -1.
    9900012    2    1    2    0    0 -0.29354626044E+01 -0.24317023828E+02  0.37804480228E+02  0.46142319698E+02  0.10000017662E+02 0.  0.
         12    1    1    2    0    0  0.29354626044E+01  0.24317023828E+02 -0.37804480228E+02  0.45045680302E+02  0.00000000000E+00 0. -1.
         11    1    3    3    0    0 -0.28927911012E+01 -0.15304302550E+02  0.15181104480E+02  0.21749847134E+02  0.51100000000E-03 0. -1.
        -11    1    3    3    0    0 -0.55712240403E+00 -0.35704306146E+01  0.79080233281E+01  0.86945496356E+01  0.51100000000E-03 0.  1.
         12    1    3    3    0    0  0.51445090079E+00 -0.54422906637E+01  0.14715352420E+02  0.15697922928E+02  0.00000000000E+00 0. -1.
</event>
<event>
 7    1  0.2227287E-008  0.4614232E+02  0.7816164E-02  0.1320468E+00
        -11   -1    0    0    0    0  0.00000000000E+00  0.00000000000E+00  0.45593999997E+02  0.45594000000E+02  0.51100000000E-03 0. -1.
         11   -1    0    0    0    0 -0.00000000000E+00 -0.00000000000E+00 -0.45593999997E+02  0.45594000000E+02  0.51100000000E-03 0.  1.
    9900012    2    1    2    0    0  0.34549677510E+02  0.27868098968E+02  0.76682573862E+01  0.46142319547E+02  0.10000016281E+02 0.  0.
         12    1    1    2    0    0 -0.34549677510E+02 -0.27868098968E+02 -0.76682573862E+01  0.45045680453E+02  0.00000000000E+00 0. -1.
         11    1    3    3    0    0  0.10073182694E+02  0.42947692643E+01  0.39810876562E+01  0.11651742865E+02  0.51100000000E-03 0. -1.
        -11    1    3    3    0    0  0.18732341081E+02  0.15432070730E+02  0.16933541579E+01  0.24329341502E+02  0.51100000000E-03 0.  1.
         12    1    3    3    0    0  0.57441537363E+01  0.81412589738E+01  0.19938155721E+01  0.10161235179E+02  0.00000000000E+00 0. -1.
</event>
<event>
 7    1  0.2227287E-008  0.4614232E+02  0.7816164E-02  0.1320468E+00
        -11   -1    0    0    0    0  0.00000000000E+00  0.00000000000E+00  0.45593999997E+02  0.45594000000E+02  0.51100000000E-03 0.  1.
         11   -1    0    0    0    0 -0.00000000000E+00 -0.00000000000E+00 -0.45593999997E+02  0.45594000000E+02  0.51100000000E-03 0. -1.
    9900012    2    1    2    0    0  0.15965392766E+02 -0.29618034018E+02  0.29949822079E+02  0.46142317101E+02  0.99999939827E+01 0.  0.
         12    1    1    2    0    0 -0.15965392766E+02  0.29618034018E+02 -0.29949822079E+02  0.45045682899E+02  0.00000000000E+00 0. -1.
         11    1    3    3    0    0  0.38001764522E+01 -0.34035768691E+01  0.64423923709E+01  0.82176697605E+01  0.51100000000E-03 0. -1.
        -11    1    3    3    0    0  0.38038430230E+01 -0.15298645194E+02  0.14968895278E+02  0.21739033847E+02  0.51100000000E-03 0.  1.
        -12    1    3    3    0    0  0.83613732907E+01 -0.10915811955E+02  0.85385344300E+01  0.16185613493E+02  0.00000000000E+00 0.  1.
</event>
<event>
 7    1  0.2227287E-008  0.4614232E+02  0.7816164E-02  0.1320468E+00
        -11   -1    0    0    0    0  0.00000000000E+00  0.00000000000E+00  0.45593999997E+02  0.45594000000E+02  0.51100000000E-03 0. -1.
         11   -1    0    0    0    0 -0.00000000000E+00 -0.00000000000E+00 -0.45593999997E+02  0.45594000000E+02  0.51100000000E-03 0.  1.
    9900012    2    1    2    0    0 -0.35721947054E+02  0.10511757775E+02 -0.25348745598E+02  0.46142318118E+02  0.10000003251E+02 0.  0.
         12    1    1    2    0    0  0.35721947054E+02 -0.10511757775E+02  0.25348745598E+02  0.45045681882E+02  0.00000000000E+00 0. -1.
         11    1    3    3    0    0 -0.21575367901E+02  0.57312610993E+01 -0.16969703680E+02  0.28041303412E+02  0.51100000000E-03 0. -1.
        -11    1    3    3    0    0 -0.10630519613E+02  0.77596362034E+00 -0.48572058230E+01  0.11713347747E+02  0.51100000000E-03 0.  1.
         12    1    3    3    0    0 -0.35160595411E+01  0.40045330551E+01 -0.35218360953E+01  0.63876669582E+01  0.00000000000E+00 0. -1.
</event>
<event>
 7    1  0.2227287E-008  0.4614232E+02  0.7816164E-02  0.1320468E+00
        -11   -1    0    0    0    0  0.00000000000E+00  0.00000000000E+00  0.45593999997E+02  0.45594000000E+02  0.51100000000E-03 0. -1.
         11   -1    0    0    0    0 -0.00000000000E+00 -0.00000000000E+00 -0.45593999997E+02  0.45594000000E+02  0.51100000000E-03 0.  1.
    9900012    2    1    2    0    0  0.41433053629E+02 -0.11939574720E+01 -0.17634911489E+02  0.46142316847E+02  0.99999916661E+01 0.  0.
         12    1    1    2    0    0 -0.41433053629E+02  0.11939574720E+01  0.17634911489E+02  0.45045683153E+02  0.00000000000E+00 0. -1.
         11    1    3    3    0    0  0.11469683264E+02  0.30162019629E+00 -0.11760863851E+01  0.11533767311E+02  0.51100000000E-03 0. -1.
        -11    1    3    3    0    0  0.22004699053E+02  0.10809813629E+01 -0.11051760210E+02  0.24647853966E+02  0.51100000000E-03 0.  1.
         12    1    3    3    0    0  0.79586713124E+01 -0.25765590312E+01 -0.54070648934E+01  0.99606955711E+01  0.00000000000E+00 0. -1.
</event>
<event>
 7    1  0.2227287E-008  0.4614232E+02  0.7816164E-02  0.1320468E+00
        -11   -1    0    0    0    0  0.00000000000E+00  0.00000000000E+00  0.45593999997E+02  0.45594000000E+02  0.51100000000E-03 0.  1.
         11   -1    0    0    0    0 -0.00000000000E+00 -0.00000000000E+00 -0.45593999997E+02  0.45594000000E+02  0.51100000000E-03 0. -1.
    9900012    2    1    2    0    0 -0.20589562415E+02  0.18534425171E+02  0.35519832177E+02  0.46142317912E+02  0.10000001380E+02 0.  0.
         12    1    1    2    0    0  0.20589562415E+02 -0.18534425171E+02 -0.35519832177E+02  0.45045682088E+02  0.00000000000E+00 0. -1.
         11    1    3    3    0    0 -0.20737346099E+01  0.69046034151E+01  0.72254723118E+01  0.10206927743E+02  0.51100000000E-03 0. -1.
        -11    1    3    3    0    0 -0.63699126668E+01  0.29303387449E+01  0.68700196386E+01  0.98163049382E+01  0.51100000000E-03 0.  1.
         12    1    3    3    0    0 -0.12145915139E+02  0.86994830105E+01  0.21424340226E+02  0.26119085232E+02  0.00000000000E+00 0. -1.
</event>
<event>
 7    1  0.2227287E-008  0.4614232E+02  0.7816164E-02  0.1320468E+00
        -11   -1    0    0    0    0  0.00000000000E+00  0.00000000000E+00  0.45593999997E+02  0.45594000000E+02  0.51100000000E-03 0.  1.
         11   -1    0    0    0    0 -0.00000000000E+00 -0.00000000000E+00 -0.45593999997E+02  0.45594000000E+02  0.51100000000E-03 0. -1.
    9900012    2    1    2    0    0 -0.40638744335E+02  0.10231407230E+02  0.16520419762E+02  0.46142317586E+02  0.99999984069E+01 0.  0.
         12    1    1    2    0    0  0.40638744335E+02 -0.10231407230E+02 -0.16520419762E+02  0.45045682414E+02  0.00000000000E+00 0. -1.
         11    1    3    3    0    0 -0.11978629149E+02  0.52569173390E+01  0.79291807493E+01  0.15296883468E+02  0.51100000000E-03 0. -1.
        -11    1    3    3    0    0 -0.14458330958E+02 -0.22430443423E+00  0.50138809662E+01  0.15304661027E+02  0.51100000000E-03 0.  1.
         12    1    3    3    0    0 -0.14201784228E+02  0.51987943252E+01  0.35773580462E+01  0.15540773091E+02  0.00000000000E+00 0. -1.
</event>
<event>
 7    1  0.2227287E-008  0.4614232E+02  0.7816164E-02  0.1320468E+00
        -11   -1    0    0    0    0  0.00000000000E+00  0.00000000000E+00  0.45593999997E+02  0.45594000000E+02  0.51100000000E-03 0.  1.
         11   -1    0    0    0    0 -0.00000000000E+00 -0.00000000000E+00 -0.45593999997E+02  0.45594000000E+02  0.51100000000E-03 0. -1.
    9900012    2    1    2    0    0 -0.14841504406E+02  0.17075150978E+02  0.38952312668E+02  0.46142315455E+02  0.99999789693E+01 0.  0.
         12    1    1    2    0    0  0.14841504406E+02 -0.17075150978E+02 -0.38952312668E+02  0.45045684545E+02  0.00000000000E+00 0. -1.
         11    1    3    3    0    0 -0.67603807710E+01  0.71911149612E+01  0.10428683502E+02  0.14358701975E+02  0.51100000000E-03 0. -1.
        -11    1    3    3    0    0 -0.13984836066E+01  0.50706260157E+01  0.71356137893E+01  0.88647610798E+01  0.51100000000E-03 0.  1.
        -12    1    3    3    0    0 -0.66826400287E+01  0.48134100008E+01  0.21388015377E+02  0.22918852400E+02  0.00000000000E+00 0.  1.
</event>
<event>
 7    1  0.2227287E-008  0.4614232E+02  0.7816164E-02  0.1320468E+00
        -11   -1    0    0    0    0  0.00000000000E+00  0.00000000000E+00  0.45593999997E+02  0.45594000000E+02  0.51100000000E-03 0.  1.
         11   -1    0    0    0    0 -0.00000000000E+00 -0.00000000000E+00 -0.45593999997E+02  0.45594000000E+02  0.51100000000E-03 0. -1.
    9900012    2    1    2    0    0 -0.55432290252E+00  0.42577577611E+02  0.14695443156E+02  0.46142318313E+02  0.10000005030E+02 0.  0.
         12    1    1    2    0    0  0.55432290252E+00 -0.42577577611E+02 -0.14695443156E+02  0.45045681687E+02  0.00000000000E+00 0. -1.
         11    1    3    3    0    0 -0.12794097945E+01  0.32826264947E+02  0.10390976806E+02  0.34455376344E+02  0.51100000000E-03 0. -1.
        -11    1    3    3    0    0  0.19471212762E+01  0.93829812069E+01  0.39233759670E+01  0.10354926211E+02  0.51100000000E-03 0.  1.
         12    1    3    3    0    0 -0.12220343842E+01  0.36833145767E+00  0.38109038362E+00  0.13320157579E+01  0.00000000000E+00 0. -1.
</event>
<event>
 7    1  0.2227287E-008  0.4614232E+02  0.7816164E-02  0.1320468E+00
        -11   -1    0    0    0    0  0.00000000000E+00  0.00000000000E+00  0.45593999997E+02  0.45594000000E+02  0.51100000000E-03 0. -1.
         11   -1    0    0    0    0 -0.00000000000E+00 -0.00000000000E+00 -0.45593999997E+02  0.45594000000E+02  0.51100000000E-03 0.  1.
    9900012    2    1    2    0    0  0.15015187119E+02  0.18523411220E+02  0.38217024514E+02  0.46142316853E+02  0.99999917211E+01 0.  0.
         12    1    1    2    0    0 -0.15015187119E+02 -0.18523411220E+02 -0.38217024514E+02  0.45045683147E+02  0.00000000000E+00 0. -1.
         11    1    3    3    0    0  0.57081215242E+01  0.61082667352E+01  0.20099734491E+02  0.21769081302E+02  0.51100000000E-03 0. -1.
        -11    1    3    3    0    0  0.20098040226E+00  0.36719098719E+01  0.42687817273E+01  0.56343422798E+01  0.51100000000E-03 0.  1.
        -12    1    3    3    0    0  0.91060851926E+01  0.87432346134E+01  0.13848508295E+02  0.18738893272E+02  0.00000000000E+00 0.  1.
</event>
<event>
 7    1  0.2227287E-008  0.4614232E+02  0.7816164E-02  0.1320468E+00
        -11   -1    0    0    0    0  0.00000000000E+00  0.00000000000E+00  0.45593999997E+02  0.45594000000E+02  0.51100000000E-03 0. -1.
         11   -1    0    0    0    0 -0.00000000000E+00 -0.00000000000E+00 -0.45593999997E+02  0.45594000000E+02  0.51100000000E-03 0.  1.
    9900012    2    1    2    0    0  0.33241582759E+02 -0.14593653802E+02  0.26667132651E+02  0.46142317416E+02  0.99999968491E+01 0.  0.
         12    1    1    2    0    0 -0.33241582759E+02  0.14593653802E+02 -0.26667132651E+02  0.45045682584E+02  0.00000000000E+00 0. -1.
         11    1    3    3    0    0  0.37068541353E+01 -0.52661943326E+00  0.52876112396E+01  0.64789604483E+01  0.51100000000E-03 0. -1.
        -11    1    3    3    0    0  0.50053346345E+00 -0.16576820098E+01  0.18639952752E+01  0.25441937900E+01  0.51100000000E-03 0.  1.
        -12    1    3    3    0    0  0.29034195161E+02 -0.12409352359E+02  0.19515526137E+02  0.37119163177E+02  0.00000000000E+00 0.  1.
</event>
<event>
 7    1  0.2227287E-008  0.4614232E+02  0.7816164E-02  0.1320468E+00
        -11   -1    0    0    0    0  0.00000000000E+00  0.00000000000E+00  0.45593999997E+02  0.45594000000E+02  0.51100000000E-03 0.  1.
         11   -1    0    0    0    0 -0.00000000000E+00 -0.00000000000E+00 -0.45593999997E+02  0.45594000000E+02  0.51100000000E-03 0. -1.
    9900012    2    1    2    0    0 -0.38803758434E+01 -0.30962528449E+02  0.32486581908E+02  0.46142317757E+02  0.99999999667E+01 0.  0.
         12    1    1    2    0    0  0.38803758434E+01  0.30962528449E+02 -0.32486581908E+02  0.45045682243E+02  0.00000000000E+00 0. -1.
         11    1    3    3    0    0 -0.15311093470E+01 -0.44055668662E+01  0.24824776134E+01  0.52835604101E+01  0.51100000000E-03 0. -1.
        -11    1    3    3    0    0 -0.22037232299E+01 -0.70462545177E+01  0.41522516882E+01  0.84703773910E+01  0.51100000000E-03 0.  1.
         12    1    3    3    0    0 -0.14554326652E+00 -0.19510707065E+02  0.25851852606E+02  0.32388379956E+02  0.00000000000E+00 0. -1.
</event>
<event>
 7    1  0.2227287E-008  0.4614232E+02  0.7816164E-02  0.1320468E+00
        -11   -1    0    0    0    0  0.00000000000E+00  0.00000000000E+00  0.45593999997E+02  0.45594000000E+02  0.51100000000E-03 0. -1.
         11   -1    0    0    0    0 -0.00000000000E+00 -0.00000000000E+00 -0.45593999997E+02  0.45594000000E+02  0.51100000000E-03 0.  1.
    9900012    2    1    2    0    0  0.91702039723E+00 -0.24234893140E+02 -0.37959748947E+02  0.46142317499E+02  0.99999976054E+01 0.  0.
         12    1    1    2    0    0 -0.91702039723E+00  0.24234893140E+02  0.37959748947E+02  0.45045682501E+02  0.00000000000E+00 0. -1.
         11    1    3    3    0    0  0.14494492848E+01 -0.11274176140E+01 -0.30184644041E+01  0.35331432642E+01  0.51100000000E-03 0. -1.
        -11    1    3    3    0    0 -0.38013972306E-01 -0.16590444435E+02 -0.30458579661E+02  0.34683848790E+02  0.51100000000E-03 0.  1.
         12    1    3    3    0    0 -0.49441491525E+00 -0.65170310910E+01 -0.44827048812E+01  0.79253254445E+01  0.00000000000E+00 0. -1.
</event>
<event>
 7    1  0.2227287E-008  0.4614232E+02  0.7816164E-02  0.1320468E+00
        -11   -1    0    0    0    0  0.00000000000E+00  0.00000000000E+00  0.45593999997E+02  0.45594000000E+02  0.51100000000E-03 0.  1.
         11   -1    0    0    0    0 -0.00000000000E+00 -0.00000000000E+00 -0.45593999997E+02  0.45594000000E+02  0.51100000000E-03 0. -1.
    9900012    2    1    2    0    0 -0.84957471092E+01  0.44229378764E+02  0.83541931655E+00  0.46142316631E+02  0.99999896931E+01 0.  0.
         12    1    1    2    0    0  0.84957471092E+01 -0.44229378764E+02 -0.83541931655E+00  0.45045683369E+02  0.00000000000E+00 0. -1.
         11    1    3    3    0    0 -0.22818937721E+01  0.97576752397E+01 -0.19524489186E+01  0.10209374237E+02  0.51100000000E-03 0. -1.
        -11    1    3    3    0    0 -0.67177528132E+01  0.34258856955E+02  0.34416403918E+01  0.35080512703E+02  0.51100000000E-03 0.  1.
        -12    1    3    3    0    0  0.50389947611E+00  0.21284656944E+00 -0.65377215667E+00  0.85242969034E+00  0.00000000000E+00 0.  1.
</event>
<event>
 7    1  0.2227287E-008  0.4614232E+02  0.7816164E-02  0.1320468E+00
        -11   -1    0    0    0    0  0.00000000000E+00  0.00000000000E+00  0.45593999997E+02  0.45594000000E+02  0.51100000000E-03 0. -1.
         11   -1    0    0    0    0 -0.00000000000E+00 -0.00000000000E+00 -0.45593999997E+02  0.45594000000E+02  0.51100000000E-03 0.  1.
    9900012    2    1    2    0    0 -0.18698857835E+02  0.39618924946E+02  0.10478883967E+02  0.46142317550E+02  0.99999980732E+01 0.  0.
         12    1    1    2    0    0  0.18698857835E+02 -0.39618924946E+02 -0.10478883967E+02  0.45045682450E+02  0.00000000000E+00 0. -1.
         11    1    3    3    0    0 -0.34924382767E+01  0.97501676620E+01  0.43072466015E+01  0.11216740529E+02  0.51100000000E-03 0. -1.
        -11    1    3    3    0    0 -0.90654309837E+01  0.24309333221E+02  0.60514321400E+01  0.26641050125E+02  0.51100000000E-03 0.  1.
         12    1    3    3    0    0 -0.61409885743E+01  0.55594240631E+01  0.12020522573E+00  0.82845268953E+01  0.00000000000E+00 0. -1.
</event>
<event>
 7    1  0.2227287E-008  0.4614232E+02  0.7816164E-02  0.1320468E+00
        -11   -1    0    0    0    0  0.00000000000E+00  0.00000000000E+00  0.45593999997E+02  0.45594000000E+02  0.51100000000E-03 0. -1.
         11   -1    0    0    0    0 -0.00000000000E+00 -0.00000000000E+00 -0.45593999997E+02  0.45594000000E+02  0.51100000000E-03 0.  1.
    9900012    2    1    2    0    0  0.38801924837E+02  0.14259692969E+02  0.17893722353E+02  0.46142317474E+02  0.99999973812E+01 0.  0.
         12    1    1    2    0    0 -0.38801924837E+02 -0.14259692969E+02 -0.17893722353E+02  0.45045682526E+02  0.00000000000E+00 0. -1.
         11    1    3    3    0    0 -0.33448841464E+00  0.38205903894E+00  0.42258027140E-01  0.50954647555E+00  0.51100000000E-03 0. -1.
        -11    1    3    3    0    0  0.35831420384E+02  0.13777511292E+02  0.14830539908E+02  0.41154044982E+02  0.51100000000E-03 0.  1.
         12    1    3    3    0    0  0.33049928668E+01  0.10012263821E+00  0.30209244173E+01  0.44787260161E+01  0.00000000000E+00 0. -1.
</event>
<event>
 7    1  0.2227287E-008  0.4614232E+02  0.7816164E-02  0.1320468E+00
        -11   -1    0    0    0    0  0.00000000000E+00  0.00000000000E+00  0.45593999997E+02  0.45594000000E+02  0.51100000000E-03 0.  1.
         11   -1    0    0    0    0 -0.00000000000E+00 -0.00000000000E+00 -0.45593999997E+02  0.45594000000E+02  0.51100000000E-03 0. -1.
    9900012    2    1    2    0    0  0.34447181968E+00  0.49491580936E+01  0.44771650039E+02  0.46142317922E+02  0.10000001468E+02 0.  0.
         12    1    1    2    0    0 -0.34447181968E+00 -0.49491580936E+01 -0.44771650039E+02  0.45045682078E+02  0.00000000000E+00 0. -1.
         11    1    3    3    0    0 -0.74140971734E+00 -0.14755799564E+01  0.10718216903E+02  0.10844685262E+02  0.51100000000E-03 0. -1.
        -11    1    3    3    0    0 -0.16424652585E+01 -0.39318355999E+00  0.10216542114E+02  0.10355192826E+02  0.51100000000E-03 0.  1.
        -12    1    3    3    0    0  0.27283467955E+01  0.68179216100E+01  0.23836891021E+02  0.24942439834E+02  0.00000000000E+00 0.  1.
</event>
<event>
 7    1  0.2227287E-008  0.4614232E+02  0.7816164E-02  0.1320468E+00
        -11   -1    0    0    0    0  0.00000000000E+00  0.00000000000E+00  0.45593999997E+02  0.45594000000E+02  0.51100000000E-03 0.  1.
         11   -1    0    0    0    0 -0.00000000000E+00 -0.00000000000E+00 -0.45593999997E+02  0.45594000000E+02  0.51100000000E-03 0. -1.
    9900012    2    1    2    0    0 -0.12396098254E+02  0.43305399289E+02  0.30423180736E+00  0.46142318559E+02  0.10000007278E+02 0.  0.
         12    1    1    2    0    0  0.12396098254E+02 -0.43305399289E+02 -0.30423180736E+00  0.45045681441E+02  0.00000000000E+00 0. -1.
         11    1    3    3    0    0 -0.61629700627E+01  0.10592887916E+02 -0.14896334187E+01  0.12345464040E+02  0.51100000000E-03 0. -1.
        -11    1    3    3    0    0 -0.34845496167E+01  0.26051115612E+02 -0.32668531775E+00  0.26285156157E+02  0.51100000000E-03 0.  1.
         12    1    3    3    0    0 -0.27485785751E+01  0.66613957612E+01  0.21205505438E+01  0.75116983619E+01  0.00000000000E+00 0. -1.
</event>
<event>
 7    1  0.2227287E-008  0.4614232E+02  0.7816164E-02  0.1320468E+00
        -11   -1    0    0    0    0  0.00000000000E+00  0.00000000000E+00  0.45593999997E+02  0.45594000000E+02  0.51100000000E-03 0. -1.
         11   -1    0    0    0    0 -0.00000000000E+00 -0.00000000000E+00 -0.45593999997E+02  0.45594000000E+02  0.51100000000E-03 0.  1.
    9900012    2    1    2    0    0  0.25310121050E+02 -0.26439552410E+02 -0.26257592211E+02  0.46142319764E+02  0.10000018264E+02 0.  0.
         12    1    1    2    0    0 -0.25310121050E+02  0.26439552410E+02  0.26257592211E+02  0.45045680236E+02  0.00000000000E+00 0. -1.
         11    1    3    3    0    0  0.15983339863E+01 -0.48635332681E+01 -0.15636697878E+01  0.53529142388E+01  0.51100000000E-03 0. -1.
        -11    1    3    3    0    0  0.13416877688E+02 -0.14408756501E+02 -0.17422928815E+02  0.26290365528E+02  0.51100000000E-03 0.  1.
         12    1    3    3    0    0  0.10294909375E+02 -0.71672626403E+01 -0.72709936080E+01  0.14499039997E+02  0.00000000000E+00 0. -1.
</event>
<event>
 7    1  0.2227287E-008  0.4614232E+02  0.7816164E-02  0.1320468E+00
        -11   -1    0    0    0    0  0.00000000000E+00  0.00000000000E+00  0.45593999997E+02  0.45594000000E+02  0.51100000000E-03 0.  1.
         11   -1    0    0    0    0 -0.00000000000E+00 -0.00000000000E+00 -0.45593999997E+02  0.45594000000E+02  0.51100000000E-03 0. -1.
    9900012    2    1    2    0    0 -0.10350788940E+02  0.30540619154E+02  0.31452269871E+02  0.46142317299E+02  0.99999957858E+01 0.  0.
         12    1    1    2    0    0  0.10350788940E+02 -0.30540619154E+02 -0.31452269871E+02  0.45045682701E+02  0.00000000000E+00 0. -1.
         11    1    3    3    0    0  0.77652893598E+00  0.24772796276E+01  0.37503137515E+01  0.45612240723E+01  0.51100000000E-03 0. -1.
        -11    1    3    3    0    0 -0.11977500639E+02  0.24811479730E+02  0.25650755839E+02  0.37643476504E+02  0.51100000000E-03 0.  1.
        -12    1    3    3    0    0  0.85018276271E+00  0.32518597965E+01  0.20512002805E+01  0.39376167230E+01  0.00000000000E+00 0.  1.
</event>
<event>
 7    1  0.2227287E-008  0.4614232E+02  0.7816164E-02  0.1320468E+00
        -11   -1    0    0    0    0  0.00000000000E+00  0.00000000000E+00  0.45593999997E+02  0.45594000000E+02  0.51100000000E-03 0.  1.
         11   -1    0    0    0    0 -0.00000000000E+00 -0.00000000000E+00 -0.45593999997E+02  0.45594000000E+02  0.51100000000E-03 0. -1.
    9900012    2    1    2    0    0 -0.23773030839E+02 -0.19485026022E+02  0.32928562564E+02  0.46142318000E+02  0.10000002176E+02 0.  0.
         12    1    1    2    0    0  0.23773030839E+02  0.19485026022E+02 -0.32928562564E+02  0.45045682000E+02  0.00000000000E+00 0. -1.
         11    1    3    3    0    0 -0.86812484507E+01 -0.40769140715E+01  0.14106329318E+02  0.17057955038E+02  0.51100000000E-03 0. -1.
        -11    1    3    3    0    0 -0.39683077136E+01 -0.19565283915E+01  0.20464139755E+01  0.48747594686E+01  0.51100000000E-03 0.  1.
        -12    1    3    3    0    0 -0.11123474675E+02 -0.13451583559E+02  0.16775819270E+02  0.24209603493E+02  0.00000000000E+00 0.  1.
</event>
<event>
 7    1  0.2227287E-008  0.4614232E+02  0.7816164E-02  0.1320468E+00
        -11   -1    0    0    0    0  0.00000000000E+00  0.00000000000E+00  0.45593999997E+02  0.45594000000E+02  0.51100000000E-03 0.  1.
         11   -1    0    0    0    0 -0.00000000000E+00 -0.00000000000E+00 -0.45593999997E+02  0.45594000000E+02  0.51100000000E-03 0. -1.
    9900012    2    1    2    0    0  0.16182056973E+02 -0.19396739386E+02  0.37296394292E+02  0.46142317700E+02  0.99999994400E+01 0.  0.
         12    1    1    2    0    0 -0.16182056973E+02  0.19396739386E+02 -0.37296394292E+02  0.45045682300E+02  0.00000000000E+00 0. -1.
         11    1    3    3    0    0  0.11223779507E+00 -0.33230593226E+01  0.66189407329E+01  0.74071382646E+01  0.51100000000E-03 0. -1.
        -11    1    3    3    0    0  0.75379886248E+01 -0.12044096772E+02  0.18847757362E+02  0.23603378940E+02  0.51100000000E-03 0.  1.
        -12    1    3    3    0    0  0.85318305536E+01 -0.40295832920E+01  0.11829696197E+02  0.15131800495E+02  0.00000000000E+00 0.  1.
</event>
<event>
 7    1  0.2227287E-008  0.4614232E+02  0.7816164E-02  0.1320468E+00
        -11   -1    0    0    0    0  0.00000000000E+00  0.00000000000E+00  0.45593999997E+02  0.45594000000E+02  0.51100000000E-03 0. -1.
         11   -1    0    0    0    0 -0.00000000000E+00 -0.00000000000E+00 -0.45593999997E+02  0.45594000000E+02  0.51100000000E-03 0.  1.
    9900012    2    1    2    0    0  0.43885654475E+02 -0.41457547894E+01 -0.92722945004E+01  0.46142318778E+02  0.10000009272E+02 0.  0.
         12    1    1    2    0    0 -0.43885654475E+02  0.41457547894E+01  0.92722945004E+01  0.45045681222E+02  0.00000000000E+00 0. -1.
         11    1    3    3    0    0  0.39944765827E+01 -0.15654051220E+01 -0.17134699574E+01  0.46197744449E+01  0.51100000000E-03 0. -1.
        -11    1    3    3    0    0  0.11544306176E+02 -0.93160875953E+00 -0.61006863896E+01  0.13090350441E+02  0.51100000000E-03 0.  1.
         12    1    3    3    0    0  0.28346871716E+02 -0.16487409079E+01 -0.14581381534E+01  0.28432193892E+02  0.00000000000E+00 0. -1.
</event>
<event>
 7    1  0.2227287E-008  0.4614232E+02  0.7816164E-02  0.1320468E+00
        -11   -1    0    0    0    0  0.00000000000E+00  0.00000000000E+00  0.45593999997E+02  0.45594000000E+02  0.51100000000E-03 0. -1.
         11   -1    0    0    0    0 -0.00000000000E+00 -0.00000000000E+00 -0.45593999997E+02  0.45594000000E+02  0.51100000000E-03 0.  1.
    9900012    2    1    2    0    0 -0.11618131713E+02  0.24474471172E+02 -0.35987951360E+02  0.46142319112E+02  0.10000012314E+02 0.  0.
         12    1    1    2    0    0  0.11618131713E+02 -0.24474471172E+02  0.35987951360E+02  0.45045680888E+02  0.00000000000E+00 0. -1.
         11    1    3    3    0    0 -0.32916258296E+01  0.11909472277E+02 -0.17201997937E+02  0.21179685167E+02  0.51100000000E-03 0. -1.
        -11    1    3    3    0    0 -0.56845080584E+01  0.75699814530E+01 -0.66299081623E+01  0.11557418984E+02  0.51100000000E-03 0.  1.
         12    1    3    3    0    0 -0.26419978252E+01  0.49950174417E+01 -0.12156045261E+02  0.13405214960E+02  0.00000000000E+00 0. -1.
</event>
<event>
 7    1  0.2227287E-008  0.4614232E+02  0.7816164E-02  0.1320468E+00
        -11   -1    0    0    0    0  0.00000000000E+00  0.00000000000E+00  0.45593999997E+02  0.45594000000E+02  0.51100000000E-03 0. -1.
         11   -1    0    0    0    0 -0.00000000000E+00 -0.00000000000E+00 -0.45593999997E+02  0.45594000000E+02  0.51100000000E-03 0.  1.
    9900012    2    1    2    0    0 -0.38922752290E+02 -0.12807965284E+02  0.18710662034E+02  0.46142317696E+02  0.99999994060E+01 0.  0.
         12    1    1    2    0    0  0.38922752290E+02  0.12807965284E+02 -0.18710662034E+02  0.45045682304E+02  0.00000000000E+00 0. -1.
         11    1    3    3    0    0 -0.42126790242E+01  0.53450440046E+00  0.25150440612E+01  0.49353628444E+01  0.51100000000E-03 0. -1.
        -11    1    3    3    0    0 -0.30295216227E+02 -0.10090596846E+02  0.16010704752E+02  0.35720623425E+02  0.51100000000E-03 0.  1.
         12    1    3    3    0    0 -0.44148570387E+01 -0.32518728379E+01  0.18491322032E+00  0.54863314268E+01  0.00000000000E+00 0. -1.
</event>
<event>
 7    1  0.2227287E-008  0.4614232E+02  0.7816164E-02  0.1320468E+00
        -11   -1    0    0    0    0  0.00000000000E+00  0.00000000000E+00  0.45593999997E+02  0.45594000000E+02  0.51100000000E-03 0.  1.
         11   -1    0    0    0    0 -0.00000000000E+00 -0.00000000000E+00 -0.45593999997E+02  0.45594000000E+02  0.51100000000E-03 0. -1.
    9900012    2    1    2    0    0 -0.42530926218E+01  0.32214174606E+02  0.31197301149E+02  0.46142318283E+02  0.10000004759E+02 0.  0.
         12    1    1    2    0    0  0.42530926218E+01 -0.32214174606E+02 -0.31197301149E+02  0.45045681717E+02  0.00000000000E+00 0. -1.
         11    1    3    3    0    0 -0.16050752780E+01  0.79743030778E+01  0.56248308186E+01  0.98896156763E+01  0.51100000000E-03 0. -1.
        -11    1    3    3    0    0  0.55844066779E+00  0.58404801822E+01  0.11351681220E+02  0.12778252288E+02  0.51100000000E-03 0.  1.
        -12    1    3    3    0    0 -0.32064580116E+01  0.18399391346E+02  0.14220789110E+02  0.23474450319E+02  0.00000000000E+00 0.  1.
</event>
<event>
 7    1  0.2227287E-008  0.4614232E+02  0.7816164E-02  0.1320468E+00
        -11   -1    0    0    0    0  0.00000000000E+00  0.00000000000E+00  0.45593999997E+02  0.45594000000E+02  0.51100000000E-03 0. -1.
         11   -1    0    0    0    0 -0.00000000000E+00 -0.00000000000E+00 -0.45593999997E+02  0.45594000000E+02  0.51100000000E-03 0.  1.
    9900012    2    1    2    0    0  0.39209374097E+02 -0.10261833796E+01 -0.22151420260E+02  0.46142317754E+02  0.99999999388E+01 0.  0.
         12    1    1    2    0    0 -0.39209374097E+02  0.10261833796E+01  0.22151420260E+02  0.45045682246E+02  0.00000000000E+00 0. -1.
         11    1    3    3    0    0  0.20346503255E+02 -0.18900511558E+01 -0.16664852324E+02  0.26367969040E+02  0.51100000000E-03 0. -1.
        -11    1    3    3    0    0  0.47884295625E+01  0.35307634968E+00 -0.47212720128E+00  0.48245854681E+01  0.51100000000E-03 0.  1.
         12    1    3    3    0    0  0.14074441280E+02  0.51079142647E+00 -0.50144407347E+01  0.14949763246E+02  0.00000000000E+00 0. -1.
</event>
<event>
 7    1  0.2227287E-008  0.4614232E+02  0.7816164E-02  0.1320468E+00
        -11   -1    0    0    0    0  0.00000000000E+00  0.00000000000E+00  0.45593999997E+02  0.45594000000E+02  0.51100000000E-03 0.  1.
         11   -1    0    0    0    0 -0.00000000000E+00 -0.00000000000E+00 -0.45593999997E+02  0.45594000000E+02  0.51100000000E-03 0. -1.
    9900012    2    1    2    0    0  0.39426214343E+02 -0.13761878244E+01  0.21743810523E+02  0.46142316894E+02  0.99999920957E+01 0.  0.
         12    1    1    2    0    0 -0.39426214343E+02  0.13761878244E+01 -0.21743810523E+02  0.45045683106E+02  0.00000000000E+00 0. -1.
         11    1    3    3    0    0  0.75891568071E+01 -0.87055158156E+00  0.54856442567E+01  0.94045443414E+01  0.51100000000E-03 0. -1.
        -11    1    3    3    0    0  0.32259096222E+02 -0.89617810001E-01  0.16300497460E+02  0.36143651422E+02  0.51100000000E-03 0.  1.
         12    1    3    3    0    0 -0.42203868553E+00 -0.41601843288E+00 -0.42331192806E-01  0.59412113114E+00  0.00000000000E+00 0. -1.
</event>
<event>
 7    1  0.2227287E-008  0.4614231E+02  0.7816164E-02  0.1320468E+00
        -11   -1    0    0    0    0  0.00000000000E+00  0.00000000000E+00  0.45593999997E+02  0.45594000000E+02  0.51100000000E-03 0.  1.
         11   -1    0    0    0    0 -0.00000000000E+00 -0.00000000000E+00 -0.45593999997E+02  0.45594000000E+02  0.51100000000E-03 0. -1.
    9900012    2    1    2    0    0  0.20766774217E+02 -0.39715814061E+02  0.45286962622E+01  0.46142313328E+02  0.99999595785E+01 0.  0.
         12    1    1    2    0    0 -0.20766774217E+02  0.39715814061E+02 -0.45286962622E+01  0.45045686672E+02  0.00000000000E+00 0. -1.
         11    1    3    3    0    0  0.52588672056E+01 -0.83740355655E+01  0.45492025716E+01  0.10884640565E+02  0.51100000000E-03 0. -1.
        -11    1    3    3    0    0  0.51528262961E+01 -0.10091386841E+02  0.20995236984E+01  0.11523701976E+02  0.51100000000E-03 0.  1.
        -12    1    3    3    0    0  0.10355080715E+02 -0.21250391655E+02 -0.21200300078E+01  0.23733970787E+02  0.00000000000E+00 0.  1.
</event>
<event>
 7    1  0.2227287E-008  0.4614232E+02  0.7816164E-02  0.1320468E+00
        -11   -1    0    0    0    0  0.00000000000E+00  0.00000000000E+00  0.45593999997E+02  0.45594000000E+02  0.51100000000E-03 0.  1.
         11   -1    0    0    0    0 -0.00000000000E+00 -0.00000000000E+00 -0.45593999997E+02  0.45594000000E+02  0.51100000000E-03 0. -1.
    9900012    2    1    2    0    0 -0.15124973481E+02 -0.69154229691E+01  0.41863176425E+02  0.46142318320E+02  0.10000005095E+02 0.  0.
         12    1    1    2    0    0  0.15124973481E+02  0.69154229691E+01 -0.41863176425E+02  0.45045681680E+02  0.00000000000E+00 0. -1.
         11    1    3    3    0    0 -0.11226002405E+01  0.69855132158E+00  0.99034545814E+01  0.99913271469E+01  0.51100000000E-03 0. -1.
        -11    1    3    3    0    0 -0.65417338505E+01 -0.26288090368E+01  0.85581589340E+01  0.11088146974E+02  0.51100000000E-03 0.  1.
         12    1    3    3    0    0 -0.74606393902E+01 -0.49851652539E+01  0.23401562909E+02  0.25062844199E+02  0.00000000000E+00 0. -1.
</event>
<event>
 7    1  0.2227287E-008  0.4614232E+02  0.7816164E-02  0.1320468E+00
        -11   -1    0    0    0    0  0.00000000000E+00  0.00000000000E+00  0.45593999997E+02  0.45594000000E+02  0.51100000000E-03 0. -1.
         11   -1    0    0    0    0 -0.00000000000E+00 -0.00000000000E+00 -0.45593999997E+02  0.45594000000E+02  0.51100000000E-03 0.  1.
    9900012    2    1    2    0    0  0.42772195714E+02 -0.81349521574E+01  0.11553144305E+02  0.46142319673E+02  0.10000017431E+02 0.  0.
         12    1    1    2    0    0 -0.42772195714E+02  0.81349521574E+01 -0.11553144305E+02  0.45045680327E+02  0.00000000000E+00 0. -1.
         11    1    3    3    0    0  0.35673684692E+01 -0.67859310583E+00 -0.86527441110E+00  0.37330023394E+01  0.51100000000E-03 0. -1.
        -11    1    3    3    0    0  0.26088943623E+02 -0.15455151020E+01  0.72337105363E+01  0.27117303788E+02  0.51100000000E-03 0.  1.
        -12    1    3    3    0    0  0.13115883622E+02 -0.59108439496E+01  0.51847081801E+01  0.15292013546E+02  0.00000000000E+00 0.  1.
</event>
<event>
 7    1  0.2227287E-008  0.4614232E+02  0.7816164E-02  0.1320468E+00
        -11   -1    0    0    0    0  0.00000000000E+00  0.00000000000E+00  0.45593999997E+02  0.45594000000E+02  0.51100000000E-03 0. -1.
         11   -1    0    0    0    0 -0.00000000000E+00 -0.00000000000E+00 -0.45593999997E+02  0.45594000000E+02  0.51100000000E-03 0.  1.
    9900012    2    1    2    0    0 -0.14466261500E+02  0.11868860160E+02 -0.40975247297E+02  0.46142318139E+02  0.10000003444E+02 0.  0.
         12    1    1    2    0    0  0.14466261500E+02 -0.11868860160E+02  0.40975247297E+02  0.45045681861E+02  0.00000000000E+00 0. -1.
         11    1    3    3    0    0 -0.33937653854E+01  0.12509760841E+00 -0.85630747432E+01  0.92119239153E+01  0.51100000000E-03 0. -1.
        -11    1    3    3    0    0 -0.45593003624E+00 -0.52366768790E+00 -0.52223631003E+01  0.52683182002E+01  0.51100000000E-03 0.  1.
        -12    1    3    3    0    0 -0.10616566078E+02  0.12267430240E+02 -0.27189809454E+02  0.31662076023E+02  0.00000000000E+00 0.  1.
</event>
<event>
 7    1  0.2227287E-008  0.4614232E+02  0.7816164E-02  0.1320468E+00
        -11   -1    0    0    0    0  0.00000000000E+00  0.00000000000E+00  0.45593999997E+02  0.45594000000E+02  0.51100000000E-03 0. -1.
         11   -1    0    0    0    0 -0.00000000000E+00 -0.00000000000E+00 -0.45593999997E+02  0.45594000000E+02  0.51100000000E-03 0.  1.
    9900012    2    1    2    0    0 -0.33582982070E+01  0.37449265035E+02 -0.24807013858E+02  0.46142317021E+02  0.99999932510E+01 0.  0.
         12    1    1    2    0    0  0.33582982070E+01 -0.37449265035E+02  0.24807013858E+02  0.45045682979E+02  0.00000000000E+00 0. -1.
         11    1    3    3    0    0 -0.14955009672E+01  0.10453908861E+02 -0.56793707833E+01  0.11990662466E+02  0.51100000000E-03 0. -1.
        -11    1    3    3    0    0 -0.61741078896E+00  0.24845923906E+02 -0.19563433879E+02  0.31629560165E+02  0.51100000000E-03 0.  1.
         12    1    3    3    0    0 -0.12453864508E+01  0.21494322686E+01  0.43579080485E+00  0.25220943905E+01  0.00000000000E+00 0. -1.
</event>
<event>
 7    1  0.2227287E-008  0.4614232E+02  0.7816164E-02  0.1320468E+00
        -11   -1    0    0    0    0  0.00000000000E+00  0.00000000000E+00  0.45593999997E+02  0.45594000000E+02  0.51100000000E-03 0.  1.
         11   -1    0    0    0    0 -0.00000000000E+00 -0.00000000000E+00 -0.45593999997E+02  0.45594000000E+02  0.51100000000E-03 0. -1.
    9900012    2    1    2    0    0 -0.52859576700E+01 -0.18947497019E+02  0.40523629234E+02  0.46142317432E+02  0.99999969952E+01 0.  0.
         12    1    1    2    0    0  0.52859576700E+01  0.18947497019E+02 -0.40523629234E+02  0.45045682568E+02  0.00000000000E+00 0. -1.
         11    1    3    3    0    0 -0.27354754392E+01 -0.27038993367E+01  0.10965212836E+02  0.11620231938E+02  0.51100000000E-03 0. -1.
        -11    1    3    3    0    0 -0.40727830668E+01 -0.83614751379E+01  0.11731112677E+02  0.14970665760E+02  0.51100000000E-03 0.  1.
        -12    1    3    3    0    0  0.15223008359E+01 -0.78821225445E+01  0.17827303721E+02  0.19551419733E+02  0.00000000000E+00 0.  1.
</event>
<event>
 7    1  0.2227287E-008  0.4614232E+02  0.7816164E-02  0.1320468E+00
        -11   -1    0    0    0    0  0.00000000000E+00  0.00000000000E+00  0.45593999997E+02  0.45594000000E+02  0.51100000000E-03 0. -1.
         11   -1    0    0    0    0 -0.00000000000E+00 -0.00000000000E+00 -0.45593999997E+02  0.45594000000E+02  0.51100000000E-03 0.  1.
    9900012    2    1    2    0    0 -0.44459046656E+02 -0.20636012703E+01 -0.69460979413E+01  0.46142317006E+02  0.99999931174E+01 0.  0.
         12    1    1    2    0    0  0.44459046656E+02  0.20636012703E+01  0.69460979413E+01  0.45045682994E+02  0.00000000000E+00 0. -1.
         11    1    3    3    0    0 -0.12894371006E+02  0.47868748207E+00 -0.49925035102E+01  0.13835426878E+02  0.51100000000E-03 0. -1.
        -11    1    3    3    0    0 -0.14266005478E+02 -0.35602898070E+01 -0.27564686084E+01  0.14959702378E+02  0.51100000000E-03 0.  1.
        -12    1    3    3    0    0 -0.17298670173E+02  0.10180010546E+01  0.80287417734E+00  0.17347187750E+02  0.00000000000E+00 0.  1.
</event>
<event>
 7    1  0.2227287E-008  0.4614232E+02  0.7816164E-02  0.1320468E+00
        -11   -1    0    0    0    0  0.00000000000E+00  0.00000000000E+00  0.45593999997E+02  0.45594000000E+02  0.51100000000E-03 0. -1.
         11   -1    0    0    0    0 -0.00000000000E+00 -0.00000000000E+00 -0.45593999997E+02  0.45594000000E+02  0.51100000000E-03 0.  1.
    9900012    2    1    2    0    0 -0.23446442278E+02 -0.12903408930E+02 -0.36233685564E+02  0.46142316666E+02  0.99999900127E+01 0.  0.
         12    1    1    2    0    0  0.23446442278E+02  0.12903408930E+02  0.36233685564E+02  0.45045683334E+02  0.00000000000E+00 0. -1.
         11    1    3    3    0    0 -0.59059799461E+00  0.71256241972E+00 -0.19233010901E+01  0.21343941851E+01  0.51100000000E-03 0. -1.
        -11    1    3    3    0    0 -0.81158206506E+01 -0.11302455050E+01 -0.11423175272E+02  0.14058198082E+02  0.51100000000E-03 0.  1.
         12    1    3    3    0    0 -0.14740023633E+02 -0.12485725845E+02 -0.22887209201E+02  0.29949724399E+02  0.00000000000E+00 0. -1.
</event>
<event>
 7    1  0.2227287E-008  0.4614232E+02  0.7816164E-02  0.1320468E+00
        -11   -1    0    0    0    0  0.00000000000E+00  0.00000000000E+00  0.45593999997E+02  0.45594000000E+02  0.51100000000E-03 0.  1.
         11   -1    0    0    0    0 -0.00000000000E+00 -0.00000000000E+00 -0.45593999997E+02  0.45594000000E+02  0.51100000000E-03 0. -1.
    9900012    2    1    2    0    0  0.32701604160E+02 -0.21943322279E+02  0.21867996290E+02  0.46142316866E+02  0.99999918391E+01 0.  0.
         12    1    1    2    0    0 -0.32701604160E+02  0.21943322279E+02 -0.21867996290E+02  0.45045683134E+02  0.00000000000E+00 0. -1.
         11    1    3    3    0    0  0.26290533886E+02 -0.14843379930E+02  0.14127390128E+02  0.33333185444E+02  0.51100000000E-03 0. -1.
        -11    1    3    3    0    0  0.48643914323E+01 -0.68846231295E+01  0.54542530327E+01  0.10040379278E+02  0.51100000000E-03 0.  1.
         12    1    3    3    0    0  0.15466788418E+01 -0.21531921991E+00  0.22863531292E+01  0.27687521445E+01  0.00000000000E+00 0. -1.
</event>
<event>
 7    1  0.2227287E-008  0.4614232E+02  0.7816164E-02  0.1320468E+00
        -11   -1    0    0    0    0  0.00000000000E+00  0.00000000000E+00  0.45593999997E+02  0.45594000000E+02  0.51100000000E-03 0.  1.
         11   -1    0    0    0    0 -0.00000000000E+00 -0.00000000000E+00 -0.45593999997E+02  0.45594000000E+02  0.51100000000E-03 0. -1.
    9900012    2    1    2    0    0  0.16276460409E+02 -0.25304570062E+02  0.33524156312E+02  0.46142317789E+02  0.10000000251E+02 0.  0.
         12    1    1    2    0    0 -0.16276460409E+02  0.25304570062E+02 -0.33524156312E+02  0.45045682211E+02  0.00000000000E+00 0. -1.
         11    1    3    3    0    0  0.86255683980E+01 -0.72108364563E+01  0.11482790579E+02  0.16070192044E+02  0.51100000000E-03 0.  1.
        -11    1    3    3    0    0  0.49935001753E+01 -0.16673422846E+02  0.19420808159E+02  0.26078839376E+02  0.51100000000E-03 0. -1.
         12    1    3    3    0    0  0.26573918357E+01 -0.14203107593E+01  0.26205575744E+01  0.39932863687E+01  0.00000000000E+00 0. -1.
</event>
<event>
 7    1  0.2227287E-008  0.4614232E+02  0.7816164E-02  0.1320468E+00
        -11   -1    0    0    0    0  0.00000000000E+00  0.00000000000E+00  0.45593999997E+02  0.45594000000E+02  0.51100000000E-03 0. -1.
         11   -1    0    0    0    0 -0.00000000000E+00 -0.00000000000E+00 -0.45593999997E+02  0.45594000000E+02  0.51100000000E-03 0.  1.
    9900012    2    1    2    0    0 -0.81387585746E+01  0.11274696146E+02 -0.42845715008E+02  0.46142318088E+02  0.10000002983E+02 0.  0.
         12    1    1    2    0    0  0.81387585746E+01 -0.11274696146E+02  0.42845715008E+02  0.45045681912E+02  0.00000000000E+00 0. -1.
         11    1    3    3    0    0 -0.11869218142E+01  0.46734103702E+00 -0.35730774677E+01  0.37939522782E+01  0.51100000000E-03 0. -1.
        -11    1    3    3    0    0 -0.37156139655E+01  0.36754477631E+01 -0.28804286067E+02  0.29274589655E+02  0.51100000000E-03 0.  1.
         12    1    3    3    0    0 -0.32362227949E+01  0.71319073460E+01 -0.10468351474E+02  0.13073776155E+02  0.00000000000E+00 0. -1.
</event>
<event>
 7    1  0.2227287E-008  0.4614232E+02  0.7816164E-02  0.1320468E+00
        -11   -1    0    0    0    0  0.00000000000E+00  0.00000000000E+00  0.45593999997E+02  0.45594000000E+02  0.51100000000E-03 0.  1.
         11   -1    0    0    0    0 -0.00000000000E+00 -0.00000000000E+00 -0.45593999997E+02  0.45594000000E+02  0.51100000000E-03 0. -1.
    9900012    2    1    2    0    0  0.14008965908E+02  0.47122148988E+01  0.42551819817E+02  0.46142318023E+02  0.10000002388E+02 0.  0.
         12    1    1    2    0    0 -0.14008965908E+02 -0.47122148988E+01 -0.42551819817E+02  0.45045681977E+02  0.00000000000E+00 0. -1.
         11    1    3    3    0    0  0.31170423931E+01  0.38906354452E+01  0.95648344783E+01  0.10786058423E+02  0.51100000000E-03 0. -1.
        -11    1    3    3    0    0  0.40677826214E+01 -0.27831875600E+01  0.10988960323E+02  0.12043680404E+02  0.51100000000E-03 0.  1.
        -12    1    3    3    0    0  0.68241408940E+01  0.36047670137E+01  0.21998025016E+02  0.23312579196E+02  0.00000000000E+00 0.  1.
</event>
<event>
 7    1  0.2227287E-008  0.4614232E+02  0.7816164E-02  0.1320468E+00
        -11   -1    0    0    0    0  0.00000000000E+00  0.00000000000E+00  0.45593999997E+02  0.45594000000E+02  0.51100000000E-03 0.  1.
         11   -1    0    0    0    0 -0.00000000000E+00 -0.00000000000E+00 -0.45593999997E+02  0.45594000000E+02  0.51100000000E-03 0. -1.
    9900012    2    1    2    0    0 -0.31187856272E+02  0.30620978615E+02 -0.10898938535E+02  0.46142316840E+02  0.99999915964E+01 0.  0.
         12    1    1    2    0    0  0.31187856272E+02 -0.30620978615E+02  0.10898938535E+02  0.45045683160E+02  0.00000000000E+00 0. -1.
         11    1    3    3    0    0 -0.10626058226E+02  0.47866390818E+01 -0.28136566792E+01  0.11989232306E+02  0.51100000000E-03 0. -1.
        -11    1    3    3    0    0 -0.42242493551E+01  0.76317995729E+01 -0.21846230434E+01  0.89922869970E+01  0.51100000000E-03 0.  1.
         12    1    3    3    0    0 -0.16337548691E+02  0.18202539961E+02 -0.59006588122E+01  0.25160797537E+02  0.00000000000E+00 0. -1.
</event>
<event>
 7    1  0.2227287E-008  0.4614232E+02  0.7816164E-02  0.1320468E+00
        -11   -1    0    0    0    0  0.00000000000E+00  0.00000000000E+00  0.45593999997E+02  0.45594000000E+02  0.51100000000E-03 0. -1.
         11   -1    0    0    0    0 -0.00000000000E+00 -0.00000000000E+00 -0.45593999997E+02  0.45594000000E+02  0.51100000000E-03 0.  1.
    9900012    2    1    2    0    0 -0.19467416568E+02 -0.23030720014E+02 -0.33462202508E+02  0.46142319087E+02  0.10000012089E+02 0.  0.
         12    1    1    2    0    0  0.19467416568E+02  0.23030720014E+02  0.33462202508E+02  0.45045680913E+02  0.00000000000E+00 0. -1.
         11    1    3    3    0    0 -0.19245410727E+00 -0.19675558053E+01 -0.21393019483E+00  0.19884870680E+01  0.51100000000E-03 0. -1.
        -11    1    3    3    0    0 -0.39084258260E+00 -0.45668671461E+00 -0.26241600662E+01  0.26921249959E+01  0.51100000000E-03 0.  1.
        -12    1    3    3    0    0 -0.18884119878E+02 -0.20606477494E+02 -0.30624112247E+02  0.41461707023E+02  0.00000000000E+00 0.  1.
</event>
<event>
 7    1  0.2227287E-008  0.4614232E+02  0.7816164E-02  0.1320468E+00
        -11   -1    0    0    0    0  0.00000000000E+00  0.00000000000E+00  0.45593999997E+02  0.45594000000E+02  0.51100000000E-03 0.  1.
         11   -1    0    0    0    0 -0.00000000000E+00 -0.00000000000E+00 -0.45593999997E+02  0.45594000000E+02  0.51100000000E-03 0. -1.
    9900012    2    1    2    0    0 -0.61320141591E+01 -0.26086850373E+02  0.36207571150E+02  0.46142316870E+02  0.99999918779E+01 0.  0.
         12    1    1    2    0    0  0.61320141591E+01  0.26086850373E+02 -0.36207571150E+02  0.45045683130E+02  0.00000000000E+00 0. -1.
         11    1    3    3    0    0  0.79434616311E+00 -0.80926134649E+01  0.62257922719E+01  0.10241184902E+02  0.51100000000E-03 0. -1.
        -11    1    3    3    0    0 -0.90766078245E+00 -0.16097354206E+00  0.12415225315E+01  0.15463308296E+01  0.51100000000E-03 0.  1.
        -12    1    3    3    0    0 -0.60186995397E+01 -0.17833263366E+02  0.28740256347E+02  0.34354801139E+02  0.00000000000E+00 0.  1.
</event>
<event>
 7    1  0.2227287E-008  0.4614232E+02  0.7816164E-02  0.1320468E+00
        -11   -1    0    0    0    0  0.00000000000E+00  0.00000000000E+00  0.45593999997E+02  0.45594000000E+02  0.51100000000E-03 0. -1.
         11   -1    0    0    0    0 -0.00000000000E+00 -0.00000000000E+00 -0.45593999997E+02  0.45594000000E+02  0.51100000000E-03 0.  1.
    9900012    2    1    2    0    0  0.34855122841E+02  0.26480652043E+02 -0.10630560034E+02  0.46142319546E+02  0.10000016279E+02 0.  0.
         12    1    1    2    0    0 -0.34855122841E+02 -0.26480652043E+02  0.10630560034E+02  0.45045680454E+02  0.00000000000E+00 0. -1.
         11    1    3    3    0    0  0.24270085902E+01  0.50454680466E+01 -0.22801584776E+01  0.60453487451E+01  0.51100000000E-03 0. -1.
        -11    1    3    3    0    0  0.49192719851E+01  0.56525350214E+01 -0.19473355304E+01  0.77422545141E+01  0.51100000000E-03 0.  1.
        -12    1    3    3    0    0  0.27508842266E+02  0.15782648975E+02 -0.64030660264E+01  0.32354716287E+02  0.00000000000E+00 0.  1.
</event>
<event>
 7    1  0.2227287E-008  0.4614232E+02  0.7816164E-02  0.1320468E+00
        -11   -1    0    0    0    0  0.00000000000E+00  0.00000000000E+00  0.45593999997E+02  0.45594000000E+02  0.51100000000E-03 0. -1.
         11   -1    0    0    0    0 -0.00000000000E+00 -0.00000000000E+00 -0.45593999997E+02  0.45594000000E+02  0.51100000000E-03 0.  1.
    9900012    2    1    2    0    0  0.45001868003E+02  0.19082390552E+01  0.55127903210E+00  0.46142318647E+02  0.10000008075E+02 0.  0.
         12    1    1    2    0    0 -0.45001868003E+02 -0.19082390552E+01 -0.55127903210E+00  0.45045681353E+02  0.00000000000E+00 0. -1.
         11    1    3    3    0    0  0.28951554136E+02  0.54535836540E+01 -0.43352053222E+00  0.29463910159E+02  0.51100000000E-03 0. -1.
        -11    1    3    3    0    0  0.79728585543E+01 -0.18142319998E+01 -0.83586155170E+00  0.82192807514E+01  0.51100000000E-03 0.  1.
         12    1    3    3    0    0  0.80774553127E+01 -0.17311125991E+01  0.18206611160E+01  0.84591277363E+01  0.00000000000E+00 0. -1.
</event>
<event>
 7    1  0.2227287E-008  0.4614232E+02  0.7816164E-02  0.1320468E+00
        -11   -1    0    0    0    0  0.00000000000E+00  0.00000000000E+00  0.45593999997E+02  0.45594000000E+02  0.51100000000E-03 0.  1.
         11   -1    0    0    0    0 -0.00000000000E+00 -0.00000000000E+00 -0.45593999997E+02  0.45594000000E+02  0.51100000000E-03 0. -1.
    9900012    2    1    2    0    0  0.10085921166E+02  0.15830068632E+02  0.40948708860E+02  0.46142316123E+02  0.99999850588E+01 0.  0.
         12    1    1    2    0    0 -0.10085921166E+02 -0.15830068632E+02 -0.40948708860E+02  0.45045683877E+02  0.00000000000E+00 0. -1.
         11    1    3    3    0    0  0.15001847557E+01  0.38515064526E+01  0.94607764596E+01  0.10324289212E+02  0.51100000000E-03 0. -1.
        -11    1    3    3    0    0  0.31841896248E+01  0.47874809929E+01  0.42961179958E+01  0.71774415998E+01  0.51100000000E-03 0.  1.
        -12    1    3    3    0    0  0.54015467850E+01  0.71910811863E+01  0.27191814405E+02  0.28640585311E+02  0.00000000000E+00 0.  1.
</event>
<event>
 7    1  0.2227287E-008  0.4614232E+02  0.7816164E-02  0.1320468E+00
        -11   -1    0    0    0    0  0.00000000000E+00  0.00000000000E+00  0.45593999997E+02  0.45594000000E+02  0.51100000000E-03 0.  1.
         11   -1    0    0    0    0 -0.00000000000E+00 -0.00000000000E+00 -0.45593999997E+02  0.45594000000E+02  0.51100000000E-03 0. -1.
    9900012    2    1    2    0    0  0.12122591082E+02  0.43383559757E+02 -0.15162886487E+00  0.46142318042E+02  0.10000002564E+02 0.  0.
         12    1    1    2    0    0 -0.12122591082E+02 -0.43383559757E+02  0.15162886487E+00  0.45045681958E+02  0.00000000000E+00 0. -1.
         11    1    3    3    0    0  0.52773450986E+01  0.13906814182E+02  0.16113714061E+01  0.14961496251E+02  0.51100000000E-03 0. -1.
        -11    1    3    3    0    0  0.79007835549E+01  0.22431613143E+02  0.23024012872E+00  0.23783453487E+02  0.51100000000E-03 0.  1.
         12    1    3    3    0    0 -0.10555375719E+01  0.70451324313E+01 -0.19932403996E+01  0.73973683044E+01  0.00000000000E+00 0. -1.
</event>
<event>
 7    1  0.2227287E-008  0.4614232E+02  0.7816164E-02  0.1320468E+00
        -11   -1    0    0    0    0  0.00000000000E+00  0.00000000000E+00  0.45593999997E+02  0.45594000000E+02  0.51100000000E-03 0.  1.
         11   -1    0    0    0    0 -0.00000000000E+00 -0.00000000000E+00 -0.45593999997E+02  0.45594000000E+02  0.51100000000E-03 0. -1.
    9900012    2    1    2    0    0 -0.21599359009E+02 -0.38603721817E+02  0.85049357833E+01  0.46142316739E+02  0.99999906836E+01 0.  0.
         12    1    1    2    0    0  0.21599359009E+02  0.38603721817E+02 -0.85049357833E+01  0.45045683261E+02  0.00000000000E+00 0. -1.
         11    1    3    3    0    0 -0.30897912035E+01 -0.52993280411E+01  0.44150717062E+01  0.75579458718E+01  0.51100000000E-03 0.  1.
        -11    1    3    3    0    0 -0.69105734313E+01 -0.82847610400E+01  0.10297016042E+01  0.10837600117E+02  0.51100000000E-03 0. -1.
        -12    1    3    3    0    0 -0.11598994375E+02 -0.25019632736E+02  0.30601624729E+01  0.27746770751E+02  0.00000000000E+00 0.  1.
</event>
<event>
 7    1  0.2227287E-008  0.4614231E+02  0.7816164E-02  0.1320468E+00
        -11   -1    0    0    0    0  0.00000000000E+00  0.00000000000E+00  0.45593999997E+02  0.45594000000E+02  0.51100000000E-03 0.  1.
         11   -1    0    0    0    0 -0.00000000000E+00 -0.00000000000E+00 -0.45593999997E+02  0.45594000000E+02  0.51100000000E-03 0. -1.
    9900012    2    1    2    0    0  0.26702754338E+02 -0.25590129121E+02  0.25714236972E+02  0.46142314516E+02  0.99999704108E+01 0.  0.
         12    1    1    2    0    0 -0.26702754338E+02  0.25590129121E+02 -0.25714236972E+02  0.45045685484E+02  0.00000000000E+00 0. -1.
         11    1    3    3    0    0  0.62642854876E+01 -0.45650484108E+01  0.33849411037E+01  0.84580592454E+01  0.51100000000E-03 0. -1.
        -11    1    3    3    0    0  0.15791360154E+02 -0.11044883599E+02  0.12908130605E+02  0.23194317088E+02  0.51100000000E-03 0.  1.
         12    1    3    3    0    0  0.46471086968E+01 -0.99801971112E+01  0.94211652634E+01  0.14489938183E+02  0.00000000000E+00 0. -1.
</event>
<event>
 7    1  0.2227287E-008  0.4614232E+02  0.7816164E-02  0.1320468E+00
        -11   -1    0    0    0    0  0.00000000000E+00  0.00000000000E+00  0.45593999997E+02  0.45594000000E+02  0.51100000000E-03 0. -1.
         11   -1    0    0    0    0 -0.00000000000E+00 -0.00000000000E+00 -0.45593999997E+02  0.45594000000E+02  0.51100000000E-03 0.  1.
    9900012    2    1    2    0    0  0.31648704619E+02  0.10461247295E+02 -0.30299098174E+02  0.46142317086E+02  0.99999938397E+01 0.  0.
         12    1    1    2    0    0 -0.31648704619E+02 -0.10461247295E+02  0.30299098174E+02  0.45045682914E+02  0.00000000000E+00 0. -1.
         11    1    3    3    0    0  0.16513915993E+02  0.50636235772E+01 -0.18629069294E+02  0.25404565105E+02  0.51100000000E-03 0. -1.
        -11    1    3    3    0    0  0.92972816816E+01  0.39622531151E+01 -0.10574534416E+02  0.14627360486E+02  0.51100000000E-03 0.  1.
         12    1    3    3    0    0  0.58375069446E+01  0.14353706022E+01 -0.10954944649E+01  0.61103914945E+01  0.00000000000E+00 0. -1.
</event>
<event>
 7    1  0.2227287E-008  0.4614232E+02  0.7816164E-02  0.1320468E+00
        -11   -1    0    0    0    0  0.00000000000E+00  0.00000000000E+00  0.45593999997E+02  0.45594000000E+02  0.51100000000E-03 0.  1.
         11   -1    0    0    0    0 -0.00000000000E+00 -0.00000000000E+00 -0.45593999997E+02  0.45594000000E+02  0.51100000000E-03 0. -1.
    9900012    2    1    2    0    0 -0.69691989424E+01  0.17432198197E+02  0.40947066083E+02  0.46142317758E+02  0.99999999702E+01 0.  0.
         12    1    1    2    0    0  0.69691989424E+01 -0.17432198197E+02 -0.40947066083E+02  0.45045682242E+02  0.00000000000E+00 0. -1.
         11    1    3    3    0    0  0.10123050104E+01  0.87820224917E+00  0.57878855166E+01  0.59410116680E+01  0.51100000000E-03 0. -1.
        -11    1    3    3    0    0 -0.82062775858E+01  0.11614831829E+02  0.22579324245E+02  0.26684699621E+02  0.51100000000E-03 0.  1.
         12    1    3    3    0    0  0.22477363304E+00  0.49391641190E+01  0.12579856321E+02  0.13516606469E+02  0.00000000000E+00 0. -1.
</event>
<event>
 7    1  0.2227287E-008  0.4614232E+02  0.7816164E-02  0.1320468E+00
        -11   -1    0    0    0    0  0.00000000000E+00  0.00000000000E+00  0.45593999997E+02  0.45594000000E+02  0.51100000000E-03 0.  1.
         11   -1    0    0    0    0 -0.00000000000E+00 -0.00000000000E+00 -0.45593999997E+02  0.45594000000E+02  0.51100000000E-03 0. -1.
    9900012    2    1    2    0    0 -0.92972862133E+01 -0.12016735811E+01  0.44059391266E+02  0.46142317532E+02  0.99999979064E+01 0.  0.
         12    1    1    2    0    0  0.92972862133E+01  0.12016735811E+01 -0.44059391266E+02  0.45045682468E+02  0.00000000000E+00 0. -1.
         11    1    3    3    0    0 -0.55677181992E+01  0.36100650674E+01  0.25495494613E+02  0.26344872396E+02  0.51100000000E-03 0. -1.
        -11    1    3    3    0    0 -0.91331128811E+00  0.35138721981E+00  0.32030369583E+01  0.33491874394E+01  0.51100000000E-03 0.  1.
        -12    1    3    3    0    0 -0.28162567260E+01 -0.51631258684E+01  0.15360859694E+02  0.16448257696E+02  0.00000000000E+00 0.  1.
</event>
<event>
 7    1  0.2227287E-008  0.4614232E+02  0.7816164E-02  0.1320468E+00
        -11   -1    0    0    0    0  0.00000000000E+00  0.00000000000E+00  0.45593999997E+02  0.45594000000E+02  0.51100000000E-03 0.  1.
         11   -1    0    0    0    0 -0.00000000000E+00 -0.00000000000E+00 -0.45593999997E+02  0.45594000000E+02  0.51100000000E-03 0. -1.
    9900012    2    1    2    0    0 -0.24625593307E+02 -0.17003757620E+02  0.33668470611E+02  0.46142317275E+02  0.99999955636E+01 0.  0.
         12    1    1    2    0    0  0.24625593307E+02  0.17003757620E+02 -0.33668470611E+02  0.45045682725E+02  0.00000000000E+00 0. -1.
         11    1    3    3    0    0 -0.43354434780E+00 -0.25853597495E+01  0.13469103350E+01  0.29472382746E+01  0.51100000000E-03 0. -1.
        -11    1    3    3    0    0 -0.28093664711E+01 -0.24682849908E+01  0.20857055591E+01  0.42819550097E+01  0.51100000000E-03 0.  1.
        -12    1    3    3    0    0 -0.21382682488E+02 -0.11950112880E+02  0.30235854717E+02  0.38913123990E+02  0.00000000000E+00 0.  1.
</event>
<event>
 7    1  0.2227287E-008  0.4614232E+02  0.7816164E-02  0.1320468E+00
        -11   -1    0    0    0    0  0.00000000000E+00  0.00000000000E+00  0.45593999997E+02  0.45594000000E+02  0.51100000000E-03 0.  1.
         11   -1    0    0    0    0 -0.00000000000E+00 -0.00000000000E+00 -0.45593999997E+02  0.45594000000E+02  0.51100000000E-03 0. -1.
    9900012    2    1    2    0    0  0.18185173435E+02 -0.40880482675E+02  0.52152723697E+01  0.46142318048E+02  0.10000002619E+02 0.  0.
         12    1    1    2    0    0 -0.18185173435E+02  0.40880482675E+02 -0.52152723697E+01  0.45045681952E+02  0.00000000000E+00 0. -1.
         11    1    3    3    0    0  0.76531898322E+01 -0.11301793306E+02  0.17163765915E+01  0.13756736365E+02  0.51100000000E-03 0. -1.
        -11    1    3    3    0    0  0.11138013224E+02 -0.26681178150E+02  0.17910907369E+01  0.28968061936E+02  0.51100000000E-03 0.  1.
        -12    1    3    3    0    0 -0.60602962109E+00 -0.28975112183E+01  0.17078050413E+01  0.34175197470E+01  0.00000000000E+00 0.  1.
</event>
<event>
 7    1  0.2227287E-008  0.4614232E+02  0.7816164E-02  0.1320468E+00
        -11   -1    0    0    0    0  0.00000000000E+00  0.00000000000E+00  0.45593999997E+02  0.45594000000E+02  0.51100000000E-03 0.  1.
         11   -1    0    0    0    0 -0.00000000000E+00 -0.00000000000E+00 -0.45593999997E+02  0.45594000000E+02  0.51100000000E-03 0. -1.
    9900012    2    1    2    0    0 -0.15068632476E+02  0.42434636154E+02  0.11624690382E+01  0.46142319136E+02  0.10000012536E+02 0.  0.
         12    1    1    2    0    0  0.15068632476E+02 -0.42434636154E+02 -0.11624690382E+01  0.45045680864E+02  0.00000000000E+00 0. -1.
         11    1    3    3    0    0 -0.85558874159E+01  0.13625730975E+02  0.14352331837E+01  0.16153131233E+02  0.51100000000E-03 0. -1.
        -11    1    3    3    0    0 -0.53086402790E+01  0.24256655716E+02  0.16888447085E+01  0.24888133816E+02  0.51100000000E-03 0.  1.
         12    1    3    3    0    0 -0.12041047811E+01  0.45522494627E+01 -0.19616088541E+01  0.51010540863E+01  0.00000000000E+00 0. -1.
</event>
<event>
 7    1  0.2227287E-008  0.4614232E+02  0.7816164E-02  0.1320468E+00
        -11   -1    0    0    0    0  0.00000000000E+00  0.00000000000E+00  0.45593999997E+02  0.45594000000E+02  0.51100000000E-03 0. -1.
         11   -1    0    0    0    0 -0.00000000000E+00 -0.00000000000E+00 -0.45593999997E+02  0.45594000000E+02  0.51100000000E-03 0.  1.
    9900012    2    1    2    0    0  0.26863654790E+01 -0.18863857675E+02 -0.40817298707E+02  0.46142316970E+02  0.99999927884E+01 0.  0.
         12    1    1    2    0    0 -0.26863654790E+01  0.18863857675E+02  0.40817298707E+02  0.45045683030E+02  0.00000000000E+00 0. -1.
         11    1    3    3    0    0 -0.81052212785E+00 -0.65454878027E+01 -0.17673355503E+02  0.18863929911E+02  0.51100000000E-03 0. -1.
        -11    1    3    3    0    0  0.12039893410E+01 -0.80391892957E+00 -0.79301922169E+01  0.80612545448E+01  0.51100000000E-03 0.  1.
         12    1    3    3    0    0  0.22928982659E+01 -0.11514450943E+02 -0.15213750987E+02  0.19217132514E+02  0.00000000000E+00 0. -1.
</event>
<event>
 7    1  0.2227287E-008  0.4614232E+02  0.7816164E-02  0.1320468E+00
        -11   -1    0    0    0    0  0.00000000000E+00  0.00000000000E+00  0.45593999997E+02  0.45594000000E+02  0.51100000000E-03 0.  1.
         11   -1    0    0    0    0 -0.00000000000E+00 -0.00000000000E+00 -0.45593999997E+02  0.45594000000E+02  0.51100000000E-03 0. -1.
    9900012    2    1    2    0    0 -0.20995763694E+02  0.35926214857E+02  0.17251044907E+02  0.46142316994E+02  0.99999930078E+01 0.  0.
         12    1    1    2    0    0  0.20995763694E+02 -0.35926214857E+02 -0.17251044907E+02  0.45045683006E+02  0.00000000000E+00 0. -1.
         11    1    3    3    0    0 -0.16757217624E+01  0.46056349079E+01 -0.65195630842E+00  0.49441848285E+01  0.51100000000E-03 0. -1.
        -11    1    3    3    0    0 -0.12847840525E+02  0.22855891878E+02  0.10604801986E+02  0.28282868050E+02  0.51100000000E-03 0.  1.
         12    1    3    3    0    0 -0.64722014066E+01  0.84646880715E+01  0.72981992298E+01  0.12915264116E+02  0.00000000000E+00 0. -1.
</event>
<event>
 7    1  0.2227287E-008  0.4614231E+02  0.7816164E-02  0.1320468E+00
        -11   -1    0    0    0    0  0.00000000000E+00  0.00000000000E+00  0.45593999997E+02  0.45594000000E+02  0.51100000000E-03 0.  1.
         11   -1    0    0    0    0 -0.00000000000E+00 -0.00000000000E+00 -0.45593999997E+02  0.45594000000E+02  0.51100000000E-03 0. -1.
    9900012    2    1    2    0    0 -0.24183392368E+02 -0.65148073213E+01  0.37441085294E+02  0.46142311540E+02  0.99999432693E+01 0.  0.
         12    1    1    2    0    0  0.24183392368E+02  0.65148073213E+01 -0.37441085294E+02  0.45045688460E+02  0.00000000000E+00 0. -1.
         11    1    3    3    0    0 -0.14828355620E+02  0.41747593668E+00  0.20626866055E+02  0.25407125379E+02  0.51100000000E-03 0. -1.
        -11    1    3    3    0    0 -0.49756733622E+00 -0.16756740377E+01  0.16496636169E+01  0.24035072383E+01  0.51100000000E-03 0.  1.
        -12    1    3    3    0    0 -0.88574694120E+01 -0.52566092203E+01  0.15164555622E+02  0.18331678922E+02  0.00000000000E+00 0.  1.
</event>
<event>
 7    1  0.2227287E-008  0.4614232E+02  0.7816164E-02  0.1320468E+00
        -11   -1    0    0    0    0  0.00000000000E+00  0.00000000000E+00  0.45593999997E+02  0.45594000000E+02  0.51100000000E-03 0. -1.
         11   -1    0    0    0    0 -0.00000000000E+00 -0.00000000000E+00 -0.45593999997E+02  0.45594000000E+02  0.51100000000E-03 0.  1.
    9900012    2    1    2    0    0  0.39336108647E+02 -0.20269980017E+01 -0.21855787079E+02  0.46142316597E+02  0.99999893862E+01 0.  0.
         12    1    1    2    0    0 -0.39336108647E+02  0.20269980017E+01  0.21855787079E+02  0.45045683403E+02  0.00000000000E+00 0. -1.
         11    1    3    3    0    0  0.59788834232E+00 -0.26539439649E+00  0.83067076579E+00  0.10573168105E+01  0.51100000000E-03 0. -1.
        -11    1    3    3    0    0  0.78402025501E+01 -0.14891167631E+01 -0.35046529913E+01  0.87160104182E+01  0.51100000000E-03 0.  1.
         12    1    3    3    0    0  0.30898017755E+02 -0.27248684219E+00 -0.19181804853E+02  0.36368989368E+02  0.00000000000E+00 0. -1.
</event>
<event>
 7    1  0.2227287E-008  0.4614232E+02  0.7816164E-02  0.1320468E+00
        -11   -1    0    0    0    0  0.00000000000E+00  0.00000000000E+00  0.45593999997E+02  0.45594000000E+02  0.51100000000E-03 0. -1.
         11   -1    0    0    0    0 -0.00000000000E+00 -0.00000000000E+00 -0.45593999997E+02  0.45594000000E+02  0.51100000000E-03 0.  1.
    9900012    2    1    2    0    0 -0.22155647522E+02  0.31484494130E+02 -0.23387323597E+02  0.46142323262E+02  0.10000050159E+02 0.  0.
         12    1    1    2    0    0  0.22155647522E+02 -0.31484494130E+02  0.23387323597E+02  0.45045676738E+02  0.00000000000E+00 0. -1.
         11    1    3    3    0    0 -0.73712415830E+01  0.10915034832E+02 -0.46247889237E+01  0.13959292987E+02  0.51100000000E-03 0. -1.
        -11    1    3    3    0    0 -0.34136384966E+01  0.42059492836E+01 -0.10403243865E+01  0.55159053882E+01  0.51100000000E-03 0.  1.
        -12    1    3    3    0    0 -0.11370767442E+02  0.16363510015E+02 -0.17722210287E+02  0.26667124886E+02  0.00000000000E+00 0.  1.
</event>
<event>
 7    1  0.2227287E-008  0.4614232E+02  0.7816164E-02  0.1320468E+00
        -11   -1    0    0    0    0  0.00000000000E+00  0.00000000000E+00  0.45593999997E+02  0.45594000000E+02  0.51100000000E-03 0.  1.
         11   -1    0    0    0    0 -0.00000000000E+00 -0.00000000000E+00 -0.45593999997E+02  0.45594000000E+02  0.51100000000E-03 0. -1.
    9900012    2    1    2    0    0  0.39576743563E+02 -0.13267449787E+02  0.16934272720E+02  0.46142318215E+02  0.10000004136E+02 0.  0.
         12    1    1    2    0    0 -0.39576743563E+02  0.13267449787E+02 -0.16934272720E+02  0.45045681785E+02  0.00000000000E+00 0. -1.
         11    1    3    3    0    0  0.14585946786E+02 -0.36322612340E+01  0.69677218316E+01  0.16567809544E+02  0.51100000000E-03 0. -1.
        -11    1    3    3    0    0  0.24213446133E+02 -0.75658144016E+01  0.10220461374E+02  0.27349412282E+02  0.51100000000E-03 0.  1.
         12    1    3    3    0    0  0.77735064420E+00 -0.20693741514E+01 -0.25391048555E+00  0.22250963883E+01  0.00000000000E+00 0. -1.
</event>
<event>
 7    1  0.2227287E-008  0.4614232E+02  0.7816164E-02  0.1320468E+00
        -11   -1    0    0    0    0  0.00000000000E+00  0.00000000000E+00  0.45593999997E+02  0.45594000000E+02  0.51100000000E-03 0.  1.
         11   -1    0    0    0    0 -0.00000000000E+00 -0.00000000000E+00 -0.45593999997E+02  0.45594000000E+02  0.51100000000E-03 0. -1.
    9900012    2    1    2    0    0  0.29328675780E+02  0.16562368522E+02  0.29910368155E+02  0.46142318773E+02  0.10000009227E+02 0.  0.
         12    1    1    2    0    0 -0.29328675780E+02 -0.16562368522E+02 -0.29910368155E+02  0.45045681227E+02  0.00000000000E+00 0. -1.
         11    1    3    3    0    0  0.36083783059E+01  0.34513675889E+01  0.14438425880E+01  0.51977893294E+01  0.51100000000E-03 0. -1.
        -11    1    3    3    0    0  0.46244847944E+01  0.50021070929E+01  0.60164425028E+01  0.90887026375E+01  0.51100000000E-03 0.  1.
        -12    1    3    3    0    0  0.21095812679E+02  0.81088938398E+01  0.22450083064E+02  0.31855826806E+02  0.00000000000E+00 0.  1.
</event>
<event>
 7    1  0.2227287E-008  0.4614232E+02  0.7816164E-02  0.1320468E+00
        -11   -1    0    0    0    0  0.00000000000E+00  0.00000000000E+00  0.45593999997E+02  0.45594000000E+02  0.51100000000E-03 0.  1.
         11   -1    0    0    0    0 -0.00000000000E+00 -0.00000000000E+00 -0.45593999997E+02  0.45594000000E+02  0.51100000000E-03 0. -1.
    9900012    2    1    2    0    0  0.19332328040E+02  0.24024373777E+02  0.32836018726E+02  0.46142316870E+02  0.99999918775E+01 0.  0.
         12    1    1    2    0    0 -0.19332328040E+02 -0.24024373777E+02 -0.32836018726E+02  0.45045683130E+02  0.00000000000E+00 0. -1.
         11    1    3    3    0    0  0.11384704701E+02  0.16920766395E+02  0.18266177311E+02  0.27378405182E+02  0.51100000000E-03 0. -1.
        -11    1    3    3    0    0  0.69958775089E+01  0.79181613377E+01  0.12849209422E+02  0.16635557223E+02  0.51100000000E-03 0.  1.
         12    1    3    3    0    0  0.95174583037E+00 -0.81455395551E+00  0.17206319938E+01  0.21283544653E+01  0.00000000000E+00 0. -1.
</event>
<event>
 7    1  0.2227287E-008  0.4614232E+02  0.7816164E-02  0.1320468E+00
        -11   -1    0    0    0    0  0.00000000000E+00  0.00000000000E+00  0.45593999997E+02  0.45594000000E+02  0.51100000000E-03 0.  1.
         11   -1    0    0    0    0 -0.00000000000E+00 -0.00000000000E+00 -0.45593999997E+02  0.45594000000E+02  0.51100000000E-03 0. -1.
    9900012    2    1    2    0    0 -0.22796553355E+02  0.14082139195E+02  0.36209446790E+02  0.46142317343E+02  0.99999961891E+01 0.  0.
         12    1    1    2    0    0  0.22796553355E+02 -0.14082139195E+02 -0.36209446790E+02  0.45045682657E+02  0.00000000000E+00 0. -1.
         11    1    3    3    0    0 -0.80929989100E+01  0.62089960978E+01  0.20508092991E+02  0.22904806096E+02  0.51100000000E-03 0. -1.
        -11    1    3    3    0    0 -0.97220671150E+01  0.68222864924E+01  0.94661141929E+01  0.15187807615E+02  0.51100000000E-03 0.  1.
         12    1    3    3    0    0 -0.49814873301E+01  0.10508566049E+01  0.62352396055E+01  0.80497036320E+01  0.00000000000E+00 0. -1.
</event>
<event>
 7    1  0.2227287E-008  0.4614232E+02  0.7816164E-02  0.1320468E+00
        -11   -1    0    0    0    0  0.00000000000E+00  0.00000000000E+00  0.45593999997E+02  0.45594000000E+02  0.51100000000E-03 0. -1.
         11   -1    0    0    0    0 -0.00000000000E+00 -0.00000000000E+00 -0.45593999997E+02  0.45594000000E+02  0.51100000000E-03 0.  1.
    9900012    2    1    2    0    0  0.17188377405E+01 -0.44785741348E+02 -0.45162481290E+01  0.46142317316E+02  0.99999959413E+01 0.  0.
         12    1    1    2    0    0 -0.17188377405E+01  0.44785741348E+02  0.45162481290E+01  0.45045682684E+02  0.00000000000E+00 0. -1.
         11    1    3    3    0    0  0.10311192852E+01 -0.20836666206E+02 -0.44846362643E+00  0.20866983141E+02  0.51100000000E-03 0. -1.
        -11    1    3    3    0    0  0.19762298910E+01 -0.21644969652E+02 -0.52849987944E+01  0.22368312595E+02  0.51100000000E-03 0.  1.
         12    1    3    3    0    0 -0.12885114357E+01 -0.23041054907E+01  0.12172142918E+01  0.29070215796E+01  0.00000000000E+00 0. -1.
</event>
<event>
 7    1  0.2227287E-008  0.4614232E+02  0.7816164E-02  0.1320468E+00
        -11   -1    0    0    0    0  0.00000000000E+00  0.00000000000E+00  0.45593999997E+02  0.45594000000E+02  0.51100000000E-03 0.  1.
         11   -1    0    0    0    0 -0.00000000000E+00 -0.00000000000E+00 -0.45593999997E+02  0.45594000000E+02  0.51100000000E-03 0. -1.
    9900012    2    1    2    0    0  0.23724500323E+02 -0.25188763002E+02  0.28840734913E+02  0.46142315551E+02  0.99999798490E+01 0.  0.
         12    1    1    2    0    0 -0.23724500323E+02  0.25188763002E+02 -0.28840734913E+02  0.45045684449E+02  0.00000000000E+00 0. -1.
         11    1    3    3    0    0  0.60965776943E+00 -0.48141042947E+01  0.40282696791E+01  0.63066821408E+01  0.51100000000E-03 0. -1.
        -11    1    3    3    0    0  0.96865951730E+01 -0.10242018422E+02  0.13813020016E+02  0.19736478653E+02  0.51100000000E-03 0.  1.
        -12    1    3    3    0    0  0.13428247380E+02 -0.10132640286E+02  0.10999445217E+02  0.20099154757E+02  0.00000000000E+00 0.  1.
</event>
<event>
 7    1  0.2227287E-008  0.4614232E+02  0.7816164E-02  0.1320468E+00
        -11   -1    0    0    0    0  0.00000000000E+00  0.00000000000E+00  0.45593999997E+02  0.45594000000E+02  0.51100000000E-03 0.  1.
         11   -1    0    0    0    0 -0.00000000000E+00 -0.00000000000E+00 -0.45593999997E+02  0.45594000000E+02  0.51100000000E-03 0. -1.
    9900012    2    1    2    0    0  0.32409323433E+02  0.26796754414E+02  0.16145686589E+02  0.46142317766E+02  0.10000000043E+02 0.  0.
         12    1    1    2    0    0 -0.32409323433E+02 -0.26796754414E+02 -0.16145686589E+02  0.45045682234E+02  0.00000000000E+00 0. -1.
         11    1    3    3    0    0  0.63993143576E+01  0.52328702830E+01 -0.14465751489E+00  0.82677132089E+01  0.51100000000E-03 0. -1.
        -11    1    3    3    0    0  0.95994270199E+01  0.59497594139E+01  0.33175156600E+01  0.11770919531E+02  0.51100000000E-03 0.  1.
        -12    1    3    3    0    0  0.16410582055E+02  0.15614124717E+02  0.12972828444E+02  0.26103685026E+02  0.00000000000E+00 0.  1.
</event>
<event>
 7    1  0.2227287E-008  0.4614232E+02  0.7816164E-02  0.1320468E+00
        -11   -1    0    0    0    0  0.00000000000E+00  0.00000000000E+00  0.45593999997E+02  0.45594000000E+02  0.51100000000E-03 0. -1.
         11   -1    0    0    0    0 -0.00000000000E+00 -0.00000000000E+00 -0.45593999997E+02  0.45594000000E+02  0.51100000000E-03 0.  1.
    9900012    2    1    2    0    0  0.35296245989E+01  0.30437947364E+02 -0.33017976794E+02  0.46142315621E+02  0.99999804862E+01 0.  0.
         12    1    1    2    0    0 -0.35296245989E+01 -0.30437947364E+02  0.33017976794E+02  0.45045684379E+02  0.00000000000E+00 0. -1.
         11    1    3    3    0    0  0.35293852116E+01  0.56681621509E+01 -0.32957104145E+01  0.74462292161E+01  0.51100000000E-03 0. -1.
        -11    1    3    3    0    0 -0.31026392149E+00  0.15313716812E+02 -0.18489350279E+02  0.24009628492E+02  0.51100000000E-03 0.  1.
         12    1    3    3    0    0  0.31050330877E+00  0.94560684013E+01 -0.11232916101E+02  0.14686457913E+02  0.00000000000E+00 0. -1.
</event>
<event>
 7    1  0.2227287E-008  0.4614232E+02  0.7816164E-02  0.1320468E+00
        -11   -1    0    0    0    0  0.00000000000E+00  0.00000000000E+00  0.45593999997E+02  0.45594000000E+02  0.51100000000E-03 0. -1.
         11   -1    0    0    0    0 -0.00000000000E+00 -0.00000000000E+00 -0.45593999997E+02  0.45594000000E+02  0.51100000000E-03 0.  1.
    9900012    2    1    2    0    0  0.10663323563E+02  0.38351409516E+02 -0.21084976977E+02  0.46142319459E+02  0.10000015486E+02 0.  0.
         12    1    1    2    0    0 -0.10663323563E+02 -0.38351409516E+02  0.21084976977E+02  0.45045680541E+02  0.00000000000E+00 0. -1.
         11    1    3    3    0    0 -0.20385091114E+00  0.76164752673E+00 -0.17758031064E+01  0.19429717143E+01  0.51100000000E-03 0. -1.
        -11    1    3    3    0    0  0.93233394033E-01  0.10745583676E+02 -0.39505245212E+01  0.11449144303E+02  0.51100000000E-03 0.  1.
         12    1    3    3    0    0  0.10773941081E+02  0.26844178313E+02 -0.15358649349E+02  0.32750203442E+02  0.00000000000E+00 0. -1.
</event>
<event>
 7    1  0.2227287E-008  0.4614232E+02  0.7816164E-02  0.1320468E+00
        -11   -1    0    0    0    0  0.00000000000E+00  0.00000000000E+00  0.45593999997E+02  0.45594000000E+02  0.51100000000E-03 0.  1.
         11   -1    0    0    0    0 -0.00000000000E+00 -0.00000000000E+00 -0.45593999997E+02  0.45594000000E+02  0.51100000000E-03 0. -1.
    9900012    2    1    2    0    0  0.38067487473E+02  0.23000401098E+02 -0.71387204743E+01  0.46142318929E+02  0.10000010649E+02 0.  0.
         12    1    1    2    0    0 -0.38067487473E+02 -0.23000401098E+02  0.71387204743E+01  0.45045681071E+02  0.00000000000E+00 0. -1.
         11    1    3    3    0    0  0.27964076057E+01  0.24333859319E+01 -0.31819208461E+01  0.48852720623E+01  0.51100000000E-03 0. -1.
        -11    1    3    3    0    0  0.24090429156E+02  0.13472242719E+02 -0.46801254267E+01  0.27995600995E+02  0.51100000000E-03 0.  1.
        -12    1    3    3    0    0  0.11180650711E+02  0.70947724473E+01  0.72332579846E+00  0.13261445872E+02  0.00000000000E+00 0.  1.
</event>
<event>
 7    1  0.2227287E-008  0.4614232E+02  0.7816164E-02  0.1320468E+00
        -11   -1    0    0    0    0  0.00000000000E+00  0.00000000000E+00  0.45593999997E+02  0.45594000000E+02  0.51100000000E-03 0.  1.
         11   -1    0    0    0    0 -0.00000000000E+00 -0.00000000000E+00 -0.45593999997E+02  0.45594000000E+02  0.51100000000E-03 0. -1.
    9900012    2    1    2    0    0 -0.74610648656E+01  0.11588905335E+02  0.42885233221E+02  0.46142318252E+02  0.10000004473E+02 0.  0.
         12    1    1    2    0    0  0.74610648656E+01 -0.11588905335E+02 -0.42885233221E+02  0.45045681748E+02  0.00000000000E+00 0. -1.
         11    1    3    3    0    0 -0.23515933704E+01 -0.37472719939E+00  0.34267168748E+01  0.41728648018E+01  0.51100000000E-03 0. -1.
        -11    1    3    3    0    0  0.23230962469E+00  0.19811933517E+01  0.19503836809E+01  0.27898192813E+01  0.51100000000E-03 0.  1.
        -12    1    3    3    0    0 -0.53417811199E+01  0.99824391823E+01  0.37508132665E+02  0.39179634169E+02  0.00000000000E+00 0.  1.
</event>
<event>
 7    1  0.2227287E-008  0.4614232E+02  0.7816164E-02  0.1320468E+00
        -11   -1    0    0    0    0  0.00000000000E+00  0.00000000000E+00  0.45593999997E+02  0.45594000000E+02  0.51100000000E-03 0.  1.
         11   -1    0    0    0    0 -0.00000000000E+00 -0.00000000000E+00 -0.45593999997E+02  0.45594000000E+02  0.51100000000E-03 0. -1.
    9900012    2    1    2    0    0  0.43913938960E+02 -0.92856988796E+01  0.38020090630E+01  0.46142317504E+02  0.99999976523E+01 0.  0.
         12    1    1    2    0    0 -0.43913938960E+02  0.92856988796E+01 -0.38020090630E+01  0.45045682496E+02  0.00000000000E+00 0. -1.
         11    1    3    3    0    0  0.73752313764E+01  0.18817119554E+01  0.92079271344E+00  0.76669901018E+01  0.51100000000E-03 0. -1.
        -11    1    3    3    0    0  0.11800902909E+02 -0.22802576170E+01 -0.11198078113E+00  0.12019709822E+02  0.51100000000E-03 0.  1.
        -12    1    3    3    0    0  0.24737804675E+02 -0.88871532180E+01  0.29931971306E+01  0.26455617579E+02  0.00000000000E+00 0.  1.
</event>
<event>
 7    1  0.2227287E-008  0.4614232E+02  0.7816164E-02  0.1320468E+00
        -11   -1    0    0    0    0  0.00000000000E+00  0.00000000000E+00  0.45593999997E+02  0.45594000000E+02  0.51100000000E-03 0. -1.
         11   -1    0    0    0    0 -0.00000000000E+00 -0.00000000000E+00 -0.45593999997E+02  0.45594000000E+02  0.51100000000E-03 0.  1.
    9900012    2    1    2    0    0 -0.88083885866E+01  0.14777547788E+02 -0.41631116544E+02  0.46142317711E+02  0.99999995472E+01 0.  0.
         12    1    1    2    0    0  0.88083885866E+01 -0.14777547788E+02  0.41631116544E+02  0.45045682289E+02  0.00000000000E+00 0. -1.
         11    1    3    3    0    0 -0.83502515969E+01  0.99648846058E+01 -0.23207626631E+02  0.26601119545E+02  0.51100000000E-03 0. -1.
        -11    1    3    3    0    0 -0.14089438894E+01  0.52694302718E+01 -0.15703299770E+02  0.16623647079E+02  0.51100000000E-03 0.  1.
         12    1    3    3    0    0  0.95080689966E+00 -0.45676708943E+00 -0.27201901429E+01  0.29175510875E+01  0.00000000000E+00 0. -1.
</event>
<event>
 7    1  0.2227287E-008  0.4614232E+02  0.7816164E-02  0.1320468E+00
        -11   -1    0    0    0    0  0.00000000000E+00  0.00000000000E+00  0.45593999997E+02  0.45594000000E+02  0.51100000000E-03 0.  1.
         11   -1    0    0    0    0 -0.00000000000E+00 -0.00000000000E+00 -0.45593999997E+02  0.45594000000E+02  0.51100000000E-03 0. -1.
    9900012    2    1    2    0    0 -0.53306488832E+01 -0.12190118353E+02  0.43036016279E+02  0.46142317630E+02  0.99999988067E+01 0.  0.
         12    1    1    2    0    0  0.53306488832E+01  0.12190118353E+02 -0.43036016279E+02  0.45045682370E+02  0.00000000000E+00 0. -1.
         11    1    3    3    0    0  0.57417395970E+00 -0.48644877185E+00 -0.21077473156E+00  0.78149497261E+00  0.51100000000E-03 0. -1.
        -11    1    3    3    0    0 -0.36102886260E+01 -0.30697517062E+01  0.15976058425E+02  0.16664093212E+02  0.51100000000E-03 0.  1.
         12    1    3    3    0    0 -0.22945342169E+01 -0.86339178748E+01  0.27270732585E+02  0.28696729446E+02  0.00000000000E+00 0. -1.
</event>
<event>
 7    1  0.2227287E-008  0.4614232E+02  0.7816164E-02  0.1320468E+00
        -11   -1    0    0    0    0  0.00000000000E+00  0.00000000000E+00  0.45593999997E+02  0.45594000000E+02  0.51100000000E-03 0. -1.
         11   -1    0    0    0    0 -0.00000000000E+00 -0.00000000000E+00 -0.45593999997E+02  0.45594000000E+02  0.51100000000E-03 0.  1.
    9900012    2    1    2    0    0 -0.22394878059E+02  0.69199277066E+01 -0.38466835574E+02  0.46142318722E+02  0.10000008763E+02 0.  0.
         12    1    1    2    0    0  0.22394878059E+02 -0.69199277066E+01  0.38466835574E+02  0.45045681278E+02  0.00000000000E+00 0. -1.
         11    1    3    3    0    0 -0.97609118998E+01  0.51729915074E+01 -0.16250680517E+02  0.19649932819E+02  0.51100000000E-03 0. -1.
        -11    1    3    3    0    0  0.56315475847E-01  0.15117054850E+01 -0.41186344527E+01  0.43876616691E+01  0.51100000000E-03 0.  1.
        -12    1    3    3    0    0 -0.12690281635E+02  0.23523071419E+00 -0.18097520604E+02  0.22104724234E+02  0.00000000000E+00 0.  1.
</event>
<event>
 7    1  0.2227287E-008  0.4614232E+02  0.7816164E-02  0.1320468E+00
        -11   -1    0    0    0    0  0.00000000000E+00  0.00000000000E+00  0.45593999997E+02  0.45594000000E+02  0.51100000000E-03 0.  1.
         11   -1    0    0    0    0 -0.00000000000E+00 -0.00000000000E+00 -0.45593999997E+02  0.45594000000E+02  0.51100000000E-03 0. -1.
    9900012    2    1    2    0    0 -0.37546544300E+02 -0.13698851625E+02  0.20777681636E+02  0.46142316756E+02  0.99999908381E+01 0.  0.
         12    1    1    2    0    0  0.37546544300E+02  0.13698851625E+02 -0.20777681636E+02  0.45045683244E+02  0.00000000000E+00 0. -1.
         11    1    3    3    0    0 -0.85723773254E+01 -0.12295386734E+00  0.50444727233E+01  0.99472345896E+01  0.51100000000E-03 0. -1.
        -11    1    3    3    0    0 -0.81659547107E+00  0.18530345563E+00 -0.42002944094E+00  0.93679801794E+00  0.51100000000E-03 0.  1.
        -12    1    3    3    0    0 -0.28157571503E+02 -0.13761201214E+02  0.16153238353E+02  0.35258284149E+02  0.00000000000E+00 0.  1.
</event>
<event>
 7    1  0.2227287E-008  0.4614232E+02  0.7816164E-02  0.1320468E+00
        -11   -1    0    0    0    0  0.00000000000E+00  0.00000000000E+00  0.45593999997E+02  0.45594000000E+02  0.51100000000E-03 0.  1.
         11   -1    0    0    0    0 -0.00000000000E+00 -0.00000000000E+00 -0.45593999997E+02  0.45594000000E+02  0.51100000000E-03 0. -1.
    9900012    2    1    2    0    0  0.37367155400E+02  0.21584306249E+02  0.12920020195E+02  0.46142317623E+02  0.99999987413E+01 0.  0.
         12    1    1    2    0    0 -0.37367155400E+02 -0.21584306249E+02 -0.12920020195E+02  0.45045682377E+02  0.00000000000E+00 0. -1.
         11    1    3    3    0    0  0.83709219613E+01  0.13173704282E+01  0.50252387266E+01  0.98519451809E+01  0.51100000000E-03 0. -1.
        -11    1    3    3    0    0  0.14271113327E+02  0.93264008428E+01  0.45273884161E+01  0.17639265132E+02  0.51100000000E-03 0.  1.
        -12    1    3    3    0    0  0.14725120112E+02  0.10940534978E+02  0.33673930522E+01  0.18651107310E+02  0.00000000000E+00 0.  1.
</event>
<event>
 7    1  0.2227287E-008  0.4614232E+02  0.7816164E-02  0.1320468E+00
        -11   -1    0    0    0    0  0.00000000000E+00  0.00000000000E+00  0.45593999997E+02  0.45594000000E+02  0.51100000000E-03 0.  1.
         11   -1    0    0    0    0 -0.00000000000E+00 -0.00000000000E+00 -0.45593999997E+02  0.45594000000E+02  0.51100000000E-03 0. -1.
    9900012    2    1    2    0    0 -0.30665434593E+02  0.25729391649E+02  0.20657762998E+02  0.46142316017E+02  0.99999840999E+01 0.  0.
         12    1    1    2    0    0  0.30665434593E+02 -0.25729391649E+02 -0.20657762998E+02  0.45045683983E+02  0.00000000000E+00 0. -1.
         11    1    3    3    0    0 -0.20946530616E+02  0.11910412095E+02  0.14078212051E+02  0.27907187532E+02  0.51100000000E-03 0.  1.
        -11    1    3    3    0    0 -0.16220282840E+01  0.37496071326E+01  0.15296619841E+01  0.43623841474E+01  0.51100000000E-03 0. -1.
         12    1    3    3    0    0 -0.80968756922E+01  0.10069372421E+02  0.50498889632E+01  0.13872744338E+02  0.00000000000E+00 0. -1.
</event>
<event>
 7    1  0.2227287E-008  0.4614232E+02  0.7816164E-02  0.1320468E+00
        -11   -1    0    0    0    0  0.00000000000E+00  0.00000000000E+00  0.45593999997E+02  0.45594000000E+02  0.51100000000E-03 0.  1.
         11   -1    0    0    0    0 -0.00000000000E+00 -0.00000000000E+00 -0.45593999997E+02  0.45594000000E+02  0.51100000000E-03 0. -1.
    9900012    2    1    2    0    0  0.11029361082E+02 -0.63540177683E+01  0.43209873171E+02  0.46142317774E+02  0.10000000121E+02 0.  0.
         12    1    1    2    0    0 -0.11029361082E+02  0.63540177683E+01 -0.43209873171E+02  0.45045682226E+02  0.00000000000E+00 0. -1.
         11    1    3    3    0    0  0.73213792425E+01 -0.46773938934E+01  0.20485496982E+02  0.22251655995E+02  0.51100000000E-03 0. -1.
        -11    1    3    3    0    0  0.48955575485E+01 -0.14798279526E+01  0.21746375511E+02  0.22339678212E+02  0.51100000000E-03 0.  1.
         12    1    3    3    0    0 -0.11875757092E+01 -0.19679592237E+00  0.97800067801E+00  0.15509835674E+01  0.00000000000E+00 0. -1.
</event>
<event>
 7    1  0.2227287E-008  0.4614232E+02  0.7816164E-02  0.1320468E+00
        -11   -1    0    0    0    0  0.00000000000E+00  0.00000000000E+00  0.45593999997E+02  0.45594000000E+02  0.51100000000E-03 0.  1.
         11   -1    0    0    0    0 -0.00000000000E+00 -0.00000000000E+00 -0.45593999997E+02  0.45594000000E+02  0.51100000000E-03 0. -1.
    9900012    2    1    2    0    0 -0.10355363549E+02 -0.38282061744E+02  0.21362668065E+02  0.46142318826E+02  0.10000009708E+02 0.  0.
         12    1    1    2    0    0  0.10355363549E+02  0.38282061744E+02 -0.21362668065E+02  0.45045681174E+02  0.00000000000E+00 0. -1.
         11    1    3    3    0    0 -0.19303700417E+01 -0.97070809494E+01  0.17288601569E+01  0.10047024772E+02  0.51100000000E-03 0. -1.
        -11    1    3    3    0    0 -0.58442670814E+01 -0.25550198453E+02  0.15993231710E+02  0.30704259631E+02  0.51100000000E-03 0.  1.
        -12    1    3    3    0    0 -0.25807264255E+01 -0.30247823418E+01  0.36405761981E+01  0.53910344233E+01  0.00000000000E+00 0.  1.
</event>
<event>
 7    1  0.2227287E-008  0.4614232E+02  0.7816164E-02  0.1320468E+00
        -11   -1    0    0    0    0  0.00000000000E+00  0.00000000000E+00  0.45593999997E+02  0.45594000000E+02  0.51100000000E-03 0.  1.
         11   -1    0    0    0    0 -0.00000000000E+00 -0.00000000000E+00 -0.45593999997E+02  0.45594000000E+02  0.51100000000E-03 0. -1.
    9900012    2    1    2    0    0 -0.45706749194E+01  0.18265417538E+02  0.40921838936E+02  0.46142318199E+02  0.10000003989E+02 0.  0.
         12    1    1    2    0    0  0.45706749194E+01 -0.18265417538E+02 -0.40921838936E+02  0.45045681801E+02  0.00000000000E+00 0. -1.
         11    1    3    3    0    0 -0.28868164783E+00  0.95069853743E+01  0.12813860385E+02  0.15958105346E+02  0.51100000000E-03 0.  1.
        -11    1    3    3    0    0 -0.11023716467E+01  0.59501373267E+01  0.21469457561E+02  0.22305984974E+02  0.51100000000E-03 0. -1.
        -12    1    3    3    0    0 -0.31796216248E+01  0.28082948368E+01  0.66385209900E+01  0.78782278783E+01  0.00000000000E+00 0.  1.
</event>
<event>
 7    1  0.2227287E-008  0.4614232E+02  0.7816164E-02  0.1320468E+00
        -11   -1    0    0    0    0  0.00000000000E+00  0.00000000000E+00  0.45593999997E+02  0.45594000000E+02  0.51100000000E-03 0. -1.
         11   -1    0    0    0    0 -0.00000000000E+00 -0.00000000000E+00 -0.45593999997E+02  0.45594000000E+02  0.51100000000E-03 0.  1.
    9900012    2    1    2    0    0 -0.33359771271E+02  0.46382549075E+01 -0.29911965905E+02  0.46142318163E+02  0.10000003667E+02 0.  0.
         12    1    1    2    0    0  0.33359771271E+02 -0.46382549075E+01  0.29911965905E+02  0.45045681837E+02  0.00000000000E+00 0. -1.
         11    1    3    3    0    0 -0.21559441666E+01 -0.35849593915E+00 -0.54009611305E-01  0.21862140533E+01  0.51100000000E-03 0. -1.
        -11    1    3    3    0    0 -0.20630848763E+02  0.12579253589E+01 -0.16057847587E+02  0.26173818336E+02  0.51100000000E-03 0.  1.
         12    1    3    3    0    0 -0.10572978342E+02  0.37388254877E+01 -0.13800108706E+02  0.17782285774E+02  0.00000000000E+00 0. -1.
</event>
<event>
 7    1  0.2227287E-008  0.4614232E+02  0.7816164E-02  0.1320468E+00
        -11   -1    0    0    0    0  0.00000000000E+00  0.00000000000E+00  0.45593999997E+02  0.45594000000E+02  0.51100000000E-03 0. -1.
         11   -1    0    0    0    0 -0.00000000000E+00 -0.00000000000E+00 -0.45593999997E+02  0.45594000000E+02  0.51100000000E-03 0.  1.
    9900012    2    1    2    0    0 -0.26514808030E+01 -0.34927206822E+02  0.28322664867E+02  0.46142317942E+02  0.10000001653E+02 0.  0.
         12    1    1    2    0    0  0.26514808030E+01  0.34927206822E+02 -0.28322664867E+02  0.45045682058E+02  0.00000000000E+00 0. -1.
         11    1    3    3    0    0  0.19949025976E+01 -0.38386993972E+01  0.50141735887E+01  0.66224758569E+01  0.51100000000E-03 0. -1.
        -11    1    3    3    0    0 -0.39967303840E+01 -0.25571280896E+02  0.16340847667E+02  0.30608619100E+02  0.51100000000E-03 0.  1.
        -12    1    3    3    0    0 -0.64965301665E+00 -0.55172265288E+01  0.69676436113E+01  0.89112229860E+01  0.00000000000E+00 0.  1.
</event>
<event>
 7    1  0.2227287E-008  0.4614232E+02  0.7816164E-02  0.1320468E+00
        -11   -1    0    0    0    0  0.00000000000E+00  0.00000000000E+00  0.45593999997E+02  0.45594000000E+02  0.51100000000E-03 0.  1.
         11   -1    0    0    0    0 -0.00000000000E+00 -0.00000000000E+00 -0.45593999997E+02  0.45594000000E+02  0.51100000000E-03 0. -1.
    9900012    2    1    2    0    0 -0.33918008399E+02 -0.21302828968E+02  0.20612415917E+02  0.46142317568E+02  0.99999982391E+01 0.  0.
         12    1    1    2    0    0  0.33918008399E+02  0.21302828968E+02 -0.20612415917E+02  0.45045682432E+02  0.00000000000E+00 0. -1.
         11    1    3    3    0    0 -0.23515179018E+01 -0.69159491751E+00 -0.18246338585E+00  0.24578920075E+01  0.51100000000E-03 0. -1.
        -11    1    3    3    0    0 -0.27803240040E+02 -0.15713540104E+02  0.19350162961E+02  0.37341187798E+02  0.51100000000E-03 0.  1.
        -12    1    3    3    0    0 -0.37632504576E+01 -0.48976939461E+01  0.14447163425E+01  0.63432377621E+01  0.00000000000E+00 0.  1.
</event>
<event>
 7    1  0.2227287E-008  0.4614232E+02  0.7816164E-02  0.1320468E+00
        -11   -1    0    0    0    0  0.00000000000E+00  0.00000000000E+00  0.45593999997E+02  0.45594000000E+02  0.51100000000E-03 0.  1.
         11   -1    0    0    0    0 -0.00000000000E+00 -0.00000000000E+00 -0.45593999997E+02  0.45594000000E+02  0.51100000000E-03 0. -1.
    9900012    2    1    2    0    0 -0.31261620306E+02  0.27427412524E+02  0.17307850212E+02  0.46142317178E+02  0.99999946812E+01 0.  0.
         12    1    1    2    0    0  0.31261620306E+02 -0.27427412524E+02 -0.17307850212E+02  0.45045682822E+02  0.00000000000E+00 0. -1.
         11    1    3    3    0    0 -0.21091632653E+01  0.52158949891E+00  0.30838647923E+01  0.37723795678E+01  0.51100000000E-03 0. -1.
        -11    1    3    3    0    0 -0.52005382182E+01  0.55125202043E+01  0.10210648478E+01  0.76469634788E+01  0.51100000000E-03 0.  1.
        -12    1    3    3    0    0 -0.23951918823E+02  0.21393302821E+02  0.13202920572E+02  0.34722974131E+02  0.00000000000E+00 0.  1.
</event>
<event>
 7    1  0.2227287E-008  0.4614232E+02  0.7816164E-02  0.1320468E+00
        -11   -1    0    0    0    0  0.00000000000E+00  0.00000000000E+00  0.45593999997E+02  0.45594000000E+02  0.51100000000E-03 0.  1.
         11   -1    0    0    0    0 -0.00000000000E+00 -0.00000000000E+00 -0.45593999997E+02  0.45594000000E+02  0.51100000000E-03 0. -1.
    9900012    2    1    2    0    0 -0.22988455886E+02  0.62507538830E+01  0.38230515933E+02  0.46142319001E+02  0.10000011310E+02 0.  0.
         12    1    1    2    0    0  0.22988455886E+02 -0.62507538830E+01 -0.38230515933E+02  0.45045680999E+02  0.00000000000E+00 0. -1.
         11    1    3    3    0    0 -0.59049599375E+01  0.16565816999E+00  0.83263760563E+01  0.10209041727E+02  0.51100000000E-03 0. -1.
        -11    1    3    3    0    0 -0.10909225864E+02  0.13138559914E+01  0.11312455396E+02  0.15770512796E+02  0.51100000000E-03 0.  1.
         12    1    3    3    0    0 -0.61742700846E+01  0.47712397216E+01  0.18591684481E+02  0.20162764478E+02  0.00000000000E+00 0. -1.
</event>
<event>
 7    1  0.2227287E-008  0.4614232E+02  0.7816164E-02  0.1320468E+00
        -11   -1    0    0    0    0  0.00000000000E+00  0.00000000000E+00  0.45593999997E+02  0.45594000000E+02  0.51100000000E-03 0. -1.
         11   -1    0    0    0    0 -0.00000000000E+00 -0.00000000000E+00 -0.45593999997E+02  0.45594000000E+02  0.51100000000E-03 0.  1.
    9900012    2    1    2    0    0  0.28493062497E+02  0.34691881485E+02 -0.37057059584E+01  0.46142317543E+02  0.99999980072E+01 0.  0.
         12    1    1    2    0    0 -0.28493062497E+02 -0.34691881485E+02  0.37057059584E+01  0.45045682457E+02  0.00000000000E+00 0. -1.
         11    1    3    3    0    0  0.14266830792E+02  0.16778397613E+02 -0.10901036719E+01  0.22050973076E+02  0.51100000000E-03 0. -1.
        -11    1    3    3    0    0  0.70323746440E+01  0.39989838996E+01  0.55746694822E+00  0.81090649906E+01  0.51100000000E-03 0.  1.
         12    1    3    3    0    0  0.71938570608E+01  0.13914499972E+02 -0.31730692347E+01  0.15982279476E+02  0.00000000000E+00 0. -1.
</event>
<event>
 7    1  0.2227287E-008  0.4614232E+02  0.7816164E-02  0.1320468E+00
        -11   -1    0    0    0    0  0.00000000000E+00  0.00000000000E+00  0.45593999997E+02  0.45594000000E+02  0.51100000000E-03 0.  1.
         11   -1    0    0    0    0 -0.00000000000E+00 -0.00000000000E+00 -0.45593999997E+02  0.45594000000E+02  0.51100000000E-03 0. -1.
    9900012    2    1    2    0    0 -0.75677318283E+01 -0.35762817527E+02  0.26322305673E+02  0.46142318093E+02  0.10000003025E+02 0.  0.
         12    1    1    2    0    0  0.75677318283E+01  0.35762817527E+02 -0.26322305673E+02  0.45045681907E+02  0.00000000000E+00 0. -1.
         11    1    3    3    0    0  0.14062947846E+01 -0.34606258852E+01  0.15796231005E+01  0.40557127535E+01  0.51100000000E-03 0. -1.
        -11    1    3    3    0    0 -0.63375572193E+01 -0.14529438516E+02  0.91885728408E+01  0.18322092845E+02  0.51100000000E-03 0.  1.
        -12    1    3    3    0    0 -0.26364693936E+01 -0.17772753126E+02  0.15554109732E+02  0.23764512494E+02  0.00000000000E+00 0.  1.
</event>
<event>
 7    1  0.2227287E-008  0.4614232E+02  0.7816164E-02  0.1320468E+00
        -11   -1    0    0    0    0  0.00000000000E+00  0.00000000000E+00  0.45593999997E+02  0.45594000000E+02  0.51100000000E-03 0. -1.
         11   -1    0    0    0    0 -0.00000000000E+00 -0.00000000000E+00 -0.45593999997E+02  0.45594000000E+02  0.51100000000E-03 0.  1.
    9900012    2    1    2    0    0 -0.39069526641E+02  0.21161963886E+02  0.74065551133E+01  0.46142315566E+02  0.99999799842E+01 0.  0.
         12    1    1    2    0    0  0.39069526641E+02 -0.21161963886E+02 -0.74065551133E+01  0.45045684434E+02  0.00000000000E+00 0. -1.
         11    1    3    3    0    0 -0.49752805379E+01  0.40025819618E+01  0.23392352273E+01  0.68004485515E+01  0.51100000000E-03 0. -1.
        -11    1    3    3    0    0 -0.21201481712E+02  0.14921723980E+02  0.35816395464E+01  0.26172290986E+02  0.51100000000E-03 0.  1.
         12    1    3    3    0    0 -0.12892764391E+02  0.22376579443E+01  0.14856803396E+01  0.13169576029E+02  0.00000000000E+00 0. -1.
</event>
<event>
 7    1  0.2227287E-008  0.4614232E+02  0.7816164E-02  0.1320468E+00
        -11   -1    0    0    0    0  0.00000000000E+00  0.00000000000E+00  0.45593999997E+02  0.45594000000E+02  0.51100000000E-03 0.  1.
         11   -1    0    0    0    0 -0.00000000000E+00 -0.00000000000E+00 -0.45593999997E+02  0.45594000000E+02  0.51100000000E-03 0. -1.
    9900012    2    1    2    0    0 -0.74050058519E+01 -0.18549032878E+02  0.40375894447E+02  0.46142316691E+02  0.99999902420E+01 0.  0.
         12    1    1    2    0    0  0.74050058519E+01  0.18549032878E+02 -0.40375894447E+02  0.45045683309E+02  0.00000000000E+00 0. -1.
         11    1    3    3    0    0 -0.92561602372E+00 -0.34222087761E+01  0.11215650639E+02  0.11762614397E+02  0.51100000000E-03 0. -1.
        -11    1    3    3    0    0  0.57126586954E+00 -0.64918574849E+01  0.15025258274E+02  0.16377696564E+02  0.51100000000E-03 0.  1.
         12    1    3    3    0    0 -0.70506556977E+01 -0.86349666167E+01  0.14134985534E+02  0.18002005730E+02  0.00000000000E+00 0. -1.
</event>
<event>
 7    1  0.2227287E-008  0.4614232E+02  0.7816164E-02  0.1320468E+00
        -11   -1    0    0    0    0  0.00000000000E+00  0.00000000000E+00  0.45593999997E+02  0.45594000000E+02  0.51100000000E-03 0.  1.
         11   -1    0    0    0    0 -0.00000000000E+00 -0.00000000000E+00 -0.45593999997E+02  0.45594000000E+02  0.51100000000E-03 0. -1.
    9900012    2    1    2    0    0  0.38709343744E+02 -0.41871838892E+01  0.22653204977E+02  0.46142317657E+02  0.99999990533E+01 0.  0.
         12    1    1    2    0    0 -0.38709343744E+02  0.41871838892E+01 -0.22653204977E+02  0.45045682343E+02  0.00000000000E+00 0. -1.
         11    1    3    3    0    0  0.71945398380E+01 -0.33954542555E+01  0.73172786517E+01  0.10808935202E+02  0.51100000000E-03 0. -1.
        -11    1    3    3    0    0  0.21354748698E+02 -0.12842065669E+01  0.82140680051E+01  0.22916050967E+02  0.51100000000E-03 0.  1.
        -12    1    3    3    0    0  0.10160055208E+02  0.49247693312E+00  0.71218583199E+01  0.12417331488E+02  0.00000000000E+00 0.  1.
</event>
<event>
 7    1  0.2227287E-008  0.4614232E+02  0.7816164E-02  0.1320468E+00
        -11   -1    0    0    0    0  0.00000000000E+00  0.00000000000E+00  0.45593999997E+02  0.45594000000E+02  0.51100000000E-03 0. -1.
         11   -1    0    0    0    0 -0.00000000000E+00 -0.00000000000E+00 -0.45593999997E+02  0.45594000000E+02  0.51100000000E-03 0.  1.
    9900012    2    1    2    0    0  0.14374097326E+02  0.16330034232E+02 -0.39443995438E+02  0.46142317987E+02  0.10000002056E+02 0.  0.
         12    1    1    2    0    0 -0.14374097326E+02 -0.16330034232E+02  0.39443995438E+02  0.45045682013E+02  0.00000000000E+00 0. -1.
         11    1    3    3    0    0  0.97272148515E+00  0.52715297935E+00 -0.17524961349E+00  0.11201741112E+01  0.51100000000E-03 0. -1.
        -11    1    3    3    0    0  0.44410829396E+01  0.61340234266E+01 -0.22196669252E+02  0.23452965425E+02  0.51100000000E-03 0.  1.
        -12    1    3    3    0    0  0.89602929010E+01  0.96688578259E+01 -0.17072076572E+02  0.21569178450E+02  0.00000000000E+00 0.  1.
</event>
<event>
 7    1  0.2227287E-008  0.4614232E+02  0.7816164E-02  0.1320468E+00
        -11   -1    0    0    0    0  0.00000000000E+00  0.00000000000E+00  0.45593999997E+02  0.45594000000E+02  0.51100000000E-03 0. -1.
         11   -1    0    0    0    0 -0.00000000000E+00 -0.00000000000E+00 -0.45593999997E+02  0.45594000000E+02  0.51100000000E-03 0.  1.
    9900012    2    1    2    0    0  0.10663870148E+02  0.36446604932E+02 -0.24228916385E+02  0.46142317335E+02  0.99999961118E+01 0.  0.
         12    1    1    2    0    0 -0.10663870148E+02 -0.36446604932E+02  0.24228916385E+02  0.45045682665E+02  0.00000000000E+00 0. -1.
         11    1    3    3    0    0  0.29531400087E+01  0.38612495505E+01 -0.39559435524E+01  0.62673577888E+01  0.51100000000E-03 0. -1.
        -11    1    3    3    0    0  0.66517879847E+01  0.13741604827E+02 -0.69598920578E+01  0.16778500658E+02  0.51100000000E-03 0.  1.
         12    1    3    3    0    0  0.10589421545E+01  0.18843750554E+02 -0.13313080775E+02  0.23096458888E+02  0.00000000000E+00 0. -1.
</event>
<event>
 7    1  0.2227287E-008  0.4614232E+02  0.7816164E-02  0.1320468E+00
        -11   -1    0    0    0    0  0.00000000000E+00  0.00000000000E+00  0.45593999997E+02  0.45594000000E+02  0.51100000000E-03 0. -1.
         11   -1    0    0    0    0 -0.00000000000E+00 -0.00000000000E+00 -0.45593999997E+02  0.45594000000E+02  0.51100000000E-03 0.  1.
    9900012    2    1    2    0    0 -0.37333354905E+01 -0.32056006263E+01 -0.44776107434E+02  0.46142318007E+02  0.10000002243E+02 0.  0.
         12    1    1    2    0    0  0.37333354905E+01  0.32056006263E+01  0.44776107434E+02  0.45045681993E+02  0.00000000000E+00 0. -1.
         11    1    3    3    0    0 -0.17038611348E+01 -0.11394171681E+01 -0.27623889016E+01  0.34397975164E+01  0.51100000000E-03 0. -1.
        -11    1    3    3    0    0 -0.35471517997E+01 -0.26605094785E+01 -0.15050016568E+02  0.15689601510E+02  0.51100000000E-03 0.  1.
        -12    1    3    3    0    0  0.15176774440E+01  0.59432602033E+00 -0.26963701964E+02  0.27012918981E+02  0.00000000000E+00 0.  1.
</event>
<event>
 7    1  0.2227287E-008  0.4614232E+02  0.7816164E-02  0.1320468E+00
        -11   -1    0    0    0    0  0.00000000000E+00  0.00000000000E+00  0.45593999997E+02  0.45594000000E+02  0.51100000000E-03 0.  1.
         11   -1    0    0    0    0 -0.00000000000E+00 -0.00000000000E+00 -0.45593999997E+02  0.45594000000E+02  0.51100000000E-03 0. -1.
    9900012    2    1    2    0    0  0.43319222941E+02  0.27339070031E+01 -0.12045090150E+02  0.46142317405E+02  0.99999967507E+01 0.  0.
         12    1    1    2    0    0 -0.43319222941E+02 -0.27339070031E+01  0.12045090150E+02  0.45045682595E+02  0.00000000000E+00 0. -1.
         11    1    3    3    0    0  0.24333683077E+02  0.12398782036E+01 -0.88197452378E+01  0.25912416645E+02  0.51100000000E-03 0. -1.
        -11    1    3    3    0    0  0.44358459320E+01 -0.22004926834E+01 -0.55271668811E+00  0.49824083715E+01  0.51100000000E-03 0.  1.
        -12    1    3    3    0    0  0.14549693932E+02  0.36945214829E+01 -0.26726282244E+01  0.15247492389E+02  0.00000000000E+00 0.  1.
</event>
<event>
 7    1  0.2227287E-008  0.4614231E+02  0.7816164E-02  0.1320468E+00
        -11   -1    0    0    0    0  0.00000000000E+00  0.00000000000E+00  0.45593999997E+02  0.45594000000E+02  0.51100000000E-03 0. -1.
         11   -1    0    0    0    0 -0.00000000000E+00 -0.00000000000E+00 -0.45593999997E+02  0.45594000000E+02  0.51100000000E-03 0.  1.
    9900012    2    1    2    0    0 -0.24308553728E+02  0.35477753598E+02 -0.13399157018E+02  0.46142309934E+02  0.99999286252E+01 0.  0.
         12    1    1    2    0    0  0.24308553728E+02 -0.35477753598E+02  0.13399157018E+02  0.45045690066E+02  0.00000000000E+00 0. -1.
         11    1    3    3    0    0 -0.43753590504E+01  0.73820976983E+01 -0.43894666034E+01  0.96388044160E+01  0.51100000000E-03 0.  1.
        -11    1    3    3    0    0 -0.18972104929E+01  0.81615664137E+01 -0.91599076606E+00  0.84290932682E+01  0.51100000000E-03 0. -1.
        -12    1    3    3    0    0 -0.18035984185E+02  0.19934089486E+02 -0.80936996485E+01  0.28074412250E+02  0.00000000000E+00 0.  1.
</event>
<event>
 7    1  0.2227287E-008  0.4614232E+02  0.7816164E-02  0.1320468E+00
        -11   -1    0    0    0    0  0.00000000000E+00  0.00000000000E+00  0.45593999997E+02  0.45594000000E+02  0.51100000000E-03 0. -1.
         11   -1    0    0    0    0 -0.00000000000E+00 -0.00000000000E+00 -0.45593999997E+02  0.45594000000E+02  0.51100000000E-03 0.  1.
    9900012    2    1    2    0    0  0.28597432599E+01  0.30709685273E+02 -0.32830635481E+02  0.46142317330E+02  0.99999960730E+01 0.  0.
         12    1    1    2    0    0 -0.28597432599E+01 -0.30709685273E+02  0.32830635481E+02  0.45045682670E+02  0.00000000000E+00 0. -1.
         11    1    3    3    0    0  0.29819456215E+01  0.19162046969E+02 -0.20985706970E+02  0.28574043134E+02  0.51100000000E-03 0.  1.
        -11    1    3    3    0    0 -0.26624040472E+01  0.30103399319E+01 -0.29951340180E+01  0.50121222913E+01  0.51100000000E-03 0. -1.
         12    1    3    3    0    0  0.25402016855E+01  0.85372983729E+01 -0.88497944926E+01  0.12556151905E+02  0.00000000000E+00 0. -1.
</event>
<event>
 7    1  0.2227287E-008  0.4614232E+02  0.7816164E-02  0.1320468E+00
        -11   -1    0    0    0    0  0.00000000000E+00  0.00000000000E+00  0.45593999997E+02  0.45594000000E+02  0.51100000000E-03 0. -1.
         11   -1    0    0    0    0 -0.00000000000E+00 -0.00000000000E+00 -0.45593999997E+02  0.45594000000E+02  0.51100000000E-03 0.  1.
    9900012    2    1    2    0    0  0.36656717537E+02 -0.18482966389E+02 -0.18541262930E+02  0.46142318540E+02  0.10000007104E+02 0.  0.
         12    1    1    2    0    0 -0.36656717537E+02  0.18482966389E+02  0.18541262930E+02  0.45045681460E+02  0.00000000000E+00 0. -1.
         11    1    3    3    0    0  0.26037001375E+01  0.38790030936E+00 -0.31902713497E+01  0.41361277303E+01  0.51100000000E-03 0. -1.
        -11    1    3    3    0    0  0.33780437876E+01 -0.24060983009E+01 -0.27745435808E+01  0.49898478140E+01  0.51100000000E-03 0.  1.
         12    1    3    3    0    0  0.30674973612E+02 -0.16464768398E+02 -0.12576448000E+02  0.37016342996E+02  0.00000000000E+00 0. -1.
</event>
<event>
 7    1  0.2227287E-008  0.4614232E+02  0.7816164E-02  0.1320468E+00
        -11   -1    0    0    0    0  0.00000000000E+00  0.00000000000E+00  0.45593999997E+02  0.45594000000E+02  0.51100000000E-03 0.  1.
         11   -1    0    0    0    0 -0.00000000000E+00 -0.00000000000E+00 -0.45593999997E+02  0.45594000000E+02  0.51100000000E-03 0. -1.
    9900012    2    1    2    0    0  0.21987637105E+01  0.99490632870E+01  0.43878185102E+02  0.46142317077E+02  0.99999937612E+01 0.  0.
         12    1    1    2    0    0 -0.21987637105E+01 -0.99490632870E+01 -0.43878185102E+02  0.45045682923E+02  0.00000000000E+00 0. -1.
         11    1    3    3    0    0 -0.20222997540E+01  0.47416441860E+01  0.15076478791E+02  0.15933395711E+02  0.51100000000E-03 0. -1.
        -11    1    3    3    0    0  0.47304770211E+01  0.20355690321E+01  0.23075112015E+02  0.23642794863E+02  0.51100000000E-03 0.  1.
        -12    1    3    3    0    0 -0.50941355659E+00  0.31718500689E+01  0.57265942954E+01  0.65661265032E+01  0.00000000000E+00 0.  1.
</event>
<event>
 7    1  0.2227287E-008  0.4614232E+02  0.7816164E-02  0.1320468E+00
        -11   -1    0    0    0    0  0.00000000000E+00  0.00000000000E+00  0.45593999997E+02  0.45594000000E+02  0.51100000000E-03 0.  1.
         11   -1    0    0    0    0 -0.00000000000E+00 -0.00000000000E+00 -0.45593999997E+02  0.45594000000E+02  0.51100000000E-03 0. -1.
    9900012    2    1    2    0    0  0.33485569552E+02  0.16845928535E+02  0.24980889178E+02  0.46142317625E+02  0.99999987633E+01 0.  0.
         12    1    1    2    0    0 -0.33485569552E+02 -0.16845928535E+02 -0.24980889178E+02  0.45045682375E+02  0.00000000000E+00 0. -1.
         11    1    3    3    0    0  0.26999027469E+02  0.10622864517E+02  0.22028275728E+02  0.36428528197E+02  0.51100000000E-03 0.  1.
        -11    1    3    3    0    0 -0.24554976338E-01  0.95025597091E-02 -0.18161596551E+00  0.18351530060E+00  0.51100000000E-03 0. -1.
        -12    1    3    3    0    0  0.65110970601E+01  0.62135614582E+01  0.31342294160E+01  0.95302741279E+01  0.00000000000E+00 0.  1.
</event>
<event>
 7    1  0.2227287E-008  0.4614232E+02  0.7816164E-02  0.1320468E+00
        -11   -1    0    0    0    0  0.00000000000E+00  0.00000000000E+00  0.45593999997E+02  0.45594000000E+02  0.51100000000E-03 0.  1.
         11   -1    0    0    0    0 -0.00000000000E+00 -0.00000000000E+00 -0.45593999997E+02  0.45594000000E+02  0.51100000000E-03 0. -1.
    9900012    2    1    2    0    0  0.44479632146E+02  0.29726136319E+01  0.64683423416E+01  0.46142316962E+02  0.99999927159E+01 0.  0.
         12    1    1    2    0    0 -0.44479632146E+02 -0.29726136319E+01 -0.64683423416E+01  0.45045683038E+02  0.00000000000E+00 0. -1.
         11    1    3    3    0    0  0.35401424393E+02 -0.72100001393E+00  0.60359711725E+01  0.35919543961E+02  0.51100000000E-03 0. -1.
        -11    1    3    3    0    0 -0.13876224123E+00 -0.15099732134E+00  0.10581815261E+00  0.23076588393E+00  0.51100000000E-03 0.  1.
        -12    1    3    3    0    0  0.92169699943E+01  0.38446109672E+01  0.32655301641E+00  0.99920071175E+01  0.00000000000E+00 0.  1.
</event>
<event>
 7    1  0.2227287E-008  0.4614232E+02  0.7816164E-02  0.1320468E+00
        -11   -1    0    0    0    0  0.00000000000E+00  0.00000000000E+00  0.45593999997E+02  0.45594000000E+02  0.51100000000E-03 0.  1.
         11   -1    0    0    0    0 -0.00000000000E+00 -0.00000000000E+00 -0.45593999997E+02  0.45594000000E+02  0.51100000000E-03 0. -1.
    9900012    2    1    2    0    0 -0.22643153212E+02 -0.36312114415E+01  0.38771321616E+02  0.46142318034E+02  0.10000002488E+02 0.  0.
         12    1    1    2    0    0  0.22643153212E+02  0.36312114415E+01 -0.38771321616E+02  0.45045681966E+02  0.00000000000E+00 0. -1.
         11    1    3    3    0    0 -0.13548982707E+02 -0.34881310939E+01  0.27049021699E+02  0.30453104375E+02  0.51100000000E-03 0. -1.
        -11    1    3    3    0    0 -0.40472976891E+01 -0.26023260653E+01  0.55601099439E+01  0.73530634694E+01  0.51100000000E-03 0.  1.
         12    1    3    3    0    0 -0.50468728162E+01  0.24592457177E+01  0.61621899732E+01  0.83361501899E+01  0.00000000000E+00 0. -1.
</event>
<event>
 7    1  0.2227287E-008  0.4614232E+02  0.7816164E-02  0.1320468E+00
        -11   -1    0    0    0    0  0.00000000000E+00  0.00000000000E+00  0.45593999997E+02  0.45594000000E+02  0.51100000000E-03 0.  1.
         11   -1    0    0    0    0 -0.00000000000E+00 -0.00000000000E+00 -0.45593999997E+02  0.45594000000E+02  0.51100000000E-03 0. -1.
    9900012    2    1    2    0    0 -0.39608462923E+02 -0.15843282994E+02  0.14466277810E+02  0.46142321574E+02  0.10000034771E+02 0.  0.
         12    1    1    2    0    0  0.39608462923E+02  0.15843282994E+02 -0.14466277810E+02  0.45045678426E+02  0.00000000000E+00 0. -1.
         11    1    3    3    0    0 -0.83019944297E+01 -0.51622049813E+01  0.32058099296E+01  0.10288279222E+02  0.51100000000E-03 0. -1.
        -11    1    3    3    0    0 -0.29574954079E+02 -0.11685297164E+02  0.95002668870E+01  0.33188539434E+02  0.51100000000E-03 0.  1.
         12    1    3    3    0    0 -0.17315144144E+01  0.10042191512E+01  0.17602009934E+01  0.26655029184E+01  0.00000000000E+00 0. -1.
</event>
<event>
 7    1  0.2227287E-008  0.4614232E+02  0.7816164E-02  0.1320468E+00
        -11   -1    0    0    0    0  0.00000000000E+00  0.00000000000E+00  0.45593999997E+02  0.45594000000E+02  0.51100000000E-03 0.  1.
         11   -1    0    0    0    0 -0.00000000000E+00 -0.00000000000E+00 -0.45593999997E+02  0.45594000000E+02  0.51100000000E-03 0. -1.
    9900012    2    1    2    0    0 -0.30051880769E+02  0.11041362917E+02  0.31687320027E+02  0.46142317817E+02  0.10000000514E+02 0.  0.
         12    1    1    2    0    0  0.30051880769E+02 -0.11041362917E+02 -0.31687320027E+02  0.45045682183E+02  0.00000000000E+00 0. -1.
         11    1    3    3    0    0 -0.27650622457E+01 -0.95102431548E+00  0.41534395366E+01  0.50794760277E+01  0.51100000000E-03 0. -1.
        -11    1    3    3    0    0 -0.15125066023E+01  0.19770677239E+01  0.83601308907E+00  0.26259076817E+01  0.51100000000E-03 0.  1.
        -12    1    3    3    0    0 -0.25774311921E+02  0.10015319509E+02  0.26697867401E+02  0.38436934108E+02  0.00000000000E+00 0.  1.
</event>
<event>
 7    1  0.2227287E-008  0.4614232E+02  0.7816164E-02  0.1320468E+00
        -11   -1    0    0    0    0  0.00000000000E+00  0.00000000000E+00  0.45593999997E+02  0.45594000000E+02  0.51100000000E-03 0.  1.
         11   -1    0    0    0    0 -0.00000000000E+00 -0.00000000000E+00 -0.45593999997E+02  0.45594000000E+02  0.51100000000E-03 0. -1.
    9900012    2    1    2    0    0  0.11485289496E+02  0.12035195622E+02  0.41861147393E+02  0.46142317970E+02  0.10000001907E+02 0.  0.
         12    1    1    2    0    0 -0.11485289496E+02 -0.12035195622E+02 -0.41861147393E+02  0.45045682030E+02  0.00000000000E+00 0. -1.
         11    1    3    3    0    0  0.41304216296E+01  0.17666689878E+01  0.96600452612E+01  0.10653542925E+02  0.51100000000E-03 0. -1.
        -11    1    3    3    0    0  0.34314495256E+01  0.55610227546E+01  0.25850400810E+02  0.26663515189E+02  0.51100000000E-03 0.  1.
         12    1    3    3    0    0  0.39234183404E+01  0.47075038791E+01  0.63507013220E+01  0.88252598561E+01  0.00000000000E+00 0. -1.
</event>
<event>
 7    1  0.2227287E-008  0.4614232E+02  0.7816164E-02  0.1320468E+00
        -11   -1    0    0    0    0  0.00000000000E+00  0.00000000000E+00  0.45593999997E+02  0.45594000000E+02  0.51100000000E-03 0.  1.
         11   -1    0    0    0    0 -0.00000000000E+00 -0.00000000000E+00 -0.45593999997E+02  0.45594000000E+02  0.51100000000E-03 0. -1.
    9900012    2    1    2    0    0 -0.32981805830E+02 -0.26608509585E+02  0.15274198214E+02  0.46142318418E+02  0.10000005988E+02 0.  0.
         12    1    1    2    0    0  0.32981805830E+02  0.26608509585E+02 -0.15274198214E+02  0.45045681582E+02  0.00000000000E+00 0. -1.
         11    1    3    3    0    0 -0.15924436091E+02 -0.17244258925E+02  0.57576499841E+01  0.24168215993E+02  0.51100000000E-03 0. -1.
        -11    1    3    3    0    0 -0.31672421349E+01 -0.34215908531E+01  0.16906715034E+01  0.49595440416E+01  0.51100000000E-03 0.  1.
         12    1    3    3    0    0 -0.13890127604E+02 -0.59426598068E+01  0.78258767266E+01  0.17014558384E+02  0.00000000000E+00 0. -1.
</event>
<event>
 7    1  0.2227287E-008  0.4614232E+02  0.7816164E-02  0.1320468E+00
        -11   -1    0    0    0    0  0.00000000000E+00  0.00000000000E+00  0.45593999997E+02  0.45594000000E+02  0.51100000000E-03 0.  1.
         11   -1    0    0    0    0 -0.00000000000E+00 -0.00000000000E+00 -0.45593999997E+02  0.45594000000E+02  0.51100000000E-03 0. -1.
    9900012    2    1    2    0    0 -0.25165642868E+02  0.31596035307E+02  0.19937262996E+02  0.46142317811E+02  0.10000000458E+02 0.  0.
         12    1    1    2    0    0  0.25165642868E+02 -0.31596035307E+02 -0.19937262996E+02  0.45045682189E+02  0.00000000000E+00 0. -1.
         11    1    3    3    0    0 -0.12813902709E+02  0.11979127207E+02  0.73610632076E+01  0.19023165959E+02  0.51100000000E-03 0. -1.
        -11    1    3    3    0    0 -0.10403896273E+01  0.19899166870E+01  0.37930808679E+01  0.44079067287E+01  0.51100000000E-03 0.  1.
         12    1    3    3    0    0 -0.11311350532E+02  0.17626991413E+02  0.87831189204E+01  0.22711245124E+02  0.00000000000E+00 0. -1.
</event>
<event>
 7    1  0.2227287E-008  0.4614232E+02  0.7816164E-02  0.1320468E+00
        -11   -1    0    0    0    0  0.00000000000E+00  0.00000000000E+00  0.45593999997E+02  0.45594000000E+02  0.51100000000E-03 0.  1.
         11   -1    0    0    0    0 -0.00000000000E+00 -0.00000000000E+00 -0.45593999997E+02  0.45594000000E+02  0.51100000000E-03 0. -1.
    9900012    2    1    2    0    0  0.19571576028E+02 -0.24545704663E+02  0.32304415144E+02  0.46142318260E+02  0.10000004551E+02 0.  0.
         12    1    1    2    0    0 -0.19571576028E+02  0.24545704663E+02 -0.32304415144E+02  0.45045681740E+02  0.00000000000E+00 0. -1.
         11    1    3    3    0    0  0.43414695409E+01 -0.44405325376E+01  0.31554689658E+01  0.69658934565E+01  0.51100000000E-03 0. -1.
        -11    1    3    3    0    0  0.14088859984E+02 -0.20566953426E+02  0.28035631855E+02  0.37516559046E+02  0.51100000000E-03 0.  1.
         12    1    3    3    0    0  0.11412465031E+01  0.46178130133E+00  0.11133143230E+01  0.16598657575E+01  0.00000000000E+00 0. -1.
</event>
<event>
 7    1  0.2227287E-008  0.4614231E+02  0.7816164E-02  0.1320468E+00
        -11   -1    0    0    0    0  0.00000000000E+00  0.00000000000E+00  0.45593999997E+02  0.45594000000E+02  0.51100000000E-03 0.  1.
         11   -1    0    0    0    0 -0.00000000000E+00 -0.00000000000E+00 -0.45593999997E+02  0.45594000000E+02  0.51100000000E-03 0. -1.
    9900012    2    1    2    0    0 -0.43889187482E+02  0.89015404414E+01  0.48596687773E+01  0.46142305636E+02  0.99998894346E+01 0.  0.
         12    1    1    2    0    0  0.43889187482E+02 -0.89015404414E+01 -0.48596687773E+01  0.45045694364E+02  0.00000000000E+00 0. -1.
         11    1    3    3    0    0 -0.16563622122E+02  0.14277457983E+01  0.16473943647E+01  0.16706464147E+02  0.51100000000E-03 0. -1.
        -11    1    3    3    0    0 -0.24206957726E+02  0.55930306311E+01  0.50559368136E+01  0.25353920630E+02  0.51100000000E-03 0.  1.
         12    1    3    3    0    0 -0.31186076344E+01  0.18807640121E+01 -0.18436624009E+01  0.40819208585E+01  0.00000000000E+00 0. -1.
</event>
<event>
 7    1  0.2227287E-008  0.4614232E+02  0.7816164E-02  0.1320468E+00
        -11   -1    0    0    0    0  0.00000000000E+00  0.00000000000E+00  0.45593999997E+02  0.45594000000E+02  0.51100000000E-03 0. -1.
         11   -1    0    0    0    0 -0.00000000000E+00 -0.00000000000E+00 -0.45593999997E+02  0.45594000000E+02  0.51100000000E-03 0.  1.
    9900012    2    1    2    0    0  0.14359661057E+02  0.31863059718E+02 -0.28419344131E+02  0.46142316954E+02  0.99999926401E+01 0.  0.
         12    1    1    2    0    0 -0.14359661057E+02 -0.31863059718E+02  0.28419344131E+02  0.45045683046E+02  0.00000000000E+00 0. -1.
         11    1    3    3    0    0  0.87479112950E+01  0.17536349965E+02 -0.96244776260E+01  0.21833004648E+02  0.51100000000E-03 0. -1.
        -11    1    3    3    0    0  0.15502380876E+01  0.35533807139E+01 -0.41253903914E+01  0.56611481847E+01  0.51100000000E-03 0.  1.
         12    1    3    3    0    0  0.40615116747E+01  0.10773329039E+02 -0.14669476113E+02  0.18648164122E+02  0.00000000000E+00 0. -1.
</event>
<event>
 7    1  0.2227287E-008  0.4614233E+02  0.7816164E-02  0.1320468E+00
        -11   -1    0    0    0    0  0.00000000000E+00  0.00000000000E+00  0.45593999997E+02  0.45594000000E+02  0.51100000000E-03 0. -1.
         11   -1    0    0    0    0 -0.00000000000E+00 -0.00000000000E+00 -0.45593999997E+02  0.45594000000E+02  0.51100000000E-03 0.  1.
    9900012    2    1    2    0    0  0.44658607598E+02  0.26058132577E+01 -0.52850094274E+01  0.46142325181E+02  0.10000067657E+02 0.  0.
         12    1    1    2    0    0 -0.44658607598E+02 -0.26058132577E+01  0.52850094274E+01  0.45045674819E+02  0.00000000000E+00 0. -1.
         11    1    3    3    0    0  0.75807858878E+01 -0.23066389003E+00  0.14348895918E+01  0.77188359814E+01  0.51100000000E-03 0. -1.
        -11    1    3    3    0    0  0.17805771448E+02  0.20020581226E+01  0.23044451170E+00  0.17919454192E+02  0.51100000000E-03 0.  1.
        -12    1    3    3    0    0  0.19272050261E+02  0.83441902512E+00 -0.69503435309E+01  0.20504035007E+02  0.00000000000E+00 0.  1.
</event>
<event>
 7    1  0.2227287E-008  0.4614232E+02  0.7816164E-02  0.1320468E+00
        -11   -1    0    0    0    0  0.00000000000E+00  0.00000000000E+00  0.45593999997E+02  0.45594000000E+02  0.51100000000E-03 0. -1.
         11   -1    0    0    0    0 -0.00000000000E+00 -0.00000000000E+00 -0.45593999997E+02  0.45594000000E+02  0.51100000000E-03 0.  1.
    9900012    2    1    2    0    0 -0.44391644460E+02 -0.43625821516E+01 -0.62819783780E+01  0.46142317929E+02  0.10000001534E+02 0.  0.
         12    1    1    2    0    0  0.44391644460E+02  0.43625821516E+01  0.62819783780E+01  0.45045682071E+02  0.00000000000E+00 0. -1.
         11    1    3    3    0    0 -0.25834466456E+01  0.11403932047E+01  0.26531623221E+00  0.28363861155E+01  0.51100000000E-03 0. -1.
        -11    1    3    3    0    0 -0.21543647622E+01  0.12562292902E+01 -0.10514092541E+01  0.27064480854E+01  0.51100000000E-03 0.  1.
        -12    1    3    3    0    0 -0.39653833052E+02 -0.67592046464E+01 -0.54958853561E+01  0.40599483728E+02  0.00000000000E+00 0.  1.
</event>
<event>
 7    1  0.2227287E-008  0.4614232E+02  0.7816164E-02  0.1320468E+00
        -11   -1    0    0    0    0  0.00000000000E+00  0.00000000000E+00  0.45593999997E+02  0.45594000000E+02  0.51100000000E-03 0. -1.
         11   -1    0    0    0    0 -0.00000000000E+00 -0.00000000000E+00 -0.45593999997E+02  0.45594000000E+02  0.51100000000E-03 0.  1.
    9900012    2    1    2    0    0 -0.40498573050E+01  0.94325532152E+01 -0.43860449920E+02  0.46142317948E+02  0.10000001700E+02 0.  0.
         12    1    1    2    0    0  0.40498573050E+01 -0.94325532152E+01  0.43860449920E+02  0.45045682052E+02  0.00000000000E+00 0. -1.
         11    1    3    3    0    0 -0.15455275160E+01  0.18420617604E+01 -0.14165021623E+01  0.27907571497E+01  0.51100000000E-03 0. -1.
        -11    1    3    3    0    0 -0.18882233760E+01  0.28588008883E+01 -0.10287310565E+02  0.10842826613E+02  0.51100000000E-03 0.  1.
        -12    1    3    3    0    0 -0.61610641298E+00  0.47316905665E+01 -0.32156637194E+02  0.32508734185E+02  0.00000000000E+00 0.  1.
</event>
<event>
 7    1  0.2227287E-008  0.4614232E+02  0.7816164E-02  0.1320468E+00
        -11   -1    0    0    0    0  0.00000000000E+00  0.00000000000E+00  0.45593999997E+02  0.45594000000E+02  0.51100000000E-03 0.  1.
         11   -1    0    0    0    0 -0.00000000000E+00 -0.00000000000E+00 -0.45593999997E+02  0.45594000000E+02  0.51100000000E-03 0. -1.
    9900012    2    1    2    0    0 -0.11038159047E+02 -0.12330086695E+02  0.41895600725E+02  0.46142319262E+02  0.10000013685E+02 0.  0.
         12    1    1    2    0    0  0.11038159047E+02  0.12330086695E+02 -0.41895600725E+02  0.45045680738E+02  0.00000000000E+00 0. -1.
         11    1    3    3    0    0 -0.10838778190E+01  0.11677535088E+01  0.32017514855E+01  0.35762623254E+01  0.51100000000E-03 0. -1.
        -11    1    3    3    0    0 -0.93081626269E+01 -0.11103606055E+02  0.27312905133E+02  0.30918065043E+02  0.51100000000E-03 0.  1.
         12    1    3    3    0    0 -0.64611860114E+00 -0.23942341491E+01  0.11380944106E+02  0.11647991894E+02  0.00000000000E+00 0. -1.
</event>
<event>
 7    1  0.2227287E-008  0.4614232E+02  0.7816164E-02  0.1320468E+00
        -11   -1    0    0    0    0  0.00000000000E+00  0.00000000000E+00  0.45593999997E+02  0.45594000000E+02  0.51100000000E-03 0.  1.
         11   -1    0    0    0    0 -0.00000000000E+00 -0.00000000000E+00 -0.45593999997E+02  0.45594000000E+02  0.51100000000E-03 0. -1.
    9900012    2    1    2    0    0  0.72211951887E+01  0.38570707046E+02  0.22119410836E+02  0.46142318323E+02  0.10000005126E+02 0.  0.
         12    1    1    2    0    0 -0.72211951887E+01 -0.38570707046E+02 -0.22119410836E+02  0.45045681677E+02  0.00000000000E+00 0. -1.
         11    1    3    3    0    0  0.22540865782E+01  0.24164214768E+02  0.12374789206E+02  0.27241982119E+02  0.51100000000E-03 0. -1.
        -11    1    3    3    0    0  0.17670267907E+01  0.93585657214E+01  0.32236409391E+01  0.10054700254E+02  0.51100000000E-03 0.  1.
         12    1    3    3    0    0  0.32000818198E+01  0.50479265573E+01  0.65209806910E+01  0.88456359496E+01  0.00000000000E+00 0. -1.
</event>
<event>
 7    1  0.2227287E-008  0.4614232E+02  0.7816164E-02  0.1320468E+00
        -11   -1    0    0    0    0  0.00000000000E+00  0.00000000000E+00  0.45593999997E+02  0.45594000000E+02  0.51100000000E-03 0.  1.
         11   -1    0    0    0    0 -0.00000000000E+00 -0.00000000000E+00 -0.45593999997E+02  0.45594000000E+02  0.51100000000E-03 0. -1.
    9900012    2    1    2    0    0  0.33670215248E+02 -0.29428796082E+02  0.54199578731E+01  0.46142318997E+02  0.10000011270E+02 0.  0.
         12    1    1    2    0    0 -0.33670215248E+02  0.29428796082E+02 -0.54199578731E+01  0.45045681003E+02  0.00000000000E+00 0. -1.
         11    1    3    3    0    0  0.92346842796E+01 -0.10048544417E+02 -0.23518944898E+01  0.13848611721E+02  0.51100000000E-03 0. -1.
        -11    1    3    3    0    0  0.13519172506E+02 -0.11971852099E+02  0.32550622694E+01  0.18349078956E+02  0.51100000000E-03 0.  1.
         12    1    3    3    0    0  0.10916358463E+02 -0.74083995656E+01  0.45167900935E+01  0.13944628319E+02  0.00000000000E+00 0. -1.
</event>
<event>
 7    1  0.2227287E-008  0.4614232E+02  0.7816164E-02  0.1320468E+00
        -11   -1    0    0    0    0  0.00000000000E+00  0.00000000000E+00  0.45593999997E+02  0.45594000000E+02  0.51100000000E-03 0.  1.
         11   -1    0    0    0    0 -0.00000000000E+00 -0.00000000000E+00 -0.45593999997E+02  0.45594000000E+02  0.51100000000E-03 0. -1.
    9900012    2    1    2    0    0 -0.17491870292E+02 -0.88720412112E+01  0.40551633582E+02  0.46142316214E+02  0.99999858924E+01 0.  0.
         12    1    1    2    0    0  0.17491870292E+02  0.88720412112E+01 -0.40551633582E+02  0.45045683786E+02  0.00000000000E+00 0. -1.
         11    1    3    3    0    0 -0.49578066050E+01 -0.26950694279E+01  0.49562414981E+01  0.75104976934E+01  0.51100000000E-03 0. -1.
        -11    1    3    3    0    0 -0.80534811710E+00 -0.68934719143E+00  0.88861264057E+01  0.89491355951E+01  0.51100000000E-03 0.  1.
         12    1    3    3    0    0 -0.11728715570E+02 -0.54876245918E+01  0.26709265678E+02  0.29682682926E+02  0.00000000000E+00 0. -1.
</event>
<event>
 7    1  0.2227287E-008  0.4614232E+02  0.7816164E-02  0.1320468E+00
        -11   -1    0    0    0    0  0.00000000000E+00  0.00000000000E+00  0.45593999997E+02  0.45594000000E+02  0.51100000000E-03 0.  1.
         11   -1    0    0    0    0 -0.00000000000E+00 -0.00000000000E+00 -0.45593999997E+02  0.45594000000E+02  0.51100000000E-03 0. -1.
    9900012    2    1    2    0    0  0.13524496974E+02  0.56642093833E+01  0.42592464827E+02  0.46142319337E+02  0.10000014374E+02 0.  0.
         12    1    1    2    0    0 -0.13524496974E+02 -0.56642093833E+01 -0.42592464827E+02  0.45045680663E+02  0.00000000000E+00 0. -1.
         11    1    3    3    0    0 -0.35415511074E+00 -0.72817780260E+00  0.25241406621E+01  0.26508404512E+01  0.51100000000E-03 0. -1.
        -11    1    3    3    0    0  0.88947381947E+01  0.27461679446E+01  0.14837771051E+02  0.17516199815E+02  0.51100000000E-03 0.  1.
         12    1    3    3    0    0  0.49839138901E+01  0.36462192413E+01  0.25230553113E+02  0.25975279071E+02  0.00000000000E+00 0. -1.
</event>
<event>
 7    1  0.2227287E-008  0.4614232E+02  0.7816164E-02  0.1320468E+00
        -11   -1    0    0    0    0  0.00000000000E+00  0.00000000000E+00  0.45593999997E+02  0.45594000000E+02  0.51100000000E-03 0.  1.
         11   -1    0    0    0    0 -0.00000000000E+00 -0.00000000000E+00 -0.45593999997E+02  0.45594000000E+02  0.51100000000E-03 0. -1.
    9900012    2    1    2    0    0  0.15338379589E+02 -0.45599930186E+01  0.42107648817E+02  0.46142317480E+02  0.99999974381E+01 0.  0.
         12    1    1    2    0    0 -0.15338379589E+02  0.45599930186E+01 -0.42107648817E+02  0.45045682520E+02  0.00000000000E+00 0. -1.
         11    1    3    3    0    0  0.32374856942E+01 -0.35114322986E+01  0.13760880527E+02  0.14566169831E+02  0.51100000000E-03 0.  1.
        -11    1    3    3    0    0  0.55011611867E+01 -0.26468306855E+01  0.19440409323E+02  0.20376407975E+02  0.51100000000E-03 0. -1.
         12    1    3    3    0    0  0.65997327079E+01  0.15982699655E+01  0.89063589681E+01  0.11199739674E+02  0.00000000000E+00 0. -1.
</event>
<event>
 7    1  0.2227287E-008  0.4614232E+02  0.7816164E-02  0.1320468E+00
        -11   -1    0    0    0    0  0.00000000000E+00  0.00000000000E+00  0.45593999997E+02  0.45594000000E+02  0.51100000000E-03 0.  1.
         11   -1    0    0    0    0 -0.00000000000E+00 -0.00000000000E+00 -0.45593999997E+02  0.45594000000E+02  0.51100000000E-03 0. -1.
    9900012    2    1    2    0    0  0.71995395194E+01  0.41435067217E+02  0.16137389482E+02  0.46142317589E+02  0.99999984319E+01 0.  0.
         12    1    1    2    0    0 -0.71995395194E+01 -0.41435067217E+02 -0.16137389482E+02  0.45045682411E+02  0.00000000000E+00 0. -1.
         11    1    3    3    0    0  0.43722919376E+00  0.33786099325E+01 -0.68379991324E+00  0.34747312164E+01  0.51100000000E-03 0. -1.
        -11    1    3    3    0    0  0.13096168920E+01  0.26773398279E+01 -0.28385431244E+00  0.29939636754E+01  0.51100000000E-03 0.  1.
        -12    1    3    3    0    0  0.54526934336E+01  0.35379117457E+02  0.17105043708E+02  0.39673622697E+02  0.00000000000E+00 0.  1.
</event>
<event>
 7    1  0.2227287E-008  0.4614232E+02  0.7816164E-02  0.1320468E+00
        -11   -1    0    0    0    0  0.00000000000E+00  0.00000000000E+00  0.45593999997E+02  0.45594000000E+02  0.51100000000E-03 0.  1.
         11   -1    0    0    0    0 -0.00000000000E+00 -0.00000000000E+00 -0.45593999997E+02  0.45594000000E+02  0.51100000000E-03 0. -1.
    9900012    2    1    2    0    0  0.34235283516E+02 -0.27572068241E+02  0.98407308519E+01  0.46142316875E+02  0.99999919155E+01 0.  0.
         12    1    1    2    0    0 -0.34235283516E+02  0.27572068241E+02 -0.98407308519E+01  0.45045683125E+02  0.00000000000E+00 0. -1.
         11    1    3    3    0    0  0.15731289684E+01 -0.11178164910E+00 -0.16834887177E+00  0.15860553244E+01  0.51100000000E-03 0. -1.
        -11    1    3    3    0    0  0.29681911949E+01 -0.40968805861E+01  0.36575806458E+01  0.62427947225E+01  0.51100000000E-03 0.  1.
        -12    1    3    3    0    0  0.29693963353E+02 -0.23363406006E+02  0.63514990778E+01  0.38313466828E+02  0.00000000000E+00 0.  1.
</event>
<event>
 7    1  0.2227287E-008  0.4614232E+02  0.7816164E-02  0.1320468E+00
        -11   -1    0    0    0    0  0.00000000000E+00  0.00000000000E+00  0.45593999997E+02  0.45594000000E+02  0.51100000000E-03 0.  1.
         11   -1    0    0    0    0 -0.00000000000E+00 -0.00000000000E+00 -0.45593999997E+02  0.45594000000E+02  0.51100000000E-03 0. -1.
    9900012    2    1    2    0    0  0.26318762788E+02  0.35531993115E+02  0.85973048176E+01  0.46142318081E+02  0.10000002914E+02 0.  0.
         12    1    1    2    0    0 -0.26318762788E+02 -0.35531993115E+02 -0.85973048176E+01  0.45045681919E+02  0.00000000000E+00 0. -1.
         11    1    3    3    0    0  0.37751769003E+01  0.73214740853E+01 -0.65195056036E+00  0.82632307971E+01  0.51100000000E-03 0. -1.
        -11    1    3    3    0    0  0.22163533171E+02  0.27232719124E+02  0.76008040254E+01  0.35925136264E+02  0.51100000000E-03 0.  1.
        -12    1    3    3    0    0  0.38005271658E+00  0.97779990596E+00  0.16484513525E+01  0.19539510191E+01  0.00000000000E+00 0.  1.
</event>
<event>
 7    1  0.2227287E-008  0.4614232E+02  0.7816164E-02  0.1320468E+00
        -11   -1    0    0    0    0  0.00000000000E+00  0.00000000000E+00  0.45593999997E+02  0.45594000000E+02  0.51100000000E-03 0.  1.
         11   -1    0    0    0    0 -0.00000000000E+00 -0.00000000000E+00 -0.45593999997E+02  0.45594000000E+02  0.51100000000E-03 0. -1.
    9900012    2    1    2    0    0 -0.85541694655E+01 -0.38402683201E+02  0.21935672958E+02  0.46142316073E+02  0.99999846064E+01 0.  0.
         12    1    1    2    0    0  0.85541694655E+01  0.38402683201E+02 -0.21935672958E+02  0.45045683927E+02  0.00000000000E+00 0. -1.
         11    1    3    3    0    0 -0.11894247820E+01 -0.30281361243E+01 -0.88892323426E+00  0.33726138938E+01  0.51100000000E-03 0. -1.
        -11    1    3    3    0    0 -0.34857213736E+00 -0.39095440728E+01  0.22115583714E+01  0.45052223123E+01  0.51100000000E-03 0.  1.
        -12    1    3    3    0    0 -0.70161725462E+01 -0.31465003004E+02  0.20613037821E+02  0.38264479867E+02  0.00000000000E+00 0.  1.
</event>
<event>
 7    1  0.2227287E-008  0.4614232E+02  0.7816164E-02  0.1320468E+00
        -11   -1    0    0    0    0  0.00000000000E+00  0.00000000000E+00  0.45593999997E+02  0.45594000000E+02  0.51100000000E-03 0. -1.
         11   -1    0    0    0    0 -0.00000000000E+00 -0.00000000000E+00 -0.45593999997E+02  0.45594000000E+02  0.51100000000E-03 0.  1.
    9900012    2    1    2    0    0 -0.33134477541E+02 -0.26924277811E+02 -0.14363254881E+02  0.46142318427E+02  0.10000006075E+02 0.  0.
         12    1    1    2    0    0  0.33134477541E+02  0.26924277811E+02  0.14363254881E+02  0.45045681573E+02  0.00000000000E+00 0. -1.
         11    1    3    3    0    0  0.49001483840E+00 -0.66550328853E-01 -0.68199903794E+00  0.84241702084E+00  0.51100000000E-03 0. -1.
        -11    1    3    3    0    0 -0.17069944248E+02 -0.11991867323E+02 -0.52987411216E+01  0.21523580935E+02  0.51100000000E-03 0.  1.
         12    1    3    3    0    0 -0.16554548131E+02 -0.14865860160E+02 -0.83825147213E+01  0.23776320472E+02  0.00000000000E+00 0. -1.
</event>
<event>
 7    1  0.2227287E-008  0.4614232E+02  0.7816164E-02  0.1320468E+00
        -11   -1    0    0    0    0  0.00000000000E+00  0.00000000000E+00  0.45593999997E+02  0.45594000000E+02  0.51100000000E-03 0.  1.
         11   -1    0    0    0    0 -0.00000000000E+00 -0.00000000000E+00 -0.45593999997E+02  0.45594000000E+02  0.51100000000E-03 0. -1.
    9900012    2    1    2    0    0 -0.34434397067E+02  0.28904131873E+02  0.28172752099E+01  0.46142316741E+02  0.99999906976E+01 0.  0.
         12    1    1    2    0    0  0.34434397067E+02 -0.28904131873E+02 -0.28172752099E+01  0.45045683259E+02  0.00000000000E+00 0. -1.
         11    1    3    3    0    0 -0.11626839869E+02  0.78399380067E+01  0.63134386083E+00  0.14037329825E+02  0.51100000000E-03 0. -1.
        -11    1    3    3    0    0 -0.65441350921E+01  0.17784918189E+01 -0.14305242271E-01  0.67815147389E+01  0.51100000000E-03 0.  1.
         12    1    3    3    0    0 -0.16263422106E+02  0.19285702047E+02  0.22002365914E+01  0.25323472177E+02  0.00000000000E+00 0. -1.
</event>
<event>
 7    1  0.2227287E-008  0.4614232E+02  0.7816164E-02  0.1320468E+00
        -11   -1    0    0    0    0  0.00000000000E+00  0.00000000000E+00  0.45593999997E+02  0.45594000000E+02  0.51100000000E-03 0.  1.
         11   -1    0    0    0    0 -0.00000000000E+00 -0.00000000000E+00 -0.45593999997E+02  0.45594000000E+02  0.51100000000E-03 0. -1.
    9900012    2    1    2    0    0  0.73112230074E+01 -0.36562328292E+02  0.25275593820E+02  0.46142317910E+02  0.10000001358E+02 0.  0.
         12    1    1    2    0    0 -0.73112230074E+01  0.36562328292E+02 -0.25275593820E+02  0.45045682090E+02  0.00000000000E+00 0. -1.
         11    1    3    3    0    0 -0.14195051721E+01 -0.23138581023E+01  0.40460808552E+01  0.48723407926E+01  0.51100000000E-03 0. -1.
        -11    1    3    3    0    0  0.26689643264E+01 -0.14010292146E+02  0.83303688556E+01  0.16516861146E+02  0.51100000000E-03 0.  1.
        -12    1    3    3    0    0  0.60617638532E+01 -0.20238178044E+02  0.12899144110E+02  0.24753115972E+02  0.00000000000E+00 0.  1.
</event>
<event>
 7    1  0.2227287E-008  0.4614232E+02  0.7816164E-02  0.1320468E+00
        -11   -1    0    0    0    0  0.00000000000E+00  0.00000000000E+00  0.45593999997E+02  0.45594000000E+02  0.51100000000E-03 0. -1.
         11   -1    0    0    0    0 -0.00000000000E+00 -0.00000000000E+00 -0.45593999997E+02  0.45594000000E+02  0.51100000000E-03 0.  1.
    9900012    2    1    2    0    0  0.30908772378E+02 -0.29503835162E+02 -0.14257804617E+02  0.46142317724E+02  0.99999996659E+01 0.  0.
         12    1    1    2    0    0 -0.30908772378E+02  0.29503835162E+02  0.14257804617E+02  0.45045682276E+02  0.00000000000E+00 0. -1.
         11    1    3    3    0    0  0.16596587778E+01 -0.47071242681E+01 -0.14852384103E+01  0.52074388648E+01  0.51100000000E-03 0.  1.
        -11    1    3    3    0    0 -0.51257565920E-01 -0.13442121313E+01 -0.65923468282E+00  0.14980401264E+01  0.51100000000E-03 0. -1.
        -12    1    3    3    0    0  0.29300371166E+02 -0.23452498763E+02 -0.12113331524E+02  0.39436838733E+02  0.00000000000E+00 0.  1.
</event>
<event>
 7    1  0.2227287E-008  0.4614232E+02  0.7816164E-02  0.1320468E+00
        -11   -1    0    0    0    0  0.00000000000E+00  0.00000000000E+00  0.45593999997E+02  0.45594000000E+02  0.51100000000E-03 0. -1.
         11   -1    0    0    0    0 -0.00000000000E+00 -0.00000000000E+00 -0.45593999997E+02  0.45594000000E+02  0.51100000000E-03 0.  1.
    9900012    2    1    2    0    0  0.32330583425E+02  0.29396617864E+02 -0.10940094653E+02  0.46142318327E+02  0.10000005158E+02 0.  0.
         12    1    1    2    0    0 -0.32330583425E+02 -0.29396617864E+02  0.10940094653E+02  0.45045681673E+02  0.00000000000E+00 0. -1.
         11    1    3    3    0    0  0.22689241289E+02  0.16225749214E+02 -0.35079812304E+01  0.28113742910E+02  0.51100000000E-03 0. -1.
        -11    1    3    3    0    0  0.48922638360E+01  0.75084276648E+01 -0.32224623115E+01  0.95233919928E+01  0.51100000000E-03 0.  1.
         12    1    3    3    0    0  0.47490782998E+01  0.56624409852E+01 -0.42096511106E+01  0.85051834244E+01  0.00000000000E+00 0. -1.
</event>
<event>
 7    1  0.2227287E-008  0.4614232E+02  0.7816164E-02  0.1320468E+00
        -11   -1    0    0    0    0  0.00000000000E+00  0.00000000000E+00  0.45593999997E+02  0.45594000000E+02  0.51100000000E-03 0. -1.
         11   -1    0    0    0    0 -0.00000000000E+00 -0.00000000000E+00 -0.45593999997E+02  0.45594000000E+02  0.51100000000E-03 0.  1.
    9900012    2    1    2    0    0  0.33562111658E+02 -0.29663369724E+02  0.47731426126E+01  0.46142315049E+02  0.99999752686E+01 0.  0.
         12    1    1    2    0    0 -0.33562111658E+02  0.29663369724E+02 -0.47731426126E+01  0.45045684951E+02  0.00000000000E+00 0. -1.
         11    1    3    3    0    0  0.23647771749E+02 -0.22416819483E+02  0.28690371962E+01  0.32710277883E+02  0.51100000000E-03 0.  1.
        -11    1    3    3    0    0  0.92328887038E+01 -0.73667086605E+01  0.44828431466E+00  0.11820134914E+02  0.51100000000E-03 0. -1.
         12    1    3    3    0    0  0.68145120439E+00  0.12015841981E+00  0.14558211017E+01  0.16119022520E+01  0.00000000000E+00 0. -1.
</event>
<event>
 7    1  0.2227287E-008  0.4614232E+02  0.7816164E-02  0.1320468E+00
        -11   -1    0    0    0    0  0.00000000000E+00  0.00000000000E+00  0.45593999997E+02  0.45594000000E+02  0.51100000000E-03 0. -1.
         11   -1    0    0    0    0 -0.00000000000E+00 -0.00000000000E+00 -0.45593999997E+02  0.45594000000E+02  0.51100000000E-03 0.  1.
    9900012    2    1    2    0    0  0.24907248637E+01  0.21153874056E+01 -0.44926994252E+02  0.46142318889E+02  0.10000010288E+02 0.  0.
         12    1    1    2    0    0 -0.24907248637E+01 -0.21153874056E+01  0.44926994252E+02  0.45045681111E+02  0.00000000000E+00 0. -1.
         11    1    3    3    0    0 -0.97209547909E+00  0.71069139315E+00 -0.93007105268E+01  0.93783403884E+01  0.51100000000E-03 0. -1.
        -11    1    3    3    0    0  0.77590101416E+00  0.39232839701E+01 -0.28119600627E+02  0.28402572404E+02  0.51100000000E-03 0.  1.
         12    1    3    3    0    0  0.26869193286E+01 -0.25185879576E+01 -0.75066830982E+01  0.83614060968E+01  0.00000000000E+00 0. -1.
</event>
<event>
 7    1  0.2227287E-008  0.4614232E+02  0.7816164E-02  0.1320468E+00
        -11   -1    0    0    0    0  0.00000000000E+00  0.00000000000E+00  0.45593999997E+02  0.45594000000E+02  0.51100000000E-03 0. -1.
         11   -1    0    0    0    0 -0.00000000000E+00 -0.00000000000E+00 -0.45593999997E+02  0.45594000000E+02  0.51100000000E-03 0.  1.
    9900012    2    1    2    0    0 -0.66786635398E+01  0.26835541626E+02 -0.35557875587E+02  0.46142319216E+02  0.10000013266E+02 0.  0.
         12    1    1    2    0    0  0.66786635398E+01 -0.26835541626E+02  0.35557875587E+02  0.45045680784E+02  0.00000000000E+00 0. -1.
         11    1    3    3    0    0 -0.44255933602E+01  0.77315413229E+01 -0.66224393158E+01  0.11100419387E+02  0.51100000000E-03 0. -1.
        -11    1    3    3    0    0 -0.36070491523E+01  0.12054970640E+02 -0.18785596160E+02  0.22610434407E+02  0.51100000000E-03 0.  1.
         12    1    3    3    0    0  0.13539789726E+01  0.70490296631E+01 -0.10149840112E+02  0.12431465422E+02  0.00000000000E+00 0. -1.
</event>
<event>
 7    1  0.2227287E-008  0.4614232E+02  0.7816164E-02  0.1320468E+00
        -11   -1    0    0    0    0  0.00000000000E+00  0.00000000000E+00  0.45593999997E+02  0.45594000000E+02  0.51100000000E-03 0.  1.
         11   -1    0    0    0    0 -0.00000000000E+00 -0.00000000000E+00 -0.45593999997E+02  0.45594000000E+02  0.51100000000E-03 0. -1.
    9900012    2    1    2    0    0 -0.30228118310E+01 -0.27062538819E+02  0.35883075202E+02  0.46142317802E+02  0.10000000377E+02 0.  0.
         12    1    1    2    0    0  0.30228118310E+01  0.27062538819E+02 -0.35883075202E+02  0.45045682198E+02  0.00000000000E+00 0. -1.
         11    1    3    3    0    0  0.17049410624E+01 -0.84103136189E+01  0.14447259136E+02  0.16803675074E+02  0.51100000000E-03 0. -1.
        -11    1    3    3    0    0 -0.12764971363E+01 -0.14723446253E+02  0.16445151221E+02  0.22110004827E+02  0.51100000000E-03 0.  1.
        -12    1    3    3    0    0 -0.34512557571E+01 -0.39287789464E+01  0.49906648460E+01  0.72286379018E+01  0.00000000000E+00 0.  1.
</event>
<event>
 7    1  0.2227287E-008  0.4614232E+02  0.7816164E-02  0.1320468E+00
        -11   -1    0    0    0    0  0.00000000000E+00  0.00000000000E+00  0.45593999997E+02  0.45594000000E+02  0.51100000000E-03 0.  1.
         11   -1    0    0    0    0 -0.00000000000E+00 -0.00000000000E+00 -0.45593999997E+02  0.45594000000E+02  0.51100000000E-03 0. -1.
    9900012    2    1    2    0    0  0.29402121329E+02 -0.10713037517E+02  0.32401537270E+02  0.46142317311E+02  0.99999958978E+01 0.  0.
         12    1    1    2    0    0 -0.29402121329E+02  0.10713037517E+02 -0.32401537270E+02  0.45045682689E+02  0.00000000000E+00 0. -1.
         11    1    3    3    0    0  0.54370720128E+01 -0.24169119213E+01  0.10698978822E+02  0.12242196020E+02  0.51100000000E-03 0. -1.
        -11    1    3    3    0    0  0.20281842867E+02 -0.57376951684E+01  0.20134918982E+02  0.29149429815E+02  0.51100000000E-03 0.  1.
        -12    1    3    3    0    0  0.36832064492E+01 -0.25584304272E+01  0.15676394661E+01  0.47506914753E+01  0.00000000000E+00 0.  1.
</event>
<event>
 7    1  0.2227287E-008  0.4614232E+02  0.7816164E-02  0.1320468E+00
        -11   -1    0    0    0    0  0.00000000000E+00  0.00000000000E+00  0.45593999997E+02  0.45594000000E+02  0.51100000000E-03 0. -1.
         11   -1    0    0    0    0 -0.00000000000E+00 -0.00000000000E+00 -0.45593999997E+02  0.45594000000E+02  0.51100000000E-03 0.  1.
    9900012    2    1    2    0    0 -0.12348943191E+02  0.35196366973E+02 -0.25255352640E+02  0.46142317821E+02  0.10000000542E+02 0.  0.
         12    1    1    2    0    0  0.12348943191E+02 -0.35196366973E+02  0.25255352640E+02  0.45045682179E+02  0.00000000000E+00 0. -1.
         11    1    3    3    0    0 -0.24704811377E+01  0.15011574810E+02 -0.74169067493E+01  0.16925163553E+02  0.51100000000E-03 0. -1.
        -11    1    3    3    0    0 -0.95371488321E+01  0.18487471102E+02 -0.14197568447E+02  0.25185605922E+02  0.51100000000E-03 0.  1.
         12    1    3    3    0    0 -0.34131322107E+00  0.16973210618E+01 -0.36408774434E+01  0.40315483452E+01  0.00000000000E+00 0. -1.
</event>
<event>
 7    1  0.2227287E-008  0.4614232E+02  0.7816164E-02  0.1320468E+00
        -11   -1    0    0    0    0  0.00000000000E+00  0.00000000000E+00  0.45593999997E+02  0.45594000000E+02  0.51100000000E-03 0.  1.
         11   -1    0    0    0    0 -0.00000000000E+00 -0.00000000000E+00 -0.45593999997E+02  0.45594000000E+02  0.51100000000E-03 0. -1.
    9900012    2    1    2    0    0  0.49130402296E+01 -0.44354861693E+02  0.61336579778E+01  0.46142317850E+02  0.10000000814E+02 0.  0.
         12    1    1    2    0    0 -0.49130402296E+01  0.44354861693E+02 -0.61336579778E+01  0.45045682150E+02  0.00000000000E+00 0. -1.
         11    1    3    3    0    0  0.71260864478E+00 -0.19094115067E+02  0.71002940098E+01  0.20383994126E+02  0.51100000000E-03 0. -1.
        -11    1    3    3    0    0  0.12842460778E+01 -0.15476123760E+02 -0.47681553023E+00  0.15536635669E+02  0.51100000000E-03 0.  1.
         12    1    3    3    0    0  0.29161855069E+01 -0.97846228672E+01 -0.48982050182E+00  0.10221688055E+02  0.00000000000E+00 0. -1.
</event>
<event>
 7    1  0.2227287E-008  0.4614232E+02  0.7816164E-02  0.1320468E+00
        -11   -1    0    0    0    0  0.00000000000E+00  0.00000000000E+00  0.45593999997E+02  0.45594000000E+02  0.51100000000E-03 0. -1.
         11   -1    0    0    0    0 -0.00000000000E+00 -0.00000000000E+00 -0.45593999997E+02  0.45594000000E+02  0.51100000000E-03 0.  1.
    9900012    2    1    2    0    0  0.32950804957E+02 -0.96164567590E+01 -0.29169874967E+02  0.46142318814E+02  0.10000009600E+02 0.  0.
         12    1    1    2    0    0 -0.32950804957E+02  0.96164567590E+01  0.29169874967E+02  0.45045681186E+02  0.00000000000E+00 0. -1.
         11    1    3    3    0    0  0.75617850767E+01  0.58639152490E+00 -0.32617114290E+01  0.82561013968E+01  0.51100000000E-03 0. -1.
        -11    1    3    3    0    0  0.23181963536E+02 -0.83434882310E+01 -0.24188534007E+02  0.34526836040E+02  0.51100000000E-03 0.  1.
        -12    1    3    3    0    0  0.22070563444E+01 -0.18593600529E+01 -0.17196295308E+01  0.33593813771E+01  0.00000000000E+00 0.  1.
</event>
<event>
 7    1  0.2227287E-008  0.4614232E+02  0.7816164E-02  0.1320468E+00
        -11   -1    0    0    0    0  0.00000000000E+00  0.00000000000E+00  0.45593999997E+02  0.45594000000E+02  0.51100000000E-03 0. -1.
         11   -1    0    0    0    0 -0.00000000000E+00 -0.00000000000E+00 -0.45593999997E+02  0.45594000000E+02  0.51100000000E-03 0.  1.
    9900012    2    1    2    0    0  0.36008455482E+02 -0.22167685830E+02  0.15527339471E+02  0.46142318384E+02  0.10000005676E+02 0.  0.
         12    1    1    2    0    0 -0.36008455482E+02  0.22167685830E+02 -0.15527339471E+02  0.45045681616E+02  0.00000000000E+00 0. -1.
         11    1    3    3    0    0  0.15845307922E+02 -0.87299172269E+01  0.67433728691E+01  0.19306949936E+02  0.51100000000E-03 0. -1.
        -11    1    3    3    0    0  0.11203852936E+02 -0.92703980216E+01  0.87162545696E+01  0.16954046540E+02  0.51100000000E-03 0.  1.
        -12    1    3    3    0    0  0.89592946239E+01 -0.41673705819E+01  0.67712032041E-01  0.98813219077E+01  0.00000000000E+00 0.  1.
</event>
<event>
 7    1  0.2227287E-008  0.4614232E+02  0.7816164E-02  0.1320468E+00
        -11   -1    0    0    0    0  0.00000000000E+00  0.00000000000E+00  0.45593999997E+02  0.45594000000E+02  0.51100000000E-03 0.  1.
         11   -1    0    0    0    0 -0.00000000000E+00 -0.00000000000E+00 -0.45593999997E+02  0.45594000000E+02  0.51100000000E-03 0. -1.
    9900012    2    1    2    0    0 -0.44187245114E+02 -0.65827007670E+01  0.57679175990E+01  0.46142318147E+02  0.10000003520E+02 0.  0.
         12    1    1    2    0    0  0.44187245114E+02  0.65827007670E+01 -0.57679175990E+01  0.45045681853E+02  0.00000000000E+00 0. -1.
         11    1    3    3    0    0 -0.21147422418E+02 -0.19070029043E+01  0.92357719185E+00  0.21253308686E+02  0.51100000000E-03 0.  1.
        -11    1    3    3    0    0 -0.51269532787E+01 -0.31020182782E+00  0.38609807234E+01  0.64256554143E+01  0.51100000000E-03 0. -1.
         12    1    3    3    0    0 -0.17912869417E+02 -0.43654960349E+01  0.98335968370E+00  0.18463354047E+02  0.00000000000E+00 0. -1.
</event>
<event>
 7    1  0.2227287E-008  0.4614232E+02  0.7816164E-02  0.1320468E+00
        -11   -1    0    0    0    0  0.00000000000E+00  0.00000000000E+00  0.45593999997E+02  0.45594000000E+02  0.51100000000E-03 0. -1.
         11   -1    0    0    0    0 -0.00000000000E+00 -0.00000000000E+00 -0.45593999997E+02  0.45594000000E+02  0.51100000000E-03 0.  1.
    9900012    2    1    2    0    0 -0.44437047569E+01 -0.26616522452E+02 -0.36068376041E+02  0.46142317303E+02  0.99999958187E+01 0.  0.
         12    1    1    2    0    0  0.44437047569E+01  0.26616522452E+02  0.36068376041E+02  0.45045682697E+02  0.00000000000E+00 0. -1.
         11    1    3    3    0    0 -0.20000128300E+01 -0.23211838523E+01 -0.60730051799E+01  0.68021568618E+01  0.51100000000E-03 0. -1.
        -11    1    3    3    0    0  0.18912761387E+01 -0.14126730297E+02 -0.14773367927E+02  0.20527879445E+02  0.51100000000E-03 0.  1.
        -12    1    3    3    0    0 -0.43349680655E+01 -0.10168608303E+02 -0.15222002935E+02  0.18812280996E+02  0.00000000000E+00 0.  1.
</event>
<event>
 7    1  0.2227287E-008  0.4614232E+02  0.7816164E-02  0.1320468E+00
        -11   -1    0    0    0    0  0.00000000000E+00  0.00000000000E+00  0.45593999997E+02  0.45594000000E+02  0.51100000000E-03 0.  1.
         11   -1    0    0    0    0 -0.00000000000E+00 -0.00000000000E+00 -0.45593999997E+02  0.45594000000E+02  0.51100000000E-03 0. -1.
    9900012    2    1    2    0    0  0.68921905984E+01  0.18618441946E+02  0.40434697844E+02  0.46142318060E+02  0.10000002725E+02 0.  0.
         12    1    1    2    0    0 -0.68921905984E+01 -0.18618441946E+02 -0.40434697844E+02  0.45045681940E+02  0.00000000000E+00 0. -1.
         11    1    3    3    0    0  0.31523949337E+01  0.28276522796E+01  0.47654826195E+01  0.63751891023E+01  0.51100000000E-03 0. -1.
        -11    1    3    3    0    0  0.25854223165E+01  0.13058230318E+01  0.41633362182E+01  0.50717798721E+01  0.51100000000E-03 0.  1.
        -12    1    3    3    0    0  0.11543733483E+01  0.14484966634E+02  0.31505879006E+02  0.34695349086E+02  0.00000000000E+00 0.  1.
</event>
<event>
 7    1  0.2227287E-008  0.4614232E+02  0.7816164E-02  0.1320468E+00
        -11   -1    0    0    0    0  0.00000000000E+00  0.00000000000E+00  0.45593999997E+02  0.45594000000E+02  0.51100000000E-03 0.  1.
         11   -1    0    0    0    0 -0.00000000000E+00 -0.00000000000E+00 -0.45593999997E+02  0.45594000000E+02  0.51100000000E-03 0. -1.
    9900012    2    1    2    0    0 -0.15647476723E+01  0.24011323366E+02  0.38080457178E+02  0.46142319808E+02  0.10000018665E+02 0.  0.
         12    1    1    2    0    0  0.15647476723E+01 -0.24011323366E+02 -0.38080457178E+02  0.45045680192E+02  0.00000000000E+00 0. -1.
         11    1    3    3    0    0  0.85497279508E+00  0.54250714609E+01  0.10545127609E+02  0.11889579277E+02  0.51100000000E-03 0. -1.
        -11    1    3    3    0    0  0.41006205646E+00  0.17194930543E+02  0.23797293515E+02  0.29362305191E+02  0.51100000000E-03 0.  1.
        -12    1    3    3    0    0 -0.28297825238E+01  0.13913213623E+01  0.37380360549E+01  0.48904353398E+01  0.00000000000E+00 0.  1.
</event>
<event>
 7    1  0.2227287E-008  0.4614232E+02  0.7816164E-02  0.1320468E+00
        -11   -1    0    0    0    0  0.00000000000E+00  0.00000000000E+00  0.45593999997E+02  0.45594000000E+02  0.51100000000E-03 0.  1.
         11   -1    0    0    0    0 -0.00000000000E+00 -0.00000000000E+00 -0.45593999997E+02  0.45594000000E+02  0.51100000000E-03 0. -1.
    9900012    2    1    2    0    0  0.23299159771E+02  0.34479955834E+02  0.17245152972E+02  0.46142317616E+02  0.99999986795E+01 0.  0.
         12    1    1    2    0    0 -0.23299159771E+02 -0.34479955834E+02 -0.17245152972E+02  0.45045682384E+02  0.00000000000E+00 0. -1.
         11    1    3    3    0    0  0.13181728883E+02  0.21722296999E+02  0.68607198473E+01  0.26318921717E+02  0.51100000000E-03 0. -1.
        -11    1    3    3    0    0  0.77195933083E+01  0.62683082548E+01  0.56060728011E+01  0.11415422101E+02  0.51100000000E-03 0.  1.
        -12    1    3    3    0    0  0.23978375800E+01  0.64893505802E+01  0.47783603240E+01  0.84079737987E+01  0.00000000000E+00 0.  1.
</event>
<event>
 7    1  0.2227287E-008  0.4614232E+02  0.7816164E-02  0.1320468E+00
        -11   -1    0    0    0    0  0.00000000000E+00  0.00000000000E+00  0.45593999997E+02  0.45594000000E+02  0.51100000000E-03 0.  1.
         11   -1    0    0    0    0 -0.00000000000E+00 -0.00000000000E+00 -0.45593999997E+02  0.45594000000E+02  0.51100000000E-03 0. -1.
    9900012    2    1    2    0    0 -0.25558961694E+02 -0.24575377712E+02  0.27783156015E+02  0.46142317957E+02  0.10000001788E+02 0.  0.
         12    1    1    2    0    0  0.25558961694E+02  0.24575377712E+02 -0.27783156015E+02  0.45045682043E+02  0.00000000000E+00 0. -1.
         11    1    3    3    0    0 -0.32193257404E+01 -0.26053491327E+00  0.26540666643E+01  0.41804314112E+01  0.51100000000E-03 0. -1.
        -11    1    3    3    0    0 -0.11957560358E+02 -0.17456582055E+02  0.15534933183E+02  0.26249755352E+02  0.51100000000E-03 0.  1.
        -12    1    3    3    0    0 -0.10382075596E+02 -0.68582607435E+01  0.95941561678E+01  0.15712131195E+02  0.00000000000E+00 0.  1.
</event>
<event>
 7    1  0.2227287E-008  0.4614232E+02  0.7816164E-02  0.1320468E+00
        -11   -1    0    0    0    0  0.00000000000E+00  0.00000000000E+00  0.45593999997E+02  0.45594000000E+02  0.51100000000E-03 0. -1.
         11   -1    0    0    0    0 -0.00000000000E+00 -0.00000000000E+00 -0.45593999997E+02  0.45594000000E+02  0.51100000000E-03 0.  1.
    9900012    2    1    2    0    0  0.42402442388E+02 -0.12002349995E+01  0.15156048553E+02  0.46142317718E+02  0.99999996058E+01 0.  0.
         12    1    1    2    0    0 -0.42402442388E+02  0.12002349995E+01 -0.15156048553E+02  0.45045682282E+02  0.00000000000E+00 0. -1.
         11    1    3    3    0    0  0.13693797453E+01 -0.64119881892E-01  0.24905520682E+01  0.28429143694E+01  0.51100000000E-03 0. -1.
        -11    1    3    3    0    0  0.34399424379E+02 -0.21642456417E+01  0.12228327742E+02  0.36572344147E+02  0.51100000000E-03 0.  1.
        -12    1    3    3    0    0  0.66336382638E+01  0.10281305241E+01  0.43716874334E+00  0.67270592014E+01  0.00000000000E+00 0.  1.
</event>
<event>
 7    1  0.2227287E-008  0.4614232E+02  0.7816164E-02  0.1320468E+00
        -11   -1    0    0    0    0  0.00000000000E+00  0.00000000000E+00  0.45593999997E+02  0.45594000000E+02  0.51100000000E-03 0. -1.
         11   -1    0    0    0    0 -0.00000000000E+00 -0.00000000000E+00 -0.45593999997E+02  0.45594000000E+02  0.51100000000E-03 0.  1.
    9900012    2    1    2    0    0  0.44772656367E+02 -0.26303601260E+01 -0.41956951440E+01  0.46142318628E+02  0.10000007907E+02 0.  0.
         12    1    1    2    0    0 -0.44772656367E+02  0.26303601260E+01  0.41956951440E+01  0.45045681372E+02  0.00000000000E+00 0. -1.
         11    1    3    3    0    0  0.23635396567E+01  0.73185000375E+00  0.11303158234E+01  0.27202092307E+01  0.51100000000E-03 0. -1.
        -11    1    3    3    0    0  0.42072325780E+02 -0.38428876697E+01 -0.58308413004E+01  0.42647943593E+02  0.51100000000E-03 0.  1.
        -12    1    3    3    0    0  0.33679093005E+00  0.48067754000E+00  0.50483033303E+00  0.77416580470E+00  0.00000000000E+00 0.  1.
</event>
<event>
 7    1  0.2227287E-008  0.4614232E+02  0.7816164E-02  0.1320468E+00
        -11   -1    0    0    0    0  0.00000000000E+00  0.00000000000E+00  0.45593999997E+02  0.45594000000E+02  0.51100000000E-03 0.  1.
         11   -1    0    0    0    0 -0.00000000000E+00 -0.00000000000E+00 -0.45593999997E+02  0.45594000000E+02  0.51100000000E-03 0. -1.
    9900012    2    1    2    0    0  0.33901137765E+02 -0.24098478071E+02  0.17294209188E+02  0.46142318093E+02  0.10000003024E+02 0.  0.
         12    1    1    2    0    0 -0.33901137765E+02  0.24098478071E+02 -0.17294209188E+02  0.45045681907E+02  0.00000000000E+00 0. -1.
         11    1    3    3    0    0  0.10514997552E+02 -0.11456614711E+02  0.43137013403E+01  0.16137757393E+02  0.51100000000E-03 0. -1.
        -11    1    3    3    0    0  0.74966483886E+01 -0.51713669887E+01  0.20923818966E+01  0.93445618333E+01  0.51100000000E-03 0.  1.
         12    1    3    3    0    0  0.15889491824E+02 -0.74704963714E+01  0.10888125951E+02  0.20659998867E+02  0.00000000000E+00 0. -1.
</event>
<event>
 7    1  0.2227287E-008  0.4614232E+02  0.7816164E-02  0.1320468E+00
        -11   -1    0    0    0    0  0.00000000000E+00  0.00000000000E+00  0.45593999997E+02  0.45594000000E+02  0.51100000000E-03 0.  1.
         11   -1    0    0    0    0 -0.00000000000E+00 -0.00000000000E+00 -0.45593999997E+02  0.45594000000E+02  0.51100000000E-03 0. -1.
    9900012    2    1    2    0    0  0.41684161562E+01 -0.19536369020E+02  0.40374102976E+02  0.46142316534E+02  0.99999888136E+01 0.  0.
         12    1    1    2    0    0 -0.41684161562E+01  0.19536369020E+02 -0.40374102976E+02  0.45045683466E+02  0.00000000000E+00 0. -1.
         11    1    3    3    0    0 -0.19974321856E+00 -0.70603212100E+01  0.77749911980E+01  0.10504214456E+02  0.51100000000E-03 0. -1.
        -11    1    3    3    0    0 -0.64509041662E-01 -0.83318225073E+01  0.18783235005E+02  0.20548317333E+02  0.51100000000E-03 0.  1.
        -12    1    3    3    0    0  0.44326684164E+01 -0.41442253031E+01  0.13815876773E+02  0.15089784745E+02  0.00000000000E+00 0.  1.
</event>
<event>
 7    1  0.2227287E-008  0.4614232E+02  0.7816164E-02  0.1320468E+00
        -11   -1    0    0    0    0  0.00000000000E+00  0.00000000000E+00  0.45593999997E+02  0.45594000000E+02  0.51100000000E-03 0.  1.
         11   -1    0    0    0    0 -0.00000000000E+00 -0.00000000000E+00 -0.45593999997E+02  0.45594000000E+02  0.51100000000E-03 0. -1.
    9900012    2    1    2    0    0 -0.10816654913E+02 -0.20138732807E+02  0.38814233845E+02  0.46142319501E+02  0.10000015869E+02 0.  0.
         12    1    1    2    0    0  0.10816654913E+02  0.20138732807E+02 -0.38814233845E+02  0.45045680499E+02  0.00000000000E+00 0. -1.
         11    1    3    3    0    0 -0.96071202941E+00 -0.50914158953E-01  0.15248696829E+01  0.18029940838E+01  0.51100000000E-03 0. -1.
        -11    1    3    3    0    0 -0.82419568229E+01 -0.14176951584E+02  0.19250773020E+02  0.25288496804E+02  0.51100000000E-03 0.  1.
        -12    1    3    3    0    0 -0.16139860606E+01 -0.59108670644E+01  0.18038591142E+02  0.19050828613E+02  0.00000000000E+00 0.  1.
</event>
<event>
 7    1  0.2227287E-008  0.4614231E+02  0.7816164E-02  0.1320468E+00
        -11   -1    0    0    0    0  0.00000000000E+00  0.00000000000E+00  0.45593999997E+02  0.45594000000E+02  0.51100000000E-03 0. -1.
         11   -1    0    0    0    0 -0.00000000000E+00 -0.00000000000E+00 -0.45593999997E+02  0.45594000000E+02  0.51100000000E-03 0.  1.
    9900012    2    1    2    0    0 -0.23565056501E+02  0.16607550916E+02 -0.34612018335E+02  0.46142307103E+02  0.99999028127E+01 0.  0.
         12    1    1    2    0    0  0.23565056501E+02 -0.16607550916E+02  0.34612018335E+02  0.45045692897E+02  0.00000000000E+00 0. -1.
         11    1    3    3    0    0  0.54395357941E+00  0.16378402045E+01 -0.18089843428E+01  0.25001661236E+01  0.51100000000E-03 0. -1.
        -11    1    3    3    0    0 -0.12781617974E+02  0.74550125971E+01 -0.20677716632E+02  0.25426657984E+02  0.51100000000E-03 0.  1.
         12    1    3    3    0    0 -0.11327392107E+02  0.75146981142E+01 -0.12125317360E+02  0.18215482996E+02  0.00000000000E+00 0. -1.
</event>
<event>
 7    1  0.2227287E-008  0.4614232E+02  0.7816164E-02  0.1320468E+00
        -11   -1    0    0    0    0  0.00000000000E+00  0.00000000000E+00  0.45593999997E+02  0.45594000000E+02  0.51100000000E-03 0.  1.
         11   -1    0    0    0    0 -0.00000000000E+00 -0.00000000000E+00 -0.45593999997E+02  0.45594000000E+02  0.51100000000E-03 0. -1.
    9900012    2    1    2    0    0  0.24672489950E+02 -0.18972360302E+02  0.32564264572E+02  0.46142317156E+02  0.99999944818E+01 0.  0.
         12    1    1    2    0    0 -0.24672489950E+02  0.18972360302E+02 -0.32564264572E+02  0.45045682844E+02  0.00000000000E+00 0. -1.
         11    1    3    3    0    0  0.88965541262E+00 -0.22097568214E+01  0.43470010003E+01  0.49569072939E+01  0.51100000000E-03 0. -1.
        -11    1    3    3    0    0  0.32973308898E+01 -0.60013689957E+01  0.59438291512E+01  0.90674101076E+01  0.51100000000E-03 0.  1.
         12    1    3    3    0    0  0.20485503648E+02 -0.10761234485E+02  0.22273434421E+02  0.32117999754E+02  0.00000000000E+00 0. -1.
</event>
<event>
 7    1  0.2227287E-008  0.4614232E+02  0.7816164E-02  0.1320468E+00
        -11   -1    0    0    0    0  0.00000000000E+00  0.00000000000E+00  0.45593999997E+02  0.45594000000E+02  0.51100000000E-03 0.  1.
         11   -1    0    0    0    0 -0.00000000000E+00 -0.00000000000E+00 -0.45593999997E+02  0.45594000000E+02  0.51100000000E-03 0. -1.
    9900012    2    1    2    0    0 -0.87503436554E+00  0.51109898259E+01  0.44746235001E+02  0.46142318199E+02  0.10000003997E+02 0.  0.
         12    1    1    2    0    0  0.87503436554E+00 -0.51109898259E+01 -0.44746235001E+02  0.45045681801E+02  0.00000000000E+00 0. -1.
         11    1    3    3    0    0 -0.18072699312E+00  0.30727114392E+01  0.19872197735E+02  0.20109163605E+02  0.51100000000E-03 0. -1.
        -11    1    3    3    0    0 -0.32992206074E+01 -0.60947148239E+00  0.16988549894E+02  0.17316672309E+02  0.51100000000E-03 0.  1.
         12    1    3    3    0    0  0.26049132350E+01  0.26477498691E+01  0.78854873719E+01  0.87164822849E+01  0.00000000000E+00 0. -1.
</event>
<event>
 7    1  0.2227287E-008  0.4614232E+02  0.7816164E-02  0.1320468E+00
        -11   -1    0    0    0    0  0.00000000000E+00  0.00000000000E+00  0.45593999997E+02  0.45594000000E+02  0.51100000000E-03 0. -1.
         11   -1    0    0    0    0 -0.00000000000E+00 -0.00000000000E+00 -0.45593999997E+02  0.45594000000E+02  0.51100000000E-03 0.  1.
    9900012    2    1    2    0    0  0.32121010979E+02 -0.22057037738E+02  0.22601794118E+02  0.46142319214E+02  0.10000013249E+02 0.  0.
         12    1    1    2    0    0 -0.32121010979E+02  0.22057037738E+02 -0.22601794118E+02  0.45045680786E+02  0.00000000000E+00 0. -1.
         11    1    3    3    0    0  0.83068820766E+00 -0.10451106751E+01  0.19894224701E+01  0.23958508400E+01  0.51100000000E-03 0. -1.
        -11    1    3    3    0    0  0.77698149669E+01 -0.62134274997E+01  0.96914169963E+01  0.13888854149E+02  0.51100000000E-03 0.  1.
        -12    1    3    3    0    0  0.23520507805E+02 -0.14798499563E+02  0.10920954652E+02  0.29857614225E+02  0.00000000000E+00 0.  1.
</event>
<event>
 7    1  0.2227287E-008  0.4614232E+02  0.7816164E-02  0.1320468E+00
        -11   -1    0    0    0    0  0.00000000000E+00  0.00000000000E+00  0.45593999997E+02  0.45594000000E+02  0.51100000000E-03 0.  1.
         11   -1    0    0    0    0 -0.00000000000E+00 -0.00000000000E+00 -0.45593999997E+02  0.45594000000E+02  0.51100000000E-03 0. -1.
    9900012    2    1    2    0    0  0.17708196192E+02  0.16878019827E+02  0.37824141600E+02  0.46142318149E+02  0.10000003537E+02 0.  0.
         12    1    1    2    0    0 -0.17708196192E+02 -0.16878019827E+02 -0.37824141600E+02  0.45045681851E+02  0.00000000000E+00 0. -1.
         11    1    3    3    0    0  0.72988950898E+01  0.41970362789E+01  0.12129802545E+02  0.14765537346E+02  0.51100000000E-03 0.  1.
        -11    1    3    3    0    0  0.92701544626E+01  0.95947198407E+01  0.24462172965E+02  0.27863817381E+02  0.51100000000E-03 0. -1.
         12    1    3    3    0    0  0.11391466396E+01  0.30862637070E+01  0.12321660892E+01  0.35129634224E+01  0.00000000000E+00 0. -1.
</event>
<event>
 7    1  0.2227287E-008  0.4614232E+02  0.7816164E-02  0.1320468E+00
        -11   -1    0    0    0    0  0.00000000000E+00  0.00000000000E+00  0.45593999997E+02  0.45594000000E+02  0.51100000000E-03 0. -1.
         11   -1    0    0    0    0 -0.00000000000E+00 -0.00000000000E+00 -0.45593999997E+02  0.45594000000E+02  0.51100000000E-03 0.  1.
    9900012    2    1    2    0    0  0.31553969987E+02  0.29930591988E+02 -0.11731160368E+02  0.46142317829E+02  0.10000000616E+02 0.  0.
         12    1    1    2    0    0 -0.31553969987E+02 -0.29930591988E+02  0.11731160368E+02  0.45045682171E+02  0.00000000000E+00 0. -1.
         11    1    3    3    0    0  0.12354518034E+02  0.84463072691E+01 -0.35357330518E+01  0.15377764168E+02  0.51100000000E-03 0. -1.
        -11    1    3    3    0    0  0.10701569903E+01  0.16319025976E+01 -0.26877032040E+01  0.33214591441E+01  0.51100000000E-03 0.  1.
         12    1    3    3    0    0  0.18129294963E+02  0.19852382121E+02 -0.55077241124E+01  0.27443094517E+02  0.00000000000E+00 0. -1.
</event>
<event>
 7    1  0.2227287E-008  0.4614232E+02  0.7816164E-02  0.1320468E+00
        -11   -1    0    0    0    0  0.00000000000E+00  0.00000000000E+00  0.45593999997E+02  0.45594000000E+02  0.51100000000E-03 0. -1.
         11   -1    0    0    0    0 -0.00000000000E+00 -0.00000000000E+00 -0.45593999997E+02  0.45594000000E+02  0.51100000000E-03 0.  1.
    9900012    2    1    2    0    0 -0.30537566714E+02 -0.14313281885E+02 -0.29861354247E+02  0.46142317669E+02  0.99999991625E+01 0.  0.
         12    1    1    2    0    0  0.30537566714E+02  0.14313281885E+02  0.29861354247E+02  0.45045682331E+02  0.00000000000E+00 0. -1.
         11    1    3    3    0    0 -0.12755745463E+02 -0.66057048916E+01 -0.97777404159E+01  0.17376667901E+02  0.51100000000E-03 0. -1.
        -11    1    3    3    0    0 -0.18281719488E+02 -0.67252062140E+01 -0.18773603785E+02  0.27053610949E+02  0.51100000000E-03 0.  1.
         12    1    3    3    0    0  0.49989823691E+00 -0.98237077970E+00 -0.13100100467E+01  0.17120388192E+01  0.00000000000E+00 0. -1.
</event>
<event>
 7    1  0.2227287E-008  0.4614232E+02  0.7816164E-02  0.1320468E+00
        -11   -1    0    0    0    0  0.00000000000E+00  0.00000000000E+00  0.45593999997E+02  0.45594000000E+02  0.51100000000E-03 0.  1.
         11   -1    0    0    0    0 -0.00000000000E+00 -0.00000000000E+00 -0.45593999997E+02  0.45594000000E+02  0.51100000000E-03 0. -1.
    9900012    2    1    2    0    0  0.28866458051E+02  0.20746230219E+02  0.27666494671E+02  0.46142318786E+02  0.10000009343E+02 0.  0.
         12    1    1    2    0    0 -0.28866458051E+02 -0.20746230219E+02 -0.27666494671E+02  0.45045681214E+02  0.00000000000E+00 0. -1.
         11    1    3    3    0    0  0.12091028963E+01  0.27656634909E+01  0.14944285149E+01  0.33681064719E+01  0.51100000000E-03 0. -1.
        -11    1    3    3    0    0  0.63789652850E+01  0.76249948834E+01  0.10073821435E+02  0.14153219550E+02  0.51100000000E-03 0.  1.
        -12    1    3    3    0    0  0.21278389869E+02  0.10355571844E+02  0.16098244721E+02  0.28620992763E+02  0.00000000000E+00 0.  1.
</event>
<event>
 7    1  0.2227287E-008  0.4614232E+02  0.7816164E-02  0.1320468E+00
        -11   -1    0    0    0    0  0.00000000000E+00  0.00000000000E+00  0.45593999997E+02  0.45594000000E+02  0.51100000000E-03 0.  1.
         11   -1    0    0    0    0 -0.00000000000E+00 -0.00000000000E+00 -0.45593999997E+02  0.45594000000E+02  0.51100000000E-03 0. -1.
    9900012    2    1    2    0    0  0.72274725147E+01 -0.20296751663E+02  0.39559057774E+02  0.46142317199E+02  0.99999948772E+01 0.  0.
         12    1    1    2    0    0 -0.72274725147E+01  0.20296751663E+02 -0.39559057774E+02  0.45045682801E+02  0.00000000000E+00 0. -1.
         11    1    3    3    0    0  0.12181592437E+01 -0.31307393156E-01  0.37015399993E+00  0.12735408673E+01  0.51100000000E-03 0. -1.
        -11    1    3    3    0    0  0.65833469827E+01 -0.16069780915E+02  0.28533115724E+02  0.33402350356E+02  0.51100000000E-03 0.  1.
         12    1    3    3    0    0 -0.57403371165E+00 -0.41956633549E+01  0.10655788050E+02  0.11466425976E+02  0.00000000000E+00 0. -1.
</event>
<event>
 7    1  0.2227287E-008  0.4614232E+02  0.7816164E-02  0.1320468E+00
        -11   -1    0    0    0    0  0.00000000000E+00  0.00000000000E+00  0.45593999997E+02  0.45594000000E+02  0.51100000000E-03 0. -1.
         11   -1    0    0    0    0 -0.00000000000E+00 -0.00000000000E+00 -0.45593999997E+02  0.45594000000E+02  0.51100000000E-03 0.  1.
    9900012    2    1    2    0    0 -0.93453054913E+00 -0.43591401003E+02  0.11315015674E+02  0.46142321313E+02  0.10000032386E+02 0.  0.
         12    1    1    2    0    0  0.93453054913E+00  0.43591401003E+02 -0.11315015674E+02  0.45045678687E+02  0.00000000000E+00 0. -1.
         11    1    3    3    0    0  0.10100576797E+01 -0.15412664896E+02  0.71209884584E+01  0.17008201921E+02  0.51100000000E-03 0. -1.
        -11    1    3    3    0    0 -0.23111792542E+01 -0.17420553072E+02  0.51903776543E+01  0.18323679744E+02  0.51100000000E-03 0.  1.
         12    1    3    3    0    0  0.36659102537E+00 -0.10758183034E+02 -0.99635043917E+00  0.10810439647E+02  0.00000000000E+00 0. -1.
</event>
<event>
 7    1  0.2227287E-008  0.4614232E+02  0.7816164E-02  0.1320468E+00
        -11   -1    0    0    0    0  0.00000000000E+00  0.00000000000E+00  0.45593999997E+02  0.45594000000E+02  0.51100000000E-03 0.  1.
         11   -1    0    0    0    0 -0.00000000000E+00 -0.00000000000E+00 -0.45593999997E+02  0.45594000000E+02  0.51100000000E-03 0. -1.
    9900012    2    1    2    0    0 -0.93071796927E+01 -0.43515168269E+02  0.69942681395E+01  0.46142320405E+02  0.10000024111E+02 0.  0.
         12    1    1    2    0    0  0.93071796927E+01  0.43515168269E+02 -0.69942681395E+01  0.45045679595E+02  0.00000000000E+00 0. -1.
         11    1    3    3    0    0 -0.11598766020E+01 -0.21949523217E+01  0.19252960582E+01  0.31416388397E+01  0.51100000000E-03 0. -1.
        -11    1    3    3    0    0 -0.63803309805E+01 -0.15812670876E+02  0.73422863978E+00  0.17067169525E+02  0.51100000000E-03 0.  1.
        -12    1    3    3    0    0 -0.17669721103E+01 -0.25507545072E+02  0.43347434416E+01  0.25933512041E+02  0.00000000000E+00 0.  1.
</event>
<event>
 7    1  0.2227287E-008  0.4614232E+02  0.7816164E-02  0.1320468E+00
        -11   -1    0    0    0    0  0.00000000000E+00  0.00000000000E+00  0.45593999997E+02  0.45594000000E+02  0.51100000000E-03 0.  1.
         11   -1    0    0    0    0 -0.00000000000E+00 -0.00000000000E+00 -0.45593999997E+02  0.45594000000E+02  0.51100000000E-03 0. -1.
    9900012    2    1    2    0    0 -0.47952244362E+01 -0.44087672245E+02  0.78991203159E+01  0.46142321815E+02  0.10000036964E+02 0.  0.
         12    1    1    2    0    0  0.47952244362E+01  0.44087672245E+02 -0.78991203159E+01  0.45045678185E+02  0.00000000000E+00 0. -1.
         11    1    3    3    0    0  0.13736994890E+01 -0.74676251205E+01  0.31286191844E+01  0.82122307255E+01  0.51100000000E-03 0. -1.
        -11    1    3    3    0    0 -0.36854406281E+00 -0.11222366167E+02  0.38225056056E+01  0.11861234188E+02  0.51100000000E-03 0.  1.
         12    1    3    3    0    0 -0.58003798624E+01 -0.25397680958E+02  0.94799552581E+00  0.26068856901E+02  0.00000000000E+00 0. -1.
</event>
<event>
 7    1  0.2227287E-008  0.4614232E+02  0.7816164E-02  0.1320468E+00
        -11   -1    0    0    0    0  0.00000000000E+00  0.00000000000E+00  0.45593999997E+02  0.45594000000E+02  0.51100000000E-03 0.  1.
         11   -1    0    0    0    0 -0.00000000000E+00 -0.00000000000E+00 -0.45593999997E+02  0.45594000000E+02  0.51100000000E-03 0. -1.
    9900012    2    1    2    0    0  0.29866241429E+02  0.26869776562E+02  0.20374892079E+02  0.46142317668E+02  0.99999991481E+01 0.  0.
         12    1    1    2    0    0 -0.29866241429E+02 -0.26869776562E+02 -0.20374892079E+02  0.45045682332E+02  0.00000000000E+00 0. -1.
         11    1    3    3    0    0  0.38908037070E+01  0.82280921733E-02  0.16196778781E+01  0.42144724317E+01  0.51100000000E-03 0. -1.
        -11    1    3    3    0    0  0.51758850558E+01  0.72387530182E+01  0.41533021565E+01  0.98203487939E+01  0.51100000000E-03 0.  1.
        -12    1    3    3    0    0  0.20799552666E+02  0.19622795452E+02  0.14601912044E+02  0.32107496442E+02  0.00000000000E+00 0.  1.
</event>
<event>
 7    1  0.2227287E-008  0.4614232E+02  0.7816164E-02  0.1320468E+00
        -11   -1    0    0    0    0  0.00000000000E+00  0.00000000000E+00  0.45593999997E+02  0.45594000000E+02  0.51100000000E-03 0.  1.
         11   -1    0    0    0    0 -0.00000000000E+00 -0.00000000000E+00 -0.45593999997E+02  0.45594000000E+02  0.51100000000E-03 0. -1.
    9900012    2    1    2    0    0 -0.25164897855E+02  0.33646511638E+02  0.16240494159E+02  0.46142317854E+02  0.10000000850E+02 0.  0.
         12    1    1    2    0    0  0.25164897855E+02 -0.33646511638E+02 -0.16240494159E+02  0.45045682146E+02  0.00000000000E+00 0. -1.
         11    1    3    3    0    0 -0.64669468788E+00 -0.23316712992E+00 -0.44078529851E+00  0.81662284459E+00  0.51100000000E-03 0. -1.
        -11    1    3    3    0    0 -0.10884997675E+02  0.18798605014E+02  0.71198956183E+01  0.22859650888E+02  0.51100000000E-03 0.  1.
         12    1    3    3    0    0 -0.13633205491E+02  0.15081073754E+02  0.95613838393E+01  0.22466044122E+02  0.00000000000E+00 0. -1.
</event>
<event>
 7    1  0.2227287E-008  0.4614231E+02  0.7816164E-02  0.1320468E+00
        -11   -1    0    0    0    0  0.00000000000E+00  0.00000000000E+00  0.45593999997E+02  0.45594000000E+02  0.51100000000E-03 0. -1.
         11   -1    0    0    0    0 -0.00000000000E+00 -0.00000000000E+00 -0.45593999997E+02  0.45594000000E+02  0.51100000000E-03 0.  1.
    9900012    2    1    2    0    0  0.35861591702E+02 -0.27184129427E+02 -0.20206899118E+01  0.46142313860E+02  0.99999644263E+01 0.  0.
         12    1    1    2    0    0 -0.35861591702E+02  0.27184129427E+02  0.20206899118E+01  0.45045686140E+02  0.00000000000E+00 0. -1.
         11    1    3    3    0    0  0.55128152869E+01 -0.91320838614E+00  0.81666272073E+00  0.56473020288E+01  0.51100000000E-03 0. -1.
        -11    1    3    3    0    0  0.19538196154E+02 -0.15022769467E+02 -0.34259616978E+01  0.24882964559E+02  0.51100000000E-03 0.  1.
         12    1    3    3    0    0  0.10810580261E+02 -0.11248151573E+02  0.58860906533E+00  0.15612047273E+02  0.00000000000E+00 0. -1.
</event>
<event>
 7    1  0.2227287E-008  0.4614232E+02  0.7816164E-02  0.1320468E+00
        -11   -1    0    0    0    0  0.00000000000E+00  0.00000000000E+00  0.45593999997E+02  0.45594000000E+02  0.51100000000E-03 0.  1.
         11   -1    0    0    0    0 -0.00000000000E+00 -0.00000000000E+00 -0.45593999997E+02  0.45594000000E+02  0.51100000000E-03 0. -1.
    9900012    2    1    2    0    0  0.66597202735E+01  0.28791740049E+02  0.33997017610E+02  0.46142319014E+02  0.10000011423E+02 0.  0.
         12    1    1    2    0    0 -0.66597202735E+01 -0.28791740049E+02 -0.33997017610E+02  0.45045680986E+02  0.00000000000E+00 0. -1.
         11    1    3    3    0    0  0.46130294797E+01  0.15617149556E+02  0.17434430038E+02  0.23856545271E+02  0.51100000000E-03 0.  1.
        -11    1    3    3    0    0 -0.10232605467E+01  0.70014651403E+00  0.44852378263E+01  0.46534531165E+01  0.51100000000E-03 0. -1.
         12    1    3    3    0    0  0.30699513405E+01  0.12474443979E+02  0.12077349745E+02  0.17632320627E+02  0.00000000000E+00 0. -1.
</event>
<event>
 7    1  0.2227287E-008  0.4614232E+02  0.7816164E-02  0.1320468E+00
        -11   -1    0    0    0    0  0.00000000000E+00  0.00000000000E+00  0.45593999997E+02  0.45594000000E+02  0.51100000000E-03 0.  1.
         11   -1    0    0    0    0 -0.00000000000E+00 -0.00000000000E+00 -0.45593999997E+02  0.45594000000E+02  0.51100000000E-03 0. -1.
    9900012    2    1    2    0    0 -0.65224943985E+01  0.12090067299E+02  0.42899893920E+02  0.46142316979E+02  0.99999928693E+01 0.  0.
         12    1    1    2    0    0  0.65224943985E+01 -0.12090067299E+02 -0.42899893920E+02  0.45045683021E+02  0.00000000000E+00 0. -1.
         11    1    3    3    0    0 -0.73218885711E+01  0.65549737632E+01  0.29297867036E+02  0.30902147925E+02  0.51100000000E-03 0. -1.
        -11    1    3    3    0    0 -0.54833456938E+00  0.44868204973E+01  0.12265365748E+02  0.13071779763E+02  0.51100000000E-03 0.  1.
         12    1    3    3    0    0  0.13477287420E+01  0.10482730384E+01  0.13366611364E+01  0.21683892913E+01  0.00000000000E+00 0. -1.
</event>
<event>
 7    1  0.2227287E-008  0.4614232E+02  0.7816164E-02  0.1320468E+00
        -11   -1    0    0    0    0  0.00000000000E+00  0.00000000000E+00  0.45593999997E+02  0.45594000000E+02  0.51100000000E-03 0. -1.
         11   -1    0    0    0    0 -0.00000000000E+00 -0.00000000000E+00 -0.45593999997E+02  0.45594000000E+02  0.51100000000E-03 0.  1.
    9900012    2    1    2    0    0  0.13781266628E+02 -0.39443541461E+02  0.16834405079E+02  0.46142317996E+02  0.10000002142E+02 0.  0.
         12    1    1    2    0    0 -0.13781266628E+02  0.39443541461E+02 -0.16834405079E+02  0.45045682004E+02  0.00000000000E+00 0. -1.
         11    1    3    3    0    0 -0.53431010731E+00 -0.15971205093E+01 -0.65650863210E-01  0.16854054435E+01  0.51100000000E-03 0. -1.
        -11    1    3    3    0    0  0.12701500271E+02 -0.32431563265E+02  0.11602929079E+02  0.36711883204E+02  0.51100000000E-03 0.  1.
        -12    1    3    3    0    0  0.16140764644E+01 -0.54148576867E+01  0.52971268630E+01  0.77450293481E+01  0.00000000000E+00 0.  1.
</event>
<event>
 7    1  0.2227287E-008  0.4614232E+02  0.7816164E-02  0.1320468E+00
        -11   -1    0    0    0    0  0.00000000000E+00  0.00000000000E+00  0.45593999997E+02  0.45594000000E+02  0.51100000000E-03 0. -1.
         11   -1    0    0    0    0 -0.00000000000E+00 -0.00000000000E+00 -0.45593999997E+02  0.45594000000E+02  0.51100000000E-03 0.  1.
    9900012    2    1    2    0    0 -0.13066022181E+02 -0.12805930378E+02 -0.41163100534E+02  0.46142316144E+02  0.99999852517E+01 0.  0.
         12    1    1    2    0    0  0.13066022181E+02  0.12805930378E+02  0.41163100534E+02  0.45045683856E+02  0.00000000000E+00 0. -1.
         11    1    3    3    0    0  0.29599393497E+00 -0.73509401216E+00 -0.55317731260E+01  0.55882456814E+01  0.51100000000E-03 0. -1.
        -11    1    3    3    0    0 -0.44829387390E+01 -0.18658197137E+00 -0.71593474360E+01  0.84491306381E+01  0.51100000000E-03 0.  1.
         12    1    3    3    0    0 -0.88790773772E+01 -0.11884254395E+02 -0.28471979972E+02  0.32104939824E+02  0.00000000000E+00 0. -1.
</event>
<event>
 7    1  0.2227287E-008  0.4614232E+02  0.7816164E-02  0.1320468E+00
        -11   -1    0    0    0    0  0.00000000000E+00  0.00000000000E+00  0.45593999997E+02  0.45594000000E+02  0.51100000000E-03 0. -1.
         11   -1    0    0    0    0 -0.00000000000E+00 -0.00000000000E+00 -0.45593999997E+02  0.45594000000E+02  0.51100000000E-03 0.  1.
    9900012    2    1    2    0    0 -0.45770225319E+01 -0.10289422536E+02 -0.43615274099E+02  0.46142317786E+02  0.10000000228E+02 0.  0.
         12    1    1    2    0    0  0.45770225319E+01  0.10289422536E+02  0.43615274099E+02  0.45045682214E+02  0.00000000000E+00 0. -1.
         11    1    3    3    0    0  0.26182986036E+01 -0.39814915080E+01 -0.14744341095E+02  0.15495268852E+02  0.51100000000E-03 0. -1.
        -11    1    3    3    0    0 -0.40539926945E+00 -0.68861442454E-01 -0.56101132929E+01  0.56251632764E+01  0.51100000000E-03 0.  1.
         12    1    3    3    0    0 -0.67899218661E+01 -0.62390695854E+01 -0.23260819711E+02  0.25021885658E+02  0.00000000000E+00 0. -1.
</event>
<event>
 7    1  0.2227287E-008  0.4614232E+02  0.7816164E-02  0.1320468E+00
        -11   -1    0    0    0    0  0.00000000000E+00  0.00000000000E+00  0.45593999997E+02  0.45594000000E+02  0.51100000000E-03 0.  1.
         11   -1    0    0    0    0 -0.00000000000E+00 -0.00000000000E+00 -0.45593999997E+02  0.45594000000E+02  0.51100000000E-03 0. -1.
    9900012    2    1    2    0    0 -0.70544801549E+01 -0.15414782739E+02  0.41734066667E+02  0.46142317213E+02  0.99999950032E+01 0.  0.
         12    1    1    2    0    0  0.70544801549E+01  0.15414782739E+02 -0.41734066667E+02  0.45045682787E+02  0.00000000000E+00 0. -1.
         11    1    3    3    0    0 -0.46913821197E+01 -0.39916369985E+01  0.85553772845E+01  0.10542139862E+02  0.51100000000E-03 0. -1.
        -11    1    3    3    0    0  0.15438451788E+01 -0.58816929299E+01  0.14224952818E+02  0.15470198854E+02  0.51100000000E-03 0.  1.
        -12    1    3    3    0    0 -0.39069432140E+01 -0.55414528106E+01  0.18953736565E+02  0.20129978497E+02  0.00000000000E+00 0.  1.
</event>
<event>
 7    1  0.2227287E-008  0.4614232E+02  0.7816164E-02  0.1320468E+00
        -11   -1    0    0    0    0  0.00000000000E+00  0.00000000000E+00  0.45593999997E+02  0.45594000000E+02  0.51100000000E-03 0. -1.
         11   -1    0    0    0    0 -0.00000000000E+00 -0.00000000000E+00 -0.45593999997E+02  0.45594000000E+02  0.51100000000E-03 0.  1.
    9900012    2    1    2    0    0  0.32041593773E+02 -0.31071164414E+02  0.60854350436E+01  0.46142317529E+02  0.99999978876E+01 0.  0.
         12    1    1    2    0    0 -0.32041593773E+02  0.31071164414E+02 -0.60854350436E+01  0.45045682471E+02  0.00000000000E+00 0. -1.
         11    1    3    3    0    0  0.14607528278E+01 -0.41845937042E+00  0.10130804847E+01  0.18262637811E+01  0.51100000000E-03 0. -1.
        -11    1    3    3    0    0  0.26517015557E+02 -0.24239384550E+02  0.67136351255E+01  0.36548225323E+02  0.51100000000E-03 0.  1.
         12    1    3    3    0    0  0.40638253875E+01 -0.64133204944E+01 -0.16412805666E+01  0.77678284251E+01  0.00000000000E+00 0. -1.
</event>
<event>
 7    1  0.2227287E-008  0.4614232E+02  0.7816164E-02  0.1320468E+00
        -11   -1    0    0    0    0  0.00000000000E+00  0.00000000000E+00  0.45593999997E+02  0.45594000000E+02  0.51100000000E-03 0. -1.
         11   -1    0    0    0    0 -0.00000000000E+00 -0.00000000000E+00 -0.45593999997E+02  0.45594000000E+02  0.51100000000E-03 0.  1.
    9900012    2    1    2    0    0  0.69096680977E+01 -0.89543708339E+01 -0.43602627360E+02  0.46142318932E+02  0.10000010673E+02 0.  0.
         12    1    1    2    0    0 -0.69096680977E+01  0.89543708339E+01  0.43602627360E+02  0.45045681068E+02  0.00000000000E+00 0. -1.
         11    1    3    3    0    0  0.81862926713E+00 -0.15788538782E+01 -0.15201178925E+02  0.15304861137E+02  0.51100000000E-03 0. -1.
        -11    1    3    3    0    0  0.68037327724E+01 -0.40821300913E+01 -0.24104946014E+02  0.25377213959E+02  0.51100000000E-03 0.  1.
        -12    1    3    3    0    0 -0.71269394183E+00 -0.32933868645E+01 -0.42965024205E+01  0.54602438355E+01  0.00000000000E+00 0.  1.
</event>
<event>
 7    1  0.2227287E-008  0.4614232E+02  0.7816164E-02  0.1320468E+00
        -11   -1    0    0    0    0  0.00000000000E+00  0.00000000000E+00  0.45593999997E+02  0.45594000000E+02  0.51100000000E-03 0.  1.
         11   -1    0    0    0    0 -0.00000000000E+00 -0.00000000000E+00 -0.45593999997E+02  0.45594000000E+02  0.51100000000E-03 0. -1.
    9900012    2    1    2    0    0  0.26037986391E+02  0.36706497825E+02  0.19415872786E+01  0.46142317865E+02  0.10000000943E+02 0.  0.
         12    1    1    2    0    0 -0.26037986391E+02 -0.36706497825E+02 -0.19415872786E+01  0.45045682135E+02  0.00000000000E+00 0. -1.
         11    1    3    3    0    0  0.66875419733E+01  0.10756041485E+02 -0.10921201775E+01  0.12712528184E+02  0.51100000000E-03 0.  1.
        -11    1    3    3    0    0  0.19228146151E+02  0.23692069993E+02  0.43368369873E+01  0.30819538288E+02  0.51100000000E-03 0. -1.
         12    1    3    3    0    0  0.12229826606E+00  0.22583863473E+01 -0.13031295312E+01  0.26102513930E+01  0.00000000000E+00 0. -1.
</event>
<event>
 7    1  0.2227287E-008  0.4614232E+02  0.7816164E-02  0.1320468E+00
        -11   -1    0    0    0    0  0.00000000000E+00  0.00000000000E+00  0.45593999997E+02  0.45594000000E+02  0.51100000000E-03 0. -1.
         11   -1    0    0    0    0 -0.00000000000E+00 -0.00000000000E+00 -0.45593999997E+02  0.45594000000E+02  0.51100000000E-03 0.  1.
    9900012    2    1    2    0    0  0.40243499290E+00  0.10920462734E+02 -0.43700057754E+02  0.46142317543E+02  0.99999980130E+01 0.  0.
         12    1    1    2    0    0 -0.40243499290E+00 -0.10920462734E+02  0.43700057754E+02  0.45045682457E+02  0.00000000000E+00 0. -1.
         11    1    3    3    0    0  0.29083452268E+01  0.40734434704E+01 -0.17813164834E+02  0.18502979634E+02  0.51100000000E-03 0. -1.
        -11    1    3    3    0    0 -0.13840005575E+00  0.71949163313E+01 -0.17614118525E+02  0.19027431441E+02  0.51100000000E-03 0.  1.
         12    1    3    3    0    0 -0.23675101782E+01 -0.34789706722E+00 -0.82727743954E+01  0.86119064678E+01  0.00000000000E+00 0. -1.
</event>
<event>
 7    1  0.2227287E-008  0.4614232E+02  0.7816164E-02  0.1320468E+00
        -11   -1    0    0    0    0  0.00000000000E+00  0.00000000000E+00  0.45593999997E+02  0.45594000000E+02  0.51100000000E-03 0.  1.
         11   -1    0    0    0    0 -0.00000000000E+00 -0.00000000000E+00 -0.45593999997E+02  0.45594000000E+02  0.51100000000E-03 0. -1.
    9900012    2    1    2    0    0 -0.39139724106E+02 -0.30811530408E+01  0.22083976521E+02  0.46142317342E+02  0.99999961764E+01 0.  0.
         12    1    1    2    0    0  0.39139724106E+02  0.30811530408E+01 -0.22083976521E+02  0.45045682658E+02  0.00000000000E+00 0. -1.
         11    1    3    3    0    0 -0.36206587277E+02 -0.27023337567E+01  0.22983635384E+02  0.42970537182E+02  0.51100000000E-03 0.  1.
        -11    1    3    3    0    0 -0.14569548624E+01 -0.53274527852E+00 -0.35997435758E+00  0.15925190116E+01  0.51100000000E-03 0. -1.
        -12    1    3    3    0    0 -0.14761819668E+01  0.15392599443E+00 -0.53968450487E+00  0.15792611487E+01  0.00000000000E+00 0.  1.
</event>
<event>
 7    1  0.2227287E-008  0.4614232E+02  0.7816164E-02  0.1320468E+00
        -11   -1    0    0    0    0  0.00000000000E+00  0.00000000000E+00  0.45593999997E+02  0.45594000000E+02  0.51100000000E-03 0.  1.
         11   -1    0    0    0    0 -0.00000000000E+00 -0.00000000000E+00 -0.45593999997E+02  0.45594000000E+02  0.51100000000E-03 0. -1.
    9900012    2    1    2    0    0  0.10729285622E+02 -0.43177556926E+02  0.70494312191E+01  0.46142317936E+02  0.10000001599E+02 0.  0.
         12    1    1    2    0    0 -0.10729285622E+02  0.43177556926E+02 -0.70494312191E+01  0.45045682064E+02  0.00000000000E+00 0. -1.
         11    1    3    3    0    0  0.48797511086E+01 -0.15288429752E+02 -0.47910560526E+00  0.16055453828E+02  0.51100000000E-03 0.  1.
        -11    1    3    3    0    0  0.13187791097E+01 -0.96291656355E+01  0.54916630533E+01  0.11163259942E+02  0.51100000000E-03 0. -1.
         12    1    3    3    0    0  0.45307554036E+01 -0.18259961538E+02  0.20368737711E+01  0.18923604167E+02  0.00000000000E+00 0. -1.
</event>
<event>
 7    1  0.2227287E-008  0.4614232E+02  0.7816164E-02  0.1320468E+00
        -11   -1    0    0    0    0  0.00000000000E+00  0.00000000000E+00  0.45593999997E+02  0.45594000000E+02  0.51100000000E-03 0.  1.
         11   -1    0    0    0    0 -0.00000000000E+00 -0.00000000000E+00 -0.45593999997E+02  0.45594000000E+02  0.51100000000E-03 0. -1.
    9900012    2    1    2    0    0 -0.20225419408E+02  0.14470655302E+02  0.37558568088E+02  0.46142317722E+02  0.99999996438E+01 0.  0.
         12    1    1    2    0    0  0.20225419408E+02 -0.14470655302E+02 -0.37558568088E+02  0.45045682278E+02  0.00000000000E+00 0. -1.
         11    1    3    3    0    0 -0.65341540721E+00  0.21728227043E+01  0.78662443372E+01  0.81869353504E+01  0.51100000000E-03 0. -1.
        -11    1    3    3    0    0 -0.28735397373E+00 -0.43706863742E+00  0.82802408923E+00  0.97940055825E+00  0.51100000000E-03 0.  1.
        -12    1    3    3    0    0 -0.19284650027E+02  0.12734901235E+02  0.28864299661E+02  0.36975981813E+02  0.00000000000E+00 0.  1.
</event>
<event>
 7    1  0.2227287E-008  0.4614232E+02  0.7816164E-02  0.1320468E+00
        -11   -1    0    0    0    0  0.00000000000E+00  0.00000000000E+00  0.45593999997E+02  0.45594000000E+02  0.51100000000E-03 0.  1.
         11   -1    0    0    0    0 -0.00000000000E+00 -0.00000000000E+00 -0.45593999997E+02  0.45594000000E+02  0.51100000000E-03 0. -1.
    9900012    2    1    2    0    0 -0.19364491541E+02  0.22440925614E+02  0.33919533887E+02  0.46142318140E+02  0.10000003459E+02 0.  0.
         12    1    1    2    0    0  0.19364491541E+02 -0.22440925614E+02 -0.33919533887E+02  0.45045681860E+02  0.00000000000E+00 0. -1.
         11    1    3    3    0    0 -0.85899719505E+01  0.11721099855E+02  0.18350782611E+02  0.23407755608E+02  0.51100000000E-03 0. -1.
        -11    1    3    3    0    0 -0.62192216920E+01  0.95602907964E+01  0.13283370523E+02  0.17507878549E+02  0.51100000000E-03 0.  1.
         12    1    3    3    0    0 -0.45552978983E+01  0.11595349632E+01  0.22853807527E+01  0.52266839830E+01  0.00000000000E+00 0. -1.
</event>
<event>
 7    1  0.2227287E-008  0.4614231E+02  0.7816164E-02  0.1320468E+00
        -11   -1    0    0    0    0  0.00000000000E+00  0.00000000000E+00  0.45593999997E+02  0.45594000000E+02  0.51100000000E-03 0.  1.
         11   -1    0    0    0    0 -0.00000000000E+00 -0.00000000000E+00 -0.45593999997E+02  0.45594000000E+02  0.51100000000E-03 0. -1.
    9900012    2    1    2    0    0  0.82143575555E+01  0.11933899022E+02  0.42652318380E+02  0.46142313424E+02  0.99999604511E+01 0.  0.
         12    1    1    2    0    0 -0.82143575555E+01 -0.11933899022E+02 -0.42652318380E+02  0.45045686576E+02  0.00000000000E+00 0. -1.
         11    1    3    3    0    0  0.29671722840E+01  0.65215868527E+00  0.16020213221E+02  0.16305724584E+02  0.51100000000E-03 0.  1.
        -11    1    3    3    0    0  0.37939143229E+01  0.30495200302E+01  0.72944136803E+01  0.87693688202E+01  0.51100000000E-03 0. -1.
        -12    1    3    3    0    0  0.14532709485E+01  0.82322203068E+01  0.19337691479E+02  0.21067220020E+02  0.00000000000E+00 0.  1.
</event>
<event>
 7    1  0.2227287E-008  0.4614232E+02  0.7816164E-02  0.1320468E+00
        -11   -1    0    0    0    0  0.00000000000E+00  0.00000000000E+00  0.45593999997E+02  0.45594000000E+02  0.51100000000E-03 0.  1.
         11   -1    0    0    0    0 -0.00000000000E+00 -0.00000000000E+00 -0.45593999997E+02  0.45594000000E+02  0.51100000000E-03 0. -1.
    9900012    2    1    2    0    0  0.35451753114E+02 -0.10674202780E+02  0.25658294159E+02  0.46142318042E+02  0.10000002565E+02 0.  0.
         12    1    1    2    0    0 -0.35451753114E+02  0.10674202780E+02 -0.25658294159E+02  0.45045681958E+02  0.00000000000E+00 0. -1.
         11    1    3    3    0    0  0.39897151545E+01  0.53963320868E+00  0.64535241675E+01  0.76063792606E+01  0.51100000000E-03 0. -1.
        -11    1    3    3    0    0  0.17665568049E+02 -0.59437775033E+01  0.10927413927E+02  0.21605766844E+02  0.51100000000E-03 0.  1.
         12    1    3    3    0    0  0.13796469911E+02 -0.52700584854E+01  0.82773560647E+01  0.16930171938E+02  0.00000000000E+00 0. -1.
</event>
<event>
 7    1  0.2227287E-008  0.4614232E+02  0.7816164E-02  0.1320468E+00
        -11   -1    0    0    0    0  0.00000000000E+00  0.00000000000E+00  0.45593999997E+02  0.45594000000E+02  0.51100000000E-03 0.  1.
         11   -1    0    0    0    0 -0.00000000000E+00 -0.00000000000E+00 -0.45593999997E+02  0.45594000000E+02  0.51100000000E-03 0. -1.
    9900012    2    1    2    0    0 -0.33026067121E+02  0.15673320100E+02 -0.26319942801E+02  0.46142318060E+02  0.10000002722E+02 0.  0.
         12    1    1    2    0    0  0.33026067121E+02 -0.15673320100E+02  0.26319942801E+02  0.45045681940E+02  0.00000000000E+00 0. -1.
         11    1    3    3    0    0 -0.16552383112E+02  0.74796408782E+01 -0.97111019999E+01  0.20596890946E+02  0.51100000000E-03 0. -1.
        -11    1    3    3    0    0 -0.12122634170E+02  0.29813239644E+01 -0.12164470922E+02  0.17430459112E+02  0.51100000000E-03 0.  1.
         12    1    3    3    0    0 -0.43510498394E+01  0.52123552569E+01 -0.44443698794E+01  0.81149680008E+01  0.00000000000E+00 0. -1.
</event>
<event>
 7    1  0.2227287E-008  0.4614232E+02  0.7816164E-02  0.1320468E+00
        -11   -1    0    0    0    0  0.00000000000E+00  0.00000000000E+00  0.45593999997E+02  0.45594000000E+02  0.51100000000E-03 0.  1.
         11   -1    0    0    0    0 -0.00000000000E+00 -0.00000000000E+00 -0.45593999997E+02  0.45594000000E+02  0.51100000000E-03 0. -1.
    9900012    2    1    2    0    0  0.14885082620E+02  0.41662822315E+02  0.84709637502E+01  0.46142315693E+02  0.99999811390E+01 0.  0.
         12    1    1    2    0    0 -0.14885082620E+02 -0.41662822315E+02 -0.84709637502E+01  0.45045684307E+02  0.00000000000E+00 0. -1.
         11    1    3    3    0    0  0.21012616980E+00  0.16153239895E+01 -0.12338968873E+01  0.20435083528E+01  0.51100000000E-03 0. -1.
        -11    1    3    3    0    0  0.44836965267E+01  0.20220598012E+02  0.41290646295E+01  0.21119310914E+02  0.51100000000E-03 0.  1.
        -12    1    3    3    0    0  0.10191259924E+02  0.19826900313E+02  0.55757960080E+01  0.22979496426E+02  0.00000000000E+00 0.  1.
</event>
<event>
 7    1  0.2227287E-008  0.4614232E+02  0.7816164E-02  0.1320468E+00
        -11   -1    0    0    0    0  0.00000000000E+00  0.00000000000E+00  0.45593999997E+02  0.45594000000E+02  0.51100000000E-03 0.  1.
         11   -1    0    0    0    0 -0.00000000000E+00 -0.00000000000E+00 -0.45593999997E+02  0.45594000000E+02  0.51100000000E-03 0. -1.
    9900012    2    1    2    0    0 -0.67168242327E+01  0.32921117596E+01  0.44420261185E+02  0.46142319504E+02  0.10000015889E+02 0.  0.
         12    1    1    2    0    0  0.67168242327E+01 -0.32921117596E+01 -0.44420261185E+02  0.45045680496E+02  0.00000000000E+00 0. -1.
         11    1    3    3    0    0 -0.18003254642E+01  0.37365202348E+01  0.13262808356E+02  0.13896216787E+02  0.51100000000E-03 0. -1.
        -11    1    3    3    0    0  0.48497203746E+00  0.33775464619E+00  0.17892149327E+02  0.17901907269E+02  0.51100000000E-03 0.  1.
        -12    1    3    3    0    0 -0.54014708060E+01 -0.78216312134E+00  0.13265303502E+02  0.14344195447E+02  0.00000000000E+00 0.  1.
</event>
<event>
 7    1  0.2227287E-008  0.4614232E+02  0.7816164E-02  0.1320468E+00
        -11   -1    0    0    0    0  0.00000000000E+00  0.00000000000E+00  0.45593999997E+02  0.45594000000E+02  0.51100000000E-03 0.  1.
         11   -1    0    0    0    0 -0.00000000000E+00 -0.00000000000E+00 -0.45593999997E+02  0.45594000000E+02  0.51100000000E-03 0. -1.
    9900012    2    1    2    0    0 -0.14976909392E+01  0.24010674000E+02  0.38083565246E+02  0.46142317788E+02  0.10000000246E+02 0.  0.
         12    1    1    2    0    0  0.14976909392E+01 -0.24010674000E+02 -0.38083565246E+02  0.45045682212E+02  0.00000000000E+00 0. -1.
         11    1    3    3    0    0 -0.41420268956E+01  0.10269221653E+02  0.14050583301E+02  0.17889443578E+02  0.51100000000E-03 0. -1.
        -11    1    3    3    0    0  0.27412651329E+01  0.29470208629E+01  0.56989007278E+01  0.69768858570E+01  0.51100000000E-03 0.  1.
        -12    1    3    3    0    0 -0.96929176520E-01  0.10794431484E+02  0.18334081218E+02  0.21275988353E+02  0.00000000000E+00 0.  1.
</event>
<event>
 7    1  0.2227287E-008  0.4614232E+02  0.7816164E-02  0.1320468E+00
        -11   -1    0    0    0    0  0.00000000000E+00  0.00000000000E+00  0.45593999997E+02  0.45594000000E+02  0.51100000000E-03 0.  1.
         11   -1    0    0    0    0 -0.00000000000E+00 -0.00000000000E+00 -0.45593999997E+02  0.45594000000E+02  0.51100000000E-03 0. -1.
    9900012    2    1    2    0    0  0.12670815521E+02  0.29970411130E+02  0.31150256547E+02  0.46142316608E+02  0.99999894884E+01 0.  0.
         12    1    1    2    0    0 -0.12670815521E+02 -0.29970411130E+02 -0.31150256547E+02  0.45045683392E+02  0.00000000000E+00 0. -1.
         11    1    3    3    0    0  0.76482387480E+01  0.14897656501E+02  0.15220230132E+02  0.22629430632E+02  0.51100000000E-03 0. -1.
        -11    1    3    3    0    0  0.63860806042E+01  0.14368464900E+02  0.14918993279E+02  0.21675127907E+02  0.51100000000E-03 0.  1.
         12    1    3    3    0    0 -0.13635038314E+01  0.70428972873E+00  0.10110331359E+01  0.18377580695E+01  0.00000000000E+00 0. -1.
</event>
<event>
 7    1  0.2227287E-008  0.4614232E+02  0.7816164E-02  0.1320468E+00
        -11   -1    0    0    0    0  0.00000000000E+00  0.00000000000E+00  0.45593999997E+02  0.45594000000E+02  0.51100000000E-03 0.  1.
         11   -1    0    0    0    0 -0.00000000000E+00 -0.00000000000E+00 -0.45593999997E+02  0.45594000000E+02  0.51100000000E-03 0. -1.
    9900012    2    1    2    0    0  0.41032184837E+01  0.22935211860E+02  0.38551950368E+02  0.46142320716E+02  0.10000026941E+02 0.  0.
         12    1    1    2    0    0 -0.41032184837E+01 -0.22935211860E+02 -0.38551950368E+02  0.45045679284E+02  0.00000000000E+00 0. -1.
         11    1    3    3    0    0  0.10459619884E+01  0.28501506385E+01  0.31723948305E+01  0.43910687042E+01  0.51100000000E-03 0. -1.
        -11    1    3    3    0    0 -0.29576851940E+01  0.44924344553E+01  0.71779834140E+01  0.89695772027E+01  0.51100000000E-03 0.  1.
        -12    1    3    3    0    0  0.60149416893E+01  0.15592626766E+02  0.28201572124E+02  0.32781674809E+02  0.00000000000E+00 0.  1.
</event>
<event>
 7    1  0.2227287E-008  0.4614232E+02  0.7816164E-02  0.1320468E+00
        -11   -1    0    0    0    0  0.00000000000E+00  0.00000000000E+00  0.45593999997E+02  0.45594000000E+02  0.51100000000E-03 0.  1.
         11   -1    0    0    0    0 -0.00000000000E+00 -0.00000000000E+00 -0.45593999997E+02  0.45594000000E+02  0.51100000000E-03 0. -1.
    9900012    2    1    2    0    0  0.41194297147E+02 -0.10200202300E+02  0.15102955669E+02  0.46142317472E+02  0.99999973681E+01 0.  0.
         12    1    1    2    0    0 -0.41194297147E+02  0.10200202300E+02 -0.15102955669E+02  0.45045682528E+02  0.00000000000E+00 0. -1.
         11    1    3    3    0    0  0.11985683206E+01 -0.14041395235E+01  0.17918861171E+01  0.25727475465E+01  0.51100000000E-03 0. -1.
        -11    1    3    3    0    0  0.56358556474E+01  0.10726346565E+01  0.17763663564E+01  0.60057382292E+01  0.51100000000E-03 0.  1.
        -12    1    3    3    0    0  0.34359873179E+02 -0.98686974328E+01  0.11534703196E+02  0.37563831697E+02  0.00000000000E+00 0.  1.
</event>
<event>
 7    1  0.2227287E-008  0.4614232E+02  0.7816164E-02  0.1320468E+00
        -11   -1    0    0    0    0  0.00000000000E+00  0.00000000000E+00  0.45593999997E+02  0.45594000000E+02  0.51100000000E-03 0. -1.
         11   -1    0    0    0    0 -0.00000000000E+00 -0.00000000000E+00 -0.45593999997E+02  0.45594000000E+02  0.51100000000E-03 0.  1.
    9900012    2    1    2    0    0  0.82681202651E+01 -0.38907025400E+02 -0.21142257723E+02  0.46142317635E+02  0.99999988455E+01 0.  0.
         12    1    1    2    0    0 -0.82681202651E+01  0.38907025400E+02  0.21142257723E+02  0.45045682365E+02  0.00000000000E+00 0. -1.
         11    1    3    3    0    0  0.21326200303E-01  0.23916133307E+00 -0.30606614944E+00  0.38901118108E+00  0.51100000000E-03 0. -1.
        -11    1    3    3    0    0  0.30614940021E+01 -0.48730172672E+01 -0.50833897709E+01  0.76785346672E+01  0.51100000000E-03 0.  1.
         12    1    3    3    0    0  0.51853000626E+01 -0.34273169466E+02 -0.15752801802E+02  0.38074771786E+02  0.00000000000E+00 0. -1.
</event>
<event>
 7    1  0.2227287E-008  0.4614232E+02  0.7816164E-02  0.1320468E+00
        -11   -1    0    0    0    0  0.00000000000E+00  0.00000000000E+00  0.45593999997E+02  0.45594000000E+02  0.51100000000E-03 0.  1.
         11   -1    0    0    0    0 -0.00000000000E+00 -0.00000000000E+00 -0.45593999997E+02  0.45594000000E+02  0.51100000000E-03 0. -1.
    9900012    2    1    2    0    0 -0.10413726470E+02  0.42466497756E+02  0.10828864244E+02  0.46142318392E+02  0.10000005756E+02 0.  0.
         12    1    1    2    0    0  0.10413726470E+02 -0.42466497756E+02 -0.10828864244E+02  0.45045681608E+02  0.00000000000E+00 0. -1.
         11    1    3    3    0    0  0.38594532210E+00  0.10085538633E+02  0.15018791498E+01  0.10204052360E+02  0.51100000000E-03 0. -1.
        -11    1    3    3    0    0 -0.70632730682E+01  0.23832657759E+02  0.94910370796E+01  0.26607615215E+02  0.51100000000E-03 0.  1.
         12    1    3    3    0    0 -0.37363987243E+01  0.85483013638E+01 -0.16405198561E+00  0.93306508180E+01  0.00000000000E+00 0. -1.
</event>
<event>
 7    1  0.2227287E-008  0.4614232E+02  0.7816164E-02  0.1320468E+00
        -11   -1    0    0    0    0  0.00000000000E+00  0.00000000000E+00  0.45593999997E+02  0.45594000000E+02  0.51100000000E-03 0.  1.
         11   -1    0    0    0    0 -0.00000000000E+00 -0.00000000000E+00 -0.45593999997E+02  0.45594000000E+02  0.51100000000E-03 0. -1.
    9900012    2    1    2    0    0  0.97973358372E+01  0.31506308302E+02  0.30667218264E+02  0.46142317317E+02  0.99999959493E+01 0.  0.
         12    1    1    2    0    0 -0.97973358372E+01 -0.31506308302E+02 -0.30667218264E+02  0.45045682683E+02  0.00000000000E+00 0. -1.
         11    1    3    3    0    0  0.45926110521E+01  0.14012784689E+02  0.15834585719E+02  0.21637567242E+02  0.51100000000E-03 0. -1.
        -11    1    3    3    0    0  0.46185720131E+01  0.12226507026E+02  0.13978548657E+02  0.19136836319E+02  0.51100000000E-03 0.  1.
        -12    1    3    3    0    0  0.58615277191E+00  0.52670165869E+01  0.85408388899E+00  0.53679137556E+01  0.00000000000E+00 0.  1.
</event>
<event>
 7    1  0.2227287E-008  0.4614232E+02  0.7816164E-02  0.1320468E+00
        -11   -1    0    0    0    0  0.00000000000E+00  0.00000000000E+00  0.45593999997E+02  0.45594000000E+02  0.51100000000E-03 0.  1.
         11   -1    0    0    0    0 -0.00000000000E+00 -0.00000000000E+00 -0.45593999997E+02  0.45594000000E+02  0.51100000000E-03 0. -1.
    9900012    2    1    2    0    0 -0.31828123109E+02  0.20367082653E+02  0.24520728148E+02  0.46142316685E+02  0.99999901887E+01 0.  0.
         12    1    1    2    0    0  0.31828123109E+02 -0.20367082653E+02 -0.24520728148E+02  0.45045683315E+02  0.00000000000E+00 0. -1.
         11    1    3    3    0    0 -0.48284641429E+01  0.61983156218E-01  0.95659777568E+00  0.49227012358E+01  0.51100000000E-03 0. -1.
        -11    1    3    3    0    0 -0.12895055385E+02  0.10628148584E+02  0.11977107421E+02  0.20559452768E+02  0.51100000000E-03 0.  1.
         12    1    3    3    0    0 -0.14104603580E+02  0.96769509133E+01  0.11587022951E+02  0.20660162681E+02  0.00000000000E+00 0. -1.
</event>
<event>
 7    1  0.2227287E-008  0.4614232E+02  0.7816164E-02  0.1320468E+00
        -11   -1    0    0    0    0  0.00000000000E+00  0.00000000000E+00  0.45593999997E+02  0.45594000000E+02  0.51100000000E-03 0.  1.
         11   -1    0    0    0    0 -0.00000000000E+00 -0.00000000000E+00 -0.45593999997E+02  0.45594000000E+02  0.51100000000E-03 0. -1.
    9900012    2    1    2    0    0 -0.31601271541E+02  0.21767375771E+02  0.23593525380E+02  0.46142318178E+02  0.10000003803E+02 0.  0.
         12    1    1    2    0    0  0.31601271541E+02 -0.21767375771E+02 -0.23593525380E+02  0.45045681822E+02  0.00000000000E+00 0. -1.
         11    1    3    3    0    0 -0.19921195549E+02  0.16746099612E+02  0.17357010978E+02  0.31281811243E+02  0.51100000000E-03 0. -1.
        -11    1    3    3    0    0 -0.11744292109E+02  0.51031109095E+01  0.52029998801E+01  0.13821770730E+02  0.51100000000E-03 0.  1.
         12    1    3    3    0    0  0.64216117245E-01 -0.81834750672E-01  0.10335145222E+01  0.10387362051E+01  0.00000000000E+00 0. -1.
</event>
<event>
 7    1  0.2227287E-008  0.4614232E+02  0.7816164E-02  0.1320468E+00
        -11   -1    0    0    0    0  0.00000000000E+00  0.00000000000E+00  0.45593999997E+02  0.45594000000E+02  0.51100000000E-03 0. -1.
         11   -1    0    0    0    0 -0.00000000000E+00 -0.00000000000E+00 -0.45593999997E+02  0.45594000000E+02  0.51100000000E-03 0.  1.
    9900012    2    1    2    0    0  0.26027241799E+02 -0.10766757751E+02 -0.35153565727E+02  0.46142316839E+02  0.99999915937E+01 0.  0.
         12    1    1    2    0    0 -0.26027241799E+02  0.10766757751E+02  0.35153565727E+02  0.45045683161E+02  0.00000000000E+00 0. -1.
         11    1    3    3    0    0  0.67611657941E+01  0.14094512509E-01 -0.10649336775E+02  0.12614354346E+02  0.51100000000E-03 0. -1.
        -11    1    3    3    0    0  0.49641807757E+01 -0.85582890800E+00 -0.85015947144E+01  0.98819353794E+01  0.51100000000E-03 0.  1.
        -12    1    3    3    0    0  0.14301895229E+02 -0.99250233559E+01 -0.16002634237E+02  0.23646027114E+02  0.00000000000E+00 0.  1.
</event>
<event>
 7    1  0.2227287E-008  0.4614232E+02  0.7816164E-02  0.1320468E+00
        -11   -1    0    0    0    0  0.00000000000E+00  0.00000000000E+00  0.45593999997E+02  0.45594000000E+02  0.51100000000E-03 0.  1.
         11   -1    0    0    0    0 -0.00000000000E+00 -0.00000000000E+00 -0.45593999997E+02  0.45594000000E+02  0.51100000000E-03 0. -1.
    9900012    2    1    2    0    0  0.89143943078E+01  0.25919431220E+02  0.35746750610E+02  0.46142317412E+02  0.99999968166E+01 0.  0.
         12    1    1    2    0    0 -0.89143943078E+01 -0.25919431220E+02 -0.35746750610E+02  0.45045682588E+02  0.00000000000E+00 0. -1.
         11    1    3    3    0    0  0.53632798561E+01  0.54758441969E+01  0.11608901860E+02  0.13911011579E+02  0.51100000000E-03 0. -1.
        -11    1    3    3    0    0  0.40689861561E+01  0.19551911271E+02  0.23948758279E+02  0.31182958584E+02  0.51100000000E-03 0.  1.
        -12    1    3    3    0    0 -0.51787170452E+00  0.89167575185E+00  0.18909047115E+00  0.10483472493E+01  0.00000000000E+00 0.  1.
</event>
<event>
 7    1  0.2227287E-008  0.4614233E+02  0.7816164E-02  0.1320468E+00
        -11   -1    0    0    0    0  0.00000000000E+00  0.00000000000E+00  0.45593999997E+02  0.45594000000E+02  0.51100000000E-03 0.  1.
         11   -1    0    0    0    0 -0.00000000000E+00 -0.00000000000E+00 -0.45593999997E+02  0.45594000000E+02  0.51100000000E-03 0. -1.
    9900012    2    1    2    0    0 -0.13265447794E+01 -0.66778470459E+01  0.44528185622E+02  0.46142326767E+02  0.10000082127E+02 0.  0.
         12    1    1    2    0    0  0.13265447794E+01  0.66778470459E+01 -0.44528185622E+02  0.45045673233E+02  0.00000000000E+00 0. -1.
         11    1    3    3    0    0 -0.40459054688E+00  0.13746057433E+01  0.95763952389E+01  0.96830047244E+01  0.51100000000E-03 0.  1.
        -11    1    3    3    0    0  0.19410551293E+01 -0.11873304415E+01  0.37769282029E+01  0.44093803990E+01  0.51100000000E-03 0. -1.
        -12    1    3    3    0    0 -0.28630093617E+01 -0.68651223477E+01  0.31174862180E+02  0.32049941644E+02  0.00000000000E+00 0.  1.
</event>
<event>
 7    1  0.2227287E-008  0.4614232E+02  0.7816164E-02  0.1320468E+00
        -11   -1    0    0    0    0  0.00000000000E+00  0.00000000000E+00  0.45593999997E+02  0.45594000000E+02  0.51100000000E-03 0.  1.
         11   -1    0    0    0    0 -0.00000000000E+00 -0.00000000000E+00 -0.45593999997E+02  0.45594000000E+02  0.51100000000E-03 0. -1.
    9900012    2    1    2    0    0 -0.20237950186E+02 -0.35386286855E+02  0.19166366418E+02  0.46142317334E+02  0.99999961086E+01 0.  0.
         12    1    1    2    0    0  0.20237950186E+02  0.35386286855E+02 -0.19166366418E+02  0.45045682666E+02  0.00000000000E+00 0. -1.
         11    1    3    3    0    0 -0.88975974430E+01 -0.17751314168E+02  0.85750936045E+01  0.21628884057E+02  0.51100000000E-03 0. -1.
        -11    1    3    3    0    0 -0.10361275652E+02 -0.17756569234E+02  0.85875492868E+01  0.22279986246E+02  0.51100000000E-03 0.  1.
         12    1    3    3    0    0 -0.97907709160E+00  0.12159654718E+00  0.20037235270E+01  0.22334470319E+01  0.00000000000E+00 0. -1.
</event>
<event>
 7    1  0.2227287E-008  0.4614232E+02  0.7816164E-02  0.1320468E+00
        -11   -1    0    0    0    0  0.00000000000E+00  0.00000000000E+00  0.45593999997E+02  0.45594000000E+02  0.51100000000E-03 0. -1.
         11   -1    0    0    0    0 -0.00000000000E+00 -0.00000000000E+00 -0.45593999997E+02  0.45594000000E+02  0.51100000000E-03 0.  1.
    9900012    2    1    2    0    0 -0.38662208196E+02  0.17544270884E+02  0.15051431301E+02  0.46142319101E+02  0.10000012222E+02 0.  0.
         12    1    1    2    0    0  0.38662208196E+02 -0.17544270884E+02 -0.15051431301E+02  0.45045680899E+02  0.00000000000E+00 0. -1.
         11    1    3    3    0    0 -0.13687002537E+02  0.10391426876E+02  0.80747426964E+01  0.18987292088E+02  0.51100000000E-03 0. -1.
        -11    1    3    3    0    0 -0.12709922945E+02  0.23416591558E+01  0.20322758208E+01  0.13082647061E+02  0.51100000000E-03 0.  1.
        -12    1    3    3    0    0 -0.12265282714E+02  0.48111848529E+01  0.49444127834E+01  0.14072379952E+02  0.00000000000E+00 0.  1.
</event>
<event>
 7    1  0.2227287E-008  0.4614232E+02  0.7816164E-02  0.1320468E+00
        -11   -1    0    0    0    0  0.00000000000E+00  0.00000000000E+00  0.45593999997E+02  0.45594000000E+02  0.51100000000E-03 0.  1.
         11   -1    0    0    0    0 -0.00000000000E+00 -0.00000000000E+00 -0.45593999997E+02  0.45594000000E+02  0.51100000000E-03 0. -1.
    9900012    2    1    2    0    0  0.27833814869E+02  0.13431089114E+02  0.32771909984E+02  0.46142317754E+02  0.99999999393E+01 0.  0.
         12    1    1    2    0    0 -0.27833814869E+02 -0.13431089114E+02 -0.32771909984E+02  0.45045682246E+02  0.00000000000E+00 0. -1.
         11    1    3    3    0    0  0.15861954672E+02  0.36979888141E+01  0.17908082039E+02  0.24206943836E+02  0.51100000000E-03 0. -1.
        -11    1    3    3    0    0  0.92800693326E+01  0.53168903717E+01  0.80769093403E+01  0.13402442867E+02  0.51100000000E-03 0.  1.
        -12    1    3    3    0    0  0.26917908644E+01  0.44162099287E+01  0.67869186050E+01  0.85329310523E+01  0.00000000000E+00 0.  1.
</event>
<event>
 7    1  0.2227287E-008  0.4614232E+02  0.7816164E-02  0.1320468E+00
        -11   -1    0    0    0    0  0.00000000000E+00  0.00000000000E+00  0.45593999997E+02  0.45594000000E+02  0.51100000000E-03 0.  1.
         11   -1    0    0    0    0 -0.00000000000E+00 -0.00000000000E+00 -0.45593999997E+02  0.45594000000E+02  0.51100000000E-03 0. -1.
    9900012    2    1    2    0    0  0.29729482306E+02  0.33730730253E+02  0.27403194894E+01  0.46142316161E+02  0.99999854126E+01 0.  0.
         12    1    1    2    0    0 -0.29729482306E+02 -0.33730730253E+02 -0.27403194894E+01  0.45045683839E+02  0.00000000000E+00 0. -1.
         11    1    3    3    0    0  0.81111804796E+01  0.12565133542E+02 -0.26671645189E+01  0.15191694986E+02  0.51100000000E-03 0. -1.
        -11    1    3    3    0    0  0.16005561742E+01  0.13271041814E+01  0.13453440636E+01  0.24764766273E+01  0.51100000000E-03 0.  1.
        -12    1    3    3    0    0  0.20017745652E+02  0.19838492530E+02  0.40621399448E+01  0.28474144549E+02  0.00000000000E+00 0.  1.
</event>
<event>
 7    1  0.2227287E-008  0.4614232E+02  0.7816164E-02  0.1320468E+00
        -11   -1    0    0    0    0  0.00000000000E+00  0.00000000000E+00  0.45593999997E+02  0.45594000000E+02  0.51100000000E-03 0.  1.
         11   -1    0    0    0    0 -0.00000000000E+00 -0.00000000000E+00 -0.45593999997E+02  0.45594000000E+02  0.51100000000E-03 0. -1.
    9900012    2    1    2    0    0 -0.14474707325E+02  0.48975122158E+01  0.42374645486E+02  0.46142319207E+02  0.10000013180E+02 0.  0.
         12    1    1    2    0    0  0.14474707325E+02 -0.48975122158E+01 -0.42374645486E+02  0.45045680793E+02  0.00000000000E+00 0. -1.
         11    1    3    3    0    0 -0.74038634168E+01  0.20084791267E+01  0.11826392027E+02  0.14096621246E+02  0.51100000000E-03 0. -1.
        -11    1    3    3    0    0 -0.65653314058E+01  0.45185964026E+01  0.24747558762E+02  0.25999287584E+02  0.51100000000E-03 0.  1.
         12    1    3    3    0    0 -0.50551250277E+00 -0.16295633135E+01  0.58006946969E+01  0.60464103772E+01  0.00000000000E+00 0. -1.
</event>
<event>
 7    1  0.2227287E-008  0.4614232E+02  0.7816164E-02  0.1320468E+00
        -11   -1    0    0    0    0  0.00000000000E+00  0.00000000000E+00  0.45593999997E+02  0.45594000000E+02  0.51100000000E-03 0.  1.
         11   -1    0    0    0    0 -0.00000000000E+00 -0.00000000000E+00 -0.45593999997E+02  0.45594000000E+02  0.51100000000E-03 0. -1.
    9900012    2    1    2    0    0 -0.26736379096E+02 -0.26440333509E+02  0.24802988516E+02  0.46142318270E+02  0.10000004638E+02 0.  0.
         12    1    1    2    0    0  0.26736379096E+02  0.26440333509E+02 -0.24802988516E+02  0.45045681730E+02  0.00000000000E+00 0. -1.
         11    1    3    3    0    0 -0.41462111643E+01 -0.33512411774E+01  0.74724833942E+01  0.91793187539E+01  0.51100000000E-03 0. -1.
        -11    1    3    3    0    0 -0.66916847438E+01 -0.58494378708E+01  0.71072792772E+01  0.11380157604E+02  0.51100000000E-03 0.  1.
         12    1    3    3    0    0 -0.15898483188E+02 -0.17239654460E+02  0.10223225844E+02  0.25582841911E+02  0.00000000000E+00 0. -1.
</event>
<event>
 7    1  0.2227287E-008  0.4614232E+02  0.7816164E-02  0.1320468E+00
        -11   -1    0    0    0    0  0.00000000000E+00  0.00000000000E+00  0.45593999997E+02  0.45594000000E+02  0.51100000000E-03 0.  1.
         11   -1    0    0    0    0 -0.00000000000E+00 -0.00000000000E+00 -0.45593999997E+02  0.45594000000E+02  0.51100000000E-03 0. -1.
    9900012    2    1    2    0    0  0.36056578057E+02 -0.11046730169E+01  0.26978072413E+02  0.46142317468E+02  0.99999973261E+01 0.  0.
         12    1    1    2    0    0 -0.36056578057E+02  0.11046730169E+01 -0.26978072413E+02  0.45045682532E+02  0.00000000000E+00 0. -1.
         11    1    3    3    0    0  0.88628057095E+01 -0.69305913135E+00  0.46806945133E+01  0.10046818272E+02  0.51100000000E-03 0. -1.
        -11    1    3    3    0    0  0.23408911041E+02 -0.30843238469E+01  0.17232348370E+02  0.29230874094E+02  0.51100000000E-03 0.  1.
         12    1    3    3    0    0  0.37848613071E+01  0.26727099614E+01  0.50650295294E+01  0.68646251016E+01  0.00000000000E+00 0. -1.
</event>
<event>
 7    1  0.2227287E-008  0.4614232E+02  0.7816164E-02  0.1320468E+00
        -11   -1    0    0    0    0  0.00000000000E+00  0.00000000000E+00  0.45593999997E+02  0.45594000000E+02  0.51100000000E-03 0. -1.
         11   -1    0    0    0    0 -0.00000000000E+00 -0.00000000000E+00 -0.45593999997E+02  0.45594000000E+02  0.51100000000E-03 0.  1.
    9900012    2    1    2    0    0 -0.28712305656E+02  0.59338083729E+01  0.34198055591E+02  0.46142316698E+02  0.99999903092E+01 0.  0.
         12    1    1    2    0    0  0.28712305656E+02 -0.59338083729E+01 -0.34198055591E+02  0.45045683302E+02  0.00000000000E+00 0. -1.
         11    1    3    3    0    0 -0.16466283542E+01  0.16473105564E+01  0.57934750346E+01  0.62441468788E+01  0.51100000000E-03 0. -1.
        -11    1    3    3    0    0 -0.56357158835E+00  0.12098560973E+01  0.12156010414E+01  0.18052841506E+01  0.51100000000E-03 0.  1.
        -12    1    3    3    0    0 -0.26502105713E+02  0.30766417192E+01  0.27188979515E+02  0.38092885669E+02  0.00000000000E+00 0.  1.
</event>
<event>
 7    1  0.2227287E-008  0.4614232E+02  0.7816164E-02  0.1320468E+00
        -11   -1    0    0    0    0  0.00000000000E+00  0.00000000000E+00  0.45593999997E+02  0.45594000000E+02  0.51100000000E-03 0. -1.
         11   -1    0    0    0    0 -0.00000000000E+00 -0.00000000000E+00 -0.45593999997E+02  0.45594000000E+02  0.51100000000E-03 0.  1.
    9900012    2    1    2    0    0  0.16036936671E+02 -0.83888071614E+01 -0.41249941376E+02  0.46142322217E+02  0.10000040637E+02 0.  0.
         12    1    1    2    0    0 -0.16036936671E+02  0.83888071614E+01  0.41249941376E+02  0.45045677783E+02  0.00000000000E+00 0. -1.
         11    1    3    3    0    0  0.57141018764E+01 -0.20460951254E+01 -0.23583625399E+02  0.24352101608E+02  0.51100000000E-03 0. -1.
        -11    1    3    3    0    0  0.63923285978E+01 -0.60616512650E+01 -0.11893271880E+02  0.14800520167E+02  0.51100000000E-03 0.  1.
         12    1    3    3    0    0  0.39305061969E+01 -0.28106077107E+00 -0.57730440970E+01  0.69897004419E+01  0.00000000000E+00 0. -1.
</event>
<event>
 7    1  0.2227287E-008  0.4614232E+02  0.7816164E-02  0.1320468E+00
        -11   -1    0    0    0    0  0.00000000000E+00  0.00000000000E+00  0.45593999997E+02  0.45594000000E+02  0.51100000000E-03 0. -1.
         11   -1    0    0    0    0 -0.00000000000E+00 -0.00000000000E+00 -0.45593999997E+02  0.45594000000E+02  0.51100000000E-03 0.  1.
    9900012    2    1    2    0    0  0.30577604931E+01 -0.51755407824E+01 -0.44642773179E+02  0.46142319644E+02  0.10000017170E+02 0.  0.
         12    1    1    2    0    0 -0.30577604931E+01  0.51755407824E+01  0.44642773179E+02  0.45045680356E+02  0.00000000000E+00 0. -1.
         11    1    3    3    0    0 -0.22852215067E+00  0.12432746331E+01 -0.73805647572E+01  0.74880364972E+01  0.51100000000E-03 0. -1.
        -11    1    3    3    0    0  0.18344935911E+01 -0.72282120935E+01 -0.35316516406E+02  0.36095273210E+02  0.51100000000E-03 0.  1.
        -12    1    3    3    0    0  0.14517890527E+01  0.80939667798E+00 -0.19456920158E+01  0.25590099367E+01  0.00000000000E+00 0.  1.
</event>
<event>
 7    1  0.2227287E-008  0.4614232E+02  0.7816164E-02  0.1320468E+00
        -11   -1    0    0    0    0  0.00000000000E+00  0.00000000000E+00  0.45593999997E+02  0.45594000000E+02  0.51100000000E-03 0.  1.
         11   -1    0    0    0    0 -0.00000000000E+00 -0.00000000000E+00 -0.45593999997E+02  0.45594000000E+02  0.51100000000E-03 0. -1.
    9900012    2    1    2    0    0  0.44105606562E+02  0.91540133150E+01 -0.11440223852E+00  0.46142316768E+02  0.99999909432E+01 0.  0.
         12    1    1    2    0    0 -0.44105606562E+02 -0.91540133150E+01  0.11440223852E+00  0.45045683232E+02  0.00000000000E+00 0. -1.
         11    1    3    3    0    0  0.22303804119E+02  0.15813133000E+01  0.12465571697E+01  0.22394511269E+02  0.51100000000E-03 0.  1.
        -11    1    3    3    0    0  0.18317622195E+02  0.41557238112E+01 -0.16748428580E+01  0.18857635645E+02  0.51100000000E-03 0. -1.
        -12    1    3    3    0    0  0.34841802479E+01  0.34169762037E+01  0.31388344986E+00  0.48901698536E+01  0.00000000000E+00 0.  1.
</event>
<event>
 7    1  0.2227287E-008  0.4614232E+02  0.7816164E-02  0.1320468E+00
        -11   -1    0    0    0    0  0.00000000000E+00  0.00000000000E+00  0.45593999997E+02  0.45594000000E+02  0.51100000000E-03 0.  1.
         11   -1    0    0    0    0 -0.00000000000E+00 -0.00000000000E+00 -0.45593999997E+02  0.45594000000E+02  0.51100000000E-03 0. -1.
    9900012    2    1    2    0    0 -0.78255164490E+01 -0.73076249729E+01  0.43754695837E+02  0.46142317651E+02  0.99999989996E+01 0.  0.
         12    1    1    2    0    0  0.78255164490E+01  0.73076249729E+01 -0.43754695837E+02  0.45045682349E+02  0.00000000000E+00 0. -1.
         11    1    3    3    0    0 -0.11091325509E+01  0.70015919023E-01  0.40497508371E+01  0.41994713177E+01  0.51100000000E-03 0. -1.
        -11    1    3    3    0    0  0.79205587214E+00 -0.49107553931E+01  0.95299056581E+01  0.10749975495E+02  0.51100000000E-03 0.  1.
        -12    1    3    3    0    0 -0.75084397702E+01 -0.24668854988E+01  0.30175039342E+02  0.31192870838E+02  0.00000000000E+00 0.  1.
</event>
<event>
 7    1  0.2227287E-008  0.4614232E+02  0.7816164E-02  0.1320468E+00
        -11   -1    0    0    0    0  0.00000000000E+00  0.00000000000E+00  0.45593999997E+02  0.45594000000E+02  0.51100000000E-03 0. -1.
         11   -1    0    0    0    0 -0.00000000000E+00 -0.00000000000E+00 -0.45593999997E+02  0.45594000000E+02  0.51100000000E-03 0.  1.
    9900012    2    1    2    0    0  0.19568769941E+02  0.40327793279E+02  0.44548684089E+01  0.46142317407E+02  0.99999967701E+01 0.  0.
         12    1    1    2    0    0 -0.19568769941E+02 -0.40327793279E+02 -0.44548684089E+01  0.45045682593E+02  0.00000000000E+00 0. -1.
         11    1    3    3    0    0  0.13893636406E+01  0.12809245498E+02  0.12971108084E+01  0.12949501854E+02  0.51100000000E-03 0.  1.
        -11    1    3    3    0    0  0.13231255855E+02  0.21536926456E+02  0.25957289497E+01  0.25409508883E+02  0.51100000000E-03 0. -1.
        -12    1    3    3    0    0  0.49481504455E+01  0.59816213251E+01  0.56202865080E+00  0.77833066696E+01  0.00000000000E+00 0.  1.
</event>
<event>
 7    1  0.2227287E-008  0.4614232E+02  0.7816164E-02  0.1320468E+00
        -11   -1    0    0    0    0  0.00000000000E+00  0.00000000000E+00  0.45593999997E+02  0.45594000000E+02  0.51100000000E-03 0.  1.
         11   -1    0    0    0    0 -0.00000000000E+00 -0.00000000000E+00 -0.45593999997E+02  0.45594000000E+02  0.51100000000E-03 0. -1.
    9900012    2    1    2    0    0  0.16231145189E+02  0.36214571721E+02  0.21311217589E+02  0.46142320139E+02  0.10000021680E+02 0.  0.
         12    1    1    2    0    0 -0.16231145189E+02 -0.36214571721E+02 -0.21311217589E+02  0.45045679861E+02  0.00000000000E+00 0. -1.
         11    1    3    3    0    0  0.71501063982E+01  0.12630983159E+02  0.70482232054E+01  0.16135154405E+02  0.51100000000E-03 0.  1.
        -11    1    3    3    0    0  0.58508728942E+01  0.16129631003E+02  0.54076976577E+01  0.17990022349E+02  0.51100000000E-03 0. -1.
         12    1    3    3    0    0  0.32301658962E+01  0.74539575590E+01  0.88552967259E+01  0.12017143384E+02  0.00000000000E+00 0. -1.
</event>
<event>
 7    1  0.2227287E-008  0.4614232E+02  0.7816164E-02  0.1320468E+00
        -11   -1    0    0    0    0  0.00000000000E+00  0.00000000000E+00  0.45593999997E+02  0.45594000000E+02  0.51100000000E-03 0.  1.
         11   -1    0    0    0    0 -0.00000000000E+00 -0.00000000000E+00 -0.45593999997E+02  0.45594000000E+02  0.51100000000E-03 0. -1.
    9900012    2    1    2    0    0  0.30353203776E+02 -0.20527954537E+02  0.26199231594E+02  0.46142316155E+02  0.99999853551E+01 0.  0.
         12    1    1    2    0    0 -0.30353203776E+02  0.20527954537E+02 -0.26199231594E+02  0.45045683845E+02  0.00000000000E+00 0. -1.
         11    1    3    3    0    0  0.80112583057E+01 -0.77239248766E+01  0.52684772711E+01  0.12312437945E+02  0.51100000000E-03 0. -1.
        -11    1    3    3    0    0  0.18212438738E+02 -0.10195572714E+02  0.13233558362E+02  0.24713755176E+02  0.51100000000E-03 0.  1.
         12    1    3    3    0    0  0.41295067323E+01 -0.26084569466E+01  0.76971959611E+01  0.91161230333E+01  0.00000000000E+00 0. -1.
</event>
<event>
 7    1  0.2227287E-008  0.4614232E+02  0.7816164E-02  0.1320468E+00
        -11   -1    0    0    0    0  0.00000000000E+00  0.00000000000E+00  0.45593999997E+02  0.45594000000E+02  0.51100000000E-03 0. -1.
         11   -1    0    0    0    0 -0.00000000000E+00 -0.00000000000E+00 -0.45593999997E+02  0.45594000000E+02  0.51100000000E-03 0.  1.
    9900012    2    1    2    0    0 -0.28184525398E+02 -0.29754726138E+02 -0.18692301784E+02  0.46142319348E+02  0.10000014469E+02 0.  0.
         12    1    1    2    0    0  0.28184525398E+02  0.29754726138E+02  0.18692301784E+02  0.45045680652E+02  0.00000000000E+00 0. -1.
         11    1    3    3    0    0 -0.14456829667E+02 -0.11903631870E+02 -0.51546722294E+01  0.19423362782E+02  0.51100000000E-03 0. -1.
        -11    1    3    3    0    0 -0.11876770043E+02 -0.12690984288E+02 -0.88443440637E+01  0.19502337579E+02  0.51100000000E-03 0.  1.
        -12    1    3    3    0    0 -0.18509256874E+01 -0.51601099793E+01 -0.46932854904E+01  0.72166189862E+01  0.00000000000E+00 0.  1.
</event>
<event>
 7    1  0.2227287E-008  0.4614232E+02  0.7816164E-02  0.1320468E+00
        -11   -1    0    0    0    0  0.00000000000E+00  0.00000000000E+00  0.45593999997E+02  0.45594000000E+02  0.51100000000E-03 0. -1.
         11   -1    0    0    0    0 -0.00000000000E+00 -0.00000000000E+00 -0.45593999997E+02  0.45594000000E+02  0.51100000000E-03 0.  1.
    9900012    2    1    2    0    0  0.17764987708E+02  0.56571150445E+01 -0.41006289071E+02  0.46142317829E+02  0.10000000618E+02 0.  0.
         12    1    1    2    0    0 -0.17764987708E+02 -0.56571150445E+01  0.41006289071E+02  0.45045682171E+02  0.00000000000E+00 0. -1.
         11    1    3    3    0    0  0.17102319494E+00  0.18790949447E+01 -0.79285828146E+01  0.81500105800E+01  0.51100000000E-03 0. -1.
        -11    1    3    3    0    0  0.36959085366E+01 -0.12435671401E+01 -0.74748334517E+01  0.84308560973E+01  0.51100000000E-03 0.  1.
        -12    1    3    3    0    0  0.13898055977E+02  0.50215872399E+01 -0.25602872805E+02  0.29561451152E+02  0.00000000000E+00 0.  1.
</event>
<event>
 7    1  0.2227287E-008  0.4614232E+02  0.7816164E-02  0.1320468E+00
        -11   -1    0    0    0    0  0.00000000000E+00  0.00000000000E+00  0.45593999997E+02  0.45594000000E+02  0.51100000000E-03 0. -1.
         11   -1    0    0    0    0 -0.00000000000E+00 -0.00000000000E+00 -0.45593999997E+02  0.45594000000E+02  0.51100000000E-03 0.  1.
    9900012    2    1    2    0    0 -0.28006149091E+02 -0.22714405121E+02 -0.26996760784E+02  0.46142315637E+02  0.99999806267E+01 0.  0.
         12    1    1    2    0    0  0.28006149091E+02  0.22714405121E+02  0.26996760784E+02  0.45045684363E+02  0.00000000000E+00 0. -1.
         11    1    3    3    0    0 -0.81387408649E-02  0.50989903827E+00  0.18342577106E+00  0.54194883794E+00  0.51100000000E-03 0. -1.
        -11    1    3    3    0    0 -0.17786543434E+02 -0.12451975420E+02 -0.17411704539E+02  0.27831282298E+02  0.51100000000E-03 0.  1.
         12    1    3    3    0    0 -0.10211466917E+02 -0.10772328740E+02 -0.97684820167E+01  0.17769084500E+02  0.00000000000E+00 0. -1.
</event>
<event>
 7    1  0.2227287E-008  0.4614232E+02  0.7816164E-02  0.1320468E+00
        -11   -1    0    0    0    0  0.00000000000E+00  0.00000000000E+00  0.45593999997E+02  0.45594000000E+02  0.51100000000E-03 0. -1.
         11   -1    0    0    0    0 -0.00000000000E+00 -0.00000000000E+00 -0.45593999997E+02  0.45594000000E+02  0.51100000000E-03 0.  1.
    9900012    2    1    2    0    0  0.36041383759E+02  0.24643356579E+02 -0.11083191438E+02  0.46142317641E+02  0.99999989015E+01 0.  0.
         12    1    1    2    0    0 -0.36041383759E+02 -0.24643356579E+02  0.11083191438E+02  0.45045682359E+02  0.00000000000E+00 0. -1.
         11    1    3    3    0    0  0.89969629088E+01  0.33412179770E+01  0.28932460929E+00  0.96017075639E+01  0.51100000000E-03 0.  1.
        -11    1    3    3    0    0  0.19249289950E+02  0.14948078634E+02 -0.10183918537E+02  0.26413867862E+02  0.51100000000E-03 0. -1.
         12    1    3    3    0    0  0.77951309009E+01  0.63540599678E+01 -0.11885975105E+01  0.10126742215E+02  0.00000000000E+00 0. -1.
</event>
<event>
 7    1  0.2227287E-008  0.4614232E+02  0.7816164E-02  0.1320468E+00
        -11   -1    0    0    0    0  0.00000000000E+00  0.00000000000E+00  0.45593999997E+02  0.45594000000E+02  0.51100000000E-03 0.  1.
         11   -1    0    0    0    0 -0.00000000000E+00 -0.00000000000E+00 -0.45593999997E+02  0.45594000000E+02  0.51100000000E-03 0. -1.
    9900012    2    1    2    0    0  0.27393896053E+02  0.30608216474E+02  0.18488514372E+02  0.46142316296E+02  0.99999866355E+01 0.  0.
         12    1    1    2    0    0 -0.27393896053E+02 -0.30608216474E+02 -0.18488514372E+02  0.45045683704E+02  0.00000000000E+00 0. -1.
         11    1    3    3    0    0  0.65426450501E+01  0.32901729079E+01  0.40405859439E+01  0.83640765806E+01  0.51100000000E-03 0. -1.
        -11    1    3    3    0    0  0.19096121723E+02  0.22199080809E+02  0.10615966621E+02  0.31147388353E+02  0.51100000000E-03 0.  1.
         12    1    3    3    0    0  0.17551292807E+01  0.51189627570E+01  0.38319618066E+01  0.66308513621E+01  0.00000000000E+00 0. -1.
</event>
<event>
 7    1  0.2227287E-008  0.4614232E+02  0.7816164E-02  0.1320468E+00
        -11   -1    0    0    0    0  0.00000000000E+00  0.00000000000E+00  0.45593999997E+02  0.45594000000E+02  0.51100000000E-03 0. -1.
         11   -1    0    0    0    0 -0.00000000000E+00 -0.00000000000E+00 -0.45593999997E+02  0.45594000000E+02  0.51100000000E-03 0.  1.
    9900012    2    1    2    0    0 -0.18903989243E+02  0.20954503704E+02 -0.35109278893E+02  0.46142317641E+02  0.99999989063E+01 0.  0.
         12    1    1    2    0    0  0.18903989243E+02 -0.20954503704E+02  0.35109278893E+02  0.45045682359E+02  0.00000000000E+00 0. -1.
         11    1    3    3    0    0 -0.17198794780E+01  0.44229849586E+01 -0.23888667836E+01  0.53129526756E+01  0.51100000000E-03 0. -1.
        -11    1    3    3    0    0 -0.34714178708E+01  0.15342559429E+01 -0.77951133384E+01  0.86699755220E+01  0.51100000000E-03 0.  1.
        -12    1    3    3    0    0 -0.13712691895E+02  0.14997262803E+02 -0.24925298771E+02  0.32159389444E+02  0.00000000000E+00 0.  1.
</event>
<event>
 7    1  0.2227287E-008  0.4614232E+02  0.7816164E-02  0.1320468E+00
        -11   -1    0    0    0    0  0.00000000000E+00  0.00000000000E+00  0.45593999997E+02  0.45594000000E+02  0.51100000000E-03 0. -1.
         11   -1    0    0    0    0 -0.00000000000E+00 -0.00000000000E+00 -0.45593999997E+02  0.45594000000E+02  0.51100000000E-03 0.  1.
    9900012    2    1    2    0    0  0.29265983482E+02 -0.31688784685E+02 -0.12978315038E+02  0.46142317352E+02  0.99999962671E+01 0.  0.
         12    1    1    2    0    0 -0.29265983482E+02  0.31688784685E+02  0.12978315038E+02  0.45045682648E+02  0.00000000000E+00 0. -1.
         11    1    3    3    0    0  0.21036949712E+01 -0.65280935801E+01 -0.20579521572E+01  0.71607754933E+01  0.51100000000E-03 0. -1.
        -11    1    3    3    0    0  0.24369516752E+02 -0.24409606478E+02 -0.10528163929E+02  0.36063062419E+02  0.51100000000E-03 0.  1.
        -12    1    3    3    0    0  0.27927717593E+01 -0.75108462777E+00 -0.39219895211E+00  0.29184794390E+01  0.00000000000E+00 0.  1.
</event>
<event>
 7    1  0.2227287E-008  0.4614232E+02  0.7816164E-02  0.1320468E+00
        -11   -1    0    0    0    0  0.00000000000E+00  0.00000000000E+00  0.45593999997E+02  0.45594000000E+02  0.51100000000E-03 0.  1.
         11   -1    0    0    0    0 -0.00000000000E+00 -0.00000000000E+00 -0.45593999997E+02  0.45594000000E+02  0.51100000000E-03 0. -1.
    9900012    2    1    2    0    0  0.19141194450E+02  0.25698007996E+02  0.31659763584E+02  0.46142316853E+02  0.99999917205E+01 0.  0.
         12    1    1    2    0    0 -0.19141194450E+02 -0.25698007996E+02 -0.31659763584E+02  0.45045683147E+02  0.00000000000E+00 0. -1.
         11    1    3    3    0    0  0.14494903229E+02  0.14874550341E+02  0.21550123716E+02  0.29929288329E+02  0.51100000000E-03 0. -1.
        -11    1    3    3    0    0  0.41162161840E-01  0.94495472080E+00  0.31318470836E+01  0.32715592864E+01  0.51100000000E-03 0.  1.
         12    1    3    3    0    0  0.46051290596E+01  0.98785029343E+01  0.69777927846E+01  0.12941469237E+02  0.00000000000E+00 0. -1.
</event>
<event>
 7    1  0.2227287E-008  0.4614232E+02  0.7816164E-02  0.1320468E+00
        -11   -1    0    0    0    0  0.00000000000E+00  0.00000000000E+00  0.45593999997E+02  0.45594000000E+02  0.51100000000E-03 0. -1.
         11   -1    0    0    0    0 -0.00000000000E+00 -0.00000000000E+00 -0.45593999997E+02  0.45594000000E+02  0.51100000000E-03 0.  1.
    9900012    2    1    2    0    0  0.30097405588E+02 -0.19471444522E+02 -0.27278610228E+02  0.46142317068E+02  0.99999936756E+01 0.  0.
         12    1    1    2    0    0 -0.30097405588E+02  0.19471444522E+02  0.27278610228E+02  0.45045682932E+02  0.00000000000E+00 0. -1.
         11    1    3    3    0    0  0.79714794139E+00 -0.79980479783E+00 -0.91427396947E+00  0.14529383013E+01  0.51100000000E-03 0. -1.
        -11    1    3    3    0    0  0.66035491938E+01  0.46833714483E-01 -0.38579509545E+01  0.76480612694E+01  0.51100000000E-03 0.  1.
        -12    1    3    3    0    0  0.22696708452E+02 -0.18718473438E+02 -0.22506385304E+02  0.37041317497E+02  0.00000000000E+00 0.  1.
</event>
<event>
 7    1  0.2227287E-008  0.4614232E+02  0.7816164E-02  0.1320468E+00
        -11   -1    0    0    0    0  0.00000000000E+00  0.00000000000E+00  0.45593999997E+02  0.45594000000E+02  0.51100000000E-03 0.  1.
         11   -1    0    0    0    0 -0.00000000000E+00 -0.00000000000E+00 -0.45593999997E+02  0.45594000000E+02  0.51100000000E-03 0. -1.
    9900012    2    1    2    0    0 -0.14054905188E+02 -0.18550778597E+02  0.38567365474E+02  0.46142318453E+02  0.10000006312E+02 0.  0.
         12    1    1    2    0    0  0.14054905188E+02  0.18550778597E+02 -0.38567365474E+02  0.45045681547E+02  0.00000000000E+00 0. -1.
         11    1    3    3    0    0 -0.21009694184E+01 -0.71936118121E+01  0.71352945556E+01  0.10347683415E+02  0.51100000000E-03 0. -1.
        -11    1    3    3    0    0  0.14603951202E+00 -0.79100600836E+00  0.33245996870E+01  0.34205235542E+01  0.51100000000E-03 0.  1.
        -12    1    3    3    0    0 -0.12099975282E+02 -0.10566160777E+02  0.28107471231E+02  0.32374111484E+02  0.00000000000E+00 0.  1.
</event>
<event>
 7    1  0.2227287E-008  0.4614232E+02  0.7816164E-02  0.1320468E+00
        -11   -1    0    0    0    0  0.00000000000E+00  0.00000000000E+00  0.45593999997E+02  0.45594000000E+02  0.51100000000E-03 0.  1.
         11   -1    0    0    0    0 -0.00000000000E+00 -0.00000000000E+00 -0.45593999997E+02  0.45594000000E+02  0.51100000000E-03 0. -1.
    9900012    2    1    2    0    0  0.20429852154E+02 -0.29785503194E+02  0.26917616897E+02  0.46142321417E+02  0.10000033340E+02 0.  0.
         12    1    1    2    0    0 -0.20429852154E+02  0.29785503194E+02 -0.26917616897E+02  0.45045678583E+02  0.00000000000E+00 0. -1.
         11    1    3    3    0    0  0.47530565956E+01 -0.33922195406E+01  0.51063299949E+01  0.77571455246E+01  0.51100000000E-03 0. -1.
        -11    1    3    3    0    0  0.12004196709E+02 -0.13679147912E+02  0.14474073634E+02  0.23253357479E+02  0.51100000000E-03 0.  1.
        -12    1    3    3    0    0  0.36725988495E+01 -0.12714135741E+02  0.73372132690E+01  0.15131818414E+02  0.00000000000E+00 0.  1.
</event>
<event>
 7    1  0.2227287E-008  0.4614232E+02  0.7816164E-02  0.1320468E+00
        -11   -1    0    0    0    0  0.00000000000E+00  0.00000000000E+00  0.45593999997E+02  0.45594000000E+02  0.51100000000E-03 0.  1.
         11   -1    0    0    0    0 -0.00000000000E+00 -0.00000000000E+00 -0.45593999997E+02  0.45594000000E+02  0.51100000000E-03 0. -1.
    9900012    2    1    2    0    0  0.11880946327E+01 -0.21930981279E+02  0.39328539146E+02  0.46142317631E+02  0.99999988174E+01 0.  0.
         12    1    1    2    0    0 -0.11880946327E+01  0.21930981279E+02 -0.39328539146E+02  0.45045682369E+02  0.00000000000E+00 0. -1.
         11    1    3    3    0    0 -0.12714267008E+01 -0.16999655529E+01  0.46499724350E+01  0.51116193760E+01  0.51100000000E-03 0. -1.
        -11    1    3    3    0    0 -0.16850072046E+01 -0.15560637853E+02  0.25797715426E+02  0.30174406723E+02  0.51100000000E-03 0.  1.
         12    1    3    3    0    0  0.41445285381E+01 -0.46703778734E+01  0.88808512849E+01  0.10856291532E+02  0.00000000000E+00 0. -1.
</event>
<event>
 7    1  0.2227287E-008  0.4614232E+02  0.7816164E-02  0.1320468E+00
        -11   -1    0    0    0    0  0.00000000000E+00  0.00000000000E+00  0.45593999997E+02  0.45594000000E+02  0.51100000000E-03 0.  1.
         11   -1    0    0    0    0 -0.00000000000E+00 -0.00000000000E+00 -0.45593999997E+02  0.45594000000E+02  0.51100000000E-03 0. -1.
    9900012    2    1    2    0    0 -0.36084807162E+01  0.12927225957E+02  0.42999755410E+02  0.46142320192E+02  0.10000022167E+02 0.  0.
         12    1    1    2    0    0  0.36084807162E+01 -0.12927225957E+02 -0.42999755410E+02  0.45045679808E+02  0.00000000000E+00 0. -1.
         11    1    3    3    0    0 -0.13273295441E+01  0.58774306077E+01  0.21866496095E+02  0.22681482447E+02  0.51100000000E-03 0.  1.
        -11    1    3    3    0    0 -0.13747830169E+01  0.64147247069E+01  0.82985399343E+01  0.10578491703E+02  0.51100000000E-03 0. -1.
         12    1    3    3    0    0 -0.90636815517E+00  0.63507064252E+00  0.12834719381E+02  0.12882346042E+02  0.00000000000E+00 0. -1.
</event>
<event>
 7    1  0.2227287E-008  0.4614232E+02  0.7816164E-02  0.1320468E+00
        -11   -1    0    0    0    0  0.00000000000E+00  0.00000000000E+00  0.45593999997E+02  0.45594000000E+02  0.51100000000E-03 0. -1.
         11   -1    0    0    0    0 -0.00000000000E+00 -0.00000000000E+00 -0.45593999997E+02  0.45594000000E+02  0.51100000000E-03 0.  1.
    9900012    2    1    2    0    0  0.41836256836E+02 -0.15638367766E+02  0.58551374914E+01  0.46142316883E+02  0.99999919910E+01 0.  0.
         12    1    1    2    0    0 -0.41836256836E+02  0.15638367766E+02 -0.58551374914E+01  0.45045683117E+02  0.00000000000E+00 0. -1.
         11    1    3    3    0    0 -0.10380805972E+00  0.53187897911E+00  0.33938480856E+00  0.63941666469E+00  0.51100000000E-03 0. -1.
        -11    1    3    3    0    0  0.43124705916E+01 -0.80186175762E+00 -0.50094981308E+00  0.44148993033E+01  0.51100000000E-03 0.  1.
         12    1    3    3    0    0  0.37627594305E+02 -0.15368384987E+02  0.60167024959E+01  0.41088000915E+02  0.00000000000E+00 0. -1.
</event>
<event>
 7    1  0.2227287E-008  0.4614231E+02  0.7816164E-02  0.1320468E+00
        -11   -1    0    0    0    0  0.00000000000E+00  0.00000000000E+00  0.45593999997E+02  0.45594000000E+02  0.51100000000E-03 0. -1.
         11   -1    0    0    0    0 -0.00000000000E+00 -0.00000000000E+00 -0.45593999997E+02  0.45594000000E+02  0.51100000000E-03 0.  1.
    9900012    2    1    2    0    0  0.39116020204E+02 -0.33860391360E+01 -0.22081341857E+02  0.46142312572E+02  0.99999526851E+01 0.  0.
         12    1    1    2    0    0 -0.39116020204E+02  0.33860391360E+01  0.22081341857E+02  0.45045687428E+02  0.00000000000E+00 0. -1.
         11    1    3    3    0    0  0.51266515926E+01  0.81701341992E+00 -0.99854589803E+00  0.52865075098E+01  0.51100000000E-03 0. -1.
        -11    1    3    3    0    0  0.19864653329E+02 -0.22679229471E+01 -0.16370049483E+02  0.25840403377E+02  0.51100000000E-03 0.  1.
         12    1    3    3    0    0  0.14124715283E+02 -0.19351296088E+01 -0.47127464752E+01  0.15015401685E+02  0.00000000000E+00 0. -1.
</event>
<event>
 7    1  0.2227287E-008  0.4614232E+02  0.7816164E-02  0.1320468E+00
        -11   -1    0    0    0    0  0.00000000000E+00  0.00000000000E+00  0.45593999997E+02  0.45594000000E+02  0.51100000000E-03 0. -1.
         11   -1    0    0    0    0 -0.00000000000E+00 -0.00000000000E+00 -0.45593999997E+02  0.45594000000E+02  0.51100000000E-03 0.  1.
    9900012    2    1    2    0    0  0.16112457295E+01 -0.42163394119E+02 -0.15772303048E+02  0.46142318078E+02  0.10000002887E+02 0.  0.
         12    1    1    2    0    0 -0.16112457295E+01  0.42163394119E+02  0.15772303048E+02  0.45045681922E+02  0.00000000000E+00 0. -1.
         11    1    3    3    0    0 -0.19574450261E+01 -0.23327621110E+02 -0.11433891762E+02  0.26052703867E+02  0.51100000000E-03 0.  1.
        -11    1    3    3    0    0  0.35991320816E+01 -0.17566611168E+02 -0.50568167266E+01  0.18630914506E+02  0.51100000000E-03 0. -1.
        -12    1    3    3    0    0 -0.30441326086E-01 -0.12691618404E+01  0.71840544033E+00  0.14586997046E+01  0.00000000000E+00 0.  1.
</event>
<event>
 7    1  0.2227287E-008  0.4614232E+02  0.7816164E-02  0.1320468E+00
        -11   -1    0    0    0    0  0.00000000000E+00  0.00000000000E+00  0.45593999997E+02  0.45594000000E+02  0.51100000000E-03 0. -1.
         11   -1    0    0    0    0 -0.00000000000E+00 -0.00000000000E+00 -0.45593999997E+02  0.45594000000E+02  0.51100000000E-03 0.  1.
    9900012    2    1    2    0    0 -0.40446500484E+02 -0.11656431019E+01 -0.19794835450E+02  0.46142316125E+02  0.99999850814E+01 0.  0.
         12    1    1    2    0    0  0.40446500484E+02  0.11656431019E+01  0.19794835450E+02  0.45045683875E+02  0.00000000000E+00 0. -1.
         11    1    3    3    0    0 -0.14698049181E+01  0.10264723196E+00  0.10592387566E+00  0.14771875575E+01  0.51100000000E-03 0. -1.
        -11    1    3    3    0    0 -0.39433702523E+02 -0.14607335044E+01 -0.19833633359E+02  0.44164733097E+02  0.51100000000E-03 0.  1.
        -12    1    3    3    0    0  0.45700695624E+00  0.19244317051E+00 -0.67125965941E-01  0.50039547083E+00  0.00000000000E+00 0.  1.
</event>
<event>
 7    1  0.2227287E-008  0.4614232E+02  0.7816164E-02  0.1320468E+00
        -11   -1    0    0    0    0  0.00000000000E+00  0.00000000000E+00  0.45593999997E+02  0.45594000000E+02  0.51100000000E-03 0. -1.
         11   -1    0    0    0    0 -0.00000000000E+00 -0.00000000000E+00 -0.45593999997E+02  0.45594000000E+02  0.51100000000E-03 0.  1.
    9900012    2    1    2    0    0 -0.44502054085E+02  0.38481492208E+01  0.58200021289E+01  0.46142317688E+02  0.99999993314E+01 0.  0.
         12    1    1    2    0    0  0.44502054085E+02 -0.38481492208E+01 -0.58200021289E+01  0.45045682312E+02  0.00000000000E+00 0. -1.
         11    1    3    3    0    0 -0.11253403410E+02  0.15660475451E+01  0.30713014149E+00  0.11365998522E+02  0.51100000000E-03 0.  1.
        -11    1    3    3    0    0 -0.11128690978E+02 -0.58422042127E+00 -0.18312264010E+01  0.11293470094E+02  0.51100000000E-03 0. -1.
        -12    1    3    3    0    0 -0.22119959697E+02  0.28663220969E+01  0.73440983885E+01  0.23482849071E+02  0.00000000000E+00 0.  1.
</event>
<event>
 7    1  0.2227287E-008  0.4614231E+02  0.7816164E-02  0.1320468E+00
        -11   -1    0    0    0    0  0.00000000000E+00  0.00000000000E+00  0.45593999997E+02  0.45594000000E+02  0.51100000000E-03 0. -1.
         11   -1    0    0    0    0 -0.00000000000E+00 -0.00000000000E+00 -0.45593999997E+02  0.45594000000E+02  0.51100000000E-03 0.  1.
    9900012    2    1    2    0    0 -0.32826895801E+02 -0.15297029483E+02 -0.26786371918E+02  0.46142312976E+02  0.99999563675E+01 0.  0.
         12    1    1    2    0    0  0.32826895801E+02  0.15297029483E+02  0.26786371918E+02  0.45045687024E+02  0.00000000000E+00 0. -1.
         11    1    3    3    0    0 -0.38011019125E+01 -0.34748417236E+01 -0.31169939352E+01  0.60198465269E+01  0.51100000000E-03 0. -1.
        -11    1    3    3    0    0 -0.13762404345E+02 -0.65665973274E+01 -0.16475549685E+02  0.22449225187E+02  0.51100000000E-03 0.  1.
        -12    1    3    3    0    0 -0.15263389543E+02 -0.52555904324E+01 -0.71938282973E+01  0.17673241262E+02  0.00000000000E+00 0.  1.
</event>
<event>
 7    1  0.2227287E-008  0.4614232E+02  0.7816164E-02  0.1320468E+00
        -11   -1    0    0    0    0  0.00000000000E+00  0.00000000000E+00  0.45593999997E+02  0.45594000000E+02  0.51100000000E-03 0.  1.
         11   -1    0    0    0    0 -0.00000000000E+00 -0.00000000000E+00 -0.45593999997E+02  0.45594000000E+02  0.51100000000E-03 0. -1.
    9900012    2    1    2    0    0 -0.32359264122E+02  0.19505195786E+01  0.31275980018E+02  0.46142318440E+02  0.10000006190E+02 0.  0.
         12    1    1    2    0    0  0.32359264122E+02 -0.19505195786E+01 -0.31275980018E+02  0.45045681560E+02  0.00000000000E+00 0. -1.
         11    1    3    3    0    0 -0.25256303037E+00  0.63716573027E+00  0.19053251469E+00  0.71138678116E+00  0.51100000000E-03 0. -1.
        -11    1    3    3    0    0 -0.31861366714E+02  0.64539657718E+00  0.31319418626E+02  0.44681866669E+02  0.51100000000E-03 0.  1.
        -12    1    3    3    0    0 -0.24533437733E+00  0.66795727117E+00 -0.23397112325E+00  0.74906499006E+00  0.00000000000E+00 0.  1.
</event>
<event>
 7    1  0.2227287E-008  0.4614233E+02  0.7816164E-02  0.1320468E+00
        -11   -1    0    0    0    0  0.00000000000E+00  0.00000000000E+00  0.45593999997E+02  0.45594000000E+02  0.51100000000E-03 0.  1.
         11   -1    0    0    0    0 -0.00000000000E+00 -0.00000000000E+00 -0.45593999997E+02  0.45594000000E+02  0.51100000000E-03 0. -1.
    9900012    2    1    2    0    0  0.29966681720E+02 -0.21980129342E+02  0.25455533415E+02  0.46142331167E+02  0.10000122244E+02 0.  0.
         12    1    1    2    0    0 -0.29966681720E+02  0.21980129342E+02 -0.25455533415E+02  0.45045668833E+02  0.00000000000E+00 0. -1.
         11    1    3    3    0    0  0.93568098446E+01 -0.92151063553E+01  0.12188992424E+02  0.17917578301E+02  0.51100000000E-03 0. -1.
        -11    1    3    3    0    0  0.50424006319E+01 -0.27366767141E+01  0.55547045860E+00  0.57640047937E+01  0.51100000000E-03 0.  1.
         12    1    3    3    0    0  0.15567471243E+02 -0.10028346273E+02  0.12711070532E+02  0.22460748072E+02  0.00000000000E+00 0. -1.
</event>
<event>
 7    1  0.2227287E-008  0.4614232E+02  0.7816164E-02  0.1320468E+00
        -11   -1    0    0    0    0  0.00000000000E+00  0.00000000000E+00  0.45593999997E+02  0.45594000000E+02  0.51100000000E-03 0.  1.
         11   -1    0    0    0    0 -0.00000000000E+00 -0.00000000000E+00 -0.45593999997E+02  0.45594000000E+02  0.51100000000E-03 0. -1.
    9900012    2    1    2    0    0 -0.34408026135E+02 -0.25340473276E+02  0.14249971564E+02  0.46142317210E+02  0.99999949791E+01 0.  0.
         12    1    1    2    0    0  0.34408026135E+02  0.25340473276E+02 -0.14249971564E+02  0.45045682790E+02  0.00000000000E+00 0. -1.
         11    1    3    3    0    0 -0.56452691470E+01 -0.17432961862E+01 -0.63928899621E+00  0.59427969860E+01  0.51100000000E-03 0. -1.
        -11    1    3    3    0    0 -0.20768510716E+02 -0.18670511377E+02  0.10525351395E+02  0.29844631924E+02  0.51100000000E-03 0.  1.
        -12    1    3    3    0    0 -0.79942462724E+01 -0.49266657133E+01  0.43639091650E+01  0.10354888300E+02  0.00000000000E+00 0.  1.
</event>
<event>
 7    1  0.2227287E-008  0.4614232E+02  0.7816164E-02  0.1320468E+00
        -11   -1    0    0    0    0  0.00000000000E+00  0.00000000000E+00  0.45593999997E+02  0.45594000000E+02  0.51100000000E-03 0. -1.
         11   -1    0    0    0    0 -0.00000000000E+00 -0.00000000000E+00 -0.45593999997E+02  0.45594000000E+02  0.51100000000E-03 0.  1.
    9900012    2    1    2    0    0  0.16951548565E+01  0.80143539098E+01 -0.44294582674E+02  0.46142317933E+02  0.10000001569E+02 0.  0.
         12    1    1    2    0    0 -0.16951548565E+01 -0.80143539098E+01  0.44294582674E+02  0.45045682067E+02  0.00000000000E+00 0. -1.
         11    1    3    3    0    0  0.11399540301E+01  0.32219900326E-01 -0.59068682932E+00  0.12843070132E+01  0.51100000000E-03 0. -1.
        -11    1    3    3    0    0  0.33204857318E+01  0.51552514625E+01 -0.28035841719E+02  0.28698617811E+02  0.51100000000E-03 0.  1.
        -12    1    3    3    0    0 -0.27652849054E+01  0.28268825469E+01 -0.15668054126E+02  0.16159393109E+02  0.00000000000E+00 0.  1.
</event>
<event>
 7    1  0.2227287E-008  0.4614232E+02  0.7816164E-02  0.1320468E+00
        -11   -1    0    0    0    0  0.00000000000E+00  0.00000000000E+00  0.45593999997E+02  0.45594000000E+02  0.51100000000E-03 0.  1.
         11   -1    0    0    0    0 -0.00000000000E+00 -0.00000000000E+00 -0.45593999997E+02  0.45594000000E+02  0.51100000000E-03 0. -1.
    9900012    2    1    2    0    0  0.12796735553E+02 -0.42011737716E+02 -0.10018531309E+02  0.46142317451E+02  0.99999971747E+01 0.  0.
         12    1    1    2    0    0 -0.12796735553E+02  0.42011737716E+02  0.10018531309E+02  0.45045682549E+02  0.00000000000E+00 0. -1.
         11    1    3    3    0    0  0.99334189520E+01 -0.32585507459E+02 -0.53136794271E+01  0.34477866781E+02  0.51100000000E-03 0. -1.
        -11    1    3    3    0    0  0.29066995549E+01 -0.96927490648E+01 -0.39501065393E+01  0.10862855456E+02  0.51100000000E-03 0.  1.
         12    1    3    3    0    0 -0.43382953712E-01  0.26651880807E+00 -0.75474534229E+00  0.80159521421E+00  0.00000000000E+00 0. -1.
</event>
<event>
 7    1  0.2227287E-008  0.4614232E+02  0.7816164E-02  0.1320468E+00
        -11   -1    0    0    0    0  0.00000000000E+00  0.00000000000E+00  0.45593999997E+02  0.45594000000E+02  0.51100000000E-03 0.  1.
         11   -1    0    0    0    0 -0.00000000000E+00 -0.00000000000E+00 -0.45593999997E+02  0.45594000000E+02  0.51100000000E-03 0. -1.
    9900012    2    1    2    0    0  0.86538770279E+01  0.28446328812E+01  0.44114985514E+02  0.46142317957E+02  0.10000001784E+02 0.  0.
         12    1    1    2    0    0 -0.86538770279E+01 -0.28446328812E+01 -0.44114985514E+02  0.45045682043E+02  0.00000000000E+00 0. -1.
         11    1    3    3    0    0  0.35259437468E+01  0.22701536695E+01  0.18434525670E+02  0.18905491634E+02  0.51100000000E-03 0.  1.
        -11    1    3    3    0    0 -0.67710172622E+00  0.12826361207E+01  0.14916232133E+02  0.14986580780E+02  0.51100000000E-03 0. -1.
         12    1    3    3    0    0  0.58050350073E+01 -0.70815690888E+00  0.10764227711E+02  0.12250245542E+02  0.00000000000E+00 0. -1.
</event>
<event>
 7    1  0.2227287E-008  0.4614232E+02  0.7816164E-02  0.1320468E+00
        -11   -1    0    0    0    0  0.00000000000E+00  0.00000000000E+00  0.45593999997E+02  0.45594000000E+02  0.51100000000E-03 0. -1.
         11   -1    0    0    0    0 -0.00000000000E+00 -0.00000000000E+00 -0.45593999997E+02  0.45594000000E+02  0.51100000000E-03 0.  1.
    9900012    2    1    2    0    0  0.40918774351E+02  0.16662248645E+02 -0.87827557582E+01  0.46142318486E+02  0.10000006611E+02 0.  0.
         12    1    1    2    0    0 -0.40918774351E+02 -0.16662248645E+02  0.87827557582E+01  0.45045681514E+02  0.00000000000E+00 0. -1.
         11    1    3    3    0    0  0.31065924748E+01 -0.16632019198E+00 -0.15541390480E+01  0.34776324780E+01  0.51100000000E-03 0. -1.
        -11    1    3    3    0    0  0.10712788733E+02  0.38687053281E+01 -0.53035506934E+01  0.12564170230E+02  0.51100000000E-03 0.  1.
         12    1    3    3    0    0  0.27099393143E+02  0.12959863509E+02 -0.19250660168E+01  0.30100515778E+02  0.00000000000E+00 0. -1.
</event>
<event>
 7    1  0.2227287E-008  0.4614232E+02  0.7816164E-02  0.1320468E+00
        -11   -1    0    0    0    0  0.00000000000E+00  0.00000000000E+00  0.45593999997E+02  0.45594000000E+02  0.51100000000E-03 0.  1.
         11   -1    0    0    0    0 -0.00000000000E+00 -0.00000000000E+00 -0.45593999997E+02  0.45594000000E+02  0.51100000000E-03 0. -1.
    9900012    2    1    2    0    0  0.18066905950E+02  0.11930526203E+02  0.39501429585E+02  0.46142317794E+02  0.10000000303E+02 0.  0.
         12    1    1    2    0    0 -0.18066905950E+02 -0.11930526203E+02 -0.39501429585E+02  0.45045682206E+02  0.00000000000E+00 0. -1.
         11    1    3    3    0    0  0.11472201348E+02  0.49178558646E+01  0.15682430727E+02  0.20043336644E+02  0.51100000000E-03 0. -1.
        -11    1    3    3    0    0  0.61072901630E+01  0.35986399200E+01  0.14007043674E+02  0.15698613797E+02  0.51100000000E-03 0.  1.
         12    1    3    3    0    0  0.48741443940E+00  0.34140304182E+01  0.98119551851E+01  0.10400367353E+02  0.00000000000E+00 0. -1.
</event>
<event>
 7    1  0.2227287E-008  0.4614232E+02  0.7816164E-02  0.1320468E+00
        -11   -1    0    0    0    0  0.00000000000E+00  0.00000000000E+00  0.45593999997E+02  0.45594000000E+02  0.51100000000E-03 0.  1.
         11   -1    0    0    0    0 -0.00000000000E+00 -0.00000000000E+00 -0.45593999997E+02  0.45594000000E+02  0.51100000000E-03 0. -1.
    9900012    2    1    2    0    0  0.76764362537E+01 -0.75656838726E+01  0.43737241773E+02  0.46142316922E+02  0.99999923488E+01 0.  0.
         12    1    1    2    0    0 -0.76764362537E+01  0.75656838726E+01 -0.43737241773E+02  0.45045683078E+02  0.00000000000E+00 0. -1.
         11    1    3    3    0    0  0.15357934744E+00 -0.32942038567E+00  0.82081478610E+01  0.82161910869E+01  0.51100000000E-03 0. -1.
        -11    1    3    3    0    0  0.88436650845E+01 -0.78002597538E+01  0.32517111918E+02  0.34589261804E+02  0.51100000000E-03 0.  1.
        -12    1    3    3    0    0 -0.13208081782E+01  0.56399626684E+00  0.30119819940E+01  0.33368640315E+01  0.00000000000E+00 0.  1.
</event>
<event>
 7    1  0.2227287E-008  0.4614232E+02  0.7816164E-02  0.1320468E+00
        -11   -1    0    0    0    0  0.00000000000E+00  0.00000000000E+00  0.45593999997E+02  0.45594000000E+02  0.51100000000E-03 0.  1.
         11   -1    0    0    0    0 -0.00000000000E+00 -0.00000000000E+00 -0.45593999997E+02  0.45594000000E+02  0.51100000000E-03 0. -1.
    9900012    2    1    2    0    0  0.38170255477E+02  0.18074022832E+02  0.15667638546E+02  0.46142316498E+02  0.99999884851E+01 0.  0.
         12    1    1    2    0    0 -0.38170255477E+02 -0.18074022832E+02 -0.15667638546E+02  0.45045683502E+02  0.00000000000E+00 0. -1.
         11    1    3    3    0    0  0.19152586806E+02  0.98342985081E+01  0.57599653197E+01  0.22287041285E+02  0.51100000000E-03 0. -1.
        -11    1    3    3    0    0  0.19122038232E+02  0.71355978324E+01  0.86195345237E+01  0.22155484157E+02  0.51100000000E-03 0.  1.
         12    1    3    3    0    0 -0.10436956124E+00  0.11041264919E+01  0.12881387029E+01  0.16997910558E+01  0.00000000000E+00 0. -1.
</event>
<event>
 7    1  0.2227287E-008  0.4614232E+02  0.7816164E-02  0.1320468E+00
        -11   -1    0    0    0    0  0.00000000000E+00  0.00000000000E+00  0.45593999997E+02  0.45594000000E+02  0.51100000000E-03 0. -1.
         11   -1    0    0    0    0 -0.00000000000E+00 -0.00000000000E+00 -0.45593999997E+02  0.45594000000E+02  0.51100000000E-03 0.  1.
    9900012    2    1    2    0    0  0.12461523791E+02 -0.36038613532E+02 -0.23980038858E+02  0.46142317586E+02  0.99999984006E+01 0.  0.
         12    1    1    2    0    0 -0.12461523791E+02  0.36038613532E+02  0.23980038858E+02  0.45045682414E+02  0.00000000000E+00 0. -1.
         11    1    3    3    0    0  0.29068421218E+01 -0.14426150046E+01 -0.25077752078E+01  0.41011956704E+01  0.51100000000E-03 0. -1.
        -11    1    3    3    0    0  0.64202187267E+01 -0.15479868204E+02 -0.93711108306E+01  0.19200605370E+02  0.51100000000E-03 0.  1.
         12    1    3    3    0    0  0.31344629427E+01 -0.19116130324E+02 -0.12101152820E+02  0.22840516546E+02  0.00000000000E+00 0. -1.
</event>
<event>
 7    1  0.2227287E-008  0.4614232E+02  0.7816164E-02  0.1320468E+00
        -11   -1    0    0    0    0  0.00000000000E+00  0.00000000000E+00  0.45593999997E+02  0.45594000000E+02  0.51100000000E-03 0.  1.
         11   -1    0    0    0    0 -0.00000000000E+00 -0.00000000000E+00 -0.45593999997E+02  0.45594000000E+02  0.51100000000E-03 0. -1.
    9900012    2    1    2    0    0 -0.25959659056E+02  0.16747789590E+02  0.32782936312E+02  0.46142320210E+02  0.10000022335E+02 0.  0.
         12    1    1    2    0    0  0.25959659056E+02 -0.16747789590E+02 -0.32782936312E+02  0.45045679790E+02  0.00000000000E+00 0. -1.
         11    1    3    3    0    0 -0.25415756624E+01  0.10319752279E+01  0.15507967774E+01  0.31511189480E+01  0.51100000000E-03 0. -1.
        -11    1    3    3    0    0 -0.17051934931E+02  0.11028820845E+02  0.16088738758E+02  0.25908509976E+02  0.51100000000E-03 0.  1.
         12    1    3    3    0    0 -0.63661484621E+01  0.46869935175E+01  0.15143400777E+02  0.17082691286E+02  0.00000000000E+00 0. -1.
</event>
<event>
 7    1  0.2227287E-008  0.4614232E+02  0.7816164E-02  0.1320468E+00
        -11   -1    0    0    0    0  0.00000000000E+00  0.00000000000E+00  0.45593999997E+02  0.45594000000E+02  0.51100000000E-03 0. -1.
         11   -1    0    0    0    0 -0.00000000000E+00 -0.00000000000E+00 -0.45593999997E+02  0.45594000000E+02  0.51100000000E-03 0.  1.
    9900012    2    1    2    0    0  0.23531241316E+02  0.36587296070E+02 -0.11694612635E+02  0.46142317452E+02  0.99999971772E+01 0.  0.
         12    1    1    2    0    0 -0.23531241316E+02 -0.36587296070E+02  0.11694612635E+02  0.45045682548E+02  0.00000000000E+00 0. -1.
         11    1    3    3    0    0  0.67044894021E+01  0.57554220651E+01 -0.37752775304E+01  0.96087346713E+01  0.51100000000E-03 0. -1.
        -11    1    3    3    0    0  0.15212971311E+02  0.22596902195E+02 -0.53871514503E+01  0.27768253203E+02  0.51100000000E-03 0.  1.
         12    1    3    3    0    0  0.16137806026E+01  0.82349718102E+01 -0.25321836541E+01  0.87653295778E+01  0.00000000000E+00 0. -1.
</event>
<event>
 7    1  0.2227287E-008  0.4614232E+02  0.7816164E-02  0.1320468E+00
        -11   -1    0    0    0    0  0.00000000000E+00  0.00000000000E+00  0.45593999997E+02  0.45594000000E+02  0.51100000000E-03 0. -1.
         11   -1    0    0    0    0 -0.00000000000E+00 -0.00000000000E+00 -0.45593999997E+02  0.45594000000E+02  0.51100000000E-03 0.  1.
    9900012    2    1    2    0    0  0.11153933040E+02  0.17511314614E+02 -0.39975706854E+02  0.46142317629E+02  0.99999987982E+01 0.  0.
         12    1    1    2    0    0 -0.11153933040E+02 -0.17511314614E+02  0.39975706854E+02  0.45045682371E+02  0.00000000000E+00 0. -1.
         11    1    3    3    0    0  0.10859118729E+01  0.55016921619E+01 -0.43880804219E+01  0.71206089129E+01  0.51100000000E-03 0. -1.
        -11    1    3    3    0    0  0.77164729858E+00  0.28487314629E+01 -0.62428966758E+01  0.69053942441E+01  0.51100000000E-03 0.  1.
        -12    1    3    3    0    0  0.92963738682E+01  0.91608909890E+01 -0.29344729756E+02  0.32116314472E+02  0.00000000000E+00 0.  1.
</event>
<event>
 7    1  0.2227287E-008  0.4614232E+02  0.7816164E-02  0.1320468E+00
        -11   -1    0    0    0    0  0.00000000000E+00  0.00000000000E+00  0.45593999997E+02  0.45594000000E+02  0.51100000000E-03 0. -1.
         11   -1    0    0    0    0 -0.00000000000E+00 -0.00000000000E+00 -0.45593999997E+02  0.45594000000E+02  0.51100000000E-03 0.  1.
    9900012    2    1    2    0    0  0.65094052801E+01  0.40430711266E+02 -0.18764293355E+02  0.46142317902E+02  0.10000001288E+02 0.  0.
         12    1    1    2    0    0 -0.65094052801E+01 -0.40430711266E+02  0.18764293355E+02  0.45045682098E+02  0.00000000000E+00 0. -1.
         11    1    3    3    0    0 -0.30830834700E+00  0.79777368077E+00 -0.30780156004E+00  0.90897686661E+00  0.51100000000E-03 0. -1.
        -11    1    3    3    0    0  0.41286647587E+01  0.35633471834E+02 -0.18609145557E+02  0.40411514278E+02  0.51100000000E-03 0.  1.
        -12    1    3    3    0    0  0.26890488683E+01  0.39994657512E+01  0.15265376238E+00  0.48218267578E+01  0.00000000000E+00 0.  1.
</event>
<event>
 7    1  0.2227287E-008  0.4614232E+02  0.7816164E-02  0.1320468E+00
        -11   -1    0    0    0    0  0.00000000000E+00  0.00000000000E+00  0.45593999997E+02  0.45594000000E+02  0.51100000000E-03 0.  1.
         11   -1    0    0    0    0 -0.00000000000E+00 -0.00000000000E+00 -0.45593999997E+02  0.45594000000E+02  0.51100000000E-03 0. -1.
    9900012    2    1    2    0    0  0.20155337871E+02  0.31462366540E+01  0.40161885704E+02  0.46142317486E+02  0.99999974953E+01 0.  0.
         12    1    1    2    0    0 -0.20155337871E+02 -0.31462366540E+01 -0.40161885704E+02  0.45045682514E+02  0.00000000000E+00 0. -1.
         11    1    3    3    0    0  0.44850038211E+01 -0.18575856711E+01  0.50268387639E+01  0.69882037764E+01  0.51100000000E-03 0. -1.
        -11    1    3    3    0    0  0.18763285352E+01  0.25729625651E+01  0.81616318670E+01  0.87608778171E+01  0.51100000000E-03 0.  1.
        -12    1    3    3    0    0  0.13794005515E+02  0.24308597600E+01  0.26973415074E+02  0.30393235893E+02  0.00000000000E+00 0.  1.
</event>
<event>
 7    1  0.2227287E-008  0.4614232E+02  0.7816164E-02  0.1320468E+00
        -11   -1    0    0    0    0  0.00000000000E+00  0.00000000000E+00  0.45593999997E+02  0.45594000000E+02  0.51100000000E-03 0.  1.
         11   -1    0    0    0    0 -0.00000000000E+00 -0.00000000000E+00 -0.45593999997E+02  0.45594000000E+02  0.51100000000E-03 0. -1.
    9900012    2    1    2    0    0  0.47372236922E+01 -0.29752713581E+02  0.33488031722E+02  0.46142317384E+02  0.99999965570E+01 0.  0.
         12    1    1    2    0    0 -0.47372236922E+01  0.29752713581E+02 -0.33488031722E+02  0.45045682616E+02  0.00000000000E+00 0. -1.
         11    1    3    3    0    0  0.78385590039E+00 -0.22551145401E-01  0.16348542889E+01  0.18131981232E+01  0.51100000000E-03 0. -1.
        -11    1    3    3    0    0 -0.48295444848E+00 -0.11082953795E+02  0.15920093242E+02  0.19403981007E+02  0.51100000000E-03 0.  1.
        -12    1    3    3    0    0  0.44363222402E+01 -0.18647208640E+02  0.15933084192E+02  0.24925138254E+02  0.00000000000E+00 0.  1.
</event>
<event>
 7    1  0.2227287E-008  0.4614232E+02  0.7816164E-02  0.1320468E+00
        -11   -1    0    0    0    0  0.00000000000E+00  0.00000000000E+00  0.45593999997E+02  0.45594000000E+02  0.51100000000E-03 0.  1.
         11   -1    0    0    0    0 -0.00000000000E+00 -0.00000000000E+00 -0.45593999997E+02  0.45594000000E+02  0.51100000000E-03 0. -1.
    9900012    2    1    2    0    0  0.22913707565E+02 -0.14267169906E+01  0.38756160541E+02  0.46142317681E+02  0.99999992656E+01 0.  0.
         12    1    1    2    0    0 -0.22913707565E+02  0.14267169906E+01 -0.38756160541E+02  0.45045682319E+02  0.00000000000E+00 0. -1.
         11    1    3    3    0    0  0.13191797748E+02 -0.27222828128E+01  0.15243997384E+02  0.20342414017E+02  0.51100000000E-03 0. -1.
        -11    1    3    3    0    0  0.43300033040E+01  0.17964808831E+01  0.70190794938E+01  0.84406012450E+01  0.51100000000E-03 0.  1.
        -12    1    3    3    0    0  0.53919065134E+01 -0.50091506085E+00  0.16493083663E+02  0.17359302418E+02  0.00000000000E+00 0.  1.
</event>
<event>
 7    1  0.2227287E-008  0.4614232E+02  0.7816164E-02  0.1320468E+00
        -11   -1    0    0    0    0  0.00000000000E+00  0.00000000000E+00  0.45593999997E+02  0.45594000000E+02  0.51100000000E-03 0. -1.
         11   -1    0    0    0    0 -0.00000000000E+00 -0.00000000000E+00 -0.45593999997E+02  0.45594000000E+02  0.51100000000E-03 0.  1.
    9900012    2    1    2    0    0 -0.27034099345E+02  0.12857643412E+02 -0.33659350943E+02  0.46142318438E+02  0.10000006170E+02 0.  0.
         12    1    1    2    0    0  0.27034099345E+02 -0.12857643412E+02  0.33659350943E+02  0.45045681562E+02  0.00000000000E+00 0. -1.
         11    1    3    3    0    0 -0.18162530904E+02  0.72859805183E+01 -0.23720907825E+02  0.30751333455E+02  0.51100000000E-03 0. -1.
        -11    1    3    3    0    0 -0.81097110357E+01  0.64331705201E+01 -0.97601111883E+01  0.14227187589E+02  0.51100000000E-03 0.  1.
         12    1    3    3    0    0 -0.76185740539E+00 -0.86150762686E+00 -0.17833193019E+00  0.11637973941E+01  0.00000000000E+00 0. -1.
</event>
<event>
 7    1  0.2227287E-008  0.4614232E+02  0.7816164E-02  0.1320468E+00
        -11   -1    0    0    0    0  0.00000000000E+00  0.00000000000E+00  0.45593999997E+02  0.45594000000E+02  0.51100000000E-03 0.  1.
         11   -1    0    0    0    0 -0.00000000000E+00 -0.00000000000E+00 -0.45593999997E+02  0.45594000000E+02  0.51100000000E-03 0. -1.
    9900012    2    1    2    0    0 -0.14165310490E+02 -0.17753753470E+02  0.38900666199E+02  0.46142316364E+02  0.99999872575E+01 0.  0.
         12    1    1    2    0    0  0.14165310490E+02  0.17753753470E+02 -0.38900666199E+02  0.45045683636E+02  0.00000000000E+00 0. -1.
         11    1    3    3    0    0  0.84841718966E-01 -0.18901758700E+00  0.52176596070E+01  0.52217715195E+01  0.51100000000E-03 0. -1.
        -11    1    3    3    0    0 -0.13285364098E+01 -0.61061616277E+00  0.48339775975E+01  0.50502673954E+01  0.51100000000E-03 0.  1.
        -12    1    3    3    0    0 -0.12921615799E+02 -0.16954119720E+02  0.28849028994E+02  0.35870277449E+02  0.00000000000E+00 0.  1.
</event>
<event>
 7    1  0.2227287E-008  0.4614232E+02  0.7816164E-02  0.1320468E+00
        -11   -1    0    0    0    0  0.00000000000E+00  0.00000000000E+00  0.45593999997E+02  0.45594000000E+02  0.51100000000E-03 0.  1.
         11   -1    0    0    0    0 -0.00000000000E+00 -0.00000000000E+00 -0.45593999997E+02  0.45594000000E+02  0.51100000000E-03 0. -1.
    9900012    2    1    2    0    0  0.30231834233E+02  0.31706607855E+02  0.10480492076E+02  0.46142317666E+02  0.99999991327E+01 0.  0.
         12    1    1    2    0    0 -0.30231834233E+02 -0.31706607855E+02 -0.10480492076E+02  0.45045682334E+02  0.00000000000E+00 0. -1.
         11    1    3    3    0    0  0.96618856517E+01  0.99441300365E+01  0.26838650360E+01  0.14122354206E+02  0.51100000000E-03 0.  1.
        -11    1    3    3    0    0  0.15968006348E+01  0.65161503649E+01  0.13980387088E+01  0.68530650323E+01  0.51100000000E-03 0. -1.
         12    1    3    3    0    0  0.18973147946E+02  0.15246327454E+02  0.63985883315E+01  0.25166898428E+02  0.00000000000E+00 0. -1.
</event>
<event>
 7    1  0.2227287E-008  0.4614232E+02  0.7816164E-02  0.1320468E+00
        -11   -1    0    0    0    0  0.00000000000E+00  0.00000000000E+00  0.45593999997E+02  0.45594000000E+02  0.51100000000E-03 0.  1.
         11   -1    0    0    0    0 -0.00000000000E+00 -0.00000000000E+00 -0.45593999997E+02  0.45594000000E+02  0.51100000000E-03 0. -1.
    9900012    2    1    2    0    0 -0.22126966093E+01  0.15969151868E+02  0.42061903475E+02  0.46142316948E+02  0.99999925834E+01 0.  0.
         12    1    1    2    0    0  0.22126966093E+01 -0.15969151868E+02 -0.42061903475E+02  0.45045683052E+02  0.00000000000E+00 0. -1.
         11    1    3    3    0    0  0.19792897877E+01  0.14129045200E+00  0.36119812690E+01  0.41211600314E+01  0.51100000000E-03 0. -1.
        -11    1    3    3    0    0 -0.22135081481E+01  0.69435882687E+01  0.22572822464E+02  0.23720146514E+02  0.51100000000E-03 0.  1.
        -12    1    3    3    0    0 -0.19784782490E+01  0.88842731473E+01  0.15877099742E+02  0.18301010403E+02  0.00000000000E+00 0.  1.
</event>
<event>
 7    1  0.2227287E-008  0.4614232E+02  0.7816164E-02  0.1320468E+00
        -11   -1    0    0    0    0  0.00000000000E+00  0.00000000000E+00  0.45593999997E+02  0.45594000000E+02  0.51100000000E-03 0.  1.
         11   -1    0    0    0    0 -0.00000000000E+00 -0.00000000000E+00 -0.45593999997E+02  0.45594000000E+02  0.51100000000E-03 0. -1.
    9900012    2    1    2    0    0  0.10894642386E+02  0.40539749373E+02  0.16338576706E+02  0.46142316514E+02  0.99999886295E+01 0.  0.
         12    1    1    2    0    0 -0.10894642386E+02 -0.40539749373E+02 -0.16338576706E+02  0.45045683486E+02  0.00000000000E+00 0. -1.
         11    1    3    3    0    0  0.32326059729E+01  0.12090207732E+02  0.82659813605E+01  0.14998310321E+02  0.51100000000E-03 0. -1.
        -11    1    3    3    0    0  0.17448951458E+01  0.15764113739E+02  0.61675861621E+01  0.17017375249E+02  0.51100000000E-03 0.  1.
        -12    1    3    3    0    0  0.59171412673E+01  0.12685427902E+02  0.19050091833E+01  0.14126630944E+02  0.00000000000E+00 0.  1.
</event>
<event>
 7    1  0.2227287E-008  0.4614232E+02  0.7816164E-02  0.1320468E+00
        -11   -1    0    0    0    0  0.00000000000E+00  0.00000000000E+00  0.45593999997E+02  0.45594000000E+02  0.51100000000E-03 0.  1.
         11   -1    0    0    0    0 -0.00000000000E+00 -0.00000000000E+00 -0.45593999997E+02  0.45594000000E+02  0.51100000000E-03 0. -1.
    9900012    2    1    2    0    0  0.13504911983E+02 -0.41794171565E+02  0.99989036298E+01  0.46142317651E+02  0.99999989960E+01 0.  0.
         12    1    1    2    0    0 -0.13504911983E+02  0.41794171565E+02 -0.99989036298E+01  0.45045682349E+02  0.00000000000E+00 0. -1.
         11    1    3    3    0    0  0.12760096050E+01 -0.50064642267E+01  0.39498801755E+01  0.65034174268E+01  0.51100000000E-03 0. -1.
        -11    1    3    3    0    0  0.30365256589E+01 -0.63192607712E+01  0.31377800205E+01  0.76810942248E+01  0.51100000000E-03 0.  1.
         12    1    3    3    0    0  0.91923767195E+01 -0.30468446567E+02  0.29112434339E+01  0.31957805999E+02  0.00000000000E+00 0. -1.
</event>
<event>
 7    1  0.2227287E-008  0.4614231E+02  0.7816164E-02  0.1320468E+00
        -11   -1    0    0    0    0  0.00000000000E+00  0.00000000000E+00  0.45593999997E+02  0.45594000000E+02  0.51100000000E-03 0.  1.
         11   -1    0    0    0    0 -0.00000000000E+00 -0.00000000000E+00 -0.45593999997E+02  0.45594000000E+02  0.51100000000E-03 0. -1.
    9900012    2    1    2    0    0  0.16461192385E+02 -0.92847940171E+01  0.40889311116E+02  0.46142311880E+02  0.99999463701E+01 0.  0.
         12    1    1    2    0    0 -0.16461192385E+02  0.92847940171E+01 -0.40889311116E+02  0.45045688120E+02  0.00000000000E+00 0. -1.
         11    1    3    3    0    0  0.33311813378E+01 -0.24676549126E+01  0.92086697582E+01  0.10098796406E+02  0.51100000000E-03 0. -1.
        -11    1    3    3    0    0  0.11847223690E+02 -0.29620209297E+01  0.28056904046E+02  0.30599348719E+02  0.51100000000E-03 0.  1.
         12    1    3    3    0    0  0.12827873572E+01 -0.38551181748E+01  0.36237373119E+01  0.54441667545E+01  0.00000000000E+00 0. -1.
</event>
<event>
 7    1  0.2227287E-008  0.4614232E+02  0.7816164E-02  0.1320468E+00
        -11   -1    0    0    0    0  0.00000000000E+00  0.00000000000E+00  0.45593999997E+02  0.45594000000E+02  0.51100000000E-03 0.  1.
         11   -1    0    0    0    0 -0.00000000000E+00 -0.00000000000E+00 -0.45593999997E+02  0.45594000000E+02  0.51100000000E-03 0. -1.
    9900012    2    1    2    0    0 -0.16965363158E+02  0.38465750410E+02  0.16176404442E+02  0.46142316940E+02  0.99999925118E+01 0.  0.
         12    1    1    2    0    0  0.16965363158E+02 -0.38465750410E+02 -0.16176404442E+02  0.45045683060E+02  0.00000000000E+00 0. -1.
         11    1    3    3    0    0 -0.51906194996E+01  0.82655928659E+01  0.32795320029E+01  0.10296498756E+02  0.51100000000E-03 0. -1.
        -11    1    3    3    0    0 -0.12215487734E+02  0.22597397645E+02  0.85293106960E+01  0.27066763053E+02  0.51100000000E-03 0.  1.
         12    1    3    3    0    0  0.44074407635E+00  0.76027598986E+01  0.43675617432E+01  0.87790551313E+01  0.00000000000E+00 0. -1.
</event>
<event>
 7    1  0.2227287E-008  0.4614232E+02  0.7816164E-02  0.1320468E+00
        -11   -1    0    0    0    0  0.00000000000E+00  0.00000000000E+00  0.45593999997E+02  0.45594000000E+02  0.51100000000E-03 0.  1.
         11   -1    0    0    0    0 -0.00000000000E+00 -0.00000000000E+00 -0.45593999997E+02  0.45594000000E+02  0.51100000000E-03 0. -1.
    9900012    2    1    2    0    0 -0.13528386079E+02 -0.16014615738E+02  0.39870143724E+02  0.46142317546E+02  0.99999980410E+01 0.  0.
         12    1    1    2    0    0  0.13528386079E+02  0.16014615738E+02 -0.39870143724E+02  0.45045682454E+02  0.00000000000E+00 0. -1.
         11    1    3    3    0    0 -0.15540589857E+01 -0.46283586321E+01  0.14294283400E+02  0.15105076668E+02  0.51100000000E-03 0. -1.
        -11    1    3    3    0    0 -0.56091691164E+01 -0.38437531310E+01  0.15535317304E+02  0.16958281172E+02  0.51100000000E-03 0.  1.
        -12    1    3    3    0    0 -0.63651579772E+01 -0.75425039746E+01  0.10040543020E+02  0.14078959707E+02  0.00000000000E+00 0.  1.
</event>
<event>
 7    1  0.2227287E-008  0.4614232E+02  0.7816164E-02  0.1320468E+00
        -11   -1    0    0    0    0  0.00000000000E+00  0.00000000000E+00  0.45593999997E+02  0.45594000000E+02  0.51100000000E-03 0.  1.
         11   -1    0    0    0    0 -0.00000000000E+00 -0.00000000000E+00 -0.45593999997E+02  0.45594000000E+02  0.51100000000E-03 0. -1.
    9900012    2    1    2    0    0 -0.26176284305E+02 -0.18330208970E+02  0.31747740849E+02  0.46142317966E+02  0.10000001872E+02 0.  0.
         12    1    1    2    0    0  0.26176284305E+02  0.18330208970E+02 -0.31747740849E+02  0.45045682034E+02  0.00000000000E+00 0. -1.
         11    1    3    3    0    0 -0.15227015252E+01 -0.12845418008E+00  0.15469895619E+01  0.21744648484E+01  0.51100000000E-03 0. -1.
        -11    1    3    3    0    0 -0.46732854630E+01 -0.85636387866E+01  0.86057089966E+01  0.13008986659E+02  0.51100000000E-03 0.  1.
        -12    1    3    3    0    0 -0.19980297317E+02 -0.96381160029E+01  0.21595042290E+02  0.30958866459E+02  0.00000000000E+00 0.  1.
</event>
<event>
 7    1  0.2227287E-008  0.4614232E+02  0.7816164E-02  0.1320468E+00
        -11   -1    0    0    0    0  0.00000000000E+00  0.00000000000E+00  0.45593999997E+02  0.45594000000E+02  0.51100000000E-03 0.  1.
         11   -1    0    0    0    0 -0.00000000000E+00 -0.00000000000E+00 -0.45593999997E+02  0.45594000000E+02  0.51100000000E-03 0. -1.
    9900012    2    1    2    0    0 -0.65960720999E+01  0.42801593179E+02  0.12394714986E+02  0.46142317573E+02  0.99999982809E+01 0.  0.
         12    1    1    2    0    0  0.65960720999E+01 -0.42801593179E+02 -0.12394714986E+02  0.45045682427E+02  0.00000000000E+00 0. -1.
         11    1    3    3    0    0 -0.41376695997E+01  0.98731715596E+01  0.54407747087E+01  0.12008407723E+02  0.51100000000E-03 0. -1.
        -11    1    3    3    0    0 -0.16488410860E+01  0.72421633169E+01 -0.29100715056E+00  0.74331885392E+01  0.51100000000E-03 0.  1.
        -12    1    3    3    0    0 -0.80956141429E+00  0.25686258302E+02  0.72449474278E+01  0.26700721310E+02  0.00000000000E+00 0.  1.
</event>
<event>
 7    1  0.2227287E-008  0.4614232E+02  0.7816164E-02  0.1320468E+00
        -11   -1    0    0    0    0  0.00000000000E+00  0.00000000000E+00  0.45593999997E+02  0.45594000000E+02  0.51100000000E-03 0.  1.
         11   -1    0    0    0    0 -0.00000000000E+00 -0.00000000000E+00 -0.45593999997E+02  0.45594000000E+02  0.51100000000E-03 0. -1.
    9900012    2    1    2    0    0  0.45939587887E+01  0.26541564997E+02  0.36104762690E+02  0.46142322974E+02  0.10000047536E+02 0.  0.
         12    1    1    2    0    0 -0.45939587887E+01 -0.26541564997E+02 -0.36104762690E+02  0.45045677026E+02  0.00000000000E+00 0. -1.
         11    1    3    3    0    0 -0.10461147620E+01  0.29384711676E+00  0.52346121213E+00  0.12061153034E+01  0.51100000000E-03 0. -1.
        -11    1    3    3    0    0 -0.51830835940E+00  0.86797203929E+01  0.13456981924E+02  0.16021752476E+02  0.51100000000E-03 0.  1.
         12    1    3    3    0    0  0.61583819102E+01  0.17567997487E+02  0.22124319554E+02  0.28914455194E+02  0.00000000000E+00 0. -1.
</event>
<event>
 7    1  0.2227287E-008  0.4614232E+02  0.7816164E-02  0.1320468E+00
        -11   -1    0    0    0    0  0.00000000000E+00  0.00000000000E+00  0.45593999997E+02  0.45594000000E+02  0.51100000000E-03 0.  1.
         11   -1    0    0    0    0 -0.00000000000E+00 -0.00000000000E+00 -0.45593999997E+02  0.45594000000E+02  0.51100000000E-03 0. -1.
    9900012    2    1    2    0    0  0.32434285314E+02  0.30311505181E+02 -0.76382792584E+01  0.46142317408E+02  0.99999967778E+01 0.  0.
         12    1    1    2    0    0 -0.32434285314E+02 -0.30311505181E+02  0.76382792584E+01  0.45045682592E+02  0.00000000000E+00 0. -1.
         11    1    3    3    0    0  0.26796153606E+01  0.54440092283E+01  0.10619536489E+01  0.61599773354E+01  0.51100000000E-03 0. -1.
        -11    1    3    3    0    0  0.16662853906E+02  0.16164629249E+02 -0.65043037299E+01  0.24109166438E+02  0.51100000000E-03 0.  1.
        -12    1    3    3    0    0  0.13091816047E+02  0.87028667035E+01 -0.21959291774E+01  0.15873173634E+02  0.00000000000E+00 0.  1.
</event>
<event>
 7    1  0.2227287E-008  0.4614232E+02  0.7816164E-02  0.1320468E+00
        -11   -1    0    0    0    0  0.00000000000E+00  0.00000000000E+00  0.45593999997E+02  0.45594000000E+02  0.51100000000E-03 0. -1.
         11   -1    0    0    0    0 -0.00000000000E+00 -0.00000000000E+00 -0.45593999997E+02  0.45594000000E+02  0.51100000000E-03 0.  1.
    9900012    2    1    2    0    0  0.22592464514E+01  0.44481726082E+02 -0.67368280517E+01  0.46142323160E+02  0.10000049230E+02 0.  0.
         12    1    1    2    0    0 -0.22592464514E+01 -0.44481726082E+02  0.67368280517E+01  0.45045676840E+02  0.00000000000E+00 0. -1.
         11    1    3    3    0    0  0.11830498662E+01  0.13189100573E+02  0.19780690568E+01  0.13388978242E+02  0.51100000000E-03 0. -1.
        -11    1    3    3    0    0  0.88324494209E+00  0.23663840250E+01 -0.15096381413E+01  0.29426013254E+01  0.51100000000E-03 0.  1.
        -12    1    3    3    0    0  0.19295164305E+00  0.28926241485E+02 -0.72052589672E+01  0.29810743593E+02  0.00000000000E+00 0.  1.
</event>
<event>
 7    1  0.2227287E-008  0.4614232E+02  0.7816164E-02  0.1320468E+00
        -11   -1    0    0    0    0  0.00000000000E+00  0.00000000000E+00  0.45593999997E+02  0.45594000000E+02  0.51100000000E-03 0.  1.
         11   -1    0    0    0    0 -0.00000000000E+00 -0.00000000000E+00 -0.45593999997E+02  0.45594000000E+02  0.51100000000E-03 0. -1.
    9900012    2    1    2    0    0  0.32419720333E+02 -0.30965482655E+02 -0.43833877706E+01  0.46142317955E+02  0.10000001768E+02 0.  0.
         12    1    1    2    0    0 -0.32419720333E+02  0.30965482655E+02  0.43833877706E+01  0.45045682045E+02  0.00000000000E+00 0. -1.
         11    1    3    3    0    0  0.16530205230E+02 -0.14829171251E+02 -0.63362583101E+01  0.23093292848E+02  0.51100000000E-03 0. -1.
        -11    1    3    3    0    0  0.11116054168E+02 -0.12770054865E+02  0.13279405054E+00  0.16930995129E+02  0.51100000000E-03 0.  1.
         12    1    3    3    0    0  0.47734609356E+01 -0.33662565390E+01  0.18200764890E+01  0.61180299784E+01  0.00000000000E+00 0. -1.
</event>
<event>
 7    1  0.2227287E-008  0.4614232E+02  0.7816164E-02  0.1320468E+00
        -11   -1    0    0    0    0  0.00000000000E+00  0.00000000000E+00  0.45593999997E+02  0.45594000000E+02  0.51100000000E-03 0.  1.
         11   -1    0    0    0    0 -0.00000000000E+00 -0.00000000000E+00 -0.45593999997E+02  0.45594000000E+02  0.51100000000E-03 0. -1.
    9900012    2    1    2    0    0 -0.39001307068E+02 -0.86180031349E+00  0.22522629565E+02  0.46142317684E+02  0.99999992958E+01 0.  0.
         12    1    1    2    0    0  0.39001307068E+02  0.86180031349E+00 -0.22522629565E+02  0.45045682316E+02  0.00000000000E+00 0. -1.
         11    1    3    3    0    0 -0.50569375988E+01 -0.22792216999E+01  0.14160381302E+01  0.57247387436E+01  0.51100000000E-03 0. -1.
        -11    1    3    3    0    0 -0.16832123457E+02  0.33895506080E+00  0.13844406366E+02  0.21796854326E+02  0.51100000000E-03 0.  1.
        -12    1    3    3    0    0 -0.17112246012E+02  0.10784663256E+01  0.72621850686E+01  0.18620724614E+02  0.00000000000E+00 0.  1.
</event>
<event>
 7    1  0.2227287E-008  0.4614232E+02  0.7816164E-02  0.1320468E+00
        -11   -1    0    0    0    0  0.00000000000E+00  0.00000000000E+00  0.45593999997E+02  0.45594000000E+02  0.51100000000E-03 0.  1.
         11   -1    0    0    0    0 -0.00000000000E+00 -0.00000000000E+00 -0.45593999997E+02  0.45594000000E+02  0.51100000000E-03 0. -1.
    9900012    2    1    2    0    0  0.76375442742E+01  0.13157767788E+02  0.42398751943E+02  0.46142322050E+02  0.10000039108E+02 0.  0.
         12    1    1    2    0    0 -0.76375442742E+01 -0.13157767788E+02 -0.42398751943E+02  0.45045677950E+02  0.00000000000E+00 0. -1.
         11    1    3    3    0    0 -0.99205920821E+00  0.30139100378E+01  0.30036280977E+01  0.43691666481E+01  0.51100000000E-03 0. -1.
        -11    1    3    3    0    0  0.38312986632E+01  0.72963781970E+01  0.25542591928E+02  0.26839150264E+02  0.51100000000E-03 0.  1.
        -12    1    3    3    0    0  0.47983048193E+01  0.28474795529E+01  0.13852531917E+02  0.14934005138E+02  0.00000000000E+00 0.  1.
</event>
<event>
 7    1  0.2227287E-008  0.4614232E+02  0.7816164E-02  0.1320468E+00
        -11   -1    0    0    0    0  0.00000000000E+00  0.00000000000E+00  0.45593999997E+02  0.45594000000E+02  0.51100000000E-03 0.  1.
         11   -1    0    0    0    0 -0.00000000000E+00 -0.00000000000E+00 -0.45593999997E+02  0.45594000000E+02  0.51100000000E-03 0. -1.
    9900012    2    1    2    0    0 -0.23648683410E+02  0.66267602385E+01  0.37761611433E+02  0.46142317895E+02  0.10000001221E+02 0.  0.
         12    1    1    2    0    0  0.23648683410E+02 -0.66267602385E+01 -0.37761611433E+02  0.45045682105E+02  0.00000000000E+00 0. -1.
         11    1    3    3    0    0  0.15355826663E-01 -0.54723500340E-01  0.52189628361E+00  0.52498233767E+00  0.51100000000E-03 0. -1.
        -11    1    3    3    0    0 -0.11240584291E+02  0.20424153666E+01  0.94533730946E+01  0.14828636447E+02  0.51100000000E-03 0.  1.
         12    1    3    3    0    0 -0.12423454946E+02  0.46390683723E+01  0.27786342055E+02  0.30788699111E+02  0.00000000000E+00 0. -1.
</event>
<event>
 7    1  0.2227287E-008  0.4614232E+02  0.7816164E-02  0.1320468E+00
        -11   -1    0    0    0    0  0.00000000000E+00  0.00000000000E+00  0.45593999997E+02  0.45594000000E+02  0.51100000000E-03 0.  1.
         11   -1    0    0    0    0 -0.00000000000E+00 -0.00000000000E+00 -0.45593999997E+02  0.45594000000E+02  0.51100000000E-03 0. -1.
    9900012    2    1    2    0    0  0.27283317719E+02 -0.34550198011E+02  0.95403356331E+01  0.46142316385E+02  0.99999874552E+01 0.  0.
         12    1    1    2    0    0 -0.27283317719E+02  0.34550198011E+02 -0.95403356331E+01  0.45045683615E+02  0.00000000000E+00 0. -1.
         11    1    3    3    0    0  0.13999987119E+02 -0.12237319515E+02  0.26656926419E+01  0.18784502809E+02  0.51100000000E-03 0.  1.
        -11    1    3    3    0    0  0.67659693819E+00 -0.35174379629E+01 -0.35462761281E+00  0.35994324892E+01  0.51100000000E-03 0. -1.
        -12    1    3    3    0    0  0.12606733661E+02 -0.18795440533E+02  0.72292706040E+01  0.23758381087E+02  0.00000000000E+00 0.  1.
</event>
<event>
 7    1  0.2227287E-008  0.4614232E+02  0.7816164E-02  0.1320468E+00
        -11   -1    0    0    0    0  0.00000000000E+00  0.00000000000E+00  0.45593999997E+02  0.45594000000E+02  0.51100000000E-03 0.  1.
         11   -1    0    0    0    0 -0.00000000000E+00 -0.00000000000E+00 -0.45593999997E+02  0.45594000000E+02  0.51100000000E-03 0. -1.
    9900012    2    1    2    0    0  0.25546758981E+02  0.12144854260E+02  0.35056793721E+02  0.46142321346E+02  0.10000032687E+02 0.  0.
         12    1    1    2    0    0 -0.25546758981E+02 -0.12144854260E+02 -0.35056793721E+02  0.45045678654E+02  0.00000000000E+00 0. -1.
         11    1    3    3    0    0  0.11958940268E+02  0.17698239602E+01  0.16309886299E+02  0.20301746736E+02  0.51100000000E-03 0. -1.
        -11    1    3    3    0    0  0.57524842951E+01  0.39303679963E+01  0.11223807520E+02  0.13210326402E+02  0.51100000000E-03 0.  1.
         12    1    3    3    0    0  0.78353344181E+01  0.64446623032E+01  0.75230999020E+01  0.12630248207E+02  0.00000000000E+00 0. -1.
</event>
<event>
 7    1  0.2227287E-008  0.4614232E+02  0.7816164E-02  0.1320468E+00
        -11   -1    0    0    0    0  0.00000000000E+00  0.00000000000E+00  0.45593999997E+02  0.45594000000E+02  0.51100000000E-03 0. -1.
         11   -1    0    0    0    0 -0.00000000000E+00 -0.00000000000E+00 -0.45593999997E+02  0.45594000000E+02  0.51100000000E-03 0.  1.
    9900012    2    1    2    0    0  0.13783365499E+02  0.41759534248E+02 -0.97608208980E+01  0.46142317746E+02  0.99999998639E+01 0.  0.
         12    1    1    2    0    0 -0.13783365499E+02 -0.41759534248E+02  0.97608208980E+01  0.45045682254E+02  0.00000000000E+00 0. -1.
         11    1    3    3    0    0  0.17674649472E+01  0.14385640316E+02 -0.31289033840E-01  0.14493845552E+02  0.51100000000E-03 0. -1.
        -11    1    3    3    0    0  0.78002243408E+00  0.50144328600E+01 -0.20455860843E+01  0.54715075249E+01  0.51100000000E-03 0.  1.
        -12    1    3    3    0    0  0.11235878118E+02  0.22359461073E+02 -0.76839457799E+01  0.26176964669E+02  0.00000000000E+00 0.  1.
</event>
<event>
 7    1  0.2227287E-008  0.4614232E+02  0.7816164E-02  0.1320468E+00
        -11   -1    0    0    0    0  0.00000000000E+00  0.00000000000E+00  0.45593999997E+02  0.45594000000E+02  0.51100000000E-03 0. -1.
         11   -1    0    0    0    0 -0.00000000000E+00 -0.00000000000E+00 -0.45593999997E+02  0.45594000000E+02  0.51100000000E-03 0.  1.
    9900012    2    1    2    0    0  0.23486389289E+00 -0.41232811109E+02 -0.18135976634E+02  0.46142317394E+02  0.99999966479E+01 0.  0.
         12    1    1    2    0    0 -0.23486389289E+00  0.41232811109E+02  0.18135976634E+02  0.45045682606E+02  0.00000000000E+00 0. -1.
         11    1    3    3    0    0  0.17401151692E+01 -0.59527572112E+01 -0.14699171263E+01  0.63736940495E+01  0.51100000000E-03 0. -1.
        -11    1    3    3    0    0  0.11626028941E+01 -0.15900897682E+02 -0.39121941650E+01  0.16416316762E+02  0.51100000000E-03 0.  1.
        -12    1    3    3    0    0 -0.26678541704E+01 -0.19379156216E+02 -0.12753865343E+02  0.23352306582E+02  0.00000000000E+00 0.  1.
</event>
<event>
 7    1  0.2227287E-008  0.4614232E+02  0.7816164E-02  0.1320468E+00
        -11   -1    0    0    0    0  0.00000000000E+00  0.00000000000E+00  0.45593999997E+02  0.45594000000E+02  0.51100000000E-03 0. -1.
         11   -1    0    0    0    0 -0.00000000000E+00 -0.00000000000E+00 -0.45593999997E+02  0.45594000000E+02  0.51100000000E-03 0.  1.
    9900012    2    1    2    0    0  0.11728007699E+02 -0.28085284834E+02 -0.33208192393E+02  0.46142318400E+02  0.10000005827E+02 0.  0.
         12    1    1    2    0    0 -0.11728007699E+02  0.28085284834E+02  0.33208192393E+02  0.45045681600E+02  0.00000000000E+00 0. -1.
         11    1    3    3    0    0 -0.42630150378E+00 -0.21661098383E+00  0.49198989275E+00  0.68608134075E+00  0.51100000000E-03 0. -1.
        -11    1    3    3    0    0  0.66864803129E+01 -0.14531291050E+02 -0.15934019115E+02  0.22577874213E+02  0.51100000000E-03 0.  1.
         12    1    3    3    0    0  0.54678288895E+01 -0.13337382800E+02 -0.17766163171E+02  0.22878362847E+02  0.00000000000E+00 0. -1.
</event>
<event>
 7    1  0.2227287E-008  0.4614232E+02  0.7816164E-02  0.1320468E+00
        -11   -1    0    0    0    0  0.00000000000E+00  0.00000000000E+00  0.45593999997E+02  0.45594000000E+02  0.51100000000E-03 0.  1.
         11   -1    0    0    0    0 -0.00000000000E+00 -0.00000000000E+00 -0.45593999997E+02  0.45594000000E+02  0.51100000000E-03 0. -1.
    9900012    2    1    2    0    0 -0.70197172322E+01 -0.41992230765E+02  0.14713588000E+02  0.46142317116E+02  0.99999941211E+01 0.  0.
         12    1    1    2    0    0  0.70197172322E+01  0.41992230765E+02 -0.14713588000E+02  0.45045682884E+02  0.00000000000E+00 0. -1.
         11    1    3    3    0    0 -0.25510188519E+01 -0.65919552861E+01  0.81540528146E+00  0.71152271722E+01  0.51100000000E-03 0. -1.
        -11    1    3    3    0    0 -0.27983873662E+01 -0.77875311339E+01  0.50023863386E+00  0.82901659793E+01  0.51100000000E-03 0.  1.
        -12    1    3    3    0    0 -0.16703110142E+01 -0.27612744344E+02  0.13397944085E+02  0.30736923965E+02  0.00000000000E+00 0.  1.
</event>
<event>
 7    1  0.2227287E-008  0.4614232E+02  0.7816164E-02  0.1320468E+00
        -11   -1    0    0    0    0  0.00000000000E+00  0.00000000000E+00  0.45593999997E+02  0.45594000000E+02  0.51100000000E-03 0. -1.
         11   -1    0    0    0    0 -0.00000000000E+00 -0.00000000000E+00 -0.45593999997E+02  0.45594000000E+02  0.51100000000E-03 0.  1.
    9900012    2    1    2    0    0  0.44797322544E+02  0.41937048068E+01 -0.21739907539E+01  0.46142317599E+02  0.99999985261E+01 0.  0.
         12    1    1    2    0    0 -0.44797322544E+02 -0.41937048068E+01  0.21739907539E+01  0.45045682401E+02  0.00000000000E+00 0. -1.
         11    1    3    3    0    0  0.54820725081E+01  0.29908587042E+01 -0.48099475749E+00  0.62633625945E+01  0.51100000000E-03 0. -1.
        -11    1    3    3    0    0  0.40278406507E+01 -0.16142009383E+01  0.71372206713E+00  0.43975611908E+01  0.51100000000E-03 0.  1.
        -12    1    3    3    0    0  0.35287409385E+02  0.28170470409E+01 -0.24067180636E+01  0.35481393814E+02  0.00000000000E+00 0.  1.
</event>
<event>
 7    1  0.2227287E-008  0.4614232E+02  0.7816164E-02  0.1320468E+00
        -11   -1    0    0    0    0  0.00000000000E+00  0.00000000000E+00  0.45593999997E+02  0.45594000000E+02  0.51100000000E-03 0.  1.
         11   -1    0    0    0    0 -0.00000000000E+00 -0.00000000000E+00 -0.45593999997E+02  0.45594000000E+02  0.51100000000E-03 0. -1.
    9900012    2    1    2    0    0  0.28635518291E+02  0.23327048441E+02  0.25786998424E+02  0.46142318914E+02  0.10000010513E+02 0.  0.
         12    1    1    2    0    0 -0.28635518291E+02 -0.23327048441E+02 -0.25786998424E+02  0.45045681086E+02  0.00000000000E+00 0. -1.
         11    1    3    3    0    0  0.42629195704E+01  0.11402419767E+01  0.40197496018E+01  0.59691726522E+01  0.51100000000E-03 0. -1.
        -11    1    3    3    0    0  0.16368232562E+02  0.15021073194E+02  0.18595579190E+02  0.28971490171E+02  0.51100000000E-03 0.  1.
         12    1    3    3    0    0  0.80043661588E+01  0.71657332706E+01  0.31716696327E+01  0.11201656090E+02  0.00000000000E+00 0. -1.
</event>
<event>
 7    1  0.2227287E-008  0.4614231E+02  0.7816164E-02  0.1320468E+00
        -11   -1    0    0    0    0  0.00000000000E+00  0.00000000000E+00  0.45593999997E+02  0.45594000000E+02  0.51100000000E-03 0. -1.
         11   -1    0    0    0    0 -0.00000000000E+00 -0.00000000000E+00 -0.45593999997E+02  0.45594000000E+02  0.51100000000E-03 0.  1.
    9900012    2    1    2    0    0  0.36712738796E+02 -0.25751047995E+02 -0.42628745118E+01  0.46142314725E+02  0.99999723136E+01 0.  0.
         12    1    1    2    0    0 -0.36712738796E+02  0.25751047995E+02  0.42628745118E+01  0.45045685275E+02  0.00000000000E+00 0. -1.
         11    1    3    3    0    0  0.28603883553E+00  0.57003983151E+00 -0.24276804372E-01  0.63824231236E+00  0.51100000000E-03 0. -1.
        -11    1    3    3    0    0  0.56069374287E+01 -0.68131400950E+01 -0.11583837649E+01  0.88993527007E+01  0.51100000000E-03 0.  1.
         12    1    3    3    0    0  0.30819762532E+02 -0.19507947732E+02 -0.30802139425E+01  0.36604719712E+02  0.00000000000E+00 0. -1.
</event>
<event>
 7    1  0.2227287E-008  0.4614232E+02  0.7816164E-02  0.1320468E+00
        -11   -1    0    0    0    0  0.00000000000E+00  0.00000000000E+00  0.45593999997E+02  0.45594000000E+02  0.51100000000E-03 0.  1.
         11   -1    0    0    0    0 -0.00000000000E+00 -0.00000000000E+00 -0.45593999997E+02  0.45594000000E+02  0.51100000000E-03 0. -1.
    9900012    2    1    2    0    0 -0.12356036703E+02  0.65449761606E+00  0.43312971317E+02  0.46142317694E+02  0.99999993844E+01 0.  0.
         12    1    1    2    0    0  0.12356036703E+02 -0.65449761606E+00 -0.43312971317E+02  0.45045682306E+02  0.00000000000E+00 0. -1.
         11    1    3    3    0    0 -0.78671605107E+00  0.85363653919E+00  0.12520301310E+02  0.12574003445E+02  0.51100000000E-03 0. -1.
        -11    1    3    3    0    0 -0.82064771419E+01  0.22858651317E+01  0.25091075699E+02  0.26497802296E+02  0.51100000000E-03 0.  1.
        -12    1    3    3    0    0 -0.33628435101E+01 -0.24850040549E+01  0.57015943078E+01  0.70705119529E+01  0.00000000000E+00 0.  1.
</event>
<event>
 7    1  0.2227287E-008  0.4614232E+02  0.7816164E-02  0.1320468E+00
        -11   -1    0    0    0    0  0.00000000000E+00  0.00000000000E+00  0.45593999997E+02  0.45594000000E+02  0.51100000000E-03 0.  1.
         11   -1    0    0    0    0 -0.00000000000E+00 -0.00000000000E+00 -0.45593999997E+02  0.45594000000E+02  0.51100000000E-03 0. -1.
    9900012    2    1    2    0    0  0.53942134076E+01 -0.41342879043E+02  0.17052340177E+02  0.46142317728E+02  0.99999996993E+01 0.  0.
         12    1    1    2    0    0 -0.53942134076E+01  0.41342879043E+02 -0.17052340177E+02  0.45045682272E+02  0.00000000000E+00 0. -1.
         11    1    3    3    0    0 -0.14221028915E+00 -0.60660805977E+01  0.62175239504E+01  0.86876442100E+01  0.51100000000E-03 0. -1.
        -11    1    3    3    0    0  0.31885762815E+01 -0.18777367758E+02  0.41172258368E+01  0.19486100366E+02  0.51100000000E-03 0.  1.
         12    1    3    3    0    0  0.23478474152E+01 -0.16499430687E+02  0.67175903897E+01  0.17968573153E+02  0.00000000000E+00 0. -1.
</event>
<event>
 7    1  0.2227287E-008  0.4614231E+02  0.7816164E-02  0.1320468E+00
        -11   -1    0    0    0    0  0.00000000000E+00  0.00000000000E+00  0.45593999997E+02  0.45594000000E+02  0.51100000000E-03 0. -1.
         11   -1    0    0    0    0 -0.00000000000E+00 -0.00000000000E+00 -0.45593999997E+02  0.45594000000E+02  0.51100000000E-03 0.  1.
    9900012    2    1    2    0    0  0.33437310256E+02  0.18002994414E+02 -0.24227102396E+02  0.46142311909E+02  0.99999466373E+01 0.  0.
         12    1    1    2    0    0 -0.33437310256E+02 -0.18002994414E+02  0.24227102396E+02  0.45045688091E+02  0.00000000000E+00 0. -1.
         11    1    3    3    0    0  0.93964242774E+01  0.98272065039E+01 -0.11047516950E+02  0.17518972798E+02  0.51100000000E-03 0. -1.
        -11    1    3    3    0    0  0.39842503950E+01  0.15148095677E+01 -0.25485289103E+01  0.49662761808E+01  0.51100000000E-03 0.  1.
         12    1    3    3    0    0  0.20056635584E+02  0.66609783428E+01 -0.10631056536E+02  0.23657062931E+02  0.00000000000E+00 0. -1.
</event>
<event>
 7    1  0.2227287E-008  0.4614232E+02  0.7816164E-02  0.1320468E+00
        -11   -1    0    0    0    0  0.00000000000E+00  0.00000000000E+00  0.45593999997E+02  0.45594000000E+02  0.51100000000E-03 0.  1.
         11   -1    0    0    0    0 -0.00000000000E+00 -0.00000000000E+00 -0.45593999997E+02  0.45594000000E+02  0.51100000000E-03 0. -1.
    9900012    2    1    2    0    0 -0.38555761968E+02 -0.14168154833E+02 -0.18488648322E+02  0.46142317532E+02  0.99999979070E+01 0.  0.
         12    1    1    2    0    0  0.38555761968E+02  0.14168154833E+02  0.18488648322E+02  0.45045682468E+02  0.00000000000E+00 0. -1.
         11    1    3    3    0    0 -0.42465819622E+01 -0.31068642686E+01 -0.36159389056E+01  0.63844403337E+01  0.51100000000E-03 0. -1.
        -11    1    3    3    0    0 -0.21773115764E+02 -0.92977421833E+01 -0.12850350176E+02  0.26937855885E+02  0.51100000000E-03 0.  1.
        -12    1    3    3    0    0 -0.12536064242E+02 -0.17635483813E+01 -0.20223592398E+01  0.12820021313E+02  0.00000000000E+00 0.  1.
</event>
<event>
 7    1  0.2227287E-008  0.4614232E+02  0.7816164E-02  0.1320468E+00
        -11   -1    0    0    0    0  0.00000000000E+00  0.00000000000E+00  0.45593999997E+02  0.45594000000E+02  0.51100000000E-03 0.  1.
         11   -1    0    0    0    0 -0.00000000000E+00 -0.00000000000E+00 -0.45593999997E+02  0.45594000000E+02  0.51100000000E-03 0. -1.
    9900012    2    1    2    0    0  0.28599874357E+02 -0.50333812285E+01  0.34435820729E+02  0.46142317753E+02  0.99999999249E+01 0.  0.
         12    1    1    2    0    0 -0.28599874357E+02  0.50333812285E+01 -0.34435820729E+02  0.45045682247E+02  0.00000000000E+00 0. -1.
         11    1    3    3    0    0  0.84002017606E+01 -0.60892988922E+00  0.41405508055E+01  0.93850064711E+01  0.51100000000E-03 0. -1.
        -11    1    3    3    0    0  0.10144444705E+02 -0.10048410047E+01  0.15006973576E+02  0.18141905082E+02  0.51100000000E-03 0.  1.
         12    1    3    3    0    0  0.10055227892E+02 -0.34196103346E+01  0.15288296347E+02  0.18615406200E+02  0.00000000000E+00 0. -1.
</event>
<event>
 7    1  0.2227287E-008  0.4614232E+02  0.7816164E-02  0.1320468E+00
        -11   -1    0    0    0    0  0.00000000000E+00  0.00000000000E+00  0.45593999997E+02  0.45594000000E+02  0.51100000000E-03 0.  1.
         11   -1    0    0    0    0 -0.00000000000E+00 -0.00000000000E+00 -0.45593999997E+02  0.45594000000E+02  0.51100000000E-03 0. -1.
    9900012    2    1    2    0    0  0.34763614432E+02  0.26158460988E+02  0.11676450971E+02  0.46142317889E+02  0.10000001162E+02 0.  0.
         12    1    1    2    0    0 -0.34763614432E+02 -0.26158460988E+02 -0.11676450971E+02  0.45045682111E+02  0.00000000000E+00 0. -1.
         11    1    3    3    0    0  0.11460584637E+01  0.10071603531E+01 -0.33914954354E+00  0.15629602212E+01  0.51100000000E-03 0. -1.
        -11    1    3    3    0    0  0.64017883568E+01  0.79181045758E+01  0.59715794339E+01  0.11804195671E+02  0.51100000000E-03 0.  1.
        -12    1    3    3    0    0  0.27215767611E+02  0.17233196059E+02  0.60440210810E+01  0.32775161996E+02  0.00000000000E+00 0.  1.
</event>
<event>
 7    1  0.2227287E-008  0.4614232E+02  0.7816164E-02  0.1320468E+00
        -11   -1    0    0    0    0  0.00000000000E+00  0.00000000000E+00  0.45593999997E+02  0.45594000000E+02  0.51100000000E-03 0.  1.
         11   -1    0    0    0    0 -0.00000000000E+00 -0.00000000000E+00 -0.45593999997E+02  0.45594000000E+02  0.51100000000E-03 0. -1.
    9900012    2    1    2    0    0 -0.87485656266E+01  0.37175628292E+02  0.23886156683E+02  0.46142320734E+02  0.10000027114E+02 0.  0.
         12    1    1    2    0    0  0.87485656266E+01 -0.37175628292E+02 -0.23886156683E+02  0.45045679266E+02  0.00000000000E+00 0. -1.
         11    1    3    3    0    0 -0.16897091940E+01  0.12711240817E+01  0.29827157066E+01  0.36561546519E+01  0.51100000000E-03 0. -1.
        -11    1    3    3    0    0 -0.51597976461E+01  0.14305395270E+02  0.71040292678E+01  0.16784965823E+02  0.51100000000E-03 0.  1.
        -12    1    3    3    0    0 -0.18990587864E+01  0.21599108940E+02  0.13799411708E+02  0.25701200260E+02  0.00000000000E+00 0.  1.
</event>
<event>
 7    1  0.2227287E-008  0.4614232E+02  0.7816164E-02  0.1320468E+00
        -11   -1    0    0    0    0  0.00000000000E+00  0.00000000000E+00  0.45593999997E+02  0.45594000000E+02  0.51100000000E-03 0.  1.
         11   -1    0    0    0    0 -0.00000000000E+00 -0.00000000000E+00 -0.45593999997E+02  0.45594000000E+02  0.51100000000E-03 0. -1.
    9900012    2    1    2    0    0  0.23568434906E+01  0.22135163740E+02  0.39161121032E+02  0.46142316683E+02  0.99999901687E+01 0.  0.
         12    1    1    2    0    0 -0.23568434906E+01 -0.22135163740E+02 -0.39161121032E+02  0.45045683317E+02  0.00000000000E+00 0. -1.
         11    1    3    3    0    0 -0.77225621425E+00 -0.49110246343E+00  0.76543336109E+00  0.11930841468E+01  0.51100000000E-03 0. -1.
        -11    1    3    3    0    0 -0.44631855169E+00  0.53214295593E+01  0.12566336622E+02  0.13653923581E+02  0.51100000000E-03 0.  1.
         12    1    3    3    0    0  0.35754182565E+01  0.17304836644E+02  0.25829351049E+02  0.31295308955E+02  0.00000000000E+00 0. -1.
</event>
<event>
 7    1  0.2227287E-008  0.4614232E+02  0.7816164E-02  0.1320468E+00
        -11   -1    0    0    0    0  0.00000000000E+00  0.00000000000E+00  0.45593999997E+02  0.45594000000E+02  0.51100000000E-03 0.  1.
         11   -1    0    0    0    0 -0.00000000000E+00 -0.00000000000E+00 -0.45593999997E+02  0.45594000000E+02  0.51100000000E-03 0. -1.
    9900012    2    1    2    0    0 -0.25274195370E+02  0.14657581397E+02  0.34285328831E+02  0.46142318553E+02  0.10000007219E+02 0.  0.
         12    1    1    2    0    0  0.25274195370E+02 -0.14657581397E+02 -0.34285328831E+02  0.45045681447E+02  0.00000000000E+00 0. -1.
         11    1    3    3    0    0 -0.29458690143E+01  0.41458093600E+01  0.74368480493E+01  0.90095831573E+01  0.51100000000E-03 0. -1.
        -11    1    3    3    0    0 -0.23544065443E+01  0.25554225662E+01  0.12258851242E+01  0.36845907869E+01  0.51100000000E-03 0.  1.
        -12    1    3    3    0    0 -0.19973919812E+02  0.79563494708E+01  0.25622595657E+02  0.33448144609E+02  0.00000000000E+00 0.  1.
</event>
<event>
 7    1  0.2227287E-008  0.4614232E+02  0.7816164E-02  0.1320468E+00
        -11   -1    0    0    0    0  0.00000000000E+00  0.00000000000E+00  0.45593999997E+02  0.45594000000E+02  0.51100000000E-03 0. -1.
         11   -1    0    0    0    0 -0.00000000000E+00 -0.00000000000E+00 -0.45593999997E+02  0.45594000000E+02  0.51100000000E-03 0.  1.
    9900012    2    1    2    0    0 -0.28842932876E+02 -0.98757373860E+01 -0.33161252444E+02  0.46142316195E+02  0.99999857184E+01 0.  0.
         12    1    1    2    0    0  0.28842932876E+02  0.98757373860E+01  0.33161252444E+02  0.45045683805E+02  0.00000000000E+00 0. -1.
         11    1    3    3    0    0 -0.12768041382E+01  0.88151016827E+00 -0.10935020370E+00  0.15553927839E+01  0.51100000000E-03 0. -1.
        -11    1    3    3    0    0 -0.16916726408E+02 -0.88631302533E+01 -0.20502511952E+02  0.28019345225E+02  0.51100000000E-03 0.  1.
         12    1    3    3    0    0 -0.10649402330E+02 -0.18941173010E+01 -0.12549390288E+02  0.16567578186E+02  0.00000000000E+00 0. -1.
</event>
<event>
 7    1  0.2227287E-008  0.4614232E+02  0.7816164E-02  0.1320468E+00
        -11   -1    0    0    0    0  0.00000000000E+00  0.00000000000E+00  0.45593999997E+02  0.45594000000E+02  0.51100000000E-03 0. -1.
         11   -1    0    0    0    0 -0.00000000000E+00 -0.00000000000E+00 -0.45593999997E+02  0.45594000000E+02  0.51100000000E-03 0.  1.
    9900012    2    1    2    0    0  0.31318310377E+02  0.32362631202E+02 -0.96782220080E+00  0.46142321595E+02  0.10000034957E+02 0.  0.
         12    1    1    2    0    0 -0.31318310377E+02 -0.32362631202E+02  0.96782220080E+00  0.45045678405E+02  0.00000000000E+00 0. -1.
         11    1    3    3    0    0  0.20189294383E+01  0.21383185101E+01 -0.27001845967E+01  0.39924277383E+01  0.51100000000E-03 0. -1.
        -11    1    3    3    0    0  0.70528188800E+01  0.66090276613E+01  0.67460406125E+00  0.96889933266E+01  0.51100000000E-03 0.  1.
         12    1    3    3    0    0  0.22246562059E+02  0.23615285031E+02  0.10577583347E+01  0.32460900530E+02  0.00000000000E+00 0. -1.
</event>
<event>
 7    1  0.2227287E-008  0.4614232E+02  0.7816164E-02  0.1320468E+00
        -11   -1    0    0    0    0  0.00000000000E+00  0.00000000000E+00  0.45593999997E+02  0.45594000000E+02  0.51100000000E-03 0.  1.
         11   -1    0    0    0    0 -0.00000000000E+00 -0.00000000000E+00 -0.45593999997E+02  0.45594000000E+02  0.51100000000E-03 0. -1.
    9900012    2    1    2    0    0  0.38244257043E+02 -0.64109377671E+01  0.22921390273E+02  0.46142318166E+02  0.10000003691E+02 0.  0.
         12    1    1    2    0    0 -0.38244257043E+02  0.64109377671E+01 -0.22921390273E+02  0.45045681834E+02  0.00000000000E+00 0. -1.
         11    1    3    3    0    0  0.33437198286E+02 -0.70988670084E+01  0.19226765505E+02  0.39218728359E+02  0.51100000000E-03 0. -1.
        -11    1    3    3    0    0  0.29526997175E+01 -0.90449723992E+00  0.91222270247E+00  0.32200468007E+01  0.51100000000E-03 0.  1.
         12    1    3    3    0    0  0.18543590398E+01  0.15924264812E+01  0.27824020656E+01  0.37035430065E+01  0.00000000000E+00 0. -1.
</event>
<event>
 7    1  0.2227287E-008  0.4614232E+02  0.7816164E-02  0.1320468E+00
        -11   -1    0    0    0    0  0.00000000000E+00  0.00000000000E+00  0.45593999997E+02  0.45594000000E+02  0.51100000000E-03 0. -1.
         11   -1    0    0    0    0 -0.00000000000E+00 -0.00000000000E+00 -0.45593999997E+02  0.45594000000E+02  0.51100000000E-03 0.  1.
    9900012    2    1    2    0    0  0.32048760030E+02 -0.31602353555E+02 -0.18115542847E+01  0.46142317648E+02  0.99999989649E+01 0.  0.
         12    1    1    2    0    0 -0.32048760030E+02  0.31602353555E+02  0.18115542847E+01  0.45045682352E+02  0.00000000000E+00 0. -1.
         11    1    3    3    0    0  0.12068486683E+02 -0.13813566294E+02  0.32254930779E+01  0.18624360134E+02  0.51100000000E-03 0. -1.
        -11    1    3    3    0    0  0.16008776874E+02 -0.11895823997E+02 -0.35667162179E+01  0.20261121154E+02  0.51100000000E-03 0.  1.
        -12    1    3    3    0    0  0.39714964733E+01 -0.58929632646E+01 -0.14703311447E+01  0.72568363596E+01  0.00000000000E+00 0.  1.
</event>
<event>
 7    1  0.2227287E-008  0.4614232E+02  0.7816164E-02  0.1320468E+00
        -11   -1    0    0    0    0  0.00000000000E+00  0.00000000000E+00  0.45593999997E+02  0.45594000000E+02  0.51100000000E-03 0.  1.
         11   -1    0    0    0    0 -0.00000000000E+00 -0.00000000000E+00 -0.45593999997E+02  0.45594000000E+02  0.51100000000E-03 0. -1.
    9900012    2    1    2    0    0 -0.20914621229E+02 -0.30635685847E+02  0.25556739823E+02  0.46142316757E+02  0.99999908431E+01 0.  0.
         12    1    1    2    0    0  0.20914621229E+02  0.30635685847E+02 -0.25556739823E+02  0.45045683243E+02  0.00000000000E+00 0. -1.
         11    1    3    3    0    0 -0.91328631265E+01 -0.15022022177E+02  0.93412669244E+01  0.19908028712E+02  0.51100000000E-03 0. -1.
        -11    1    3    3    0    0 -0.12206556167E+02 -0.15024603443E+02  0.13965309357E+02  0.23869825885E+02  0.51100000000E-03 0.  1.
        -12    1    3    3    0    0  0.42479806388E+00 -0.58906022657E+00  0.22501635409E+01  0.23644621601E+01  0.00000000000E+00 0.  1.
</event>
<event>
 7    1  0.2227287E-008  0.4614231E+02  0.7816164E-02  0.1320468E+00
        -11   -1    0    0    0    0  0.00000000000E+00  0.00000000000E+00  0.45593999997E+02  0.45594000000E+02  0.51100000000E-03 0.  1.
         11   -1    0    0    0    0 -0.00000000000E+00 -0.00000000000E+00 -0.45593999997E+02  0.45594000000E+02  0.51100000000E-03 0. -1.
    9900012    2    1    2    0    0 -0.27291171250E+02 -0.34974861495E+02  0.78144102843E+01  0.46142312383E+02  0.99999509606E+01 0.  0.
         12    1    1    2    0    0  0.27291171250E+02  0.34974861495E+02 -0.78144102843E+01  0.45045687617E+02  0.00000000000E+00 0. -1.
         11    1    3    3    0    0 -0.15176232591E+02 -0.21052689861E+02  0.19036776951E+01  0.26022255380E+02  0.51100000000E-03 0. -1.
        -11    1    3    3    0    0 -0.40601488047E+01 -0.34605698115E+01 -0.65419466510E+00  0.53747858243E+01  0.51100000000E-03 0.  1.
        -12    1    3    3    0    0 -0.80547898543E+01 -0.10461601822E+02  0.65649272543E+01  0.14745271179E+02  0.00000000000E+00 0.  1.
</event>
<event>
 7    1  0.2227287E-008  0.4614232E+02  0.7816164E-02  0.1320468E+00
        -11   -1    0    0    0    0  0.00000000000E+00  0.00000000000E+00  0.45593999997E+02  0.45594000000E+02  0.51100000000E-03 0. -1.
         11   -1    0    0    0    0 -0.00000000000E+00 -0.00000000000E+00 -0.45593999997E+02  0.45594000000E+02  0.51100000000E-03 0.  1.
    9900012    2    1    2    0    0  0.19317623013E+02 -0.39385534504E+02 -0.10233408458E+02  0.46142317236E+02  0.99999952104E+01 0.  0.
         12    1    1    2    0    0 -0.19317623013E+02  0.39385534504E+02  0.10233408458E+02  0.45045682764E+02  0.00000000000E+00 0. -1.
         11    1    3    3    0    0  0.89684365718E+01 -0.21533716474E+02 -0.58510766686E+00  0.23334012749E+02  0.51100000000E-03 0. -1.
        -11    1    3    3    0    0  0.57043229753E+01 -0.10890296965E+02 -0.55079633651E+01  0.13471285362E+02  0.51100000000E-03 0.  1.
         12    1    3    3    0    0  0.46448634655E+01 -0.69615210646E+01 -0.41403374260E+01  0.93370191254E+01  0.00000000000E+00 0. -1.
</event>
<event>
 7    1  0.2227287E-008  0.4614232E+02  0.7816164E-02  0.1320468E+00
        -11   -1    0    0    0    0  0.00000000000E+00  0.00000000000E+00  0.45593999997E+02  0.45594000000E+02  0.51100000000E-03 0.  1.
         11   -1    0    0    0    0 -0.00000000000E+00 -0.00000000000E+00 -0.45593999997E+02  0.45594000000E+02  0.51100000000E-03 0. -1.
    9900012    2    1    2    0    0 -0.23935573549E+02  0.12518635180E+02  0.36048378817E+02  0.46142317374E+02  0.99999964680E+01 0.  0.
         12    1    1    2    0    0  0.23935573549E+02 -0.12518635180E+02 -0.36048378817E+02  0.45045682626E+02  0.00000000000E+00 0. -1.
         11    1    3    3    0    0 -0.64506966416E+01  0.15227339942E+01  0.52294600297E+01  0.84425978492E+01  0.51100000000E-03 0. -1.
        -11    1    3    3    0    0 -0.67081017032E+01  0.78018128015E+00  0.11456697023E+02  0.13298993128E+02  0.51100000000E-03 0.  1.
         12    1    3    3    0    0 -0.10776775204E+02  0.10215719906E+02  0.19362221765E+02  0.24400726396E+02  0.00000000000E+00 0. -1.
</event>
<event>
 7    1  0.2227287E-008  0.4614232E+02  0.7816164E-02  0.1320468E+00
        -11   -1    0    0    0    0  0.00000000000E+00  0.00000000000E+00  0.45593999997E+02  0.45594000000E+02  0.51100000000E-03 0.  1.
         11   -1    0    0    0    0 -0.00000000000E+00 -0.00000000000E+00 -0.45593999997E+02  0.45594000000E+02  0.51100000000E-03 0. -1.
    9900012    2    1    2    0    0  0.20734197412E+02  0.16533217698E+02  0.36412350865E+02  0.46142317351E+02  0.99999962644E+01 0.  0.
         12    1    1    2    0    0 -0.20734197412E+02 -0.16533217698E+02 -0.36412350865E+02  0.45045682649E+02  0.00000000000E+00 0. -1.
         11    1    3    3    0    0  0.14645414882E+02  0.14628585350E+02  0.30931328229E+02  0.37218688219E+02  0.51100000000E-03 0. -1.
        -11    1    3    3    0    0  0.50220335455E+01  0.16862590140E+01  0.57331194914E+01  0.78059560438E+01  0.51100000000E-03 0.  1.
         12    1    3    3    0    0  0.10667489845E+01  0.21837333385E+00 -0.25209685614E+00  0.11176730890E+01  0.00000000000E+00 0. -1.
</event>
<event>
 7    1  0.2227287E-008  0.4614232E+02  0.7816164E-02  0.1320468E+00
        -11   -1    0    0    0    0  0.00000000000E+00  0.00000000000E+00  0.45593999997E+02  0.45594000000E+02  0.51100000000E-03 0. -1.
         11   -1    0    0    0    0 -0.00000000000E+00 -0.00000000000E+00 -0.45593999997E+02  0.45594000000E+02  0.51100000000E-03 0.  1.
    9900012    2    1    2    0    0  0.41305345159E+02 -0.12402967741E+02 -0.13005703898E+02  0.46142317839E+02  0.10000000709E+02 0.  0.
         12    1    1    2    0    0 -0.41305345159E+02  0.12402967741E+02  0.13005703898E+02  0.45045682161E+02  0.00000000000E+00 0. -1.
         11    1    3    3    0    0  0.10826220864E+02 -0.53339438077E+01 -0.54828314529E+01  0.13255921535E+02  0.51100000000E-03 0. -1.
        -11    1    3    3    0    0  0.28762988753E+02 -0.53839790688E+01 -0.55692016273E+01  0.29787795482E+02  0.51100000000E-03 0.  1.
         12    1    3    3    0    0  0.17161355422E+01 -0.16850448643E+01 -0.19536708174E+01  0.30986008224E+01  0.00000000000E+00 0. -1.
</event>
<event>
 7    1  0.2227287E-008  0.4614232E+02  0.7816164E-02  0.1320468E+00
        -11   -1    0    0    0    0  0.00000000000E+00  0.00000000000E+00  0.45593999997E+02  0.45594000000E+02  0.51100000000E-03 0.  1.
         11   -1    0    0    0    0 -0.00000000000E+00 -0.00000000000E+00 -0.45593999997E+02  0.45594000000E+02  0.51100000000E-03 0. -1.
    9900012    2    1    2    0    0  0.38914782561E+01 -0.16275138669E+02  0.41822120749E+02  0.46142317347E+02  0.99999962238E+01 0.  0.
         12    1    1    2    0    0 -0.38914782561E+01  0.16275138669E+02 -0.41822120749E+02  0.45045682653E+02  0.00000000000E+00 0. -1.
         11    1    3    3    0    0  0.64831049730E+00 -0.79382402177E+00  0.39763593343E+01  0.41063240124E+01  0.51100000000E-03 0. -1.
        -11    1    3    3    0    0  0.15620212787E+01 -0.16101469900E+02  0.35978368303E+02  0.39447943285E+02  0.51100000000E-03 0.  1.
         12    1    3    3    0    0  0.16811464801E+01  0.62015525242E+00  0.18673931115E+01  0.25880500493E+01  0.00000000000E+00 0. -1.
</event>
<event>
 7    1  0.2227287E-008  0.4614232E+02  0.7816164E-02  0.1320468E+00
        -11   -1    0    0    0    0  0.00000000000E+00  0.00000000000E+00  0.45593999997E+02  0.45594000000E+02  0.51100000000E-03 0. -1.
         11   -1    0    0    0    0 -0.00000000000E+00 -0.00000000000E+00 -0.45593999997E+02  0.45594000000E+02  0.51100000000E-03 0.  1.
    9900012    2    1    2    0    0 -0.17847168692E+02  0.23904568847E+02  0.33751499561E+02  0.46142316914E+02  0.99999922768E+01 0.  0.
         12    1    1    2    0    0  0.17847168692E+02 -0.23904568847E+02 -0.33751499561E+02  0.45045683086E+02  0.00000000000E+00 0. -1.
         11    1    3    3    0    0 -0.12754798709E+01 -0.10959836161E-01  0.99219283432E+00  0.16159875930E+01  0.51100000000E-03 0. -1.
        -11    1    3    3    0    0 -0.10586572207E+02  0.16867718152E+02  0.27289556088E+02  0.33783358306E+02  0.51100000000E-03 0.  1.
        -12    1    3    3    0    0 -0.59851166145E+01  0.70478105315E+01  0.54697506386E+01  0.10742971015E+02  0.00000000000E+00 0.  1.
</event>
<event>
 7    1  0.2227287E-008  0.4614232E+02  0.7816164E-02  0.1320468E+00
        -11   -1    0    0    0    0  0.00000000000E+00  0.00000000000E+00  0.45593999997E+02  0.45594000000E+02  0.51100000000E-03 0. -1.
         11   -1    0    0    0    0 -0.00000000000E+00 -0.00000000000E+00 -0.45593999997E+02  0.45594000000E+02  0.51100000000E-03 0.  1.
    9900012    2    1    2    0    0 -0.30687484551E+02  0.29815264665E+02 -0.14086925197E+02  0.46142321221E+02  0.10000031553E+02 0.  0.
         12    1    1    2    0    0  0.30687484551E+02 -0.29815264665E+02  0.14086925197E+02  0.45045678779E+02  0.00000000000E+00 0. -1.
         11    1    3    3    0    0 -0.29088413903E+01  0.43584518569E-01 -0.12453486281E+01  0.31645143879E+01  0.51100000000E-03 0. -1.
        -11    1    3    3    0    0 -0.13149177082E+02  0.16101091891E+02 -0.86786443163E+01  0.22526981277E+02  0.51100000000E-03 0.  1.
        -12    1    3    3    0    0 -0.14629466079E+02  0.13670588255E+02 -0.41629322526E+01  0.20450825557E+02  0.00000000000E+00 0.  1.
</event>
<event>
 7    1  0.2227287E-008  0.4614232E+02  0.7816164E-02  0.1320468E+00
        -11   -1    0    0    0    0  0.00000000000E+00  0.00000000000E+00  0.45593999997E+02  0.45594000000E+02  0.51100000000E-03 0. -1.
         11   -1    0    0    0    0 -0.00000000000E+00 -0.00000000000E+00 -0.45593999997E+02  0.45594000000E+02  0.51100000000E-03 0.  1.
    9900012    2    1    2    0    0  0.39228083592E+02  0.17083366099E+02 -0.14086507884E+02  0.46142316034E+02  0.99999842546E+01 0.  0.
         12    1    1    2    0    0 -0.39228083592E+02 -0.17083366099E+02  0.14086507884E+02  0.45045683966E+02  0.00000000000E+00 0. -1.
         11    1    3    3    0    0  0.16588479169E+02  0.57965624445E+01 -0.34754589307E+01  0.17912470302E+02  0.51100000000E-03 0.  1.
        -11    1    3    3    0    0  0.33325247713E+01  0.46853489147E+00  0.60396280115E+00  0.34190667765E+01  0.51100000000E-03 0. -1.
        -12    1    3    3    0    0  0.19307079652E+02  0.10818268763E+02 -0.11215011755E+02  0.24810778955E+02  0.00000000000E+00 0.  1.
</event>
<event>
 7    1  0.2227287E-008  0.4614232E+02  0.7816164E-02  0.1320468E+00
        -11   -1    0    0    0    0  0.00000000000E+00  0.00000000000E+00  0.45593999997E+02  0.45594000000E+02  0.51100000000E-03 0.  1.
         11   -1    0    0    0    0 -0.00000000000E+00 -0.00000000000E+00 -0.45593999997E+02  0.45594000000E+02  0.51100000000E-03 0. -1.
    9900012    2    1    2    0    0 -0.21228902190E+02 -0.15709258185E+02  0.36492007375E+02  0.46142315599E+02  0.99999802855E+01 0.  0.
         12    1    1    2    0    0  0.21228902190E+02  0.15709258185E+02 -0.36492007375E+02  0.45045684401E+02  0.00000000000E+00 0. -1.
         11    1    3    3    0    0 -0.60251574802E+01 -0.95420479844E+01  0.18662394160E+02  0.21809130162E+02  0.51100000000E-03 0. -1.
        -11    1    3    3    0    0 -0.45417664675E+01 -0.16533248931E+01  0.67973511569E+01  0.83405700560E+01  0.51100000000E-03 0.  1.
         12    1    3    3    0    0 -0.10661978242E+02 -0.45138853073E+01  0.11032262058E+02  0.15992615381E+02  0.00000000000E+00 0. -1.
</event>
<event>
 7    1  0.2227287E-008  0.4614232E+02  0.7816164E-02  0.1320468E+00
        -11   -1    0    0    0    0  0.00000000000E+00  0.00000000000E+00  0.45593999997E+02  0.45594000000E+02  0.51100000000E-03 0. -1.
         11   -1    0    0    0    0 -0.00000000000E+00 -0.00000000000E+00 -0.45593999997E+02  0.45594000000E+02  0.51100000000E-03 0.  1.
    9900012    2    1    2    0    0  0.29458720450E+02 -0.25604904863E+02 -0.22487465763E+02  0.46142317854E+02  0.10000000846E+02 0.  0.
         12    1    1    2    0    0 -0.29458720450E+02  0.25604904863E+02  0.22487465763E+02  0.45045682146E+02  0.00000000000E+00 0. -1.
         11    1    3    3    0    0  0.12113064261E+02 -0.60489737812E+01 -0.95487564685E+01  0.16567895459E+02  0.51100000000E-03 0.  1.
        -11    1    3    3    0    0  0.64352240006E+01 -0.58529205054E+01 -0.20077141317E+01  0.89274689961E+01  0.51100000000E-03 0. -1.
        -12    1    3    3    0    0  0.10910432188E+02 -0.13703010576E+02 -0.10930995163E+02  0.20646953398E+02  0.00000000000E+00 0.  1.
</event>
<event>
 7    1  0.2227287E-008  0.4614232E+02  0.7816164E-02  0.1320468E+00
        -11   -1    0    0    0    0  0.00000000000E+00  0.00000000000E+00  0.45593999997E+02  0.45594000000E+02  0.51100000000E-03 0.  1.
         11   -1    0    0    0    0 -0.00000000000E+00 -0.00000000000E+00 -0.45593999997E+02  0.45594000000E+02  0.51100000000E-03 0. -1.
    9900012    2    1    2    0    0  0.61960539166E+01 -0.43406006530E+02  0.10326713539E+02  0.46142317637E+02  0.99999988716E+01 0.  0.
         12    1    1    2    0    0 -0.61960539166E+01  0.43406006530E+02 -0.10326713539E+02  0.45045682363E+02  0.00000000000E+00 0. -1.
         11    1    3    3    0    0 -0.46270865146E+00 -0.28263541695E+01  0.18538129481E+01  0.34115978507E+01  0.51100000000E-03 0. -1.
        -11    1    3    3    0    0  0.68631797716E+01 -0.24013858642E+02  0.24190962175E+01  0.25092243229E+02  0.51100000000E-03 0.  1.
        -12    1    3    3    0    0 -0.20441720349E+00 -0.16565793718E+02  0.60538043734E+01  0.17638476558E+02  0.00000000000E+00 0.  1.
</event>
<event>
 7    1  0.2695011E-008  0.4614232E+02  0.7816164E-02  0.1320468E+00
        -11   -1    0    0    0    0  0.00000000000E+00  0.00000000000E+00  0.45593999997E+02  0.45594000000E+02  0.51100000000E-03 0. -1.
         11   -1    0    0    0    0 -0.00000000000E+00 -0.00000000000E+00 -0.45593999997E+02  0.45594000000E+02  0.51100000000E-03 0.  1.
    9900012    2    1    2    0    0  0.82651582543E+01 -0.32490653208E+02 -0.30085845700E+02  0.46142317650E+02  0.99999989908E+01 0.  0.
         12    1    1    2    0    0 -0.82651582543E+01  0.32490653208E+02  0.30085845700E+02  0.45045682350E+02  0.00000000000E+00 0. -1.
         11    1    3    3    0    0  0.46966522171E+01 -0.12612086167E+02 -0.10607566681E+02  0.17136036027E+02  0.51100000000E-03 0. -1.
        -11    1    3    3    0    0  0.45957903433E+01 -0.19939939501E+02 -0.18616429014E+02  0.27663945953E+02  0.51100000000E-03 0.  1.
         12    1    3    3    0    0 -0.10272843061E+01  0.61372459937E-01 -0.86185000441E+00  0.13423356713E+01  0.00000000000E+00 0. -1.
</event>
<event>
 7    1  0.2227287E-008  0.4614232E+02  0.7816164E-02  0.1320468E+00
        -11   -1    0    0    0    0  0.00000000000E+00  0.00000000000E+00  0.45593999997E+02  0.45594000000E+02  0.51100000000E-03 0. -1.
         11   -1    0    0    0    0 -0.00000000000E+00 -0.00000000000E+00 -0.45593999997E+02  0.45594000000E+02  0.51100000000E-03 0.  1.
    9900012    2    1    2    0    0 -0.25554405386E+00  0.40963359422E+02 -0.18736365327E+02  0.46142317593E+02  0.99999984645E+01 0.  0.
         12    1    1    2    0    0  0.25554405386E+00 -0.40963359422E+02  0.18736365327E+02  0.45045682407E+02  0.00000000000E+00 0. -1.
         11    1    3    3    0    0  0.86531019426E+00  0.17175245194E+02 -0.89468746375E+01  0.19385158634E+02  0.51100000000E-03 0.  1.
        -11    1    3    3    0    0 -0.34010122959E+01  0.10324146777E+02 -0.66583758038E+01  0.12747111826E+02  0.51100000000E-03 0. -1.
         12    1    3    3    0    0  0.22801580478E+01  0.13463967451E+02 -0.31311148857E+01  0.14010047133E+02  0.00000000000E+00 0. -1.
</event>
<event>
 7    1  0.2227287E-008  0.4614232E+02  0.7816164E-02  0.1320468E+00
        -11   -1    0    0    0    0  0.00000000000E+00  0.00000000000E+00  0.45593999997E+02  0.45594000000E+02  0.51100000000E-03 0.  1.
         11   -1    0    0    0    0 -0.00000000000E+00 -0.00000000000E+00 -0.45593999997E+02  0.45594000000E+02  0.51100000000E-03 0. -1.
    9900012    2    1    2    0    0 -0.61134134484E+01 -0.36184490439E+01  0.44481981344E+02  0.46142315836E+02  0.99999824463E+01 0.  0.
         12    1    1    2    0    0  0.61134134484E+01  0.36184490439E+01 -0.44481981344E+02  0.45045684164E+02  0.00000000000E+00 0. -1.
         11    1    3    3    0    0 -0.39636023483E+01  0.97910905959E+00  0.15022595179E+02  0.15567503470E+02  0.51100000000E-03 0. -1.
        -11    1    3    3    0    0 -0.17951160093E+01 -0.79302960360E+00  0.22897810034E+02  0.22981754547E+02  0.51100000000E-03 0.  1.
        -12    1    3    3    0    0 -0.35469509084E+00 -0.38045284999E+01  0.65615761314E+01  0.75930578190E+01  0.00000000000E+00 0.  1.
</event>
<event>
 7    1  0.2227287E-008  0.4614232E+02  0.7816164E-02  0.1320468E+00
        -11   -1    0    0    0    0  0.00000000000E+00  0.00000000000E+00  0.45593999997E+02  0.45594000000E+02  0.51100000000E-03 0.  1.
         11   -1    0    0    0    0 -0.00000000000E+00 -0.00000000000E+00 -0.45593999997E+02  0.45594000000E+02  0.51100000000E-03 0. -1.
    9900012    2    1    2    0    0  0.24351282979E+02 -0.10183266428E+02 -0.36502460276E+02  0.46142317587E+02  0.99999984138E+01 0.  0.
         12    1    1    2    0    0 -0.24351282979E+02  0.10183266428E+02  0.36502460276E+02  0.45045682413E+02  0.00000000000E+00 0. -1.
         11    1    3    3    0    0  0.21705839233E+00  0.90507924310E+00 -0.30297973146E+00  0.97881548862E+00  0.51100000000E-03 0. -1.
        -11    1    3    3    0    0  0.97835183489E+01 -0.24902348500E+01 -0.11150052789E+02  0.15041348954E+02  0.51100000000E-03 0.  1.
         12    1    3    3    0    0  0.14350706237E+02 -0.85981108208E+01 -0.25049427755E+02  0.30122153145E+02  0.00000000000E+00 0. -1.
</event>
<event>
 7    1  0.2227287E-008  0.4614232E+02  0.7816164E-02  0.1320468E+00
        -11   -1    0    0    0    0  0.00000000000E+00  0.00000000000E+00  0.45593999997E+02  0.45594000000E+02  0.51100000000E-03 0.  1.
         11   -1    0    0    0    0 -0.00000000000E+00 -0.00000000000E+00 -0.45593999997E+02  0.45594000000E+02  0.51100000000E-03 0. -1.
    9900012    2    1    2    0    0  0.16099429988E+02 -0.47779198737E+01  0.41798246495E+02  0.46142316807E+02  0.99999913018E+01 0.  0.
         12    1    1    2    0    0 -0.16099429988E+02  0.47779198737E+01 -0.41798246495E+02  0.45045683193E+02  0.00000000000E+00 0. -1.
         11    1    3    3    0    0  0.26313268866E+01 -0.12900212215E+01  0.12637357999E+02  0.12972696458E+02  0.51100000000E-03 0. -1.
        -11    1    3    3    0    0  0.10790156442E+02 -0.47569873984E+01  0.27115970967E+02  0.29569110351E+02  0.51100000000E-03 0.  1.
        -12    1    3    3    0    0  0.26779466585E+01  0.12690887461E+01  0.20449175286E+01  0.36005099986E+01  0.00000000000E+00 0.  1.
</event>
<event>
 7    1  0.2227287E-008  0.4614232E+02  0.7816164E-02  0.1320468E+00
        -11   -1    0    0    0    0  0.00000000000E+00  0.00000000000E+00  0.45593999997E+02  0.45594000000E+02  0.51100000000E-03 0.  1.
         11   -1    0    0    0    0 -0.00000000000E+00 -0.00000000000E+00 -0.45593999997E+02  0.45594000000E+02  0.51100000000E-03 0. -1.
    9900012    2    1    2    0    0 -0.98849654527E+01  0.21906515534E+02  0.38098627543E+02  0.46142318903E+02  0.10000010409E+02 0.  0.
         12    1    1    2    0    0  0.98849654527E+01 -0.21906515534E+02 -0.38098627543E+02  0.45045681097E+02  0.00000000000E+00 0. -1.
         11    1    3    3    0    0 -0.72196154831E+01  0.16916894603E+02  0.25203828015E+02  0.31201556333E+02  0.51100000000E-03 0. -1.
        -11    1    3    3    0    0 -0.26076804747E+01  0.50029775575E+01  0.67569262707E+01  0.88026038641E+01  0.51100000000E-03 0.  1.
         12    1    3    3    0    0 -0.57669494903E-01 -0.13356625711E-01  0.61378732579E+01  0.61381587060E+01  0.00000000000E+00 0. -1.
</event>
<event>
 7    1  0.2227287E-008  0.4614232E+02  0.7816164E-02  0.1320468E+00
        -11   -1    0    0    0    0  0.00000000000E+00  0.00000000000E+00  0.45593999997E+02  0.45594000000E+02  0.51100000000E-03 0.  1.
         11   -1    0    0    0    0 -0.00000000000E+00 -0.00000000000E+00 -0.45593999997E+02  0.45594000000E+02  0.51100000000E-03 0. -1.
    9900012    2    1    2    0    0  0.30139595629E+02 -0.21658080797E+02  0.25527353265E+02  0.46142318152E+02  0.10000003561E+02 0.  0.
         12    1    1    2    0    0 -0.30139595629E+02  0.21658080797E+02 -0.25527353265E+02  0.45045681848E+02  0.00000000000E+00 0. -1.
         11    1    3    3    0    0  0.37670682158E+01 -0.60151726548E+01  0.20788691417E+01  0.73955934298E+01  0.51100000000E-03 0. -1.
        -11    1    3    3    0    0  0.56568525562E+01 -0.36178723344E+01  0.34851736258E+01  0.75654092113E+01  0.51100000000E-03 0.  1.
        -12    1    3    3    0    0  0.20715674857E+02 -0.12025035808E+02  0.19963310497E+02  0.31181315510E+02  0.00000000000E+00 0.  1.
</event>
<event>
 7    1  0.2227287E-008  0.4614232E+02  0.7816164E-02  0.1320468E+00
        -11   -1    0    0    0    0  0.00000000000E+00  0.00000000000E+00  0.45593999997E+02  0.45594000000E+02  0.51100000000E-03 0. -1.
         11   -1    0    0    0    0 -0.00000000000E+00 -0.00000000000E+00 -0.45593999997E+02  0.45594000000E+02  0.51100000000E-03 0.  1.
    9900012    2    1    2    0    0  0.11309391880E+02 -0.21508139762E+02 -0.37929025611E+02  0.46142318692E+02  0.10000008488E+02 0.  0.
         12    1    1    2    0    0 -0.11309391880E+02  0.21508139762E+02  0.37929025611E+02  0.45045681308E+02  0.00000000000E+00 0. -1.
         11    1    3    3    0    0  0.20231748629E+01 -0.10466970416E+02 -0.11317958084E+02  0.15548211526E+02  0.51100000000E-03 0. -1.
        -11    1    3    3    0    0  0.28621562283E+01 -0.64415148637E+01 -0.10449873757E+02  0.12604955922E+02  0.51100000000E-03 0.  1.
        -12    1    3    3    0    0  0.64240607887E+01 -0.45996544824E+01 -0.16161193770E+02  0.17989151243E+02  0.00000000000E+00 0.  1.
</event>
<event>
 7    1  0.2227287E-008  0.4614232E+02  0.7816164E-02  0.1320468E+00
        -11   -1    0    0    0    0  0.00000000000E+00  0.00000000000E+00  0.45593999997E+02  0.45594000000E+02  0.51100000000E-03 0.  1.
         11   -1    0    0    0    0 -0.00000000000E+00 -0.00000000000E+00 -0.45593999997E+02  0.45594000000E+02  0.51100000000E-03 0. -1.
    9900012    2    1    2    0    0  0.42655301521E+02  0.13400923608E+02 -0.54821510566E+01  0.46142317836E+02  0.10000000681E+02 0.  0.
         12    1    1    2    0    0 -0.42655301521E+02 -0.13400923608E+02  0.54821510566E+01  0.45045682164E+02  0.00000000000E+00 0. -1.
         11    1    3    3    0    0  0.39403109773E+01  0.24863431138E+01 -0.45987510112E+00  0.46818199503E+01  0.51100000000E-03 0. -1.
        -11    1    3    3    0    0  0.27535169992E+02  0.10492209317E+02 -0.65019461199E+01  0.30175277073E+02  0.51100000000E-03 0.  1.
        -12    1    3    3    0    0  0.11179820552E+02  0.42237117777E+00  0.14796701645E+01  0.11285220813E+02  0.00000000000E+00 0.  1.
</event>
<event>
 7    1  0.2227287E-008  0.4614232E+02  0.7816164E-02  0.1320468E+00
        -11   -1    0    0    0    0  0.00000000000E+00  0.00000000000E+00  0.45593999997E+02  0.45594000000E+02  0.51100000000E-03 0. -1.
         11   -1    0    0    0    0 -0.00000000000E+00 -0.00000000000E+00 -0.45593999997E+02  0.45594000000E+02  0.51100000000E-03 0.  1.
    9900012    2    1    2    0    0 -0.42054459925E+02 -0.98979461069E+00 -0.16110748096E+02  0.46142317663E+02  0.99999991079E+01 0.  0.
         12    1    1    2    0    0  0.42054459925E+02  0.98979461069E+00  0.16110748096E+02  0.45045682337E+02  0.00000000000E+00 0. -1.
         11    1    3    3    0    0 -0.29394399388E+01 -0.25416166670E+01 -0.22291738894E+01  0.44798815751E+01  0.51100000000E-03 0. -1.
        -11    1    3    3    0    0 -0.18743178283E+01 -0.25979969732E+00 -0.44090376252E-01  0.18927512850E+01  0.51100000000E-03 0.  1.
        -12    1    3    3    0    0 -0.37240702158E+02  0.18116217536E+01 -0.13837483830E+02  0.39769684803E+02  0.00000000000E+00 0.  1.
</event>
<event>
 7    1  0.2227287E-008  0.4614232E+02  0.7816164E-02  0.1320468E+00
        -11   -1    0    0    0    0  0.00000000000E+00  0.00000000000E+00  0.45593999997E+02  0.45594000000E+02  0.51100000000E-03 0. -1.
         11   -1    0    0    0    0 -0.00000000000E+00 -0.00000000000E+00 -0.45593999997E+02  0.45594000000E+02  0.51100000000E-03 0.  1.
    9900012    2    1    2    0    0 -0.13274347592E+02 -0.42173572905E+02 -0.86194567755E+01  0.46142316625E+02  0.99999896443E+01 0.  0.
         12    1    1    2    0    0  0.13274347592E+02  0.42173572905E+02  0.86194567755E+01  0.45045683375E+02  0.00000000000E+00 0. -1.
         11    1    3    3    0    0 -0.99865488162E+01 -0.26695158637E+02 -0.27075147662E+01  0.28630286208E+02  0.51100000000E-03 0. -1.
        -11    1    3    3    0    0 -0.43816267505E+01 -0.13789411345E+02 -0.50824463785E+01  0.15335507154E+02  0.51100000000E-03 0.  1.
         12    1    3    3    0    0  0.10938279747E+01 -0.16890029237E+01 -0.82949563071E+00  0.21765232633E+01  0.00000000000E+00 0. -1.
</event>
<event>
 7    1  0.2227287E-008  0.4614232E+02  0.7816164E-02  0.1320468E+00
        -11   -1    0    0    0    0  0.00000000000E+00  0.00000000000E+00  0.45593999997E+02  0.45594000000E+02  0.51100000000E-03 0. -1.
         11   -1    0    0    0    0 -0.00000000000E+00 -0.00000000000E+00 -0.45593999997E+02  0.45594000000E+02  0.51100000000E-03 0.  1.
    9900012    2    1    2    0    0  0.19733271445E+02  0.77952581906E+01 -0.39735946357E+02  0.46142317798E+02  0.10000000335E+02 0.  0.
         12    1    1    2    0    0 -0.19733271445E+02 -0.77952581906E+01  0.39735946357E+02  0.45045682202E+02  0.00000000000E+00 0. -1.
         11    1    3    3    0    0  0.88665605319E+01  0.52906153370E+01 -0.23411849280E+02  0.25587520264E+02  0.51100000000E-03 0. -1.
        -11    1    3    3    0    0  0.96776677542E+00  0.23693552509E+01 -0.27856889380E+01  0.37829195017E+01  0.51100000000E-03 0.  1.
         12    1    3    3    0    0  0.98989441376E+01  0.13528760278E+00 -0.13538408139E+02  0.16771878032E+02  0.00000000000E+00 0. -1.
</event>
<event>
 7    1  0.2227287E-008  0.4614232E+02  0.7816164E-02  0.1320468E+00
        -11   -1    0    0    0    0  0.00000000000E+00  0.00000000000E+00  0.45593999997E+02  0.45594000000E+02  0.51100000000E-03 0.  1.
         11   -1    0    0    0    0 -0.00000000000E+00 -0.00000000000E+00 -0.45593999997E+02  0.45594000000E+02  0.51100000000E-03 0. -1.
    9900012    2    1    2    0    0  0.30932569005E+02 -0.31912788216E+02  0.73391845372E+01  0.46142317558E+02  0.99999981507E+01 0.  0.
         12    1    1    2    0    0 -0.30932569005E+02  0.31912788216E+02 -0.73391845372E+01  0.45045682442E+02  0.00000000000E+00 0. -1.
         11    1    3    3    0    0  0.34583067760E+00  0.24531621003E+00  0.41997749333E+00  0.59679163575E+00  0.51100000000E-03 0. -1.
        -11    1    3    3    0    0  0.11534308383E+02 -0.13761476660E+02  0.63790799585E+01  0.19055476145E+02  0.51100000000E-03 0.  1.
        -12    1    3    3    0    0  0.19052429944E+02 -0.18396627766E+02  0.54012708534E+00  0.26490049777E+02  0.00000000000E+00 0.  1.
</event>
<event>
 7    1  0.2227287E-008  0.4614232E+02  0.7816164E-02  0.1320468E+00
        -11   -1    0    0    0    0  0.00000000000E+00  0.00000000000E+00  0.45593999997E+02  0.45594000000E+02  0.51100000000E-03 0.  1.
         11   -1    0    0    0    0 -0.00000000000E+00 -0.00000000000E+00 -0.45593999997E+02  0.45594000000E+02  0.51100000000E-03 0. -1.
    9900012    2    1    2    0    0  0.23901964164E+02  0.26894047691E+02  0.27102025451E+02  0.46142317902E+02  0.10000001288E+02 0.  0.
         12    1    1    2    0    0 -0.23901964164E+02 -0.26894047691E+02 -0.27102025451E+02  0.45045682098E+02  0.00000000000E+00 0. -1.
         11    1    3    3    0    0 -0.22649931896E+00  0.59338736230E+00  0.42324347782E-01  0.63655487962E+00  0.51100000000E-03 0. -1.
        -11    1    3    3    0    0  0.71232764653E+01  0.13465628508E+02  0.12427226870E+02  0.19659607999E+02  0.51100000000E-03 0.  1.
        -12    1    3    3    0    0  0.17005187018E+02  0.12835031820E+02  0.14632474233E+02  0.25846155024E+02  0.00000000000E+00 0.  1.
</event>
<event>
 7    1  0.2227287E-008  0.4614232E+02  0.7816164E-02  0.1320468E+00
        -11   -1    0    0    0    0  0.00000000000E+00  0.00000000000E+00  0.45593999997E+02  0.45594000000E+02  0.51100000000E-03 0. -1.
         11   -1    0    0    0    0 -0.00000000000E+00 -0.00000000000E+00 -0.45593999997E+02  0.45594000000E+02  0.51100000000E-03 0.  1.
    9900012    2    1    2    0    0 -0.33746313350E+02 -0.11490138362E+02  0.27536822702E+02  0.46142317090E+02  0.99999938805E+01 0.  0.
         12    1    1    2    0    0  0.33746313350E+02  0.11490138362E+02 -0.27536822702E+02  0.45045682910E+02  0.00000000000E+00 0. -1.
         11    1    3    3    0    0 -0.52127841267E+00  0.50683092479E+00  0.11361936316E+01  0.13489051113E+01  0.51100000000E-03 0. -1.
        -11    1    3    3    0    0 -0.25410476117E+02 -0.57140748363E+01  0.20620143423E+02  0.33219471139E+02  0.51100000000E-03 0.  1.
        -12    1    3    3    0    0 -0.78145588204E+01 -0.62828944507E+01  0.57804856482E+01  0.11573940840E+02  0.00000000000E+00 0.  1.
</event>
<event>
 7    1  0.2227287E-008  0.4614232E+02  0.7816164E-02  0.1320468E+00
        -11   -1    0    0    0    0  0.00000000000E+00  0.00000000000E+00  0.45593999997E+02  0.45594000000E+02  0.51100000000E-03 0. -1.
         11   -1    0    0    0    0 -0.00000000000E+00 -0.00000000000E+00 -0.45593999997E+02  0.45594000000E+02  0.51100000000E-03 0.  1.
    9900012    2    1    2    0    0 -0.37989859050E+02 -0.26293733340E+01 -0.24061804514E+02  0.46142318395E+02  0.10000005785E+02 0.  0.
         12    1    1    2    0    0  0.37989859050E+02  0.26293733340E+01  0.24061804514E+02  0.45045681605E+02  0.00000000000E+00 0. -1.
         11    1    3    3    0    0 -0.17525987422E+02  0.23239600635E+01 -0.13841601751E+02  0.22453306322E+02  0.51100000000E-03 0. -1.
        -11    1    3    3    0    0 -0.43796940983E+01 -0.23336915373E+01 -0.34418481532E+01  0.60393837067E+01  0.51100000000E-03 0.  1.
         12    1    3    3    0    0 -0.16084177529E+02 -0.26196418602E+01 -0.67783546098E+01  0.17649628367E+02  0.00000000000E+00 0. -1.
</event>
<event>
 7    1  0.2227287E-008  0.4614232E+02  0.7816164E-02  0.1320468E+00
        -11   -1    0    0    0    0  0.00000000000E+00  0.00000000000E+00  0.45593999997E+02  0.45594000000E+02  0.51100000000E-03 0. -1.
         11   -1    0    0    0    0 -0.00000000000E+00 -0.00000000000E+00 -0.45593999997E+02  0.45594000000E+02  0.51100000000E-03 0.  1.
    9900012    2    1    2    0    0  0.41971815495E+02 -0.16040018697E+02 -0.31934276870E+01  0.46142317897E+02  0.10000001237E+02 0.  0.
         12    1    1    2    0    0 -0.41971815495E+02  0.16040018697E+02  0.31934276870E+01  0.45045682103E+02  0.00000000000E+00 0. -1.
         11    1    3    3    0    0  0.23688637471E+01 -0.64442352740E+00 -0.14582417729E+01  0.28553925237E+01  0.51100000000E-03 0.  1.
        -11    1    3    3    0    0  0.26277294637E+02 -0.84348223611E+01 -0.46103869099E+01  0.27980316464E+02  0.51100000000E-03 0. -1.
         12    1    3    3    0    0  0.13325657111E+02 -0.69607728089E+01  0.28752009958E+01  0.15306608910E+02  0.00000000000E+00 0. -1.
</event>
<event>
 7    1  0.2227287E-008  0.4614232E+02  0.7816164E-02  0.1320468E+00
        -11   -1    0    0    0    0  0.00000000000E+00  0.00000000000E+00  0.45593999997E+02  0.45594000000E+02  0.51100000000E-03 0.  1.
         11   -1    0    0    0    0 -0.00000000000E+00 -0.00000000000E+00 -0.45593999997E+02  0.45594000000E+02  0.51100000000E-03 0. -1.
    9900012    2    1    2    0    0 -0.21300886841E+02 -0.23535213945E+02  0.31960592444E+02  0.46142317132E+02  0.99999942627E+01 0.  0.
         12    1    1    2    0    0  0.21300886841E+02  0.23535213945E+02 -0.31960592444E+02  0.45045682868E+02  0.00000000000E+00 0. -1.
         11    1    3    3    0    0 -0.16692032461E+01 -0.39973182026E+01  0.14596180764E+01  0.45711352506E+01  0.51100000000E-03 0. -1.
        -11    1    3    3    0    0 -0.29498967802E+01 -0.88302645472E+00  0.47681806488E+01  0.56760174149E+01  0.51100000000E-03 0.  1.
        -12    1    3    3    0    0 -0.16681786814E+02 -0.18654869288E+02  0.25732793719E+02  0.35895164466E+02  0.00000000000E+00 0.  1.
</event>
<event>
 7    1  0.2227287E-008  0.4614232E+02  0.7816164E-02  0.1320468E+00
        -11   -1    0    0    0    0  0.00000000000E+00  0.00000000000E+00  0.45593999997E+02  0.45594000000E+02  0.51100000000E-03 0. -1.
         11   -1    0    0    0    0 -0.00000000000E+00 -0.00000000000E+00 -0.45593999997E+02  0.45594000000E+02  0.51100000000E-03 0.  1.
    9900012    2    1    2    0    0 -0.40893355338E+02  0.95739021811E+01 -0.16284577250E+02  0.46142316855E+02  0.99999917397E+01 0.  0.
         12    1    1    2    0    0  0.40893355338E+02 -0.95739021811E+01  0.16284577250E+02  0.45045683145E+02  0.00000000000E+00 0. -1.
         11    1    3    3    0    0 -0.13404662090E+02  0.44255596257E+01 -0.26976657591E+01  0.14371775971E+02  0.51100000000E-03 0. -1.
        -11    1    3    3    0    0 -0.26195090002E+02  0.32147341921E+01 -0.12544372539E+02  0.29221200160E+02  0.51100000000E-03 0.  1.
         12    1    3    3    0    0 -0.12936032452E+01  0.19336083634E+01 -0.10425389518E+01  0.25493407236E+01  0.00000000000E+00 0. -1.
</event>
<event>
 7    1  0.2227287E-008  0.4614232E+02  0.7816164E-02  0.1320468E+00
        -11   -1    0    0    0    0  0.00000000000E+00  0.00000000000E+00  0.45593999997E+02  0.45594000000E+02  0.51100000000E-03 0. -1.
         11   -1    0    0    0    0 -0.00000000000E+00 -0.00000000000E+00 -0.45593999997E+02  0.45594000000E+02  0.51100000000E-03 0.  1.
    9900012    2    1    2    0    0 -0.59960276233E+01  0.24144454601E+02 -0.37552715425E+02  0.46142317953E+02  0.10000001752E+02 0.  0.
         12    1    1    2    0    0  0.59960276233E+01 -0.24144454601E+02  0.37552715425E+02  0.45045682047E+02  0.00000000000E+00 0. -1.
         11    1    3    3    0    0  0.43817384462E+00  0.12503323370E+01 -0.12545567175E+00  0.13308142837E+01  0.51100000000E-03 0. -1.
        -11    1    3    3    0    0 -0.18140658172E+01  0.13389243683E+02 -0.25625684583E+02  0.28969611523E+02  0.51100000000E-03 0.  1.
         12    1    3    3    0    0 -0.46201356507E+01  0.95048785808E+01 -0.11801575171E+02  0.15841892146E+02  0.00000000000E+00 0. -1.
</event>
<event>
 7    1  0.2227287E-008  0.4614232E+02  0.7816164E-02  0.1320468E+00
        -11   -1    0    0    0    0  0.00000000000E+00  0.00000000000E+00  0.45593999997E+02  0.45594000000E+02  0.51100000000E-03 0.  1.
         11   -1    0    0    0    0 -0.00000000000E+00 -0.00000000000E+00 -0.45593999997E+02  0.45594000000E+02  0.51100000000E-03 0. -1.
    9900012    2    1    2    0    0 -0.35261451798E+02  0.14007285467E+01  0.27996099643E+02  0.46142316316E+02  0.99999868212E+01 0.  0.
         12    1    1    2    0    0  0.35261451798E+02 -0.14007285467E+01 -0.27996099643E+02  0.45045683684E+02  0.00000000000E+00 0. -1.
         11    1    3    3    0    0 -0.12628069113E+01 -0.13209413097E+00 -0.45462927513E+00  0.13486356786E+01  0.51100000000E-03 0. -1.
        -11    1    3    3    0    0 -0.30681025872E+02  0.21837518261E+01  0.23110576973E+02  0.38473274996E+02  0.51100000000E-03 0.  1.
        -12    1    3    3    0    0 -0.33176190148E+01 -0.65092914844E+00  0.53401519445E+01  0.63204056416E+01  0.00000000000E+00 0.  1.
</event>
<event>
 7    1  0.2227287E-008  0.4614232E+02  0.7816164E-02  0.1320468E+00
        -11   -1    0    0    0    0  0.00000000000E+00  0.00000000000E+00  0.45593999997E+02  0.45594000000E+02  0.51100000000E-03 0. -1.
         11   -1    0    0    0    0 -0.00000000000E+00 -0.00000000000E+00 -0.45593999997E+02  0.45594000000E+02  0.51100000000E-03 0.  1.
    9900012    2    1    2    0    0 -0.11228122073E+02  0.68797536665E+01 -0.43077973183E+02  0.46142317528E+02  0.99999978772E+01 0.  0.
         12    1    1    2    0    0  0.11228122073E+02 -0.68797536665E+01  0.43077973183E+02  0.45045682472E+02  0.00000000000E+00 0. -1.
         11    1    3    3    0    0 -0.54994856106E+01  0.26756065000E+01 -0.22572928976E+02  0.23386755546E+02  0.51100000000E-03 0.  1.
        -11    1    3    3    0    0  0.98352335445E+00 -0.60704462668E+00 -0.55765678563E+01  0.56950795152E+01  0.51100000000E-03 0. -1.
        -12    1    3    3    0    0 -0.67121598174E+01  0.48111917932E+01 -0.14928476350E+02  0.17060482467E+02  0.00000000000E+00 0.  1.
</event>
<event>
 7    1  0.2227287E-008  0.4614232E+02  0.7816164E-02  0.1320468E+00
        -11   -1    0    0    0    0  0.00000000000E+00  0.00000000000E+00  0.45593999997E+02  0.45594000000E+02  0.51100000000E-03 0.  1.
         11   -1    0    0    0    0 -0.00000000000E+00 -0.00000000000E+00 -0.45593999997E+02  0.45594000000E+02  0.51100000000E-03 0. -1.
    9900012    2    1    2    0    0  0.37732951573E+02  0.24453745973E+02 -0.27114941055E+01  0.46142317334E+02  0.99999961069E+01 0.  0.
         12    1    1    2    0    0 -0.37732951573E+02 -0.24453745973E+02  0.27114941055E+01  0.45045682666E+02  0.00000000000E+00 0. -1.
         11    1    3    3    0    0  0.22092650471E+01  0.46670993606E+00 -0.13609592393E+01  0.26364522610E+01  0.51100000000E-03 0. -1.
        -11    1    3    3    0    0  0.10075504081E+02  0.30928816294E+01  0.21680293815E+00  0.10541759960E+02  0.51100000000E-03 0.  1.
        -12    1    3    3    0    0  0.25448182445E+02  0.20894154408E+02 -0.15673378044E+01  0.32964105114E+02  0.00000000000E+00 0.  1.
</event>
<event>
 7    1  0.2227287E-008  0.4614232E+02  0.7816164E-02  0.1320468E+00
        -11   -1    0    0    0    0  0.00000000000E+00  0.00000000000E+00  0.45593999997E+02  0.45594000000E+02  0.51100000000E-03 0.  1.
         11   -1    0    0    0    0 -0.00000000000E+00 -0.00000000000E+00 -0.45593999997E+02  0.45594000000E+02  0.51100000000E-03 0. -1.
    9900012    2    1    2    0    0 -0.10526768405E+02 -0.23202933294E+02  0.37147335523E+02  0.46142317599E+02  0.99999985241E+01 0.  0.
         12    1    1    2    0    0  0.10526768405E+02  0.23202933294E+02 -0.37147335523E+02  0.45045682401E+02  0.00000000000E+00 0. -1.
         11    1    3    3    0    0 -0.33423180308E+01 -0.16218245329E+01  0.41733650736E+01  0.55873411327E+01  0.51100000000E-03 0. -1.
        -11    1    3    3    0    0 -0.74309744394E+01 -0.21223543438E+02  0.29700864049E+02  0.37253181108E+02  0.51100000000E-03 0.  1.
         12    1    3    3    0    0  0.24652406565E+00 -0.35756532240E+00  0.32731064011E+01  0.33017953582E+01  0.00000000000E+00 0. -1.
</event>
<event>
 7    1  0.2227287E-008  0.4614232E+02  0.7816164E-02  0.1320468E+00
        -11   -1    0    0    0    0  0.00000000000E+00  0.00000000000E+00  0.45593999997E+02  0.45594000000E+02  0.51100000000E-03 0.  1.
         11   -1    0    0    0    0 -0.00000000000E+00 -0.00000000000E+00 -0.45593999997E+02  0.45594000000E+02  0.51100000000E-03 0. -1.
    9900012    2    1    2    0    0 -0.11548884265E+02  0.96246997717E+01  0.42462946299E+02  0.46142318943E+02  0.10000010780E+02 0.  0.
         12    1    1    2    0    0  0.11548884265E+02 -0.96246997717E+01 -0.42462946299E+02  0.45045681057E+02  0.00000000000E+00 0. -1.
         11    1    3    3    0    0 -0.13955741352E+01  0.19647952098E+01  0.19328008931E+01  0.30892987775E+01  0.51100000000E-03 0. -1.
        -11    1    3    3    0    0 -0.41510317746E+01  0.20794053036E+01  0.25634734301E+02  0.26051767582E+02  0.51100000000E-03 0.  1.
        -12    1    3    3    0    0 -0.60022783554E+01  0.55804992583E+01  0.14895411105E+02  0.17001252583E+02  0.00000000000E+00 0.  1.
</event>
<event>
 7    1  0.2227287E-008  0.4614232E+02  0.7816164E-02  0.1320468E+00
        -11   -1    0    0    0    0  0.00000000000E+00  0.00000000000E+00  0.45593999997E+02  0.45594000000E+02  0.51100000000E-03 0.  1.
         11   -1    0    0    0    0 -0.00000000000E+00 -0.00000000000E+00 -0.45593999997E+02  0.45594000000E+02  0.51100000000E-03 0. -1.
    9900012    2    1    2    0    0  0.31480174535E+02  0.12511685641E+02  0.29691240119E+02  0.46142318673E+02  0.10000008319E+02 0.  0.
         12    1    1    2    0    0 -0.31480174535E+02 -0.12511685641E+02 -0.29691240119E+02  0.45045681327E+02  0.00000000000E+00 0. -1.
         11    1    3    3    0    0  0.16196910490E+01  0.16586347703E+01  0.41423206953E+01  0.47469242041E+01  0.51100000000E-03 0. -1.
        -11    1    3    3    0    0  0.20564123451E+02  0.80059384371E+01  0.21667566984E+02  0.30926714711E+02  0.51100000000E-03 0.  1.
        -12    1    3    3    0    0  0.92963600352E+01  0.28471124336E+01  0.38813524402E+01  0.10468679758E+02  0.00000000000E+00 0.  1.
</event>
<event>
 7    1  0.2227287E-008  0.4614232E+02  0.7816164E-02  0.1320468E+00
        -11   -1    0    0    0    0  0.00000000000E+00  0.00000000000E+00  0.45593999997E+02  0.45594000000E+02  0.51100000000E-03 0.  1.
         11   -1    0    0    0    0 -0.00000000000E+00 -0.00000000000E+00 -0.45593999997E+02  0.45594000000E+02  0.51100000000E-03 0. -1.
    9900012    2    1    2    0    0  0.28341397416E+02 -0.14318855556E+02  0.31950728436E+02  0.46142317859E+02  0.10000000897E+02 0.  0.
         12    1    1    2    0    0 -0.28341397416E+02  0.14318855556E+02 -0.31950728436E+02  0.45045682141E+02  0.00000000000E+00 0. -1.
         11    1    3    3    0    0  0.36428907794E+01 -0.19208358958E+01  0.52450347529E+01  0.66686320629E+01  0.51100000000E-03 0.  1.
        -11    1    3    3    0    0  0.11696533219E+02 -0.50694847573E+01  0.63758255074E+01  0.14253410687E+02  0.51100000000E-03 0. -1.
         12    1    3    3    0    0  0.13001973418E+02 -0.73285349027E+01  0.20329868176E+02  0.25220275110E+02  0.00000000000E+00 0. -1.
</event>
<event>
 7    1  0.2227287E-008  0.4614232E+02  0.7816164E-02  0.1320468E+00
        -11   -1    0    0    0    0  0.00000000000E+00  0.00000000000E+00  0.45593999997E+02  0.45594000000E+02  0.51100000000E-03 0. -1.
         11   -1    0    0    0    0 -0.00000000000E+00 -0.00000000000E+00 -0.45593999997E+02  0.45594000000E+02  0.51100000000E-03 0.  1.
    9900012    2    1    2    0    0 -0.19846439414E+02 -0.14377973896E+01 -0.40412437843E+02  0.46142317064E+02  0.99999936464E+01 0.  0.
         12    1    1    2    0    0  0.19846439414E+02  0.14377973896E+01  0.40412437843E+02  0.45045682936E+02  0.00000000000E+00 0. -1.
         11    1    3    3    0    0 -0.47758639276E+00 -0.18048099355E+00  0.15770196089E+00  0.53435224447E+00  0.51100000000E-03 0. -1.
        -11    1    3    3    0    0 -0.85852122463E+01  0.19625898258E+00 -0.26274852876E+02  0.27642580936E+02  0.51100000000E-03 0.  1.
        -12    1    3    3    0    0 -0.10783640775E+02 -0.14535753787E+01 -0.14295286928E+02  0.17965383884E+02  0.00000000000E+00 0.  1.
</event>
<event>
 7    1  0.2227287E-008  0.4614232E+02  0.7816164E-02  0.1320468E+00
        -11   -1    0    0    0    0  0.00000000000E+00  0.00000000000E+00  0.45593999997E+02  0.45594000000E+02  0.51100000000E-03 0.  1.
         11   -1    0    0    0    0 -0.00000000000E+00 -0.00000000000E+00 -0.45593999997E+02  0.45594000000E+02  0.51100000000E-03 0. -1.
    9900012    2    1    2    0    0 -0.26985687773E+02 -0.52790438839E+01  0.35679373858E+02  0.46142319099E+02  0.10000012201E+02 0.  0.
         12    1    1    2    0    0  0.26985687773E+02  0.52790438839E+01 -0.35679373858E+02  0.45045680901E+02  0.00000000000E+00 0. -1.
         11    1    3    3    0    0 -0.70298631185E+01 -0.45952885370E+00  0.10864780295E+02  0.12948883865E+02  0.51100000000E-03 0. -1.
        -11    1    3    3    0    0 -0.10802168509E+02  0.12745564200E+01  0.10268275819E+02  0.14958236096E+02  0.51100000000E-03 0.  1.
         12    1    3    3    0    0 -0.91536561456E+01 -0.60940714502E+01  0.14546317745E+02  0.18235199138E+02  0.00000000000E+00 0. -1.
</event>
<event>
 7    1  0.2227287E-008  0.4614232E+02  0.7816164E-02  0.1320468E+00
        -11   -1    0    0    0    0  0.00000000000E+00  0.00000000000E+00  0.45593999997E+02  0.45594000000E+02  0.51100000000E-03 0.  1.
         11   -1    0    0    0    0 -0.00000000000E+00 -0.00000000000E+00 -0.45593999997E+02  0.45594000000E+02  0.51100000000E-03 0. -1.
    9900012    2    1    2    0    0 -0.77592369057E+01  0.25257893295E+02  0.36482140489E+02  0.46142317568E+02  0.99999982436E+01 0.  0.
         12    1    1    2    0    0  0.77592369057E+01 -0.25257893295E+02 -0.36482140489E+02  0.45045682432E+02  0.00000000000E+00 0. -1.
         11    1    3    3    0    0 -0.31112690404E+01  0.78123568200E+01  0.51585392981E+01  0.98652644200E+01  0.51100000000E-03 0. -1.
        -11    1    3    3    0    0 -0.28012680800E+01  0.82835370502E+01  0.12423974225E+02  0.15192735919E+02  0.51100000000E-03 0.  1.
        -12    1    3    3    0    0 -0.18466997853E+01  0.91619994244E+01  0.18899626966E+02  0.21084317229E+02  0.00000000000E+00 0.  1.
</event>
<event>
 7    1  0.2227287E-008  0.4614232E+02  0.7816164E-02  0.1320468E+00
        -11   -1    0    0    0    0  0.00000000000E+00  0.00000000000E+00  0.45593999997E+02  0.45594000000E+02  0.51100000000E-03 0. -1.
         11   -1    0    0    0    0 -0.00000000000E+00 -0.00000000000E+00 -0.45593999997E+02  0.45594000000E+02  0.51100000000E-03 0.  1.
    9900012    2    1    2    0    0 -0.40667784957E+02  0.66207029648E+01  0.18204695440E+02  0.46142318996E+02  0.10000011260E+02 0.  0.
         12    1    1    2    0    0  0.40667784957E+02 -0.66207029648E+01 -0.18204695440E+02  0.45045681004E+02  0.00000000000E+00 0. -1.
         11    1    3    3    0    0 -0.32334327811E+01  0.12950370164E+01  0.24786767599E+01  0.42750493757E+01  0.51100000000E-03 0. -1.
        -11    1    3    3    0    0 -0.30469747447E+02  0.23334964167E+01  0.15543644316E+02  0.34284917878E+02  0.51100000000E-03 0.  1.
        -12    1    3    3    0    0 -0.69646047290E+01  0.29921695317E+01  0.18237436451E+00  0.75823517425E+01  0.00000000000E+00 0.  1.
</event>
<event>
 7    1  0.2227287E-008  0.4614232E+02  0.7816164E-02  0.1320468E+00
        -11   -1    0    0    0    0  0.00000000000E+00  0.00000000000E+00  0.45593999997E+02  0.45594000000E+02  0.51100000000E-03 0. -1.
         11   -1    0    0    0    0 -0.00000000000E+00 -0.00000000000E+00 -0.45593999997E+02  0.45594000000E+02  0.51100000000E-03 0.  1.
    9900012    2    1    2    0    0 -0.72250356948E+01  0.37755745269E+01 -0.44301890065E+02  0.46142316887E+02  0.99999920250E+01 0.  0.
         12    1    1    2    0    0  0.72250356948E+01 -0.37755745269E+01  0.44301890065E+02  0.45045683113E+02  0.00000000000E+00 0. -1.
         11    1    3    3    0    0  0.98975664451E+00 -0.81291253091E+00 -0.34720067654E+01  0.37007129365E+01  0.51100000000E-03 0. -1.
        -11    1    3    3    0    0 -0.24695891864E+01  0.44654789545E+01 -0.11923366944E+02  0.12969427612E+02  0.51100000000E-03 0.  1.
        -12    1    3    3    0    0 -0.57452031529E+01  0.12300810334E+00 -0.28906516356E+02  0.29472176338E+02  0.00000000000E+00 0.  1.
</event>
<event>
 7    1  0.2227287E-008  0.4614232E+02  0.7816164E-02  0.1320468E+00
        -11   -1    0    0    0    0  0.00000000000E+00  0.00000000000E+00  0.45593999997E+02  0.45594000000E+02  0.51100000000E-03 0.  1.
         11   -1    0    0    0    0 -0.00000000000E+00 -0.00000000000E+00 -0.45593999997E+02  0.45594000000E+02  0.51100000000E-03 0. -1.
    9900012    2    1    2    0    0  0.62333194292E+01  0.38328232392E+02  0.22829933360E+02  0.46142317337E+02  0.99999961318E+01 0.  0.
         12    1    1    2    0    0 -0.62333194292E+01 -0.38328232392E+02 -0.22829933360E+02  0.45045682663E+02  0.00000000000E+00 0. -1.
         11    1    3    3    0    0 -0.14990836314E+00 -0.36749536145E+00  0.17836941559E+00  0.43513362036E+00  0.51100000000E-03 0.  1.
        -11    1    3    3    0    0 -0.62880045642E+00  0.88545567598E+00  0.13962856339E+01  0.17689080249E+01  0.51100000000E-03 0. -1.
         12    1    3    3    0    0  0.70120282488E+01  0.37810272077E+02  0.21255278310E+02  0.43938275692E+02  0.00000000000E+00 0. -1.
</event>
<event>
 7    1  0.2227287E-008  0.4614232E+02  0.7816164E-02  0.1320468E+00
        -11   -1    0    0    0    0  0.00000000000E+00  0.00000000000E+00  0.45593999997E+02  0.45594000000E+02  0.51100000000E-03 0.  1.
         11   -1    0    0    0    0 -0.00000000000E+00 -0.00000000000E+00 -0.45593999997E+02  0.45594000000E+02  0.51100000000E-03 0. -1.
    9900012    2    1    2    0    0 -0.19590701148E+02 -0.27636230650E+02  0.29691020402E+02  0.46142317538E+02  0.99999979619E+01 0.  0.
         12    1    1    2    0    0  0.19590701148E+02  0.27636230650E+02 -0.29691020402E+02  0.45045682462E+02  0.00000000000E+00 0. -1.
         11    1    3    3    0    0 -0.67203038559E+01 -0.50913786291E+01  0.12191595178E+02  0.14822942134E+02  0.51100000000E-03 0. -1.
        -11    1    3    3    0    0 -0.80997095517E+01 -0.14776879223E+02  0.10998968656E+02  0.20123090373E+02  0.51100000000E-03 0.  1.
         12    1    3    3    0    0 -0.47706877404E+01 -0.77679727973E+01  0.65004565679E+01  0.11196285031E+02  0.00000000000E+00 0. -1.
</event>
<event>
 7    1  0.2227287E-008  0.4614232E+02  0.7816164E-02  0.1320468E+00
        -11   -1    0    0    0    0  0.00000000000E+00  0.00000000000E+00  0.45593999997E+02  0.45594000000E+02  0.51100000000E-03 0.  1.
         11   -1    0    0    0    0 -0.00000000000E+00 -0.00000000000E+00 -0.45593999997E+02  0.45594000000E+02  0.51100000000E-03 0. -1.
    9900012    2    1    2    0    0 -0.40953757831E+02 -0.83714885888E+01  0.16787538000E+02  0.46142317257E+02  0.99999954026E+01 0.  0.
         12    1    1    2    0    0  0.40953757831E+02  0.83714885888E+01 -0.16787538000E+02  0.45045682743E+02  0.00000000000E+00 0. -1.
         11    1    3    3    0    0 -0.18699095918E+01  0.13974717796E+01  0.12508176561E+00  0.23377628121E+01  0.51100000000E-03 0. -1.
        -11    1    3    3    0    0 -0.17511498379E+02 -0.29197678101E+01  0.56243202680E+01  0.18622851508E+02  0.51100000000E-03 0.  1.
         12    1    3    3    0    0 -0.21572349860E+02 -0.68491925583E+01  0.11038135967E+02  0.25181702937E+02  0.00000000000E+00 0. -1.
</event>
<event>
 7    1  0.2227287E-008  0.4614232E+02  0.7816164E-02  0.1320468E+00
        -11   -1    0    0    0    0  0.00000000000E+00  0.00000000000E+00  0.45593999997E+02  0.45594000000E+02  0.51100000000E-03 0.  1.
         11   -1    0    0    0    0 -0.00000000000E+00 -0.00000000000E+00 -0.45593999997E+02  0.45594000000E+02  0.51100000000E-03 0. -1.
    9900012    2    1    2    0    0  0.29966100594E+02  0.19879262517E+02  0.27128603837E+02  0.46142318640E+02  0.10000008017E+02 0.  0.
         12    1    1    2    0    0 -0.29966100594E+02 -0.19879262517E+02 -0.27128603837E+02  0.45045681360E+02  0.00000000000E+00 0. -1.
         11    1    3    3    0    0  0.10658926414E+02  0.38568032374E+01  0.11947971949E+02  0.16469416427E+02  0.51100000000E-03 0. -1.
        -11    1    3    3    0    0  0.30038879963E+01  0.43940214069E+01  0.45407951139E+01  0.69963981981E+01  0.51100000000E-03 0.  1.
        -12    1    3    3    0    0  0.16303286184E+02  0.11628437873E+02  0.10639836774E+02  0.22676504015E+02  0.00000000000E+00 0.  1.
</event>
<event>
 7    1  0.2227287E-008  0.4614232E+02  0.7816164E-02  0.1320468E+00
        -11   -1    0    0    0    0  0.00000000000E+00  0.00000000000E+00  0.45593999997E+02  0.45594000000E+02  0.51100000000E-03 0.  1.
         11   -1    0    0    0    0 -0.00000000000E+00 -0.00000000000E+00 -0.45593999997E+02  0.45594000000E+02  0.51100000000E-03 0. -1.
    9900012    2    1    2    0    0 -0.17790337714E+02  0.17231965591E+02  0.37625479966E+02  0.46142317668E+02  0.99999991501E+01 0.  0.
         12    1    1    2    0    0  0.17790337714E+02 -0.17231965591E+02 -0.37625479966E+02  0.45045682332E+02  0.00000000000E+00 0. -1.
         11    1    3    3    0    0 -0.10764204301E+01  0.47620621185E+01  0.35630228099E+01  0.60440920218E+01  0.51100000000E-03 0. -1.
        -11    1    3    3    0    0 -0.97121659031E+00  0.10748902648E+01  0.44356649644E+01  0.46662377441E+01  0.51100000000E-03 0.  1.
        -12    1    3    3    0    0 -0.15742700694E+02  0.11395013208E+02  0.29626792191E+02  0.35431987902E+02  0.00000000000E+00 0.  1.
</event>
<event>
 7    1  0.2227287E-008  0.4614232E+02  0.7816164E-02  0.1320468E+00
        -11   -1    0    0    0    0  0.00000000000E+00  0.00000000000E+00  0.45593999997E+02  0.45594000000E+02  0.51100000000E-03 0. -1.
         11   -1    0    0    0    0 -0.00000000000E+00 -0.00000000000E+00 -0.45593999997E+02  0.45594000000E+02  0.51100000000E-03 0.  1.
    9900012    2    1    2    0    0 -0.33202123359E+02  0.18655076695E+02 -0.24056612162E+02  0.46142317956E+02  0.10000001781E+02 0.  0.
         12    1    1    2    0    0  0.33202123359E+02 -0.18655076695E+02  0.24056612162E+02  0.45045682044E+02  0.00000000000E+00 0. -1.
         11    1    3    3    0    0 -0.20867734371E+02  0.13499386811E+02 -0.17237435577E+02  0.30246073590E+02  0.51100000000E-03 0. -1.
        -11    1    3    3    0    0 -0.97955745267E+01  0.26959524290E+01 -0.70302547506E+01  0.12354995829E+02  0.51100000000E-03 0.  1.
         12    1    3    3    0    0 -0.25388144612E+01  0.24597374545E+01  0.21107816579E+00  0.35412485377E+01  0.00000000000E+00 0. -1.
</event>
<event>
 7    1  0.2227287E-008  0.4614232E+02  0.7816164E-02  0.1320468E+00
        -11   -1    0    0    0    0  0.00000000000E+00  0.00000000000E+00  0.45593999997E+02  0.45594000000E+02  0.51100000000E-03 0. -1.
         11   -1    0    0    0    0 -0.00000000000E+00 -0.00000000000E+00 -0.45593999997E+02  0.45594000000E+02  0.51100000000E-03 0.  1.
    9900012    2    1    2    0    0 -0.41475499699E+02  0.15892062456E+02 -0.75059147032E+01  0.46142317855E+02  0.10000000852E+02 0.  0.
         12    1    1    2    0    0  0.41475499699E+02 -0.15892062456E+02  0.75059147032E+01  0.45045682145E+02  0.00000000000E+00 0. -1.
         11    1    3    3    0    0 -0.14004389004E+01  0.29825261823E+01 -0.10469732375E+00  0.32966124025E+01  0.51100000000E-03 0. -1.
        -11    1    3    3    0    0 -0.18520604200E+02  0.61844545859E+01 -0.48776471226E+01  0.20125896258E+02  0.51100000000E-03 0.  1.
        -12    1    3    3    0    0 -0.21554456599E+02  0.67250816879E+01 -0.25235702568E+01  0.22719809194E+02  0.00000000000E+00 0.  1.
</event>
<event>
 7    1  0.2227287E-008  0.4614231E+02  0.7816164E-02  0.1320468E+00
        -11   -1    0    0    0    0  0.00000000000E+00  0.00000000000E+00  0.45593999997E+02  0.45594000000E+02  0.51100000000E-03 0.  1.
         11   -1    0    0    0    0 -0.00000000000E+00 -0.00000000000E+00 -0.45593999997E+02  0.45594000000E+02  0.51100000000E-03 0. -1.
    9900012    2    1    2    0    0  0.47465386469E+01  0.14419424076E+02  0.42410664271E+02  0.46142313594E+02  0.99999620050E+01 0.  0.
         12    1    1    2    0    0 -0.47465386469E+01 -0.14419424076E+02 -0.42410664271E+02  0.45045686406E+02  0.00000000000E+00 0. -1.
         11    1    3    3    0    0 -0.10282619025E+01 -0.39779311123E+00  0.86752952768E+00  0.14029146952E+01  0.51100000000E-03 0. -1.
        -11    1    3    3    0    0  0.40697258568E+01  0.72373851460E+01  0.27043536503E+02  0.28289490613E+02  0.51100000000E-03 0.  1.
        -12    1    3    3    0    0  0.17050746926E+01  0.75798320411E+01  0.14499598241E+02  0.16449908286E+02  0.00000000000E+00 0.  1.
</event>
<event>
 7    1  0.2227287E-008  0.4614232E+02  0.7816164E-02  0.1320468E+00
        -11   -1    0    0    0    0  0.00000000000E+00  0.00000000000E+00  0.45593999997E+02  0.45594000000E+02  0.51100000000E-03 0. -1.
         11   -1    0    0    0    0 -0.00000000000E+00 -0.00000000000E+00 -0.45593999997E+02  0.45594000000E+02  0.51100000000E-03 0.  1.
    9900012    2    1    2    0    0 -0.10477958553E+02  0.43037390241E+02  0.81920003131E+01  0.46142318261E+02  0.10000004563E+02 0.  0.
         12    1    1    2    0    0  0.10477958553E+02 -0.43037390241E+02 -0.81920003131E+01  0.45045681739E+02  0.00000000000E+00 0. -1.
         11    1    3    3    0    0 -0.16368844117E+01  0.49744964889E+01  0.21264051935E+01  0.56521328013E+01  0.51100000000E-03 0. -1.
        -11    1    3    3    0    0 -0.73896523628E+01  0.13484056811E+02  0.31618168532E+01  0.15697892731E+02  0.51100000000E-03 0.  1.
         12    1    3    3    0    0 -0.14514217781E+01  0.24578836941E+02  0.29037782664E+01  0.24792292729E+02  0.00000000000E+00 0. -1.
</event>
<event>
 7    1  0.2227287E-008  0.4614232E+02  0.7816164E-02  0.1320468E+00
        -11   -1    0    0    0    0  0.00000000000E+00  0.00000000000E+00  0.45593999997E+02  0.45594000000E+02  0.51100000000E-03 0.  1.
         11   -1    0    0    0    0 -0.00000000000E+00 -0.00000000000E+00 -0.45593999997E+02  0.45594000000E+02  0.51100000000E-03 0. -1.
    9900012    2    1    2    0    0 -0.24238861926E+01 -0.34832516513E+02  0.28459340056E+02  0.46142317995E+02  0.10000002132E+02 0.  0.
         12    1    1    2    0    0  0.24238861926E+01  0.34832516513E+02 -0.28459340056E+02  0.45045682005E+02  0.00000000000E+00 0. -1.
         11    1    3    3    0    0  0.42801468577E-01  0.34676036972E+00  0.13878124982E+01  0.14311179235E+01  0.51100000000E-03 0. -1.
        -11    1    3    3    0    0 -0.74012663929E+00 -0.19912080645E+01  0.55437013733E+00  0.21954551939E+01  0.51100000000E-03 0.  1.
        -12    1    3    3    0    0 -0.17265610218E+01 -0.33188068818E+02  0.26517157420E+02  0.42515744878E+02  0.00000000000E+00 0.  1.
</event>
<event>
 7    1  0.2227287E-008  0.4614232E+02  0.7816164E-02  0.1320468E+00
        -11   -1    0    0    0    0  0.00000000000E+00  0.00000000000E+00  0.45593999997E+02  0.45594000000E+02  0.51100000000E-03 0. -1.
         11   -1    0    0    0    0 -0.00000000000E+00 -0.00000000000E+00 -0.45593999997E+02  0.45594000000E+02  0.51100000000E-03 0.  1.
    9900012    2    1    2    0    0 -0.14896703512E+02 -0.28213883046E+02 -0.31799032559E+02  0.46142318256E+02  0.10000004515E+02 0.  0.
         12    1    1    2    0    0  0.14896703512E+02  0.28213883046E+02  0.31799032559E+02  0.45045681744E+02  0.00000000000E+00 0. -1.
         11    1    3    3    0    0 -0.17900204305E+01 -0.82376829891E+01 -0.87931772655E+01  0.12181279114E+02  0.51100000000E-03 0. -1.
        -11    1    3    3    0    0 -0.81604081200E+01 -0.78264960215E+01 -0.14243238386E+02  0.18185602565E+02  0.51100000000E-03 0.  1.
        -12    1    3    3    0    0 -0.49462749611E+01 -0.12149704035E+02 -0.87626169079E+01  0.15775436578E+02  0.00000000000E+00 0.  1.
</event>
<event>
 7    1  0.2227287E-008  0.4614232E+02  0.7816164E-02  0.1320468E+00
        -11   -1    0    0    0    0  0.00000000000E+00  0.00000000000E+00  0.45593999997E+02  0.45594000000E+02  0.51100000000E-03 0.  1.
         11   -1    0    0    0    0 -0.00000000000E+00 -0.00000000000E+00 -0.45593999997E+02  0.45594000000E+02  0.51100000000E-03 0. -1.
    9900012    2    1    2    0    0  0.36387297329E+02  0.16462222291E+01  0.26502227496E+02  0.46142317446E+02  0.99999971289E+01 0.  0.
         12    1    1    2    0    0 -0.36387297329E+02 -0.16462222291E+01 -0.26502227496E+02  0.45045682554E+02  0.00000000000E+00 0. -1.
         11    1    3    3    0    0  0.22879114616E+02  0.44906066403E+01  0.12534773015E+02  0.26471493505E+02  0.51100000000E-03 0.  1.
        -11    1    3    3    0    0  0.38496060746E+01 -0.11384353782E+01  0.46419701696E+01  0.61370505421E+01  0.51100000000E-03 0. -1.
        -12    1    3    3    0    0  0.96585766384E+01 -0.17059490330E+01  0.93254843110E+01  0.13533773399E+02  0.00000000000E+00 0.  1.
</event>
<event>
 7    1  0.2227287E-008  0.4614232E+02  0.7816164E-02  0.1320468E+00
        -11   -1    0    0    0    0  0.00000000000E+00  0.00000000000E+00  0.45593999997E+02  0.45594000000E+02  0.51100000000E-03 0.  1.
         11   -1    0    0    0    0 -0.00000000000E+00 -0.00000000000E+00 -0.45593999997E+02  0.45594000000E+02  0.51100000000E-03 0. -1.
    9900012    2    1    2    0    0 -0.11397157477E+01  0.20679028144E+02  0.40002403319E+02  0.46142318429E+02  0.10000006089E+02 0.  0.
         12    1    1    2    0    0  0.11397157477E+01 -0.20679028144E+02 -0.40002403319E+02  0.45045681571E+02  0.00000000000E+00 0. -1.
         11    1    3    3    0    0 -0.70500007334E+00  0.14162864525E+02  0.17490108886E+02  0.22516386605E+02  0.51100000000E-03 0. -1.
        -11    1    3    3    0    0 -0.13823850216E+01  0.45776708693E+01  0.12492077553E+02  0.13376025598E+02  0.51100000000E-03 0.  1.
        -12    1    3    3    0    0  0.94766934717E+00  0.19384927500E+01  0.10020216879E+02  0.10249906226E+02  0.00000000000E+00 0.  1.
</event>
<event>
 7    1  0.2227287E-008  0.4614232E+02  0.7816164E-02  0.1320468E+00
        -11   -1    0    0    0    0  0.00000000000E+00  0.00000000000E+00  0.45593999997E+02  0.45594000000E+02  0.51100000000E-03 0. -1.
         11   -1    0    0    0    0 -0.00000000000E+00 -0.00000000000E+00 -0.45593999997E+02  0.45594000000E+02  0.51100000000E-03 0.  1.
    9900012    2    1    2    0    0 -0.32691516863E+02  0.28118373856E+02  0.13028245088E+02  0.46142318818E+02  0.10000009635E+02 0.  0.
         12    1    1    2    0    0  0.32691516863E+02 -0.28118373856E+02 -0.13028245088E+02  0.45045681182E+02  0.00000000000E+00 0. -1.
         11    1    3    3    0    0 -0.15351976495E+02  0.18524733136E+02  0.63581142711E+01  0.24885227292E+02  0.51100000000E-03 0. -1.
        -11    1    3    3    0    0 -0.74262404547E+01  0.54890316395E+01  0.46493125180E+01  0.10338985578E+02  0.51100000000E-03 0.  1.
        -12    1    3    3    0    0 -0.99132999138E+01  0.41046090805E+01  0.20208182990E+01  0.10918105948E+02  0.00000000000E+00 0.  1.
</event>
<event>
 7    1  0.2227287E-008  0.4614232E+02  0.7816164E-02  0.1320468E+00
        -11   -1    0    0    0    0  0.00000000000E+00  0.00000000000E+00  0.45593999997E+02  0.45594000000E+02  0.51100000000E-03 0. -1.
         11   -1    0    0    0    0 -0.00000000000E+00 -0.00000000000E+00 -0.45593999997E+02  0.45594000000E+02  0.51100000000E-03 0.  1.
    9900012    2    1    2    0    0 -0.36588605156E+02  0.15641826174E+02 -0.21112098316E+02  0.46142318202E+02  0.10000004020E+02 0.  0.
         12    1    1    2    0    0  0.36588605156E+02 -0.15641826174E+02  0.21112098316E+02  0.45045681798E+02  0.00000000000E+00 0. -1.
         11    1    3    3    0    0 -0.18160088301E+02  0.67519107765E+01 -0.10056792930E+02  0.21829250801E+02  0.51100000000E-03 0. -1.
        -11    1    3    3    0    0 -0.81039772026E+01  0.78066071779E+01 -0.52206409510E+01  0.12404541682E+02  0.51100000000E-03 0.  1.
         12    1    3    3    0    0 -0.10324539653E+02  0.10833082198E+01 -0.58346644346E+01  0.11908525720E+02  0.00000000000E+00 0. -1.
</event>
<event>
 7    1  0.2227287E-008  0.4614232E+02  0.7816164E-02  0.1320468E+00
        -11   -1    0    0    0    0  0.00000000000E+00  0.00000000000E+00  0.45593999997E+02  0.45594000000E+02  0.51100000000E-03 0.  1.
         11   -1    0    0    0    0 -0.00000000000E+00 -0.00000000000E+00 -0.45593999997E+02  0.45594000000E+02  0.51100000000E-03 0. -1.
    9900012    2    1    2    0    0 -0.30235854055E+02 -0.22078668897E+02  0.25048733067E+02  0.46142317421E+02  0.99999969017E+01 0.  0.
         12    1    1    2    0    0  0.30235854055E+02  0.22078668897E+02 -0.25048733067E+02  0.45045682579E+02  0.00000000000E+00 0. -1.
         11    1    3    3    0    0 -0.28016894497E+01 -0.71559946615E+00 -0.52205478472E-01  0.28921051229E+01  0.51100000000E-03 0. -1.
        -11    1    3    3    0    0 -0.24655572134E+01 -0.62051741990E+00  0.32236650170E+01  0.41056096556E+01  0.51100000000E-03 0.  1.
        -12    1    3    3    0    0 -0.24968607392E+02 -0.20742552011E+02  0.21877273528E+02  0.39144602643E+02  0.00000000000E+00 0.  1.
</event>
<event>
 7    1  0.2227287E-008  0.4614232E+02  0.7816164E-02  0.1320468E+00
        -11   -1    0    0    0    0  0.00000000000E+00  0.00000000000E+00  0.45593999997E+02  0.45594000000E+02  0.51100000000E-03 0.  1.
         11   -1    0    0    0    0 -0.00000000000E+00 -0.00000000000E+00 -0.45593999997E+02  0.45594000000E+02  0.51100000000E-03 0. -1.
    9900012    2    1    2    0    0  0.39495896041E+02 -0.17918897146E+02  0.12169667343E+02  0.46142317829E+02  0.10000000619E+02 0.  0.
         12    1    1    2    0    0 -0.39495896041E+02  0.17918897146E+02 -0.12169667343E+02  0.45045682171E+02  0.00000000000E+00 0. -1.
         11    1    3    3    0    0  0.67328244870E+01 -0.45670949433E+01  0.31722515915E+01  0.87322655831E+01  0.51100000000E-03 0. -1.
        -11    1    3    3    0    0  0.25168610544E+02 -0.12527531992E+02  0.96961824225E+01  0.29739098311E+02  0.51100000000E-03 0.  1.
         12    1    3    3    0    0  0.75944610095E+01 -0.82427021105E+00 -0.69876667056E+00  0.76709539345E+01  0.00000000000E+00 0. -1.
</event>
<event>
 7    1  0.2227287E-008  0.4614232E+02  0.7816164E-02  0.1320468E+00
        -11   -1    0    0    0    0  0.00000000000E+00  0.00000000000E+00  0.45593999997E+02  0.45594000000E+02  0.51100000000E-03 0.  1.
         11   -1    0    0    0    0 -0.00000000000E+00 -0.00000000000E+00 -0.45593999997E+02  0.45594000000E+02  0.51100000000E-03 0. -1.
    9900012    2    1    2    0    0  0.34637474351E+02 -0.27831682031E+02  0.73997299409E+01  0.46142321435E+02  0.10000033506E+02 0.  0.
         12    1    1    2    0    0 -0.34637474351E+02  0.27831682031E+02 -0.73997299409E+01  0.45045678565E+02  0.00000000000E+00 0. -1.
         11    1    3    3    0    0  0.47763131599E+01 -0.40994844226E+01  0.36776090364E+01  0.72899758860E+01  0.51100000000E-03 0. -1.
        -11    1    3    3    0    0  0.88700127728E+01 -0.10731375811E+02  0.23819600186E+01  0.14124917245E+02  0.51100000000E-03 0.  1.
        -12    1    3    3    0    0  0.20991148419E+02 -0.13000821798E+02  0.13401608859E+01  0.24727428305E+02  0.00000000000E+00 0.  1.
</event>
<event>
 7    1  0.2227287E-008  0.4614232E+02  0.7816164E-02  0.1320468E+00
        -11   -1    0    0    0    0  0.00000000000E+00  0.00000000000E+00  0.45593999997E+02  0.45594000000E+02  0.51100000000E-03 0.  1.
         11   -1    0    0    0    0 -0.00000000000E+00 -0.00000000000E+00 -0.45593999997E+02  0.45594000000E+02  0.51100000000E-03 0. -1.
    9900012    2    1    2    0    0 -0.11810344231E+02 -0.83317430886E+01  0.42663931667E+02  0.46142320529E+02  0.10000025241E+02 0.  0.
         12    1    1    2    0    0  0.11810344231E+02  0.83317430886E+01 -0.42663931667E+02  0.45045679471E+02  0.00000000000E+00 0. -1.
         11    1    3    3    0    0 -0.48248600028E+01 -0.18424495368E+00  0.52961208946E+01  0.71667368475E+01  0.51100000000E-03 0. -1.
        -11    1    3    3    0    0 -0.37919449384E+01 -0.23555758188E+01  0.15302074148E+02  0.15939920242E+02  0.51100000000E-03 0.  1.
        -12    1    3    3    0    0 -0.31935392898E+01 -0.57919223161E+01  0.22065736624E+02  0.23035663439E+02  0.00000000000E+00 0.  1.
</event>
<event>
 7    1  0.2227287E-008  0.4614232E+02  0.7816164E-02  0.1320468E+00
        -11   -1    0    0    0    0  0.00000000000E+00  0.00000000000E+00  0.45593999997E+02  0.45594000000E+02  0.51100000000E-03 0.  1.
         11   -1    0    0    0    0 -0.00000000000E+00 -0.00000000000E+00 -0.45593999997E+02  0.45594000000E+02  0.51100000000E-03 0. -1.
    9900012    2    1    2    0    0 -0.45443985734E+01 -0.13840762284E+02  0.42625054574E+02  0.46142317228E+02  0.99999951386E+01 0.  0.
         12    1    1    2    0    0  0.45443985734E+01  0.13840762284E+02 -0.42625054574E+02  0.45045682772E+02  0.00000000000E+00 0. -1.
         11    1    3    3    0    0 -0.14063638837E+01  0.19769274135E+00  0.11200254130E+01  0.18087009096E+01  0.51100000000E-03 0. -1.
        -11    1    3    3    0    0 -0.46805002918E+01 -0.82337173411E+01  0.22833046400E+02  0.24719409224E+02  0.51100000000E-03 0.  1.
         12    1    3    3    0    0  0.15424656022E+01 -0.58047376839E+01  0.18671982761E+02  0.19614207094E+02  0.00000000000E+00 0. -1.
</event>
<event>
 7    1  0.2227287E-008  0.4614232E+02  0.7816164E-02  0.1320468E+00
        -11   -1    0    0    0    0  0.00000000000E+00  0.00000000000E+00  0.45593999997E+02  0.45594000000E+02  0.51100000000E-03 0.  1.
         11   -1    0    0    0    0 -0.00000000000E+00 -0.00000000000E+00 -0.45593999997E+02  0.45594000000E+02  0.51100000000E-03 0. -1.
    9900012    2    1    2    0    0 -0.13861455115E+02  0.33219556672E+02  0.27081998972E+02  0.46142317058E+02  0.99999935903E+01 0.  0.
         12    1    1    2    0    0  0.13861455115E+02 -0.33219556672E+02 -0.27081998972E+02  0.45045682942E+02  0.00000000000E+00 0. -1.
         11    1    3    3    0    0 -0.95702134824E+01  0.24393488353E+02  0.14285336932E+02  0.29844632879E+02  0.51100000000E-03 0. -1.
        -11    1    3    3    0    0 -0.41918828040E+01  0.67632948245E+01  0.93274519187E+01  0.12260318017E+02  0.51100000000E-03 0.  1.
         12    1    3    3    0    0 -0.99358828781E-01  0.20627734941E+01  0.34692101212E+01  0.40373661625E+01  0.00000000000E+00 0. -1.
</event>
<event>
 7    1  0.2227287E-008  0.4614232E+02  0.7816164E-02  0.1320468E+00
        -11   -1    0    0    0    0  0.00000000000E+00  0.00000000000E+00  0.45593999997E+02  0.45594000000E+02  0.51100000000E-03 0.  1.
         11   -1    0    0    0    0 -0.00000000000E+00 -0.00000000000E+00 -0.45593999997E+02  0.45594000000E+02  0.51100000000E-03 0. -1.
    9900012    2    1    2    0    0  0.31990713808E+02 -0.16418755303E+01  0.31670364334E+02  0.46142317607E+02  0.99999985984E+01 0.  0.
         12    1    1    2    0    0 -0.31990713808E+02  0.16418755303E+01 -0.31670364334E+02  0.45045682393E+02  0.00000000000E+00 0. -1.
         11    1    3    3    0    0  0.13688669778E+01 -0.66941366920E+00  0.25114045670E+01  0.29375269571E+01  0.51100000000E-03 0. -1.
        -11    1    3    3    0    0  0.19593411875E+02  0.28309719097E+00  0.23946471227E+02  0.30942130137E+02  0.51100000000E-03 0.  1.
         12    1    3    3    0    0  0.11028434955E+02 -0.12555590521E+01  0.52124885393E+01  0.12262660513E+02  0.00000000000E+00 0. -1.
</event>
<event>
 7    1  0.2227287E-008  0.4614232E+02  0.7816164E-02  0.1320468E+00
        -11   -1    0    0    0    0  0.00000000000E+00  0.00000000000E+00  0.45593999997E+02  0.45594000000E+02  0.51100000000E-03 0.  1.
         11   -1    0    0    0    0 -0.00000000000E+00 -0.00000000000E+00 -0.45593999997E+02  0.45594000000E+02  0.51100000000E-03 0. -1.
    9900012    2    1    2    0    0  0.25272906378E+02 -0.43702031711E+01  0.37031000848E+02  0.46142317672E+02  0.99999991904E+01 0.  0.
         12    1    1    2    0    0 -0.25272906378E+02  0.43702031711E+01 -0.37031000848E+02  0.45045682328E+02  0.00000000000E+00 0. -1.
         11    1    3    3    0    0  0.93740470668E+01 -0.41431020241E+00  0.17647177081E+02  0.19986677326E+02  0.51100000000E-03 0.  1.
        -11    1    3    3    0    0  0.13106366019E+02 -0.21397396859E+01  0.11389383006E+02  0.17494952462E+02  0.51100000000E-03 0. -1.
         12    1    3    3    0    0  0.27924932924E+01 -0.18161532828E+01  0.79944407615E+01  0.86606878840E+01  0.00000000000E+00 0. -1.
</event>
<event>
 7    1  0.2227287E-008  0.4614232E+02  0.7816164E-02  0.1320468E+00
        -11   -1    0    0    0    0  0.00000000000E+00  0.00000000000E+00  0.45593999997E+02  0.45594000000E+02  0.51100000000E-03 0.  1.
         11   -1    0    0    0    0 -0.00000000000E+00 -0.00000000000E+00 -0.45593999997E+02  0.45594000000E+02  0.51100000000E-03 0. -1.
    9900012    2    1    2    0    0  0.39878503813E+02  0.15178278147E+02 -0.14437390808E+02  0.46142318218E+02  0.10000004162E+02 0.  0.
         12    1    1    2    0    0 -0.39878503813E+02 -0.15178278147E+02  0.14437390808E+02  0.45045681782E+02  0.00000000000E+00 0. -1.
         11    1    3    3    0    0  0.34515736162E+01  0.12919235393E+01  0.11915063325E+01  0.38732563123E+01  0.51100000000E-03 0.  1.
        -11    1    3    3    0    0  0.21843274977E+02  0.10180959287E+02 -0.11263190305E+02  0.26601504653E+02  0.51100000000E-03 0. -1.
        -12    1    3    3    0    0  0.14583655220E+02  0.37053953210E+01 -0.43657068359E+01  0.15667557252E+02  0.00000000000E+00 0.  1.
</event>
<event>
 7    1  0.2227287E-008  0.4614232E+02  0.7816164E-02  0.1320468E+00
        -11   -1    0    0    0    0  0.00000000000E+00  0.00000000000E+00  0.45593999997E+02  0.45594000000E+02  0.51100000000E-03 0.  1.
         11   -1    0    0    0    0 -0.00000000000E+00 -0.00000000000E+00 -0.45593999997E+02  0.45594000000E+02  0.51100000000E-03 0. -1.
    9900012    2    1    2    0    0 -0.94751234951E+01 -0.17009869246E+02  0.40620190560E+02  0.46142317653E+02  0.99999990117E+01 0.  0.
         12    1    1    2    0    0  0.94751234951E+01  0.17009869246E+02 -0.40620190560E+02  0.45045682347E+02  0.00000000000E+00 0. -1.
         11    1    3    3    0    0 -0.85994278446E+01 -0.56618174783E+01  0.18986230488E+02  0.21598224113E+02  0.51100000000E-03 0. -1.
        -11    1    3    3    0    0 -0.20148541624E+00 -0.13504173978E-01  0.17928324726E+00  0.27003977400E+00  0.51100000000E-03 0.  1.
         12    1    3    3    0    0 -0.67421023422E+00 -0.11334547594E+02  0.21454676824E+02  0.24274053766E+02  0.00000000000E+00 0. -1.
</event>
<event>
 7    1  0.2227287E-008  0.4614232E+02  0.7816164E-02  0.1320468E+00
        -11   -1    0    0    0    0  0.00000000000E+00  0.00000000000E+00  0.45593999997E+02  0.45594000000E+02  0.51100000000E-03 0.  1.
         11   -1    0    0    0    0 -0.00000000000E+00 -0.00000000000E+00 -0.45593999997E+02  0.45594000000E+02  0.51100000000E-03 0. -1.
    9900012    2    1    2    0    0  0.88355492567E+01 -0.15143669452E+02  0.41493563516E+02  0.46142317983E+02  0.10000002022E+02 0.  0.
         12    1    1    2    0    0 -0.88355492567E+01  0.15143669452E+02 -0.41493563516E+02  0.45045682017E+02  0.00000000000E+00 0. -1.
         11    1    3    3    0    0  0.12431615190E+01 -0.49350451986E+01  0.11934035269E+02  0.12973870653E+02  0.51100000000E-03 0. -1.
        -11    1    3    3    0    0  0.60718609977E+01 -0.10866257920E+02  0.28740764307E+02  0.31320513891E+02  0.51100000000E-03 0.  1.
         12    1    3    3    0    0  0.15205267399E+01  0.65763366613E+00  0.81876394025E+00  0.18479334392E+01  0.00000000000E+00 0. -1.
</event>
<event>
 7    1  0.2227287E-008  0.4614232E+02  0.7816164E-02  0.1320468E+00
        -11   -1    0    0    0    0  0.00000000000E+00  0.00000000000E+00  0.45593999997E+02  0.45594000000E+02  0.51100000000E-03 0. -1.
         11   -1    0    0    0    0 -0.00000000000E+00 -0.00000000000E+00 -0.45593999997E+02  0.45594000000E+02  0.51100000000E-03 0.  1.
    9900012    2    1    2    0    0 -0.27632607628E+02  0.87135136241E+01 -0.34490973839E+02  0.46142316518E+02  0.99999886647E+01 0.  0.
         12    1    1    2    0    0  0.27632607628E+02 -0.87135136241E+01  0.34490973839E+02  0.45045683482E+02  0.00000000000E+00 0. -1.
         11    1    3    3    0    0 -0.21458202951E+02  0.56721358983E+01 -0.26331092188E+02  0.34437683076E+02  0.51100000000E-03 0.  1.
        -11    1    3    3    0    0 -0.61951809117E+01  0.36002690936E+01 -0.56269604112E+01  0.91107018284E+01  0.51100000000E-03 0. -1.
         12    1    3    3    0    0  0.20776234622E-01 -0.55889136774E+00 -0.25329212396E+01  0.25939316142E+01  0.00000000000E+00 0. -1.
</event>
<event>
 7    1  0.2227287E-008  0.4614232E+02  0.7816164E-02  0.1320468E+00
        -11   -1    0    0    0    0  0.00000000000E+00  0.00000000000E+00  0.45593999997E+02  0.45594000000E+02  0.51100000000E-03 0.  1.
         11   -1    0    0    0    0 -0.00000000000E+00 -0.00000000000E+00 -0.45593999997E+02  0.45594000000E+02  0.51100000000E-03 0. -1.
    9900012    2    1    2    0    0 -0.23980813309E+02 -0.24992711011E+02  0.28799282702E+02  0.46142315470E+02  0.99999791082E+01 0.  0.
         12    1    1    2    0    0  0.23980813309E+02  0.24992711011E+02 -0.28799282702E+02  0.45045684530E+02  0.00000000000E+00 0. -1.
         11    1    3    3    0    0 -0.57729186390E+01 -0.70271605027E+01  0.35950318889E+01  0.97791527693E+01  0.51100000000E-03 0. -1.
        -11    1    3    3    0    0 -0.12894180567E+02 -0.11383540819E+02  0.13217585677E+02  0.21692152163E+02  0.51100000000E-03 0.  1.
         12    1    3    3    0    0 -0.53137141030E+01 -0.65820096886E+01  0.11986665136E+02  0.14671010537E+02  0.00000000000E+00 0. -1.
</event>
<event>
 7    1  0.2227287E-008  0.4614233E+02  0.7816164E-02  0.1320468E+00
        -11   -1    0    0    0    0  0.00000000000E+00  0.00000000000E+00  0.45593999997E+02  0.45594000000E+02  0.51100000000E-03 0.  1.
         11   -1    0    0    0    0 -0.00000000000E+00 -0.00000000000E+00 -0.45593999997E+02  0.45594000000E+02  0.51100000000E-03 0. -1.
    9900012    2    1    2    0    0  0.61970146708E+01  0.37190828172E+02  0.24648559353E+02  0.46142332404E+02  0.10000133527E+02 0.  0.
         12    1    1    2    0    0 -0.61970146708E+01 -0.37190828172E+02 -0.24648559353E+02  0.45045667596E+02  0.00000000000E+00 0. -1.
         11    1    3    3    0    0  0.64459077651E+01  0.24931223787E+02  0.12443683372E+02  0.28600015779E+02  0.51100000000E-03 0. -1.
        -11    1    3    3    0    0  0.78770484865E+00  0.51524259591E+01  0.67235892198E+01  0.85073276915E+01  0.51100000000E-03 0.  1.
         12    1    3    3    0    0 -0.10365979430E+01  0.71071784262E+01  0.54812867610E+01  0.90349889338E+01  0.00000000000E+00 0. -1.
</event>
<event>
 7    1  0.2227287E-008  0.4614232E+02  0.7816164E-02  0.1320468E+00
        -11   -1    0    0    0    0  0.00000000000E+00  0.00000000000E+00  0.45593999997E+02  0.45594000000E+02  0.51100000000E-03 0.  1.
         11   -1    0    0    0    0 -0.00000000000E+00 -0.00000000000E+00 -0.45593999997E+02  0.45594000000E+02  0.51100000000E-03 0. -1.
    9900012    2    1    2    0    0 -0.36056348292E+02 -0.16241039294E+02  0.21570395046E+02  0.46142317056E+02  0.99999935697E+01 0.  0.
         12    1    1    2    0    0  0.36056348292E+02  0.16241039294E+02 -0.21570395046E+02  0.45045682944E+02  0.00000000000E+00 0. -1.
         11    1    3    3    0    0 -0.17584281062E+02 -0.56930454473E+01  0.12098384543E+02  0.22090464362E+02  0.51100000000E-03 0. -1.
        -11    1    3    3    0    0 -0.16102076901E+02 -0.79212732438E+01  0.98891471142E+01  0.20489477329E+02  0.51100000000E-03 0.  1.
         12    1    3    3    0    0 -0.23699903290E+01 -0.26267206031E+01 -0.41713661127E+00  0.35623753647E+01  0.00000000000E+00 0. -1.
</event>
<event>
 7    1  0.2227287E-008  0.4614232E+02  0.7816164E-02  0.1320468E+00
        -11   -1    0    0    0    0  0.00000000000E+00  0.00000000000E+00  0.45593999997E+02  0.45594000000E+02  0.51100000000E-03 0.  1.
         11   -1    0    0    0    0 -0.00000000000E+00 -0.00000000000E+00 -0.45593999997E+02  0.45594000000E+02  0.51100000000E-03 0. -1.
    9900012    2    1    2    0    0 -0.18651043268E+01 -0.42719666783E+02  0.14165623111E+02  0.46142318494E+02  0.10000006684E+02 0.  0.
         12    1    1    2    0    0  0.18651043268E+01  0.42719666783E+02 -0.14165623111E+02  0.45045681506E+02  0.00000000000E+00 0. -1.
         11    1    3    3    0    0  0.20627330313E+01 -0.13961228061E+02  0.23522224752E+01  0.14307470335E+02  0.51100000000E-03 0. -1.
        -11    1    3    3    0    0  0.51615703765E+00 -0.10219955620E+02  0.21281052530E+01  0.10451925334E+02  0.51100000000E-03 0.  1.
        -12    1    3    3    0    0 -0.44439943958E+01 -0.18538483102E+02  0.96852953832E+01  0.21382922825E+02  0.00000000000E+00 0.  1.
</event>
<event>
 7    1  0.2227287E-008  0.4614232E+02  0.7816164E-02  0.1320468E+00
        -11   -1    0    0    0    0  0.00000000000E+00  0.00000000000E+00  0.45593999997E+02  0.45594000000E+02  0.51100000000E-03 0.  1.
         11   -1    0    0    0    0 -0.00000000000E+00 -0.00000000000E+00 -0.45593999997E+02  0.45594000000E+02  0.51100000000E-03 0. -1.
    9900012    2    1    2    0    0 -0.35277786321E+02  0.56169427657E+01  0.27441596711E+02  0.46142317812E+02  0.10000000465E+02 0.  0.
         12    1    1    2    0    0  0.35277786321E+02 -0.56169427657E+01 -0.27441596711E+02  0.45045682188E+02  0.00000000000E+00 0. -1.
         11    1    3    3    0    0 -0.64108242443E+01 -0.11962778630E+01  0.72626526862E+01  0.97609360472E+01  0.51100000000E-03 0. -1.
        -11    1    3    3    0    0  0.24242078975E+00 -0.18544570071E+00  0.38257088634E+00  0.48940646851E+00  0.51100000000E-03 0.  1.
        -12    1    3    3    0    0 -0.29109382866E+02  0.69986663295E+01  0.19796373138E+02  0.35891975296E+02  0.00000000000E+00 0.  1.
</event>
<event>
 7    1  0.2227287E-008  0.4614232E+02  0.7816164E-02  0.1320468E+00
        -11   -1    0    0    0    0  0.00000000000E+00  0.00000000000E+00  0.45593999997E+02  0.45594000000E+02  0.51100000000E-03 0.  1.
         11   -1    0    0    0    0 -0.00000000000E+00 -0.00000000000E+00 -0.45593999997E+02  0.45594000000E+02  0.51100000000E-03 0. -1.
    9900012    2    1    2    0    0  0.25361949943E+02  0.29521215005E+02  0.22680006903E+02  0.46142319259E+02  0.10000013659E+02 0.  0.
         12    1    1    2    0    0 -0.25361949943E+02 -0.29521215005E+02 -0.22680006903E+02  0.45045680741E+02  0.00000000000E+00 0. -1.
         11    1    3    3    0    0  0.96473508280E+01  0.75448222293E+01  0.62617074114E+01  0.13755169953E+02  0.51100000000E-03 0. -1.
        -11    1    3    3    0    0  0.14876897705E+02  0.21803778796E+02  0.14120192858E+02  0.29935041369E+02  0.51100000000E-03 0.  1.
         12    1    3    3    0    0  0.83770141004E+00  0.17261397958E+00  0.22981066333E+01  0.24521079374E+01  0.00000000000E+00 0. -1.
</event>
<event>
 7    1  0.2227287E-008  0.4614232E+02  0.7816164E-02  0.1320468E+00
        -11   -1    0    0    0    0  0.00000000000E+00  0.00000000000E+00  0.45593999997E+02  0.45594000000E+02  0.51100000000E-03 0.  1.
         11   -1    0    0    0    0 -0.00000000000E+00 -0.00000000000E+00 -0.45593999997E+02  0.45594000000E+02  0.51100000000E-03 0. -1.
    9900012    2    1    2    0    0  0.12552037055E+02  0.37369190595E+02  0.21796864292E+02  0.46142319487E+02  0.10000015735E+02 0.  0.
         12    1    1    2    0    0 -0.12552037055E+02 -0.37369190595E+02 -0.21796864292E+02  0.45045680513E+02  0.00000000000E+00 0. -1.
         11    1    3    3    0    0 -0.55452613713E+00  0.14968048295E+00  0.25585168700E+00  0.62877963596E+00  0.51100000000E-03 0. -1.
        -11    1    3    3    0    0  0.40979218311E+01  0.19179786795E+02  0.77698836978E+01  0.21095693346E+02  0.51100000000E-03 0.  1.
        -12    1    3    3    0    0  0.90086413609E+01  0.18039723317E+02  0.13771128907E+02  0.24417846505E+02  0.00000000000E+00 0.  1.
</event>
<event>
 7    1  0.2227287E-008  0.4614231E+02  0.7816164E-02  0.1320468E+00
        -11   -1    0    0    0    0  0.00000000000E+00  0.00000000000E+00  0.45593999997E+02  0.45594000000E+02  0.51100000000E-03 0.  1.
         11   -1    0    0    0    0 -0.00000000000E+00 -0.00000000000E+00 -0.45593999997E+02  0.45594000000E+02  0.51100000000E-03 0. -1.
    9900012    2    1    2    0    0  0.37578179410E+02  0.20658930904E+02  0.13791409915E+02  0.46142312289E+02  0.99999501039E+01 0.  0.
         12    1    1    2    0    0 -0.37578179410E+02 -0.20658930904E+02 -0.13791409915E+02  0.45045687711E+02  0.00000000000E+00 0. -1.
         11    1    3    3    0    0  0.12409839010E+02  0.68500623823E+01  0.49047215075E+01  0.14999458397E+02  0.51100000000E-03 0. -1.
        -11    1    3    3    0    0  0.22042029367E+02  0.12709824557E+02  0.48190789503E+01  0.25896220208E+02  0.51100000000E-03 0.  1.
         12    1    3    3    0    0  0.31263110336E+01  0.10990439654E+01  0.40676094575E+01  0.52466336841E+01  0.00000000000E+00 0. -1.
</event>
<event>
 7    1  0.2227287E-008  0.4614232E+02  0.7816164E-02  0.1320468E+00
        -11   -1    0    0    0    0  0.00000000000E+00  0.00000000000E+00  0.45593999997E+02  0.45594000000E+02  0.51100000000E-03 0.  1.
         11   -1    0    0    0    0 -0.00000000000E+00 -0.00000000000E+00 -0.45593999997E+02  0.45594000000E+02  0.51100000000E-03 0. -1.
    9900012    2    1    2    0    0  0.41032373521E+02  0.94742875864E+01  0.15990486484E+02  0.46142318076E+02  0.10000002873E+02 0.  0.
         12    1    1    2    0    0 -0.41032373521E+02 -0.94742875864E+01 -0.15990486484E+02  0.45045681924E+02  0.00000000000E+00 0. -1.
         11    1    3    3    0    0  0.41359572570E+01 -0.44764112269E+00  0.24395548876E+01  0.48226500306E+01  0.51100000000E-03 0. -1.
        -11    1    3    3    0    0  0.20658379040E+02  0.16253216348E+01  0.85043615020E+01  0.22399429899E+02  0.51100000000E-03 0.  1.
        -12    1    3    3    0    0  0.16238037223E+02  0.82966070742E+01  0.50465700940E+01  0.18920238147E+02  0.00000000000E+00 0.  1.
</event>
<event>
 7    1  0.2227287E-008  0.4614232E+02  0.7816164E-02  0.1320468E+00
        -11   -1    0    0    0    0  0.00000000000E+00  0.00000000000E+00  0.45593999997E+02  0.45594000000E+02  0.51100000000E-03 0.  1.
         11   -1    0    0    0    0 -0.00000000000E+00 -0.00000000000E+00 -0.45593999997E+02  0.45594000000E+02  0.51100000000E-03 0. -1.
    9900012    2    1    2    0    0  0.68683556145E+01  0.44342380376E+02 -0.39613636859E+01  0.46142318647E+02  0.10000008079E+02 0.  0.
         12    1    1    2    0    0 -0.68683556145E+01 -0.44342380376E+02  0.39613636859E+01  0.45045681353E+02  0.00000000000E+00 0. -1.
         11    1    3    3    0    0 -0.62173733220E+00  0.15055538750E+01  0.27493584635E+00  0.16519200228E+01  0.51100000000E-03 0. -1.
        -11    1    3    3    0    0 -0.17288443054E+01  0.10512412322E+02 -0.43084715108E+00  0.10662332999E+02  0.51100000000E-03 0.  1.
        -12    1    3    3    0    0  0.92189372521E+01  0.32324414180E+02 -0.38054523811E+01  0.33828065625E+02  0.00000000000E+00 0.  1.
</event>
<event>
 7    1  0.2227287E-008  0.4614232E+02  0.7816164E-02  0.1320468E+00
        -11   -1    0    0    0    0  0.00000000000E+00  0.00000000000E+00  0.45593999997E+02  0.45594000000E+02  0.51100000000E-03 0. -1.
         11   -1    0    0    0    0 -0.00000000000E+00 -0.00000000000E+00 -0.45593999997E+02  0.45594000000E+02  0.51100000000E-03 0.  1.
    9900012    2    1    2    0    0  0.30912779726E+02 -0.86277799149E+01 -0.31608147206E+02  0.46142317561E+02  0.99999981713E+01 0.  0.
         12    1    1    2    0    0 -0.30912779726E+02  0.86277799149E+01  0.31608147206E+02  0.45045682439E+02  0.00000000000E+00 0. -1.
         11    1    3    3    0    0  0.36141956719E+01  0.20362471736E+01 -0.29376066903E+01  0.50831335056E+01  0.51100000000E-03 0. -1.
        -11    1    3    3    0    0  0.11713235928E+02 -0.51307678497E+01 -0.13866721598E+02  0.18862943640E+02  0.51100000000E-03 0.  1.
         12    1    3    3    0    0  0.15585348126E+02 -0.55332592389E+01 -0.14803818918E+02  0.22196240415E+02  0.00000000000E+00 0. -1.
</event>
<event>
 7    1  0.2227287E-008  0.4614232E+02  0.7816164E-02  0.1320468E+00
        -11   -1    0    0    0    0  0.00000000000E+00  0.00000000000E+00  0.45593999997E+02  0.45594000000E+02  0.51100000000E-03 0.  1.
         11   -1    0    0    0    0 -0.00000000000E+00 -0.00000000000E+00 -0.45593999997E+02  0.45594000000E+02  0.51100000000E-03 0. -1.
    9900012    2    1    2    0    0 -0.15131016679E+02 -0.55896138637E+01  0.42058552665E+02  0.46142319839E+02  0.10000018951E+02 0.  0.
         12    1    1    2    0    0  0.15131016679E+02  0.55896138637E+01 -0.42058552665E+02  0.45045680161E+02  0.00000000000E+00 0. -1.
         11    1    3    3    0    0 -0.18304008736E+01  0.27844333332E-01  0.99191140578E+01  0.10086623152E+02  0.51100000000E-03 0. -1.
        -11    1    3    3    0    0 -0.14242580500E+01 -0.19628837669E+01  0.13083413719E+02  0.13306281918E+02  0.51100000000E-03 0.  1.
         12    1    3    3    0    0 -0.11876357756E+02 -0.36545744300E+01  0.19056024888E+02  0.22749414769E+02  0.00000000000E+00 0. -1.
</event>
<event>
 7    1  0.2227287E-008  0.4614232E+02  0.7816164E-02  0.1320468E+00
        -11   -1    0    0    0    0  0.00000000000E+00  0.00000000000E+00  0.45593999997E+02  0.45594000000E+02  0.51100000000E-03 0. -1.
         11   -1    0    0    0    0 -0.00000000000E+00 -0.00000000000E+00 -0.45593999997E+02  0.45594000000E+02  0.51100000000E-03 0.  1.
    9900012    2    1    2    0    0 -0.92592981117E+01  0.42886205084E+02  0.10205505879E+02  0.46142317207E+02  0.99999949452E+01 0.  0.
         12    1    1    2    0    0  0.92592981117E+01 -0.42886205084E+02 -0.10205505879E+02  0.45045682793E+02  0.00000000000E+00 0. -1.
         11    1    3    3    0    0 -0.24010499903E+01  0.14390519516E+02 -0.12752510154E+00  0.14590008770E+02  0.51100000000E-03 0. -1.
        -11    1    3    3    0    0 -0.75084251786E+01  0.24608315620E+02  0.78718271302E+01  0.26905599955E+02  0.51100000000E-03 0.  1.
         12    1    3    3    0    0  0.65017705716E+00  0.38873699486E+01  0.24612038503E+01  0.46467084819E+01  0.00000000000E+00 0. -1.
</event>
<event>
 7    1  0.2227287E-008  0.4614232E+02  0.7816164E-02  0.1320468E+00
        -11   -1    0    0    0    0  0.00000000000E+00  0.00000000000E+00  0.45593999997E+02  0.45594000000E+02  0.51100000000E-03 0.  1.
         11   -1    0    0    0    0 -0.00000000000E+00 -0.00000000000E+00 -0.45593999997E+02  0.45594000000E+02  0.51100000000E-03 0. -1.
    9900012    2    1    2    0    0  0.33352023637E+02 -0.69667331491E+01  0.29465584642E+02  0.46142317301E+02  0.99999958077E+01 0.  0.
         12    1    1    2    0    0 -0.33352023637E+02  0.69667331491E+01 -0.29465584642E+02  0.45045682699E+02  0.00000000000E+00 0. -1.
         11    1    3    3    0    0  0.13078244346E+02 -0.66209099969E+01  0.13815374719E+02  0.20143026170E+02  0.51100000000E-03 0.  1.
        -11    1    3    3    0    0  0.13511210344E+02 -0.37102075612E+00  0.12946069397E+02  0.18716067280E+02  0.51100000000E-03 0. -1.
        -12    1    3    3    0    0  0.67625689470E+01  0.25197603888E-01  0.27041405258E+01  0.72832238511E+01  0.00000000000E+00 0.  1.
</event>
<event>
 7    1  0.2227287E-008  0.4614232E+02  0.7816164E-02  0.1320468E+00
        -11   -1    0    0    0    0  0.00000000000E+00  0.00000000000E+00  0.45593999997E+02  0.45594000000E+02  0.51100000000E-03 0.  1.
         11   -1    0    0    0    0 -0.00000000000E+00 -0.00000000000E+00 -0.45593999997E+02  0.45594000000E+02  0.51100000000E-03 0. -1.
    9900012    2    1    2    0    0 -0.27450087937E+02  0.25290197670E+02  0.25219279450E+02  0.46142317833E+02  0.10000000655E+02 0.  0.
         12    1    1    2    0    0  0.27450087937E+02 -0.25290197670E+02 -0.25219279450E+02  0.45045682167E+02  0.00000000000E+00 0. -1.
         11    1    3    3    0    0 -0.73209573057E+00  0.17570874172E+01  0.16520734215E+01  0.25204498015E+01  0.51100000000E-03 0. -1.
        -11    1    3    3    0    0 -0.17842515318E+02  0.18062377732E+02  0.20835378230E+02  0.32843840038E+02  0.51100000000E-03 0.  1.
         12    1    3    3    0    0 -0.88754768878E+01  0.54707325215E+01  0.27318277981E+01  0.10778027993E+02  0.00000000000E+00 0. -1.
</event>
<event>
 7    1  0.2227287E-008  0.4614232E+02  0.7816164E-02  0.1320468E+00
        -11   -1    0    0    0    0  0.00000000000E+00  0.00000000000E+00  0.45593999997E+02  0.45594000000E+02  0.51100000000E-03 0. -1.
         11   -1    0    0    0    0 -0.00000000000E+00 -0.00000000000E+00 -0.45593999997E+02  0.45594000000E+02  0.51100000000E-03 0.  1.
    9900012    2    1    2    0    0 -0.51044041386E+01 -0.31432620558E+02 -0.31859831362E+02  0.46142318396E+02  0.10000005788E+02 0.  0.
         12    1    1    2    0    0  0.51044041386E+01  0.31432620558E+02  0.31859831362E+02  0.45045681604E+02  0.00000000000E+00 0. -1.
         11    1    3    3    0    0  0.15751276627E+01 -0.77812636379E+01 -0.47938273129E+01  0.92741507171E+01  0.51100000000E-03 0. -1.
        -11    1    3    3    0    0  0.19042991278E+00 -0.47234469307E+01 -0.69524671999E+01  0.84073785977E+01  0.51100000000E-03 0.  1.
        -12    1    3    3    0    0 -0.68699617141E+01 -0.18927909990E+02 -0.20113536849E+02  0.28460789081E+02  0.00000000000E+00 0.  1.
</event>
<event>
 7    1  0.2227287E-008  0.4614232E+02  0.7816164E-02  0.1320468E+00
        -11   -1    0    0    0    0  0.00000000000E+00  0.00000000000E+00  0.45593999997E+02  0.45594000000E+02  0.51100000000E-03 0.  1.
         11   -1    0    0    0    0 -0.00000000000E+00 -0.00000000000E+00 -0.45593999997E+02  0.45594000000E+02  0.51100000000E-03 0. -1.
    9900012    2    1    2    0    0  0.60777978858E+01 -0.77872536644E+01  0.43949206063E+02  0.46142315852E+02  0.99999825929E+01 0.  0.
         12    1    1    2    0    0 -0.60777978858E+01  0.77872536644E+01 -0.43949206063E+02  0.45045684148E+02  0.00000000000E+00 0. -1.
         11    1    3    3    0    0  0.44466692087E+01 -0.23491242035E+01  0.69289473158E+01  0.85616331819E+01  0.51100000000E-03 0. -1.
        -11    1    3    3    0    0  0.46529426935E+00  0.33602384582E+00  0.35078968579E+01  0.35545395495E+01  0.51100000000E-03 0.  1.
         12    1    3    3    0    0  0.11658344078E+01 -0.57741533067E+01  0.33512361889E+02  0.34026143121E+02  0.00000000000E+00 0. -1.
</event>
<event>
 7    1  0.2227287E-008  0.4614232E+02  0.7816164E-02  0.1320468E+00
        -11   -1    0    0    0    0  0.00000000000E+00  0.00000000000E+00  0.45593999997E+02  0.45594000000E+02  0.51100000000E-03 0.  1.
         11   -1    0    0    0    0 -0.00000000000E+00 -0.00000000000E+00 -0.45593999997E+02  0.45594000000E+02  0.51100000000E-03 0. -1.
    9900012    2    1    2    0    0 -0.70703731992E+01  0.26701149597E+02  0.35583312001E+02  0.46142315857E+02  0.99999826377E+01 0.  0.
         12    1    1    2    0    0  0.70703731992E+01 -0.26701149597E+02 -0.35583312001E+02  0.45045684143E+02  0.00000000000E+00 0. -1.
         11    1    3    3    0    0 -0.44193453217E+01  0.54694315568E+01  0.10738178854E+02  0.12835644900E+02  0.51100000000E-03 0. -1.
        -11    1    3    3    0    0 -0.24937928240E+01  0.94494437289E+01  0.15240680521E+02  0.18104953257E+02  0.51100000000E-03 0.  1.
         12    1    3    3    0    0 -0.15723505359E+00  0.11782274311E+02  0.96044526250E+01  0.15201717700E+02  0.00000000000E+00 0. -1.
</event>
<event>
 7    1  0.2227287E-008  0.4614232E+02  0.7816164E-02  0.1320468E+00
        -11   -1    0    0    0    0  0.00000000000E+00  0.00000000000E+00  0.45593999997E+02  0.45594000000E+02  0.51100000000E-03 0. -1.
         11   -1    0    0    0    0 -0.00000000000E+00 -0.00000000000E+00 -0.45593999997E+02  0.45594000000E+02  0.51100000000E-03 0.  1.
    9900012    2    1    2    0    0 -0.27587548021E+02 -0.41116866027E+01 -0.35371382685E+02  0.46142317792E+02  0.10000000285E+02 0.  0.
         12    1    1    2    0    0  0.27587548021E+02  0.41116866027E+01  0.35371382685E+02  0.45045682208E+02  0.00000000000E+00 0. -1.
         11    1    3    3    0    0 -0.72737001674E+00  0.12996883813E+01 -0.16240544839E+01  0.22035903107E+01  0.51100000000E-03 0. -1.
        -11    1    3    3    0    0 -0.50836465483E+00  0.15435364484E+00 -0.30716387498E+01  0.31172463073E+01  0.51100000000E-03 0.  1.
        -12    1    3    3    0    0 -0.26351813349E+02 -0.55657286288E+01 -0.30675689451E+02  0.40821481174E+02  0.00000000000E+00 0.  1.
</event>
<event>
 7    1  0.2227287E-008  0.4614232E+02  0.7816164E-02  0.1320468E+00
        -11   -1    0    0    0    0  0.00000000000E+00  0.00000000000E+00  0.45593999997E+02  0.45594000000E+02  0.51100000000E-03 0.  1.
         11   -1    0    0    0    0 -0.00000000000E+00 -0.00000000000E+00 -0.45593999997E+02  0.45594000000E+02  0.51100000000E-03 0. -1.
    9900012    2    1    2    0    0  0.15507822134E+02  0.23854708088E+02  0.34922398399E+02  0.46142317019E+02  0.99999932366E+01 0.  0.
         12    1    1    2    0    0 -0.15507822134E+02 -0.23854708088E+02 -0.34922398399E+02  0.45045682981E+02  0.00000000000E+00 0. -1.
         11    1    3    3    0    0  0.20569541736E+01  0.49192065562E+01  0.79792313056E+01  0.95967591459E+01  0.51100000000E-03 0. -1.
        -11    1    3    3    0    0  0.10804696785E+02  0.16695317473E+02  0.26375299790E+02  0.33032280233E+02  0.51100000000E-03 0.  1.
         12    1    3    3    0    0  0.26461711755E+01  0.22401840587E+01  0.56786730338E+00  0.35132776407E+01  0.00000000000E+00 0. -1.
</event>
<event>
 7    1  0.2227287E-008  0.4614232E+02  0.7816164E-02  0.1320468E+00
        -11   -1    0    0    0    0  0.00000000000E+00  0.00000000000E+00  0.45593999997E+02  0.45594000000E+02  0.51100000000E-03 0.  1.
         11   -1    0    0    0    0 -0.00000000000E+00 -0.00000000000E+00 -0.45593999997E+02  0.45594000000E+02  0.51100000000E-03 0. -1.
    9900012    2    1    2    0    0 -0.35080078509E+02  0.37553117328E+01  0.28007127847E+02  0.46142317803E+02  0.10000000380E+02 0.  0.
         12    1    1    2    0    0  0.35080078509E+02 -0.37553117328E+01 -0.28007127847E+02  0.45045682197E+02  0.00000000000E+00 0. -1.
         11    1    3    3    0    0 -0.10773281593E+02 -0.27685037854E+01  0.90159051600E+01  0.14318336342E+02  0.51100000000E-03 0. -1.
        -11    1    3    3    0    0 -0.12669226198E+02  0.25102144084E+01  0.12190987434E+02  0.17760367218E+02  0.51100000000E-03 0.  1.
         12    1    3    3    0    0 -0.11637570718E+02  0.40136011097E+01  0.68002352529E+01  0.14063614243E+02  0.00000000000E+00 0. -1.
</event>
<event>
 7    1  0.2227287E-008  0.4614232E+02  0.7816164E-02  0.1320468E+00
        -11   -1    0    0    0    0  0.00000000000E+00  0.00000000000E+00  0.45593999997E+02  0.45594000000E+02  0.51100000000E-03 0.  1.
         11   -1    0    0    0    0 -0.00000000000E+00 -0.00000000000E+00 -0.45593999997E+02  0.45594000000E+02  0.51100000000E-03 0. -1.
    9900012    2    1    2    0    0 -0.42251832401E+01  0.38872108582E+02  0.22365609103E+02  0.46142317970E+02  0.10000001904E+02 0.  0.
         12    1    1    2    0    0  0.42251832401E+01 -0.38872108582E+02 -0.22365609103E+02  0.45045682030E+02  0.00000000000E+00 0. -1.
         11    1    3    3    0    0  0.18217153565E+01  0.60420113211E+01  0.11307460074E+01  0.64111726258E+01  0.51100000000E-03 0. -1.
        -11    1    3    3    0    0 -0.95662241644E+00  0.15113023608E+02  0.98556251864E+01  0.18067981545E+02  0.51100000000E-03 0.  1.
        -12    1    3    3    0    0 -0.50902761801E+01  0.17717073653E+02  0.11379237909E+02  0.21663163800E+02  0.00000000000E+00 0.  1.
</event>
<event>
 7    1  0.2227287E-008  0.4614232E+02  0.7816164E-02  0.1320468E+00
        -11   -1    0    0    0    0  0.00000000000E+00  0.00000000000E+00  0.45593999997E+02  0.45594000000E+02  0.51100000000E-03 0. -1.
         11   -1    0    0    0    0 -0.00000000000E+00 -0.00000000000E+00 -0.45593999997E+02  0.45594000000E+02  0.51100000000E-03 0.  1.
    9900012    2    1    2    0    0 -0.18385885860E+02 -0.18906286245E+02 -0.36518832163E+02  0.46142316955E+02  0.99999926489E+01 0.  0.
         12    1    1    2    0    0  0.18385885860E+02  0.18906286245E+02  0.36518832163E+02  0.45045683045E+02  0.00000000000E+00 0. -1.
         11    1    3    3    0    0 -0.16012314691E+01 -0.24261406446E+01 -0.10412295850E+02  0.10810458166E+02  0.51100000000E-03 0. -1.
        -11    1    3    3    0    0 -0.12133080975E+02 -0.98814969074E+01 -0.15768188282E+02  0.22214666259E+02  0.51100000000E-03 0.  1.
         12    1    3    3    0    0 -0.46515734162E+01 -0.65986486932E+01 -0.10338348032E+02  0.13117192529E+02  0.00000000000E+00 0. -1.
</event>
<event>
 7    1  0.2227287E-008  0.4614232E+02  0.7816164E-02  0.1320468E+00
        -11   -1    0    0    0    0  0.00000000000E+00  0.00000000000E+00  0.45593999997E+02  0.45594000000E+02  0.51100000000E-03 0.  1.
         11   -1    0    0    0    0 -0.00000000000E+00 -0.00000000000E+00 -0.45593999997E+02  0.45594000000E+02  0.51100000000E-03 0. -1.
    9900012    2    1    2    0    0  0.23624225685E+01  0.10623117012E+02  0.43711346538E+02  0.46142317947E+02  0.10000001692E+02 0.  0.
         12    1    1    2    0    0 -0.23624225685E+01 -0.10623117012E+02 -0.43711346538E+02  0.45045682053E+02  0.00000000000E+00 0. -1.
         11    1    3    3    0    0  0.21312432151E+01  0.54386448852E+00  0.58154363810E+01  0.62174984348E+01  0.51100000000E-03 0. -1.
        -11    1    3    3    0    0  0.32140643130E+01  0.16320827725E+01  0.11230016897E+02  0.11794370834E+02  0.51100000000E-03 0.  1.
         12    1    3    3    0    0 -0.29828849596E+01  0.84471697508E+01  0.26665893260E+02  0.28130448678E+02  0.00000000000E+00 0. -1.
</event>
<event>
 7    1  0.2227287E-008  0.4614232E+02  0.7816164E-02  0.1320468E+00
        -11   -1    0    0    0    0  0.00000000000E+00  0.00000000000E+00  0.45593999997E+02  0.45594000000E+02  0.51100000000E-03 0.  1.
         11   -1    0    0    0    0 -0.00000000000E+00 -0.00000000000E+00 -0.45593999997E+02  0.45594000000E+02  0.51100000000E-03 0. -1.
    9900012    2    1    2    0    0  0.39687108321E+02 -0.21307006775E+02 -0.24160942240E+00  0.46142317857E+02  0.10000000876E+02 0.  0.
         12    1    1    2    0    0 -0.39687108321E+02  0.21307006775E+02  0.24160942240E+00  0.45045682143E+02  0.00000000000E+00 0. -1.
         11    1    3    3    0    0  0.72158584692E+01 -0.10259621380E+01  0.13934432889E+01  0.74204377375E+01  0.51100000000E-03 0. -1.
        -11    1    3    3    0    0  0.75999131765E+00 -0.16763433953E+01 -0.61889022994E+00  0.19418391694E+01  0.51100000000E-03 0.  1.
        -12    1    3    3    0    0  0.31711258534E+02 -0.18604701242E+02 -0.10161624813E+01  0.36780040950E+02  0.00000000000E+00 0.  1.
</event>
<event>
 7    1  0.2227287E-008  0.4614231E+02  0.7816164E-02  0.1320468E+00
        -11   -1    0    0    0    0  0.00000000000E+00  0.00000000000E+00  0.45593999997E+02  0.45594000000E+02  0.51100000000E-03 0.  1.
         11   -1    0    0    0    0 -0.00000000000E+00 -0.00000000000E+00 -0.45593999997E+02  0.45594000000E+02  0.51100000000E-03 0. -1.
    9900012    2    1    2    0    0  0.27071429890E+02  0.31008812563E+02  0.18294943890E+02  0.46142314915E+02  0.99999740426E+01 0.  0.
         12    1    1    2    0    0 -0.27071429890E+02 -0.31008812563E+02 -0.18294943890E+02  0.45045685085E+02  0.00000000000E+00 0. -1.
         11    1    3    3    0    0  0.79020027196E+01  0.46028410586E+01  0.26198541061E+01  0.95126982813E+01  0.51100000000E-03 0. -1.
        -11    1    3    3    0    0  0.16036687638E+02  0.23131012398E+02  0.15412577564E+02  0.32089977133E+02  0.51100000000E-03 0.  1.
        -12    1    3    3    0    0  0.31327395331E+01  0.32749591058E+01  0.26251222009E+00  0.45396395003E+01  0.00000000000E+00 0.  1.
</event>
<event>
 7    1  0.2227287E-008  0.4614232E+02  0.7816164E-02  0.1320468E+00
        -11   -1    0    0    0    0  0.00000000000E+00  0.00000000000E+00  0.45593999997E+02  0.45594000000E+02  0.51100000000E-03 0.  1.
         11   -1    0    0    0    0 -0.00000000000E+00 -0.00000000000E+00 -0.45593999997E+02  0.45594000000E+02  0.51100000000E-03 0. -1.
    9900012    2    1    2    0    0 -0.39577099108E+02  0.10790212759E+02  0.18610159862E+02  0.46142317463E+02  0.99999972775E+01 0.  0.
         12    1    1    2    0    0  0.39577099108E+02 -0.10790212759E+02 -0.18610159862E+02  0.45045682537E+02  0.00000000000E+00 0. -1.
         11    1    3    3    0    0 -0.12012000833E+02  0.38419217659E+01  0.46690197446E+01  0.13447983957E+02  0.51100000000E-03 0. -1.
        -11    1    3    3    0    0 -0.27822282326E+02  0.75546467400E+01  0.13215569318E+02  0.31714402940E+02  0.51100000000E-03 0.  1.
         12    1    3    3    0    0  0.25718405102E+00 -0.60635574745E+00  0.72557079887E+00  0.97993056527E+00  0.00000000000E+00 0. -1.
</event>
<event>
 7    1  0.2227287E-008  0.4614232E+02  0.7816164E-02  0.1320468E+00
        -11   -1    0    0    0    0  0.00000000000E+00  0.00000000000E+00  0.45593999997E+02  0.45594000000E+02  0.51100000000E-03 0. -1.
         11   -1    0    0    0    0 -0.00000000000E+00 -0.00000000000E+00 -0.45593999997E+02  0.45594000000E+02  0.51100000000E-03 0.  1.
    9900012    2    1    2    0    0 -0.34323706896E+02  0.11455125341E+01 -0.29149347956E+02  0.46142317185E+02  0.99999947444E+01 0.  0.
         12    1    1    2    0    0  0.34323706896E+02 -0.11455125341E+01  0.29149347956E+02  0.45045682815E+02  0.00000000000E+00 0. -1.
         11    1    3    3    0    0 -0.46848230399E+01 -0.13696746275E+01 -0.54310524225E+01  0.73020480810E+01  0.51100000000E-03 0. -1.
        -11    1    3    3    0    0 -0.14679445315E+02 -0.18114563213E+01 -0.14658678750E+02  0.20824129075E+02  0.51100000000E-03 0.  1.
         12    1    3    3    0    0 -0.14959438541E+02  0.43266434828E+01 -0.90596167834E+01  0.18016140029E+02  0.00000000000E+00 0. -1.
</event>
<event>
 7    1  0.2227287E-008  0.4614232E+02  0.7816164E-02  0.1320468E+00
        -11   -1    0    0    0    0  0.00000000000E+00  0.00000000000E+00  0.45593999997E+02  0.45594000000E+02  0.51100000000E-03 0.  1.
         11   -1    0    0    0    0 -0.00000000000E+00 -0.00000000000E+00 -0.45593999997E+02  0.45594000000E+02  0.51100000000E-03 0. -1.
    9900012    2    1    2    0    0 -0.42133943629E+02 -0.88579905462E+01 -0.13243121709E+02  0.46142317911E+02  0.10000001365E+02 0.  0.
         12    1    1    2    0    0  0.42133943629E+02  0.88579905462E+01  0.13243121709E+02  0.45045682089E+02  0.00000000000E+00 0. -1.
         11    1    3    3    0    0 -0.11115929039E+01  0.61157188920E+00  0.16501949043E+00  0.12794102755E+01  0.51100000000E-03 0. -1.
        -11    1    3    3    0    0 -0.47387260336E+01 -0.20656666923E+01  0.73762963332E+00  0.52217431038E+01  0.51100000000E-03 0.  1.
        -12    1    3    3    0    0 -0.36283624692E+02 -0.74038957431E+01 -0.14145770833E+02  0.39641164532E+02  0.00000000000E+00 0.  1.
</event>
<event>
 7    1  0.2227287E-008  0.4614232E+02  0.7816164E-02  0.1320468E+00
        -11   -1    0    0    0    0  0.00000000000E+00  0.00000000000E+00  0.45593999997E+02  0.45594000000E+02  0.51100000000E-03 0.  1.
         11   -1    0    0    0    0 -0.00000000000E+00 -0.00000000000E+00 -0.45593999997E+02  0.45594000000E+02  0.51100000000E-03 0. -1.
    9900012    2    1    2    0    0  0.13989519422E+02  0.91163905737E+00  0.42808595734E+02  0.46142316431E+02  0.99999878744E+01 0.  0.
         12    1    1    2    0    0 -0.13989519422E+02 -0.91163905737E+00 -0.42808595734E+02  0.45045683569E+02  0.00000000000E+00 0. -1.
         11    1    3    3    0    0  0.17311407223E+01  0.11519002145E+01  0.37900316294E+01  0.43229691553E+01  0.51100000000E-03 0. -1.
        -11    1    3    3    0    0  0.85429192669E+01  0.47440157535E+00  0.35931579258E+02  0.36936227673E+02  0.51100000000E-03 0.  1.
         12    1    3    3    0    0  0.37154594325E+01 -0.71466273247E+00  0.30869848470E+01  0.48831196034E+01  0.00000000000E+00 0. -1.
</event>
<event>
 7    1  0.2227287E-008  0.4614232E+02  0.7816164E-02  0.1320468E+00
        -11   -1    0    0    0    0  0.00000000000E+00  0.00000000000E+00  0.45593999997E+02  0.45594000000E+02  0.51100000000E-03 0.  1.
         11   -1    0    0    0    0 -0.00000000000E+00 -0.00000000000E+00 -0.45593999997E+02  0.45594000000E+02  0.51100000000E-03 0. -1.
    9900012    2    1    2    0    0  0.13796402059E+02 -0.42780589141E+02  0.29315679488E+01  0.46142316437E+02  0.99999879247E+01 0.  0.
         12    1    1    2    0    0 -0.13796402059E+02  0.42780589141E+02 -0.29315679488E+01  0.45045683563E+02  0.00000000000E+00 0. -1.
         11    1    3    3    0    0 -0.11719884591E+01 -0.41571102660E+01  0.10265407447E+01  0.44394716886E+01  0.51100000000E-03 0.  1.
        -11    1    3    3    0    0  0.24529029085E+01 -0.59635938970E+01 -0.13084112895E+01  0.65797511511E+01  0.51100000000E-03 0. -1.
        -12    1    3    3    0    0  0.12515487610E+02 -0.32659884978E+02  0.32134384936E+01  0.35123093597E+02  0.00000000000E+00 0.  1.
</event>
<event>
 7    1  0.2227287E-008  0.4614231E+02  0.7816164E-02  0.1320468E+00
        -11   -1    0    0    0    0  0.00000000000E+00  0.00000000000E+00  0.45593999997E+02  0.45594000000E+02  0.51100000000E-03 0.  1.
         11   -1    0    0    0    0 -0.00000000000E+00 -0.00000000000E+00 -0.45593999997E+02  0.45594000000E+02  0.51100000000E-03 0. -1.
    9900012    2    1    2    0    0  0.18661481284E+02 -0.13174115456E+02  0.38824033297E+02  0.46142314710E+02  0.99999721805E+01 0.  0.
         12    1    1    2    0    0 -0.18661481284E+02  0.13174115456E+02 -0.38824033297E+02  0.45045685290E+02  0.00000000000E+00 0. -1.
         11    1    3    3    0    0  0.14072158479E+01  0.13076496487E+01  0.12345419341E+01  0.22834837627E+01  0.51100000000E-03 0.  1.
        -11    1    3    3    0    0  0.27976438925E+01 -0.32561204513E+01  0.72953709297E+01  0.84647249811E+01  0.51100000000E-03 0. -1.
        -12    1    3    3    0    0  0.14456621544E+02 -0.11225644654E+02  0.30294120433E+02  0.35394105966E+02  0.00000000000E+00 0.  1.
</event>
<event>
 7    1  0.2227287E-008  0.4614232E+02  0.7816164E-02  0.1320468E+00
        -11   -1    0    0    0    0  0.00000000000E+00  0.00000000000E+00  0.45593999997E+02  0.45594000000E+02  0.51100000000E-03 0. -1.
         11   -1    0    0    0    0 -0.00000000000E+00 -0.00000000000E+00 -0.45593999997E+02  0.45594000000E+02  0.51100000000E-03 0.  1.
    9900012    2    1    2    0    0  0.11889309747E+02 -0.36354793674E+02 -0.23792577142E+02  0.46142318338E+02  0.10000005258E+02 0.  0.
         12    1    1    2    0    0 -0.11889309747E+02  0.36354793674E+02  0.23792577142E+02  0.45045681662E+02  0.00000000000E+00 0. -1.
         11    1    3    3    0    0  0.17862847614E+01 -0.11072405504E+02 -0.26932501212E+01  0.11534408236E+02  0.51100000000E-03 0. -1.
        -11    1    3    3    0    0  0.11735404473E+01 -0.51890881523E+01 -0.54737260143E+01  0.76331847728E+01  0.51100000000E-03 0.  1.
         12    1    3    3    0    0  0.89294845384E+01 -0.20093300018E+02 -0.15625601007E+02  0.26974725329E+02  0.00000000000E+00 0. -1.
</event>
<event>
 7    1  0.2227287E-008  0.4614232E+02  0.7816164E-02  0.1320468E+00
        -11   -1    0    0    0    0  0.00000000000E+00  0.00000000000E+00  0.45593999997E+02  0.45594000000E+02  0.51100000000E-03 0.  1.
         11   -1    0    0    0    0 -0.00000000000E+00 -0.00000000000E+00 -0.45593999997E+02  0.45594000000E+02  0.51100000000E-03 0. -1.
    9900012    2    1    2    0    0 -0.42378655287E+02  0.46439229361E+01  0.14546371496E+02  0.46142319099E+02  0.10000012195E+02 0.  0.
         12    1    1    2    0    0  0.42378655287E+02 -0.46439229361E+01 -0.14546371496E+02  0.45045680901E+02  0.00000000000E+00 0. -1.
         11    1    3    3    0    0 -0.85532547943E+01  0.24608114172E+01 -0.28994544607E+00  0.89049328482E+01  0.51100000000E-03 0.  1.
        -11    1    3    3    0    0 -0.70372959829E+01 -0.95264129426E+00  0.20662823238E+01  0.73959842543E+01  0.51100000000E-03 0. -1.
        -12    1    3    3    0    0 -0.26788104510E+02  0.31357528132E+01  0.12770034619E+02  0.29841401996E+02  0.00000000000E+00 0.  1.
</event>
<event>
 7    1  0.2227287E-008  0.4614232E+02  0.7816164E-02  0.1320468E+00
        -11   -1    0    0    0    0  0.00000000000E+00  0.00000000000E+00  0.45593999997E+02  0.45594000000E+02  0.51100000000E-03 0.  1.
         11   -1    0    0    0    0 -0.00000000000E+00 -0.00000000000E+00 -0.45593999997E+02  0.45594000000E+02  0.51100000000E-03 0. -1.
    9900012    2    1    2    0    0  0.19629278796E+02  0.13266328133E+02  0.38312000785E+02  0.46142318162E+02  0.10000003652E+02 0.  0.
         12    1    1    2    0    0 -0.19629278796E+02 -0.13266328133E+02 -0.38312000785E+02  0.45045681838E+02  0.00000000000E+00 0. -1.
         11    1    3    3    0    0  0.58500317037E+01  0.78752762141E+00  0.59866691539E+01  0.84073348041E+01  0.51100000000E-03 0. -1.
        -11    1    3    3    0    0  0.62800595466E+01  0.69465881494E+01  0.10896963519E+02  0.14367952151E+02  0.51100000000E-03 0.  1.
         12    1    3    3    0    0  0.74991875455E+01  0.55322123620E+01  0.21428368112E+02  0.23367031206E+02  0.00000000000E+00 0. -1.
</event>
<event>
 7    1  0.2227287E-008  0.4614232E+02  0.7816164E-02  0.1320468E+00
        -11   -1    0    0    0    0  0.00000000000E+00  0.00000000000E+00  0.45593999997E+02  0.45594000000E+02  0.51100000000E-03 0.  1.
         11   -1    0    0    0    0 -0.00000000000E+00 -0.00000000000E+00 -0.45593999997E+02  0.45594000000E+02  0.51100000000E-03 0. -1.
    9900012    2    1    2    0    0 -0.34576023084E+02  0.11624084159E+02  0.26429011167E+02  0.46142319451E+02  0.10000015409E+02 0.  0.
         12    1    1    2    0    0  0.34576023084E+02 -0.11624084159E+02 -0.26429011167E+02  0.45045680549E+02  0.00000000000E+00 0. -1.
         11    1    3    3    0    0 -0.19262452477E+01  0.20000481822E+01  0.43515899040E+01  0.51620682327E+01  0.51100000000E-03 0. -1.
        -11    1    3    3    0    0 -0.24355619772E+02  0.93604795692E+01  0.18252196130E+02  0.31842698631E+02  0.51100000000E-03 0.  1.
        -12    1    3    3    0    0 -0.82941580638E+01  0.26355640786E+00  0.38252251335E+01  0.91375525875E+01  0.00000000000E+00 0.  1.
</event>
<event>
 7    1  0.2227287E-008  0.4614231E+02  0.7816164E-02  0.1320468E+00
        -11   -1    0    0    0    0  0.00000000000E+00  0.00000000000E+00  0.45593999997E+02  0.45594000000E+02  0.51100000000E-03 0.  1.
         11   -1    0    0    0    0 -0.00000000000E+00 -0.00000000000E+00 -0.45593999997E+02  0.45594000000E+02  0.51100000000E-03 0. -1.
    9900012    2    1    2    0    0  0.20958882085E+02 -0.31065758501E+02  0.24995154707E+02  0.46142313766E+02  0.99999635666E+01 0.  0.
         12    1    1    2    0    0 -0.20958882085E+02  0.31065758501E+02 -0.24995154707E+02  0.45045686234E+02  0.00000000000E+00 0. -1.
         11    1    3    3    0    0  0.27104676062E+01 -0.88680540438E+01  0.36366108924E+01  0.99606202724E+01  0.51100000000E-03 0. -1.
        -11    1    3    3    0    0  0.51789195315E+01 -0.64684564209E+01  0.92357644399E+01  0.12408121576E+02  0.51100000000E-03 0.  1.
        -12    1    3    3    0    0  0.13069494947E+02 -0.15729248037E+02  0.12122779375E+02  0.23773571918E+02  0.00000000000E+00 0.  1.
</event>
<event>
 7    1  0.2227287E-008  0.4614232E+02  0.7816164E-02  0.1320468E+00
        -11   -1    0    0    0    0  0.00000000000E+00  0.00000000000E+00  0.45593999997E+02  0.45594000000E+02  0.51100000000E-03 0.  1.
         11   -1    0    0    0    0 -0.00000000000E+00 -0.00000000000E+00 -0.45593999997E+02  0.45594000000E+02  0.51100000000E-03 0. -1.
    9900012    2    1    2    0    0 -0.41666301566E+02 -0.17929909808E+01  0.17024047171E+02  0.46142315579E+02  0.99999801046E+01 0.  0.
         12    1    1    2    0    0  0.41666301566E+02  0.17929909808E+01 -0.17024047171E+02  0.45045684421E+02  0.00000000000E+00 0. -1.
         11    1    3    3    0    0 -0.49585181198E+01 -0.78626534738E+00  0.29387942356E+01  0.58173556674E+01  0.51100000000E-03 0. -1.
        -11    1    3    3    0    0 -0.29185237266E+02 -0.25850390351E+01  0.14369299077E+02  0.32633376431E+02  0.51100000000E-03 0.  1.
         12    1    3    3    0    0 -0.75225461805E+01  0.15783134017E+01 -0.28404614157E+00  0.76915834808E+01  0.00000000000E+00 0. -1.
</event>
<event>
 7    1  0.2227287E-008  0.4614232E+02  0.7816164E-02  0.1320468E+00
        -11   -1    0    0    0    0  0.00000000000E+00  0.00000000000E+00  0.45593999997E+02  0.45594000000E+02  0.51100000000E-03 0.  1.
         11   -1    0    0    0    0 -0.00000000000E+00 -0.00000000000E+00 -0.45593999997E+02  0.45594000000E+02  0.51100000000E-03 0. -1.
    9900012    2    1    2    0    0 -0.43158045143E+02 -0.71556480023E+01  0.10737479769E+02  0.46142316181E+02  0.99999855956E+01 0.  0.
         12    1    1    2    0    0  0.43158045143E+02  0.71556480023E+01 -0.10737479769E+02  0.45045683819E+02  0.00000000000E+00 0. -1.
         11    1    3    3    0    0 -0.42465704978E+01  0.18198163185E+00  0.28921688306E+01  0.51411204142E+01  0.51100000000E-03 0. -1.
        -11    1    3    3    0    0 -0.31105318343E+02 -0.38472056502E+01  0.83493715452E+01  0.32435379234E+02  0.51100000000E-03 0.  1.
        -12    1    3    3    0    0 -0.78061563017E+01 -0.34904239839E+01 -0.50406060718E+00  0.85658165338E+01  0.00000000000E+00 0.  1.
</event>
<event>
 7    1  0.2227287E-008  0.4614232E+02  0.7816164E-02  0.1320468E+00
        -11   -1    0    0    0    0  0.00000000000E+00  0.00000000000E+00  0.45593999997E+02  0.45594000000E+02  0.51100000000E-03 0. -1.
         11   -1    0    0    0    0 -0.00000000000E+00 -0.00000000000E+00 -0.45593999997E+02  0.45594000000E+02  0.51100000000E-03 0.  1.
    9900012    2    1    2    0    0  0.21916341999E+02  0.28849302590E+02  0.26767613670E+02  0.46142318207E+02  0.10000004070E+02 0.  0.
         12    1    1    2    0    0 -0.21916341999E+02 -0.28849302590E+02 -0.26767613670E+02  0.45045681793E+02  0.00000000000E+00 0. -1.
         11    1    3    3    0    0  0.51362987010E+01  0.58048482897E+01  0.29829928362E+01  0.83051835942E+01  0.51100000000E-03 0.  1.
        -11    1    3    3    0    0  0.19711770703E+00  0.14570768856E+01  0.37790695341E+01  0.40550333224E+01  0.51100000000E-03 0. -1.
         12    1    3    3    0    0  0.16582925591E+02  0.21587377415E+02  0.20005551299E+02  0.33782101291E+02  0.00000000000E+00 0. -1.
</event>
<event>
 7    1  0.2227287E-008  0.4614232E+02  0.7816164E-02  0.1320468E+00
        -11   -1    0    0    0    0  0.00000000000E+00  0.00000000000E+00  0.45593999997E+02  0.45594000000E+02  0.51100000000E-03 0.  1.
         11   -1    0    0    0    0 -0.00000000000E+00 -0.00000000000E+00 -0.45593999997E+02  0.45594000000E+02  0.51100000000E-03 0. -1.
    9900012    2    1    2    0    0 -0.84404032110E+01 -0.24148601953E+02  0.37077190885E+02  0.46142318003E+02  0.10000002203E+02 0.  0.
         12    1    1    2    0    0  0.84404032110E+01  0.24148601953E+02 -0.37077190885E+02  0.45045681997E+02  0.00000000000E+00 0. -1.
         11    1    3    3    0    0  0.35402479006E-01  0.11970944176E+00  0.16630429748E+01  0.16677217643E+01  0.51100000000E-03 0. -1.
        -11    1    3    3    0    0 -0.77724190022E+01 -0.24733850630E+02  0.33330713324E+02  0.42226890900E+02  0.51100000000E-03 0.  1.
        -12    1    3    3    0    0 -0.70338668782E+00  0.46553923517E+00  0.20834345866E+01  0.22477053385E+01  0.00000000000E+00 0.  1.
</event>
<event>
 7    1  0.2227287E-008  0.4614232E+02  0.7816164E-02  0.1320468E+00
        -11   -1    0    0    0    0  0.00000000000E+00  0.00000000000E+00  0.45593999997E+02  0.45594000000E+02  0.51100000000E-03 0. -1.
         11   -1    0    0    0    0 -0.00000000000E+00 -0.00000000000E+00 -0.45593999997E+02  0.45594000000E+02  0.51100000000E-03 0.  1.
    9900012    2    1    2    0    0  0.36381082632E+02 -0.14632399300E+02 -0.22168064689E+02  0.46142319021E+02  0.10000011488E+02 0.  0.
         12    1    1    2    0    0 -0.36381082632E+02  0.14632399300E+02  0.22168064689E+02  0.45045680979E+02  0.00000000000E+00 0. -1.
         11    1    3    3    0    0  0.25207887603E+02 -0.90648538457E+01 -0.15768966428E+02  0.31084875343E+02  0.51100000000E-03 0. -1.
        -11    1    3    3    0    0  0.83702647306E+01 -0.20925684175E+01 -0.61319552486E+01  0.10584944481E+02  0.51100000000E-03 0.  1.
         12    1    3    3    0    0  0.28029302989E+01 -0.34749770373E+01 -0.26714301298E+00  0.44724991961E+01  0.00000000000E+00 0. -1.
</event>
<event>
 7    1  0.2227287E-008  0.4614232E+02  0.7816164E-02  0.1320468E+00
        -11   -1    0    0    0    0  0.00000000000E+00  0.00000000000E+00  0.45593999997E+02  0.45594000000E+02  0.51100000000E-03 0.  1.
         11   -1    0    0    0    0 -0.00000000000E+00 -0.00000000000E+00 -0.45593999997E+02  0.45594000000E+02  0.51100000000E-03 0. -1.
    9900012    2    1    2    0    0  0.40259885729E+02  0.15476383032E+01  0.20145964059E+02  0.46142318175E+02  0.10000003776E+02 0.  0.
         12    1    1    2    0    0 -0.40259885729E+02 -0.15476383032E+01 -0.20145964059E+02  0.45045681825E+02  0.00000000000E+00 0. -1.
         11    1    3    3    0    0  0.78068639281E+01 -0.20425421877E+01  0.41462377458E+01  0.90725074090E+01  0.51100000000E-03 0. -1.
        -11    1    3    3    0    0  0.12315196723E+02 -0.12382013022E+01  0.34252217737E+01  0.12842482519E+02  0.51100000000E-03 0.  1.
        -12    1    3    3    0    0  0.20137825078E+02  0.48283817930E+01  0.12574504539E+02  0.24227328247E+02  0.00000000000E+00 0.  1.
</event>
<event>
 7    1  0.2227287E-008  0.4614232E+02  0.7816164E-02  0.1320468E+00
        -11   -1    0    0    0    0  0.00000000000E+00  0.00000000000E+00  0.45593999997E+02  0.45594000000E+02  0.51100000000E-03 0.  1.
         11   -1    0    0    0    0 -0.00000000000E+00 -0.00000000000E+00 -0.45593999997E+02  0.45594000000E+02  0.51100000000E-03 0. -1.
    9900012    2    1    2    0    0 -0.17280990813E+02  0.12029558143E+02  0.39821736460E+02  0.46142316441E+02  0.99999879657E+01 0.  0.
         12    1    1    2    0    0  0.17280990813E+02 -0.12029558143E+02 -0.39821736460E+02  0.45045683559E+02  0.00000000000E+00 0. -1.
         11    1    3    3    0    0 -0.33332597169E+01  0.17554221707E+01  0.39771882564E+01  0.54781524281E+01  0.51100000000E-03 0. -1.
        -11    1    3    3    0    0 -0.72783241137E+01  0.53934118803E+01  0.27355963054E+02  0.28816863266E+02  0.51100000000E-03 0.  1.
        -12    1    3    3    0    0 -0.66694069820E+01  0.48807240925E+01  0.84885851491E+01  0.11847300747E+02  0.00000000000E+00 0.  1.
</event>
<event>
 7    1  0.2227287E-008  0.4614232E+02  0.7816164E-02  0.1320468E+00
        -11   -1    0    0    0    0  0.00000000000E+00  0.00000000000E+00  0.45593999997E+02  0.45594000000E+02  0.51100000000E-03 0.  1.
         11   -1    0    0    0    0 -0.00000000000E+00 -0.00000000000E+00 -0.45593999997E+02  0.45594000000E+02  0.51100000000E-03 0. -1.
    9900012    2    1    2    0    0 -0.25031850921E+02  0.16584627554E+02  0.33577821084E+02  0.46142317628E+02  0.99999987874E+01 0.  0.
         12    1    1    2    0    0  0.25031850921E+02 -0.16584627554E+02 -0.33577821084E+02  0.45045682372E+02  0.00000000000E+00 0. -1.
         11    1    3    3    0    0 -0.18122589367E+01  0.96079408575E+00  0.50464817853E-01  0.20518174109E+01  0.51100000000E-03 0. -1.
        -11    1    3    3    0    0 -0.18607597871E+02  0.93203704703E+01  0.23807126794E+02  0.31621057710E+02  0.51100000000E-03 0.  1.
         12    1    3    3    0    0 -0.46119941130E+01  0.63034629977E+01  0.97202294715E+01  0.12469442507E+02  0.00000000000E+00 0. -1.
</event>
<event>
 7    1  0.2227287E-008  0.4614232E+02  0.7816164E-02  0.1320468E+00
        -11   -1    0    0    0    0  0.00000000000E+00  0.00000000000E+00  0.45593999997E+02  0.45594000000E+02  0.51100000000E-03 0.  1.
         11   -1    0    0    0    0 -0.00000000000E+00 -0.00000000000E+00 -0.45593999997E+02  0.45594000000E+02  0.51100000000E-03 0. -1.
    9900012    2    1    2    0    0 -0.34346302179E+02 -0.23953677476E+01  0.29046638884E+02  0.46142317738E+02  0.99999997872E+01 0.  0.
         12    1    1    2    0    0  0.34346302179E+02  0.23953677476E+01 -0.29046638884E+02  0.45045682262E+02  0.00000000000E+00 0. -1.
         11    1    3    3    0    0 -0.33727937507E+01  0.90385925425E+00  0.59161346952E+01  0.68697415693E+01  0.51100000000E-03 0. -1.
        -11    1    3    3    0    0 -0.24884181956E+02 -0.21396660760E+00  0.17476787689E+02  0.30408985539E+02  0.51100000000E-03 0.  1.
        -12    1    3    3    0    0 -0.60893264723E+01 -0.30852603943E+01  0.56537164997E+01  0.88635906294E+01  0.00000000000E+00 0.  1.
</event>
<event>
 7    1  0.2227287E-008  0.4614232E+02  0.7816164E-02  0.1320468E+00
        -11   -1    0    0    0    0  0.00000000000E+00  0.00000000000E+00  0.45593999997E+02  0.45594000000E+02  0.51100000000E-03 0. -1.
         11   -1    0    0    0    0 -0.00000000000E+00 -0.00000000000E+00 -0.45593999997E+02  0.45594000000E+02  0.51100000000E-03 0.  1.
    9900012    2    1    2    0    0  0.36985483812E+02 -0.11054754356E+00 -0.25713331009E+02  0.46142316243E+02  0.99999861551E+01 0.  0.
         12    1    1    2    0    0 -0.36985483812E+02  0.11054754356E+00  0.25713331009E+02  0.45045683757E+02  0.00000000000E+00 0. -1.
         11    1    3    3    0    0  0.34913800218E+00 -0.84769744465E-01 -0.14233424939E+01  0.14679875239E+01  0.51100000000E-03 0. -1.
        -11    1    3    3    0    0  0.27985576039E+02 -0.95284012378E+00 -0.22179856361E+02  0.35721791654E+02  0.51100000000E-03 0.  1.
         12    1    3    3    0    0  0.86507697714E+01  0.92706232470E+00 -0.21101321537E+01  0.89525370649E+01  0.00000000000E+00 0. -1.
</event>
<event>
 7    1  0.2227287E-008  0.4614232E+02  0.7816164E-02  0.1320468E+00
        -11   -1    0    0    0    0  0.00000000000E+00  0.00000000000E+00  0.45593999997E+02  0.45594000000E+02  0.51100000000E-03 0.  1.
         11   -1    0    0    0    0 -0.00000000000E+00 -0.00000000000E+00 -0.45593999997E+02  0.45594000000E+02  0.51100000000E-03 0. -1.
    9900012    2    1    2    0    0 -0.17651709051E+02  0.26911091818E+02  0.31517038823E+02  0.46142318393E+02  0.10000005762E+02 0.  0.
         12    1    1    2    0    0  0.17651709051E+02 -0.26911091818E+02 -0.31517038823E+02  0.45045681607E+02  0.00000000000E+00 0. -1.
         11    1    3    3    0    0 -0.15069072298E+02  0.21474122843E+02  0.23497393916E+02  0.35218495324E+02  0.51100000000E-03 0. -1.
        -11    1    3    3    0    0 -0.83629426356E+00  0.52965030326E+01  0.45316733080E+01  0.70205694713E+01  0.51100000000E-03 0.  1.
        -12    1    3    3    0    0 -0.17463424895E+01  0.14046594276E+00  0.34879715990E+01  0.39032535976E+01  0.00000000000E+00 0.  1.
</event>
<event>
 7    1  0.2227287E-008  0.4614232E+02  0.7816164E-02  0.1320468E+00
        -11   -1    0    0    0    0  0.00000000000E+00  0.00000000000E+00  0.45593999997E+02  0.45594000000E+02  0.51100000000E-03 0. -1.
         11   -1    0    0    0    0 -0.00000000000E+00 -0.00000000000E+00 -0.45593999997E+02  0.45594000000E+02  0.51100000000E-03 0.  1.
    9900012    2    1    2    0    0 -0.20487564824E+02  0.39787555423E+02  0.51306261222E+01  0.46142320925E+02  0.10000028849E+02 0.  0.
         12    1    1    2    0    0  0.20487564824E+02 -0.39787555423E+02 -0.51306261222E+01  0.45045679075E+02  0.00000000000E+00 0. -1.
         11    1    3    3    0    0 -0.54529702408E+01  0.78451596339E+01  0.37003857982E+01  0.10245695167E+02  0.51100000000E-03 0. -1.
        -11    1    3    3    0    0 -0.52548422386E+01  0.18581678009E+02  0.82355291647E+00  0.19327968446E+02  0.51100000000E-03 0.  1.
         12    1    3    3    0    0 -0.97797523448E+01  0.13360717779E+02  0.60668740746E+00  0.16568657312E+02  0.00000000000E+00 0. -1.
</event>
<event>
 7    1  0.2227287E-008  0.4614232E+02  0.7816164E-02  0.1320468E+00
        -11   -1    0    0    0    0  0.00000000000E+00  0.00000000000E+00  0.45593999997E+02  0.45594000000E+02  0.51100000000E-03 0. -1.
         11   -1    0    0    0    0 -0.00000000000E+00 -0.00000000000E+00 -0.45593999997E+02  0.45594000000E+02  0.51100000000E-03 0.  1.
    9900012    2    1    2    0    0 -0.19953365757E+02 -0.39015944324E+02 -0.10427497256E+02  0.46142318569E+02  0.10000007371E+02 0.  0.
         12    1    1    2    0    0  0.19953365757E+02  0.39015944324E+02  0.10427497256E+02  0.45045681431E+02  0.00000000000E+00 0. -1.
         11    1    3    3    0    0 -0.89206377005E+01 -0.19184893633E+02 -0.29457985598E+01  0.21361546061E+02  0.51100000000E-03 0. -1.
        -11    1    3    3    0    0 -0.49658672212E+01 -0.14145798951E+02 -0.28408890585E+01  0.15258902848E+02  0.51100000000E-03 0.  1.
         12    1    3    3    0    0 -0.60668608353E+01 -0.56852517399E+01 -0.46408096379E+01  0.95218696607E+01  0.00000000000E+00 0. -1.
</event>
<event>
 7    1  0.2227287E-008  0.4614232E+02  0.7816164E-02  0.1320468E+00
        -11   -1    0    0    0    0  0.00000000000E+00  0.00000000000E+00  0.45593999997E+02  0.45594000000E+02  0.51100000000E-03 0. -1.
         11   -1    0    0    0    0 -0.00000000000E+00 -0.00000000000E+00 -0.45593999997E+02  0.45594000000E+02  0.51100000000E-03 0.  1.
    9900012    2    1    2    0    0  0.15599542018E+02 -0.20362550860E+01 -0.42209257326E+02  0.46142318187E+02  0.10000003886E+02 0.  0.
         12    1    1    2    0    0 -0.15599542018E+02  0.20362550860E+01  0.42209257326E+02  0.45045681813E+02  0.00000000000E+00 0. -1.
         11    1    3    3    0    0  0.34999879722E+01 -0.19111710229E+01 -0.64013160816E+01  0.75418391870E+01  0.51100000000E-03 0. -1.
        -11    1    3    3    0    0  0.21961387381E+01 -0.23848677605E+01 -0.16160343592E+02  0.16482333720E+02  0.51100000000E-03 0.  1.
         12    1    3    3    0    0  0.99034153072E+01  0.22597836975E+01 -0.19647597653E+02  0.22118145280E+02  0.00000000000E+00 0. -1.
</event>
<event>
 7    1  0.2227287E-008  0.4614232E+02  0.7816164E-02  0.1320468E+00
        -11   -1    0    0    0    0  0.00000000000E+00  0.00000000000E+00  0.45593999997E+02  0.45594000000E+02  0.51100000000E-03 0.  1.
         11   -1    0    0    0    0 -0.00000000000E+00 -0.00000000000E+00 -0.45593999997E+02  0.45594000000E+02  0.51100000000E-03 0. -1.
    9900012    2    1    2    0    0  0.37772675165E+02 -0.22049837290E+02  0.10776973179E+02  0.46142318026E+02  0.10000002417E+02 0.  0.
         12    1    1    2    0    0 -0.37772675165E+02  0.22049837290E+02 -0.10776973179E+02  0.45045681974E+02  0.00000000000E+00 0. -1.
         11    1    3    3    0    0  0.17391814344E+01 -0.77491728042E+00  0.21091015459E+01  0.28414007893E+01  0.51100000000E-03 0. -1.
        -11    1    3    3    0    0  0.21319623906E+02 -0.15089595474E+02  0.80348101027E+01  0.27327283596E+02  0.51100000000E-03 0.  1.
         12    1    3    3    0    0  0.14713869824E+02 -0.61853245349E+01  0.63306153019E+00  0.15973633641E+02  0.00000000000E+00 0. -1.
</event>
<event>
 7    1  0.2227287E-008  0.4614232E+02  0.7816164E-02  0.1320468E+00
        -11   -1    0    0    0    0  0.00000000000E+00  0.00000000000E+00  0.45593999997E+02  0.45594000000E+02  0.51100000000E-03 0. -1.
         11   -1    0    0    0    0 -0.00000000000E+00 -0.00000000000E+00 -0.45593999997E+02  0.45594000000E+02  0.51100000000E-03 0.  1.
    9900012    2    1    2    0    0  0.14667558394E+02  0.34999061611E+02 -0.24270185619E+02  0.46142317711E+02  0.99999995442E+01 0.  0.
         12    1    1    2    0    0 -0.14667558394E+02 -0.34999061611E+02  0.24270185619E+02  0.45045682289E+02  0.00000000000E+00 0. -1.
         11    1    3    3    0    0  0.71232198247E+01  0.10048831211E+02 -0.94304174401E+01  0.15512963699E+02  0.51100000000E-03 0. -1.
        -11    1    3    3    0    0  0.16383640966E+01  0.16250479394E+01 -0.30786599999E+01  0.38474881903E+01  0.51100000000E-03 0.  1.
         12    1    3    3    0    0  0.59059744727E+01  0.23325182460E+02 -0.11761108179E+02  0.26781865821E+02  0.00000000000E+00 0. -1.
</event>
<event>
 7    1  0.2227287E-008  0.4614232E+02  0.7816164E-02  0.1320468E+00
        -11   -1    0    0    0    0  0.00000000000E+00  0.00000000000E+00  0.45593999997E+02  0.45594000000E+02  0.51100000000E-03 0. -1.
         11   -1    0    0    0    0 -0.00000000000E+00 -0.00000000000E+00 -0.45593999997E+02  0.45594000000E+02  0.51100000000E-03 0.  1.
    9900012    2    1    2    0    0 -0.29022996204E+02 -0.11379464255E+02 -0.32515949576E+02  0.46142317718E+02  0.99999996113E+01 0.  0.
         12    1    1    2    0    0  0.29022996204E+02  0.11379464255E+02  0.32515949576E+02  0.45045682282E+02  0.00000000000E+00 0. -1.
         11    1    3    3    0    0 -0.74481413748E+01 -0.76620887922E+00 -0.78740902658E+01  0.10865688370E+02  0.51100000000E-03 0. -1.
        -11    1    3    3    0    0 -0.21235650421E+02 -0.94123092227E+01 -0.20601047237E+02  0.31047504911E+02  0.51100000000E-03 0.  1.
        -12    1    3    3    0    0 -0.33920440856E+00 -0.12009461527E+01 -0.40408120731E+01  0.42291244369E+01  0.00000000000E+00 0.  1.
</event>
<event>
 7    1  0.2227287E-008  0.4614232E+02  0.7816164E-02  0.1320468E+00
        -11   -1    0    0    0    0  0.00000000000E+00  0.00000000000E+00  0.45593999997E+02  0.45594000000E+02  0.51100000000E-03 0. -1.
         11   -1    0    0    0    0 -0.00000000000E+00 -0.00000000000E+00 -0.45593999997E+02  0.45594000000E+02  0.51100000000E-03 0.  1.
    9900012    2    1    2    0    0 -0.54940986050E+01  0.40193639179E+02 -0.19580595774E+02  0.46142317845E+02  0.10000000767E+02 0.  0.
         12    1    1    2    0    0  0.54940986050E+01 -0.40193639179E+02  0.19580595774E+02  0.45045682155E+02  0.00000000000E+00 0. -1.
         11    1    3    3    0    0  0.16686082966E+01  0.18015811004E+02 -0.78510538567E+01  0.19722899044E+02  0.51100000000E-03 0.  1.
        -11    1    3    3    0    0 -0.30417161995E+01  0.13279538115E+02 -0.86645524301E+01  0.16145359676E+02  0.51100000000E-03 0. -1.
         12    1    3    3    0    0 -0.41209907021E+01  0.88982900603E+01 -0.30649894877E+01  0.10274059126E+02  0.00000000000E+00 0. -1.
</event>
<event>
 7    1  0.2227287E-008  0.4614232E+02  0.7816164E-02  0.1320468E+00
        -11   -1    0    0    0    0  0.00000000000E+00  0.00000000000E+00  0.45593999997E+02  0.45594000000E+02  0.51100000000E-03 0.  1.
         11   -1    0    0    0    0 -0.00000000000E+00 -0.00000000000E+00 -0.45593999997E+02  0.45594000000E+02  0.51100000000E-03 0. -1.
    9900012    2    1    2    0    0  0.24779100577E+02 -0.23694191904E+02  0.29218058071E+02  0.46142317934E+02  0.10000001575E+02 0.  0.
         12    1    1    2    0    0 -0.24779100577E+02  0.23694191904E+02 -0.29218058071E+02  0.45045682066E+02  0.00000000000E+00 0. -1.
         11    1    3    3    0    0  0.23467154868E+01 -0.59411945737E+01  0.45935322325E+01  0.78679988034E+01  0.51100000000E-03 0.  1.
        -11    1    3    3    0    0  0.19587137051E+01 -0.15006624404E+01  0.16147457892E+00  0.24727760593E+01  0.51100000000E-03 0. -1.
        -12    1    3    3    0    0  0.20473671385E+02 -0.16252334890E+02  0.24463051259E+02  0.35801543071E+02  0.00000000000E+00 0.  1.
</event>
<event>
 7    1  0.2227287E-008  0.4614232E+02  0.7816164E-02  0.1320468E+00
        -11   -1    0    0    0    0  0.00000000000E+00  0.00000000000E+00  0.45593999997E+02  0.45594000000E+02  0.51100000000E-03 0.  1.
         11   -1    0    0    0    0 -0.00000000000E+00 -0.00000000000E+00 -0.45593999997E+02  0.45594000000E+02  0.51100000000E-03 0. -1.
    9900012    2    1    2    0    0  0.41166535970E+01  0.43526618172E+02  0.10844356726E+02  0.46142318751E+02  0.10000009029E+02 0.  0.
         12    1    1    2    0    0 -0.41166535970E+01 -0.43526618172E+02 -0.10844356726E+02  0.45045681249E+02  0.00000000000E+00 0. -1.
         11    1    3    3    0    0  0.75898494033E+00  0.14208505538E+01  0.17679345618E+01  0.23917498431E+01  0.51100000000E-03 0. -1.
        -11    1    3    3    0    0  0.19992047111E+01  0.37944807013E+02  0.99689536392E+01  0.39283396437E+02  0.51100000000E-03 0.  1.
        -12    1    3    3    0    0  0.13584639456E+01  0.41609606057E+01 -0.89253147449E+00  0.44671724711E+01  0.00000000000E+00 0.  1.
</event>
<event>
 7    1  0.2227287E-008  0.4614232E+02  0.7816164E-02  0.1320468E+00
        -11   -1    0    0    0    0  0.00000000000E+00  0.00000000000E+00  0.45593999997E+02  0.45594000000E+02  0.51100000000E-03 0.  1.
         11   -1    0    0    0    0 -0.00000000000E+00 -0.00000000000E+00 -0.45593999997E+02  0.45594000000E+02  0.51100000000E-03 0. -1.
    9900012    2    1    2    0    0  0.10223590074E+02 -0.19585901950E+02  0.39255373226E+02  0.46142315675E+02  0.99999809764E+01 0.  0.
         12    1    1    2    0    0 -0.10223590074E+02  0.19585901950E+02 -0.39255373226E+02  0.45045684325E+02  0.00000000000E+00 0. -1.
         11    1    3    3    0    0  0.16222789773E+01 -0.64572354560E+01  0.63382796051E+01  0.91924679727E+01  0.51100000000E-03 0. -1.
        -11    1    3    3    0    0  0.84130430308E+01 -0.12781006857E+02  0.27116527355E+02  0.31135823185E+02  0.51100000000E-03 0.  1.
         12    1    3    3    0    0  0.18826806629E+00 -0.34765963672E+00  0.58005662658E+01  0.58140245176E+01  0.00000000000E+00 0. -1.
</event>
<event>
 7    1  0.2227287E-008  0.4614232E+02  0.7816164E-02  0.1320468E+00
        -11   -1    0    0    0    0  0.00000000000E+00  0.00000000000E+00  0.45593999997E+02  0.45594000000E+02  0.51100000000E-03 0.  1.
         11   -1    0    0    0    0 -0.00000000000E+00 -0.00000000000E+00 -0.45593999997E+02  0.45594000000E+02  0.51100000000E-03 0. -1.
    9900012    2    1    2    0    0  0.46720558912E+00 -0.11759705802E+02  0.43481083003E+02  0.46142317180E+02  0.99999947032E+01 0.  0.
         12    1    1    2    0    0 -0.46720558912E+00  0.11759705802E+02 -0.43481083003E+02  0.45045682820E+02  0.00000000000E+00 0. -1.
         11    1    3    3    0    0  0.74538424385E+00  0.20401065444E+00  0.93623684872E+00  0.12139842322E+01  0.51100000000E-03 0. -1.
        -11    1    3    3    0    0  0.68767491259E+00 -0.15948976590E+00  0.14081873534E+02  0.14099556598E+02  0.51100000000E-03 0.  1.
        -12    1    3    3    0    0 -0.96585356731E+00 -0.11804226691E+02  0.28462972620E+02  0.30828776350E+02  0.00000000000E+00 0.  1.
</event>
<event>
 7    1  0.2227287E-008  0.4614232E+02  0.7816164E-02  0.1320468E+00
        -11   -1    0    0    0    0  0.00000000000E+00  0.00000000000E+00  0.45593999997E+02  0.45594000000E+02  0.51100000000E-03 0.  1.
         11   -1    0    0    0    0 -0.00000000000E+00 -0.00000000000E+00 -0.45593999997E+02  0.45594000000E+02  0.51100000000E-03 0. -1.
    9900012    2    1    2    0    0 -0.42158288854E+02 -0.14269261143E+02  0.69412027439E+01  0.46142318428E+02  0.10000006086E+02 0.  0.
         12    1    1    2    0    0  0.42158288854E+02  0.14269261143E+02 -0.69412027439E+01  0.45045681572E+02  0.00000000000E+00 0. -1.
         11    1    3    3    0    0 -0.14386270543E+02 -0.38987859989E+01  0.47710621071E+01  0.15650186781E+02  0.51100000000E-03 0. -1.
        -11    1    3    3    0    0 -0.17534582333E+02 -0.81743377970E+01  0.42732088032E+01  0.19812664882E+02  0.51100000000E-03 0.  1.
         12    1    3    3    0    0 -0.10237435979E+02 -0.21961373475E+01 -0.21030681664E+01  0.10679466765E+02  0.00000000000E+00 0. -1.
</event>
<event>
 7    1  0.2227287E-008  0.4614232E+02  0.7816164E-02  0.1320468E+00
        -11   -1    0    0    0    0  0.00000000000E+00  0.00000000000E+00  0.45593999997E+02  0.45594000000E+02  0.51100000000E-03 0. -1.
         11   -1    0    0    0    0 -0.00000000000E+00 -0.00000000000E+00 -0.45593999997E+02  0.45594000000E+02  0.51100000000E-03 0.  1.
    9900012    2    1    2    0    0 -0.10819180615E+02 -0.28334664529E+02  0.33304738850E+02  0.46142317488E+02  0.99999975051E+01 0.  0.
         12    1    1    2    0    0  0.10819180615E+02  0.28334664529E+02 -0.33304738850E+02  0.45045682512E+02  0.00000000000E+00 0. -1.
         11    1    3    3    0    0 -0.55729975567E+01 -0.11318479186E+02  0.88747696815E+01  0.15424908752E+02  0.51100000000E-03 0. -1.
        -11    1    3    3    0    0 -0.59729387835E+01 -0.13107502597E+02  0.21007617863E+02  0.25471604397E+02  0.51100000000E-03 0.  1.
        -12    1    3    3    0    0  0.72675572524E+00 -0.39086827460E+01  0.34223513058E+01  0.52458043381E+01  0.00000000000E+00 0.  1.
</event>
<event>
 7    1  0.2227287E-008  0.4614232E+02  0.7816164E-02  0.1320468E+00
        -11   -1    0    0    0    0  0.00000000000E+00  0.00000000000E+00  0.45593999997E+02  0.45594000000E+02  0.51100000000E-03 0.  1.
         11   -1    0    0    0    0 -0.00000000000E+00 -0.00000000000E+00 -0.45593999997E+02  0.45594000000E+02  0.51100000000E-03 0. -1.
    9900012    2    1    2    0    0 -0.14657422179E+02  0.99021139991E+00  0.42582777150E+02  0.46142318150E+02  0.10000003543E+02 0.  0.
         12    1    1    2    0    0  0.14657422179E+02 -0.99021139991E+00 -0.42582777150E+02  0.45045681850E+02  0.00000000000E+00 0. -1.
         11    1    3    3    0    0 -0.52554848045E+01  0.14555555876E+01  0.12002869985E+02  0.13183612963E+02  0.51100000000E-03 0. -1.
        -11    1    3    3    0    0 -0.56466804187E+01 -0.28580849993E+01  0.25162438417E+02  0.25946135685E+02  0.51100000000E-03 0.  1.
         12    1    3    3    0    0 -0.37552569557E+01  0.23927408116E+01  0.54174687477E+01  0.70125695025E+01  0.00000000000E+00 0. -1.
</event>
<event>
 7    1  0.2227287E-008  0.4614232E+02  0.7816164E-02  0.1320468E+00
        -11   -1    0    0    0    0  0.00000000000E+00  0.00000000000E+00  0.45593999997E+02  0.45594000000E+02  0.51100000000E-03 0. -1.
         11   -1    0    0    0    0 -0.00000000000E+00 -0.00000000000E+00 -0.45593999997E+02  0.45594000000E+02  0.51100000000E-03 0.  1.
    9900012    2    1    2    0    0  0.40854535889E+02 -0.17713082333E+02 -0.68019861409E+01  0.46142318699E+02  0.10000008549E+02 0.  0.
         12    1    1    2    0    0 -0.40854535889E+02  0.17713082333E+02  0.68019861409E+01  0.45045681301E+02  0.00000000000E+00 0. -1.
         11    1    3    3    0    0  0.11439514975E+01 -0.93080475615E+00  0.11405313206E+01  0.18643589990E+01  0.51100000000E-03 0. -1.
        -11    1    3    3    0    0  0.20811400595E+02 -0.61807342955E+01 -0.59874673964E+01  0.22520338302E+02  0.51100000000E-03 0.  1.
         12    1    3    3    0    0  0.18899183796E+02 -0.10601543281E+02 -0.19550500651E+01  0.21757621397E+02  0.00000000000E+00 0. -1.
</event>
<event>
 7    1  0.2227287E-008  0.4614232E+02  0.7816164E-02  0.1320468E+00
        -11   -1    0    0    0    0  0.00000000000E+00  0.00000000000E+00  0.45593999997E+02  0.45594000000E+02  0.51100000000E-03 0.  1.
         11   -1    0    0    0    0 -0.00000000000E+00 -0.00000000000E+00 -0.45593999997E+02  0.45594000000E+02  0.51100000000E-03 0. -1.
    9900012    2    1    2    0    0 -0.27506500366E+02  0.22679626077E+02  0.27534351576E+02  0.46142317431E+02  0.99999969887E+01 0.  0.
         12    1    1    2    0    0  0.27506500366E+02 -0.22679626077E+02 -0.27534351576E+02  0.45045682569E+02  0.00000000000E+00 0. -1.
         11    1    3    3    0    0 -0.13430456722E+02  0.12276482378E+02  0.18671750734E+02  0.26071506728E+02  0.51100000000E-03 0. -1.
        -11    1    3    3    0    0 -0.90829265240E+01  0.64150763659E+01  0.78241332130E+01  0.13596684148E+02  0.51100000000E-03 0.  1.
         12    1    3    3    0    0 -0.49931171196E+01  0.39880673337E+01  0.10384676289E+01  0.64741265546E+01  0.00000000000E+00 0. -1.
</event>
<event>
 7    1  0.2227287E-008  0.4614232E+02  0.7816164E-02  0.1320468E+00
        -11   -1    0    0    0    0  0.00000000000E+00  0.00000000000E+00  0.45593999997E+02  0.45594000000E+02  0.51100000000E-03 0.  1.
         11   -1    0    0    0    0 -0.00000000000E+00 -0.00000000000E+00 -0.45593999997E+02  0.45594000000E+02  0.51100000000E-03 0. -1.
    9900012    2    1    2    0    0 -0.24997967213E+02 -0.24174857135E+02  0.28631999973E+02  0.46142317579E+02  0.99999983390E+01 0.  0.
         12    1    1    2    0    0  0.24997967213E+02  0.24174857135E+02 -0.28631999973E+02  0.45045682421E+02  0.00000000000E+00 0. -1.
         11    1    3    3    0    0 -0.46163112204E+01 -0.70968002530E+01  0.73873450615E+01  0.11236003312E+02  0.51100000000E-03 0. -1.
        -11    1    3    3    0    0 -0.89738058769E+01 -0.10038450483E+02  0.14877782217E+02  0.20066092892E+02  0.51100000000E-03 0.  1.
         12    1    3    3    0    0 -0.11407850116E+02 -0.70396063995E+01  0.63668726952E+01  0.14840221375E+02  0.00000000000E+00 0. -1.
</event>
<event>
 7    1  0.2227287E-008  0.4614232E+02  0.7816164E-02  0.1320468E+00
        -11   -1    0    0    0    0  0.00000000000E+00  0.00000000000E+00  0.45593999997E+02  0.45594000000E+02  0.51100000000E-03 0.  1.
         11   -1    0    0    0    0 -0.00000000000E+00 -0.00000000000E+00 -0.45593999997E+02  0.45594000000E+02  0.51100000000E-03 0. -1.
    9900012    2    1    2    0    0  0.22843044919E+02  0.19052033359E+02  0.33827922978E+02  0.46142322635E+02  0.10000044441E+02 0.  0.
         12    1    1    2    0    0 -0.22843044919E+02 -0.19052033359E+02 -0.33827922978E+02  0.45045677365E+02  0.00000000000E+00 0. -1.
         11    1    3    3    0    0  0.71537298868E+01  0.26656722130E+01  0.10140502998E+02  0.12692968957E+02  0.51100000000E-03 0. -1.
        -11    1    3    3    0    0  0.11138658066E+02  0.14447302491E+02  0.21009884829E+02  0.27824620637E+02  0.51100000000E-03 0.  1.
        -12    1    3    3    0    0  0.45506569665E+01  0.19390586555E+01  0.26775351506E+01  0.56247330407E+01  0.00000000000E+00 0.  1.
</event>
<event>
 7    1  0.2227287E-008  0.4614232E+02  0.7816164E-02  0.1320468E+00
        -11   -1    0    0    0    0  0.00000000000E+00  0.00000000000E+00  0.45593999997E+02  0.45594000000E+02  0.51100000000E-03 0. -1.
         11   -1    0    0    0    0 -0.00000000000E+00 -0.00000000000E+00 -0.45593999997E+02  0.45594000000E+02  0.51100000000E-03 0.  1.
    9900012    2    1    2    0    0 -0.36338157160E+02  0.22910480472E+02 -0.13555875494E+02  0.46142317169E+02  0.99999946022E+01 0.  0.
         12    1    1    2    0    0  0.36338157160E+02 -0.22910480472E+02  0.13555875494E+02  0.45045682831E+02  0.00000000000E+00 0. -1.
         11    1    3    3    0    0 -0.22799709194E+02  0.11987123284E+02 -0.11685003793E+02  0.28285282001E+02  0.51100000000E-03 0.  1.
        -11    1    3    3    0    0 -0.19950204862E+01  0.30618893840E+01 -0.13013489154E+01  0.38792760408E+01  0.51100000000E-03 0. -1.
        -12    1    3    3    0    0 -0.11543427480E+02  0.78614678040E+01 -0.56952278585E+00  0.13977759127E+02  0.00000000000E+00 0.  1.
</event>
<event>
 7    1  0.2227287E-008  0.4614232E+02  0.7816164E-02  0.1320468E+00
        -11   -1    0    0    0    0  0.00000000000E+00  0.00000000000E+00  0.45593999997E+02  0.45594000000E+02  0.51100000000E-03 0.  1.
         11   -1    0    0    0    0 -0.00000000000E+00 -0.00000000000E+00 -0.45593999997E+02  0.45594000000E+02  0.51100000000E-03 0. -1.
    9900012    2    1    2    0    0 -0.24872494443E+02  0.17299888217E+02  0.33334463638E+02  0.46142316764E+02  0.99999909088E+01 0.  0.
         12    1    1    2    0    0  0.24872494443E+02 -0.17299888217E+02 -0.33334463638E+02  0.45045683236E+02  0.00000000000E+00 0. -1.
         11    1    3    3    0    0 -0.12762883631E+02  0.12036116366E+02  0.15974451012E+02  0.23726406832E+02  0.51100000000E-03 0. -1.
        -11    1    3    3    0    0 -0.13486469135E+01  0.26356630491E+01  0.50647819804E+01  0.58666502347E+01  0.51100000000E-03 0.  1.
         12    1    3    3    0    0 -0.10760963899E+02  0.26281088015E+01  0.12295230646E+02  0.16549259698E+02  0.00000000000E+00 0. -1.
</event>
<event>
 7    1  0.2227287E-008  0.4614232E+02  0.7816164E-02  0.1320468E+00
        -11   -1    0    0    0    0  0.00000000000E+00  0.00000000000E+00  0.45593999997E+02  0.45594000000E+02  0.51100000000E-03 0.  1.
         11   -1    0    0    0    0 -0.00000000000E+00 -0.00000000000E+00 -0.45593999997E+02  0.45594000000E+02  0.51100000000E-03 0. -1.
    9900012    2    1    2    0    0  0.29506175582E+02  0.27482064995E+02 -0.20080715970E+02  0.46142318212E+02  0.10000004112E+02 0.  0.
         12    1    1    2    0    0 -0.29506175582E+02 -0.27482064995E+02  0.20080715970E+02  0.45045681788E+02  0.00000000000E+00 0. -1.
         11    1    3    3    0    0  0.32630458537E+01  0.52272094461E+01 -0.46096441782E+01  0.76954536285E+01  0.51100000000E-03 0. -1.
        -11    1    3    3    0    0  0.20688346780E+02  0.16947443639E+02 -0.15195559404E+02  0.30759202919E+02  0.51100000000E-03 0.  1.
         12    1    3    3    0    0  0.55547829491E+01  0.53074119096E+01 -0.27551238807E+00  0.76876616644E+01  0.00000000000E+00 0. -1.
</event>
<event>
 7    1  0.2227287E-008  0.4614232E+02  0.7816164E-02  0.1320468E+00
        -11   -1    0    0    0    0  0.00000000000E+00  0.00000000000E+00  0.45593999997E+02  0.45594000000E+02  0.51100000000E-03 0.  1.
         11   -1    0    0    0    0 -0.00000000000E+00 -0.00000000000E+00 -0.45593999997E+02  0.45594000000E+02  0.51100000000E-03 0. -1.
    9900012    2    1    2    0    0 -0.95984488306E+01  0.39327166923E+02  0.19757461203E+02  0.46142317063E+02  0.99999936301E+01 0.  0.
         12    1    1    2    0    0  0.95984488306E+01 -0.39327166923E+02 -0.19757461203E+02  0.45045682937E+02  0.00000000000E+00 0. -1.
         11    1    3    3    0    0 -0.31130401366E+01  0.14980639514E+02  0.54975136375E+01  0.16258328192E+02  0.51100000000E-03 0. -1.
        -11    1    3    3    0    0 -0.32615945834E+01  0.14180408980E+02  0.40127220891E+01  0.15093837712E+02  0.51100000000E-03 0.  1.
         12    1    3    3    0    0 -0.32238141106E+01  0.10166118430E+02  0.10247225476E+02  0.14790151159E+02  0.00000000000E+00 0. -1.
</event>
<event>
 7    1  0.2227287E-008  0.4614232E+02  0.7816164E-02  0.1320468E+00
        -11   -1    0    0    0    0  0.00000000000E+00  0.00000000000E+00  0.45593999997E+02  0.45594000000E+02  0.51100000000E-03 0.  1.
         11   -1    0    0    0    0 -0.00000000000E+00 -0.00000000000E+00 -0.45593999997E+02  0.45594000000E+02  0.51100000000E-03 0. -1.
    9900012    2    1    2    0    0  0.25241581616E+02 -0.28460995755E+02  0.24123594224E+02  0.46142317409E+02  0.99999967862E+01 0.  0.
         12    1    1    2    0    0 -0.25241581616E+02  0.28460995755E+02 -0.24123594224E+02  0.45045682591E+02  0.00000000000E+00 0. -1.
         11    1    3    3    0    0  0.95868527867E+01 -0.14187558590E+02  0.14181318622E+02  0.22232956691E+02  0.51100000000E-03 0. -1.
        -11    1    3    3    0    0  0.76057508664E+01 -0.10065526788E+02  0.65413603483E+01  0.14210970101E+02  0.51100000000E-03 0.  1.
        -12    1    3    3    0    0  0.80489779625E+01 -0.42079103777E+01  0.34009152537E+01  0.96983906165E+01  0.00000000000E+00 0.  1.
</event>
<event>
 7    1  0.2227287E-008  0.4614232E+02  0.7816164E-02  0.1320468E+00
        -11   -1    0    0    0    0  0.00000000000E+00  0.00000000000E+00  0.45593999997E+02  0.45594000000E+02  0.51100000000E-03 0.  1.
         11   -1    0    0    0    0 -0.00000000000E+00 -0.00000000000E+00 -0.45593999997E+02  0.45594000000E+02  0.51100000000E-03 0. -1.
    9900012    2    1    2    0    0  0.32111060023E+02  0.18522999811E+02  0.25590845773E+02  0.46142322236E+02  0.10000040808E+02 0.  0.
         12    1    1    2    0    0 -0.32111060023E+02 -0.18522999811E+02 -0.25590845773E+02  0.45045677764E+02  0.00000000000E+00 0. -1.
         11    1    3    3    0    0  0.31371319612E+01  0.81443468717E+00  0.21148619664E+00  0.32480190077E+01  0.51100000000E-03 0. -1.
        -11    1    3    3    0    0  0.11119099827E+01  0.26596742395E+01  0.16309188527E+01  0.33121152509E+01  0.51100000000E-03 0.  1.
        -12    1    3    3    0    0  0.27862018079E+02  0.15048890885E+02  0.23748440723E+02  0.39582187978E+02  0.00000000000E+00 0.  1.
</event>
<event>
 7    1  0.2227287E-008  0.4614232E+02  0.7816164E-02  0.1320468E+00
        -11   -1    0    0    0    0  0.00000000000E+00  0.00000000000E+00  0.45593999997E+02  0.45594000000E+02  0.51100000000E-03 0.  1.
         11   -1    0    0    0    0 -0.00000000000E+00 -0.00000000000E+00 -0.45593999997E+02  0.45594000000E+02  0.51100000000E-03 0. -1.
    9900012    2    1    2    0    0  0.75381880858E+01 -0.42372605985E+02  0.13298549931E+02  0.46142318211E+02  0.10000004099E+02 0.  0.
         12    1    1    2    0    0 -0.75381880858E+01  0.42372605985E+02 -0.13298549931E+02  0.45045681789E+02  0.00000000000E+00 0. -1.
         11    1    3    3    0    0  0.38228174032E+01 -0.12389684969E+02  0.60520461918E+01  0.14308930425E+02  0.51100000000E-03 0. -1.
        -11    1    3    3    0    0  0.43488569367E+01 -0.28537574385E+02  0.81751917560E+01  0.30002324392E+02  0.51100000000E-03 0.  1.
         12    1    3    3    0    0 -0.63348625406E+00 -0.14453466317E+01 -0.92868801678E+00  0.18310633938E+01  0.00000000000E+00 0. -1.
</event>
<event>
 7    1  0.2227287E-008  0.4614232E+02  0.7816164E-02  0.1320468E+00
        -11   -1    0    0    0    0  0.00000000000E+00  0.00000000000E+00  0.45593999997E+02  0.45594000000E+02  0.51100000000E-03 0.  1.
         11   -1    0    0    0    0 -0.00000000000E+00 -0.00000000000E+00 -0.45593999997E+02  0.45594000000E+02  0.51100000000E-03 0. -1.
    9900012    2    1    2    0    0  0.27780636762E+02 -0.14509283330E+02  0.32354757301E+02  0.46142318723E+02  0.10000008774E+02 0.  0.
         12    1    1    2    0    0 -0.27780636762E+02  0.14509283330E+02 -0.32354757301E+02  0.45045681277E+02  0.00000000000E+00 0. -1.
         11    1    3    3    0    0  0.21492914216E+01 -0.90179589599E+00  0.39586669637E+01  0.45938800424E+01  0.51100000000E-03 0. -1.
        -11    1    3    3    0    0  0.79343892683E+01 -0.86606455433E+01  0.13493925497E+02  0.17889866960E+02  0.51100000000E-03 0.  1.
        -12    1    3    3    0    0  0.17696956072E+02 -0.49468418909E+01  0.14902164840E+02  0.23658571720E+02  0.00000000000E+00 0.  1.
</event>
<event>
 7    1  0.2227287E-008  0.4614232E+02  0.7816164E-02  0.1320468E+00
        -11   -1    0    0    0    0  0.00000000000E+00  0.00000000000E+00  0.45593999997E+02  0.45594000000E+02  0.51100000000E-03 0.  1.
         11   -1    0    0    0    0 -0.00000000000E+00 -0.00000000000E+00 -0.45593999997E+02  0.45594000000E+02  0.51100000000E-03 0. -1.
    9900012    2    1    2    0    0  0.43957632146E+02  0.86017568334E+01 -0.47801521963E+01  0.46142317638E+02  0.99999988734E+01 0.  0.
         12    1    1    2    0    0 -0.43957632146E+02 -0.86017568334E+01  0.47801521963E+01  0.45045682362E+02  0.00000000000E+00 0. -1.
         11    1    3    3    0    0  0.32663033965E+02  0.41416103369E+01 -0.71060967591E+01  0.33682685988E+02  0.51100000000E-03 0. -1.
        -11    1    3    3    0    0  0.83373683500E+01  0.27105518916E+01  0.12283227085E+01  0.88525464979E+01  0.51100000000E-03 0.  1.
         12    1    3    3    0    0  0.29572298307E+01  0.17495946049E+01  0.10976218543E+01  0.36070851512E+01  0.00000000000E+00 0. -1.
</event>
<event>
 7    1  0.2227287E-008  0.4614232E+02  0.7816164E-02  0.1320468E+00
        -11   -1    0    0    0    0  0.00000000000E+00  0.00000000000E+00  0.45593999997E+02  0.45594000000E+02  0.51100000000E-03 0.  1.
         11   -1    0    0    0    0 -0.00000000000E+00 -0.00000000000E+00 -0.45593999997E+02  0.45594000000E+02  0.51100000000E-03 0. -1.
    9900012    2    1    2    0    0  0.14307214416E+02  0.35352621243E+02  0.23971009138E+02  0.46142317719E+02  0.99999996131E+01 0.  0.
         12    1    1    2    0    0 -0.14307214416E+02 -0.35352621243E+02 -0.23971009138E+02  0.45045682281E+02  0.00000000000E+00 0. -1.
         11    1    3    3    0    0 -0.62026872534E+00  0.25486036597E+01  0.33812273139E+01  0.42793471833E+01  0.51100000000E-03 0. -1.
        -11    1    3    3    0    0  0.48140299396E+01  0.61173747550E+01  0.30215653613E+01  0.83502703936E+01  0.51100000000E-03 0.  1.
        -12    1    3    3    0    0  0.10113453201E+02  0.26686642829E+02  0.17568216463E+02  0.33512700142E+02  0.00000000000E+00 0.  1.
</event>
<event>
 7    1  0.2227287E-008  0.4614232E+02  0.7816164E-02  0.1320468E+00
        -11   -1    0    0    0    0  0.00000000000E+00  0.00000000000E+00  0.45593999997E+02  0.45594000000E+02  0.51100000000E-03 0. -1.
         11   -1    0    0    0    0 -0.00000000000E+00 -0.00000000000E+00 -0.45593999997E+02  0.45594000000E+02  0.51100000000E-03 0.  1.
    9900012    2    1    2    0    0 -0.32309537722E+02 -0.31267454882E+02 -0.27483687726E+01  0.46142317704E+02  0.99999994829E+01 0.  0.
         12    1    1    2    0    0  0.32309537722E+02  0.31267454882E+02  0.27483687726E+01  0.45045682296E+02  0.00000000000E+00 0. -1.
         11    1    3    3    0    0 -0.12067526835E+01 -0.28473359471E+01 -0.11974268741E+01  0.33162336188E+01  0.51100000000E-03 0. -1.
        -11    1    3    3    0    0 -0.16136465842E+02 -0.97245176357E+01 -0.23198822099E+00  0.18841592075E+02  0.51100000000E-03 0.  1.
        -12    1    3    3    0    0 -0.14966319196E+02 -0.18695601299E+02 -0.13189536775E+01  0.23984492011E+02  0.00000000000E+00 0.  1.
</event>
<event>
 7    1  0.2227287E-008  0.4614232E+02  0.7816164E-02  0.1320468E+00
        -11   -1    0    0    0    0  0.00000000000E+00  0.00000000000E+00  0.45593999997E+02  0.45594000000E+02  0.51100000000E-03 0.  1.
         11   -1    0    0    0    0 -0.00000000000E+00 -0.00000000000E+00 -0.45593999997E+02  0.45594000000E+02  0.51100000000E-03 0. -1.
    9900012    2    1    2    0    0 -0.37968229723E+02 -0.14968164808E+01  0.24192695997E+02  0.46142317993E+02  0.10000002114E+02 0.  0.
         12    1    1    2    0    0  0.37968229723E+02  0.14968164808E+01 -0.24192695997E+02  0.45045682007E+02  0.00000000000E+00 0. -1.
         11    1    3    3    0    0 -0.30924452651E+01 -0.19933422966E+01  0.18297615960E+01  0.41090946677E+01  0.51100000000E-03 0. -1.
        -11    1    3    3    0    0 -0.17526833540E+01 -0.13166637271E+01  0.26734272632E+01  0.34572700072E+01  0.51100000000E-03 0.  1.
        -12    1    3    3    0    0 -0.33123101104E+02  0.18131895430E+01  0.19689507137E+02  0.38575953318E+02  0.00000000000E+00 0.  1.
</event>
<event>
 7    1  0.2227287E-008  0.4614232E+02  0.7816164E-02  0.1320468E+00
        -11   -1    0    0    0    0  0.00000000000E+00  0.00000000000E+00  0.45593999997E+02  0.45594000000E+02  0.51100000000E-03 0.  1.
         11   -1    0    0    0    0 -0.00000000000E+00 -0.00000000000E+00 -0.45593999997E+02  0.45594000000E+02  0.51100000000E-03 0. -1.
    9900012    2    1    2    0    0  0.33750786630E+02  0.13276811507E+02  0.26715618892E+02  0.46142316358E+02  0.99999872078E+01 0.  0.
         12    1    1    2    0    0 -0.33750786630E+02 -0.13276811507E+02 -0.26715618892E+02  0.45045683642E+02  0.00000000000E+00 0. -1.
         11    1    3    3    0    0  0.10153743984E+02  0.27318618705E+01  0.97665382718E+01  0.14350848624E+02  0.51100000000E-03 0. -1.
        -11    1    3    3    0    0  0.13548691361E+02  0.29043967740E+01  0.11641670987E+02  0.18097819257E+02  0.51100000000E-03 0.  1.
         12    1    3    3    0    0  0.10048351286E+02  0.76405528621E+01  0.53074096337E+01  0.13693648477E+02  0.00000000000E+00 0. -1.
</event>
<event>
 7    1  0.2227287E-008  0.4614232E+02  0.7816164E-02  0.1320468E+00
        -11   -1    0    0    0    0  0.00000000000E+00  0.00000000000E+00  0.45593999997E+02  0.45594000000E+02  0.51100000000E-03 0.  1.
         11   -1    0    0    0    0 -0.00000000000E+00 -0.00000000000E+00 -0.45593999997E+02  0.45594000000E+02  0.51100000000E-03 0. -1.
    9900012    2    1    2    0    0  0.35819607585E+02 -0.27003878900E+02 -0.41060600818E+01  0.46142317715E+02  0.99999995767E+01 0.  0.
         12    1    1    2    0    0 -0.35819607585E+02  0.27003878900E+02  0.41060600818E+01  0.45045682285E+02  0.00000000000E+00 0. -1.
         11    1    3    3    0    0  0.85150236296E+01 -0.58534034858E+01 -0.38482826308E+01  0.11026206929E+02  0.51100000000E-03 0. -1.
        -11    1    3    3    0    0  0.24602196145E+02 -0.18565930471E+02  0.17513872921E+01  0.30871170809E+02  0.51100000000E-03 0.  1.
        -12    1    3    3    0    0  0.27023878102E+01 -0.25845449426E+01 -0.20091647431E+01  0.42449399763E+01  0.00000000000E+00 0.  1.
</event>
<event>
 7    1  0.2227287E-008  0.4614232E+02  0.7816164E-02  0.1320468E+00
        -11   -1    0    0    0    0  0.00000000000E+00  0.00000000000E+00  0.45593999997E+02  0.45594000000E+02  0.51100000000E-03 0.  1.
         11   -1    0    0    0    0 -0.00000000000E+00 -0.00000000000E+00 -0.45593999997E+02  0.45594000000E+02  0.51100000000E-03 0. -1.
    9900012    2    1    2    0    0  0.15762864815E+02 -0.22418519945E+02  0.35749902318E+02  0.46142318082E+02  0.10000002926E+02 0.  0.
         12    1    1    2    0    0 -0.15762864815E+02  0.22418519945E+02 -0.35749902318E+02  0.45045681918E+02  0.00000000000E+00 0. -1.
         11    1    3    3    0    0  0.23313200319E+01 -0.53788037715E+01  0.10565933418E+02  0.12083274902E+02  0.51100000000E-03 0. -1.
        -11    1    3    3    0    0 -0.21504901496E+00  0.58930630239E+00  0.54283791281E+00  0.82957896404E+00  0.51100000000E-03 0.  1.
        -12    1    3    3    0    0  0.13646593798E+02 -0.17629022476E+02  0.24641130987E+02  0.33229464216E+02  0.00000000000E+00 0.  1.
</event>
<event>
 7    1  0.2227287E-008  0.4614232E+02  0.7816164E-02  0.1320468E+00
        -11   -1    0    0    0    0  0.00000000000E+00  0.00000000000E+00  0.45593999997E+02  0.45594000000E+02  0.51100000000E-03 0. -1.
         11   -1    0    0    0    0 -0.00000000000E+00 -0.00000000000E+00 -0.45593999997E+02  0.45594000000E+02  0.51100000000E-03 0.  1.
    9900012    2    1    2    0    0  0.14889424236E+02 -0.31635860851E+02 -0.28400542728E+02  0.46142317930E+02  0.10000001542E+02 0.  0.
         12    1    1    2    0    0 -0.14889424236E+02  0.31635860851E+02  0.28400542728E+02  0.45045682070E+02  0.00000000000E+00 0. -1.
         11    1    3    3    0    0  0.55710501947E+01 -0.71136430564E+01 -0.11515074632E+02  0.14636852867E+02  0.51100000000E-03 0. -1.
        -11    1    3    3    0    0  0.72352266351E+01 -0.12984375981E+02 -0.90125769241E+01  0.17383010877E+02  0.51100000000E-03 0.  1.
        -12    1    3    3    0    0  0.20831474062E+01 -0.11537841813E+02 -0.78728911721E+01  0.14122454186E+02  0.00000000000E+00 0.  1.
</event>
<event>
 7    1  0.2227287E-008  0.4614232E+02  0.7816164E-02  0.1320468E+00
        -11   -1    0    0    0    0  0.00000000000E+00  0.00000000000E+00  0.45593999997E+02  0.45594000000E+02  0.51100000000E-03 0.  1.
         11   -1    0    0    0    0 -0.00000000000E+00 -0.00000000000E+00 -0.45593999997E+02  0.45594000000E+02  0.51100000000E-03 0. -1.
    9900012    2    1    2    0    0 -0.14739496483E+02 -0.18915519003E+02  0.38132189254E+02  0.46142317931E+02  0.10000001550E+02 0.  0.
         12    1    1    2    0    0  0.14739496483E+02  0.18915519003E+02 -0.38132189254E+02  0.45045682069E+02  0.00000000000E+00 0. -1.
         11    1    3    3    0    0 -0.20630846051E+01 -0.68543039127E-01  0.11706522140E+01  0.23730661818E+01  0.51100000000E-03 0. -1.
        -11    1    3    3    0    0 -0.24556860790E+01 -0.40415821973E+01  0.12798332574E+02  0.13644123193E+02  0.51100000000E-03 0.  1.
         12    1    3    3    0    0 -0.10220725799E+02 -0.14805393766E+02  0.24163204466E+02  0.30125128556E+02  0.00000000000E+00 0. -1.
</event>
<event>
 7    1  0.2227287E-008  0.4614232E+02  0.7816164E-02  0.1320468E+00
        -11   -1    0    0    0    0  0.00000000000E+00  0.00000000000E+00  0.45593999997E+02  0.45594000000E+02  0.51100000000E-03 0.  1.
         11   -1    0    0    0    0 -0.00000000000E+00 -0.00000000000E+00 -0.45593999997E+02  0.45594000000E+02  0.51100000000E-03 0. -1.
    9900012    2    1    2    0    0  0.19179449183E+02  0.30748982170E+02  0.26753734038E+02  0.46142318071E+02  0.10000002823E+02 0.  0.
         12    1    1    2    0    0 -0.19179449183E+02 -0.30748982170E+02 -0.26753734038E+02  0.45045681929E+02  0.00000000000E+00 0. -1.
         11    1    3    3    0    0  0.15128346530E+01  0.66534891676E+01  0.72451121805E+01  0.99523483439E+01  0.51100000000E-03 0. -1.
        -11    1    3    3    0    0  0.46156109352E+01  0.11250183738E+02  0.82253755042E+01  0.14680848099E+02  0.51100000000E-03 0.  1.
         12    1    3    3    0    0  0.13051003595E+02  0.12845309264E+02  0.11283246354E+02  0.21509121628E+02  0.00000000000E+00 0. -1.
</event>
<event>
 7    1  0.2227287E-008  0.4614232E+02  0.7816164E-02  0.1320468E+00
        -11   -1    0    0    0    0  0.00000000000E+00  0.00000000000E+00  0.45593999997E+02  0.45594000000E+02  0.51100000000E-03 0. -1.
         11   -1    0    0    0    0 -0.00000000000E+00 -0.00000000000E+00 -0.45593999997E+02  0.45594000000E+02  0.51100000000E-03 0.  1.
    9900012    2    1    2    0    0  0.16357855797E+02 -0.15072326366E+02 -0.39170892688E+02  0.46142319826E+02  0.10000018828E+02 0.  0.
         12    1    1    2    0    0 -0.16357855797E+02  0.15072326366E+02  0.39170892688E+02  0.45045680174E+02  0.00000000000E+00 0. -1.
         11    1    3    3    0    0  0.77176218546E+00 -0.30491984092E+01 -0.13503113341E+01  0.34229473805E+01  0.51100000000E-03 0. -1.
        -11    1    3    3    0    0  0.76945568859E+01 -0.71731126049E+01 -0.18179000732E+02  0.21003233512E+02  0.51100000000E-03 0.  1.
         12    1    3    3    0    0  0.78915367253E+01 -0.48500153515E+01 -0.19641580623E+02  0.21716138933E+02  0.00000000000E+00 0. -1.
</event>
<event>
 7    1  0.2227287E-008  0.4614232E+02  0.7816164E-02  0.1320468E+00
        -11   -1    0    0    0    0  0.00000000000E+00  0.00000000000E+00  0.45593999997E+02  0.45594000000E+02  0.51100000000E-03 0. -1.
         11   -1    0    0    0    0 -0.00000000000E+00 -0.00000000000E+00 -0.45593999997E+02  0.45594000000E+02  0.51100000000E-03 0.  1.
    9900012    2    1    2    0    0 -0.43740741288E+02 -0.28293393338E+01 -0.10385368497E+02  0.46142317762E+02  0.10000000010E+02 0.  0.
         12    1    1    2    0    0  0.43740741288E+02  0.28293393338E+01  0.10385368497E+02  0.45045682238E+02  0.00000000000E+00 0. -1.
         11    1    3    3    0    0 -0.14294154725E+02 -0.10948926523E+01 -0.27441239090E+01  0.14596296294E+02  0.51100000000E-03 0. -1.
        -11    1    3    3    0    0 -0.21592290256E+02 -0.40981819823E+01 -0.78595831911E+01  0.23340847077E+02  0.51100000000E-03 0.  1.
         12    1    3    3    0    0 -0.78542963064E+01  0.23637353008E+01  0.21833860319E+00  0.82051743910E+01  0.00000000000E+00 0. -1.
</event>
<event>
 7    1  0.2227287E-008  0.4614232E+02  0.7816164E-02  0.1320468E+00
        -11   -1    0    0    0    0  0.00000000000E+00  0.00000000000E+00  0.45593999997E+02  0.45594000000E+02  0.51100000000E-03 0. -1.
         11   -1    0    0    0    0 -0.00000000000E+00 -0.00000000000E+00 -0.45593999997E+02  0.45594000000E+02  0.51100000000E-03 0.  1.
    9900012    2    1    2    0    0  0.10564116164E+02  0.42061749237E+02 -0.12178760712E+02  0.46142317502E+02  0.99999976398E+01 0.  0.
         12    1    1    2    0    0 -0.10564116164E+02 -0.42061749237E+02  0.12178760712E+02  0.45045682498E+02  0.00000000000E+00 0. -1.
         11    1    3    3    0    0  0.63120438724E+01  0.13101881408E+02 -0.54952840871E+01  0.15546682660E+02  0.51100000000E-03 0. -1.
        -11    1    3    3    0    0  0.36968661936E+01  0.29056700996E+02 -0.66074908475E+01  0.30026948363E+02  0.51100000000E-03 0.  1.
         12    1    3    3    0    0  0.55520609813E+00 -0.96833166718E-01 -0.75985777009E-01  0.56868647943E+00  0.00000000000E+00 0. -1.
</event>
<event>
 7    1  0.2227287E-008  0.4614232E+02  0.7816164E-02  0.1320468E+00
        -11   -1    0    0    0    0  0.00000000000E+00  0.00000000000E+00  0.45593999997E+02  0.45594000000E+02  0.51100000000E-03 0.  1.
         11   -1    0    0    0    0 -0.00000000000E+00 -0.00000000000E+00 -0.45593999997E+02  0.45594000000E+02  0.51100000000E-03 0. -1.
    9900012    2    1    2    0    0  0.16434445747E+02 -0.95837115833E+01  0.40831053746E+02  0.46142317801E+02  0.10000000365E+02 0.  0.
         12    1    1    2    0    0 -0.16434445747E+02  0.95837115833E+01 -0.40831053746E+02  0.45045682199E+02  0.00000000000E+00 0. -1.
         11    1    3    3    0    0  0.26748117434E+01 -0.12506949563E+00  0.54055374988E+01  0.60324204225E+01  0.51100000000E-03 0. -1.
        -11    1    3    3    0    0  0.96273059960E+01 -0.16996410073E+01  0.21841017372E+02  0.23929142074E+02  0.51100000000E-03 0.  1.
         12    1    3    3    0    0  0.41323280074E+01 -0.77590010804E+01  0.13584498876E+02  0.16180755305E+02  0.00000000000E+00 0. -1.
</event>
<event>
 7    1  0.2227287E-008  0.4614232E+02  0.7816164E-02  0.1320468E+00
        -11   -1    0    0    0    0  0.00000000000E+00  0.00000000000E+00  0.45593999997E+02  0.45594000000E+02  0.51100000000E-03 0. -1.
         11   -1    0    0    0    0 -0.00000000000E+00 -0.00000000000E+00 -0.45593999997E+02  0.45594000000E+02  0.51100000000E-03 0.  1.
    9900012    2    1    2    0    0  0.21790307003E+02  0.30962257543E+02 -0.24405626146E+02  0.46142318087E+02  0.10000002971E+02 0.  0.
         12    1    1    2    0    0 -0.21790307003E+02 -0.30962257543E+02  0.24405626146E+02  0.45045681913E+02  0.00000000000E+00 0. -1.
         11    1    3    3    0    0  0.42328906078E+01  0.79537157785E+01 -0.29808886060E+01  0.94902399719E+01  0.51100000000E-03 0. -1.
        -11    1    3    3    0    0  0.14537068071E+02  0.13789415295E+02 -0.14451033355E+02  0.24704385999E+02  0.51100000000E-03 0.  1.
         12    1    3    3    0    0  0.30203483250E+01  0.92191264691E+01 -0.69737041843E+01  0.11947692116E+02  0.00000000000E+00 0. -1.
</event>
<event>
 7    1  0.2227287E-008  0.4614232E+02  0.7816164E-02  0.1320468E+00
        -11   -1    0    0    0    0  0.00000000000E+00  0.00000000000E+00  0.45593999997E+02  0.45594000000E+02  0.51100000000E-03 0.  1.
         11   -1    0    0    0    0 -0.00000000000E+00 -0.00000000000E+00 -0.45593999997E+02  0.45594000000E+02  0.51100000000E-03 0. -1.
    9900012    2    1    2    0    0  0.23286879368E+02  0.45716114436E+01  0.38287532299E+02  0.46142317505E+02  0.99999976665E+01 0.  0.
         12    1    1    2    0    0 -0.23286879368E+02 -0.45716114436E+01 -0.38287532299E+02  0.45045682495E+02  0.00000000000E+00 0. -1.
         11    1    3    3    0    0  0.11983378124E+02  0.16169416643E+01  0.24654692774E+02  0.27460330071E+02  0.51100000000E-03 0. -1.
        -11    1    3    3    0    0  0.99192749408E+01  0.21196682627E+01  0.13720847087E+02  0.17063020071E+02  0.51100000000E-03 0.  1.
         12    1    3    3    0    0  0.13842263031E+01  0.83500151664E+00 -0.88007561823E-01  0.16189673628E+01  0.00000000000E+00 0. -1.
</event>
<event>
 7    1  0.2227287E-008  0.4614232E+02  0.7816164E-02  0.1320468E+00
        -11   -1    0    0    0    0  0.00000000000E+00  0.00000000000E+00  0.45593999997E+02  0.45594000000E+02  0.51100000000E-03 0.  1.
         11   -1    0    0    0    0 -0.00000000000E+00 -0.00000000000E+00 -0.45593999997E+02  0.45594000000E+02  0.51100000000E-03 0. -1.
    9900012    2    1    2    0    0  0.14694585791E+02 -0.37496051560E+02  0.20179911893E+02  0.46142316764E+02  0.99999909062E+01 0.  0.
         12    1    1    2    0    0 -0.14694585791E+02  0.37496051560E+02 -0.20179911893E+02  0.45045683236E+02  0.00000000000E+00 0. -1.
         11    1    3    3    0    0  0.81515221899E+01 -0.20711418239E+02  0.13811693888E+02  0.26194904997E+02  0.51100000000E-03 0. -1.
        -11    1    3    3    0    0  0.13578645317E+01 -0.10855027192E+02  0.46406828935E+01  0.11883238170E+02  0.51100000000E-03 0.  1.
         12    1    3    3    0    0  0.51851990694E+01 -0.59296061294E+01  0.17275351118E+01  0.80641735970E+01  0.00000000000E+00 0. -1.
</event>
<event>
 7    1  0.2227287E-008  0.4614232E+02  0.7816164E-02  0.1320468E+00
        -11   -1    0    0    0    0  0.00000000000E+00  0.00000000000E+00  0.45593999997E+02  0.45594000000E+02  0.51100000000E-03 0. -1.
         11   -1    0    0    0    0 -0.00000000000E+00 -0.00000000000E+00 -0.45593999997E+02  0.45594000000E+02  0.51100000000E-03 0.  1.
    9900012    2    1    2    0    0 -0.14847004948E+02  0.39084583133E+02  0.16765297425E+02  0.46142318827E+02  0.10000009723E+02 0.  0.
         12    1    1    2    0    0  0.14847004948E+02 -0.39084583133E+02 -0.16765297425E+02  0.45045681173E+02  0.00000000000E+00 0. -1.
         11    1    3    3    0    0 -0.17301226514E+01  0.70194310884E+01  0.21454021355E+01  0.75411197960E+01  0.51100000000E-03 0. -1.
        -11    1    3    3    0    0 -0.70624137813E+01  0.25752586931E+02  0.13023415964E+02  0.29709977881E+02  0.51100000000E-03 0.  1.
         12    1    3    3    0    0 -0.60544685151E+01  0.63125651135E+01  0.15964793254E+01  0.88912211506E+01  0.00000000000E+00 0. -1.
</event>
<event>
 7    1  0.2498241E-008  0.4614232E+02  0.7816164E-02  0.1320468E+00
        -11   -1    0    0    0    0  0.00000000000E+00  0.00000000000E+00  0.45593999997E+02  0.45594000000E+02  0.51100000000E-03 0. -1.
         11   -1    0    0    0    0 -0.00000000000E+00 -0.00000000000E+00 -0.45593999997E+02  0.45594000000E+02  0.51100000000E-03 0.  1.
    9900012    2    1    2    0    0 -0.90949865512E+01  0.38534866231E+02 -0.21481590868E+02  0.46142318275E+02  0.10000004686E+02 0.  0.
         12    1    1    2    0    0  0.90949865512E+01 -0.38534866231E+02  0.21481590868E+02  0.45045681725E+02  0.00000000000E+00 0. -1.
         11    1    3    3    0    0 -0.31808524115E+00  0.85054697505E+01 -0.60081930471E+01  0.10418376930E+02  0.51100000000E-03 0. -1.
        -11    1    3    3    0    0 -0.29526729350E+01  0.22309570381E+02 -0.11455926333E+02  0.25252197062E+02  0.51100000000E-03 0.  1.
         12    1    3    3    0    0 -0.58242283750E+01  0.77198261000E+01 -0.40174714887E+01  0.10471744284E+02  0.00000000000E+00 0. -1.
</event>
<event>
 7    1  0.2227287E-008  0.4614232E+02  0.7816164E-02  0.1320468E+00
        -11   -1    0    0    0    0  0.00000000000E+00  0.00000000000E+00  0.45593999997E+02  0.45594000000E+02  0.51100000000E-03 0.  1.
         11   -1    0    0    0    0 -0.00000000000E+00 -0.00000000000E+00 -0.45593999997E+02  0.45594000000E+02  0.51100000000E-03 0. -1.
    9900012    2    1    2    0    0  0.61679081369E+01  0.10249597389E+02  0.43428286101E+02  0.46142319063E+02  0.10000011869E+02 0.  0.
         12    1    1    2    0    0 -0.61679081369E+01 -0.10249597389E+02 -0.43428286101E+02  0.45045680937E+02  0.00000000000E+00 0. -1.
         11    1    3    3    0    0  0.63113160873E+01  0.23575104205E+01  0.17704439070E+02  0.18943012674E+02  0.51100000000E-03 0. -1.
        -11    1    3    3    0    0 -0.60148389258E+00  0.43101527095E+01  0.19708712540E+02  0.20183472186E+02  0.51100000000E-03 0.  1.
         12    1    3    3    0    0  0.45807594221E+00  0.35819342586E+01  0.60151344921E+01  0.70158342027E+01  0.00000000000E+00 0. -1.
</event>
<event>
 7    1  0.2227287E-008  0.4614232E+02  0.7816164E-02  0.1320468E+00
        -11   -1    0    0    0    0  0.00000000000E+00  0.00000000000E+00  0.45593999997E+02  0.45594000000E+02  0.51100000000E-03 0. -1.
         11   -1    0    0    0    0 -0.00000000000E+00 -0.00000000000E+00 -0.45593999997E+02  0.45594000000E+02  0.51100000000E-03 0.  1.
    9900012    2    1    2    0    0 -0.47496952438E+01  0.42149211112E+02  0.15165682264E+02  0.46142317402E+02  0.99999967215E+01 0.  0.
         12    1    1    2    0    0  0.47496952438E+01 -0.42149211112E+02 -0.15165682264E+02  0.45045682598E+02  0.00000000000E+00 0. -1.
         11    1    3    3    0    0 -0.18529439776E+01  0.68175981908E+01  0.31534020368E+01  0.77367300031E+01  0.51100000000E-03 0. -1.
        -11    1    3    3    0    0 -0.28204519341E+01  0.13193505336E+02  0.61457244099E+00  0.13505600013E+02  0.51100000000E-03 0.  1.
        -12    1    3    3    0    0 -0.76299332064E-01  0.22138107585E+02  0.11397707786E+02  0.24899987386E+02  0.00000000000E+00 0.  1.
</event>
<event>
 7    1  0.2227287E-008  0.4614232E+02  0.7816164E-02  0.1320468E+00
        -11   -1    0    0    0    0  0.00000000000E+00  0.00000000000E+00  0.45593999997E+02  0.45594000000E+02  0.51100000000E-03 0. -1.
         11   -1    0    0    0    0 -0.00000000000E+00 -0.00000000000E+00 -0.45593999997E+02  0.45594000000E+02  0.51100000000E-03 0.  1.
    9900012    2    1    2    0    0  0.27191287504E+02 -0.21543705782E+02 -0.28733534601E+02  0.46142318902E+02  0.10000010402E+02 0.  0.
         12    1    1    2    0    0 -0.27191287504E+02  0.21543705782E+02  0.28733534601E+02  0.45045681098E+02  0.00000000000E+00 0. -1.
         11    1    3    3    0    0  0.16105402175E+02 -0.10269466503E+02 -0.13270793529E+02  0.23258544293E+02  0.51100000000E-03 0. -1.
        -11    1    3    3    0    0 -0.38797426618E+00 -0.16001347922E+01 -0.27967262906E+01  0.32454019150E+01  0.51100000000E-03 0.  1.
        -12    1    3    3    0    0  0.11473859595E+02 -0.96741044867E+01 -0.12666014781E+02  0.19638372694E+02  0.00000000000E+00 0.  1.
</event>
<event>
 7    1  0.2227287E-008  0.4614232E+02  0.7816164E-02  0.1320468E+00
        -11   -1    0    0    0    0  0.00000000000E+00  0.00000000000E+00  0.45593999997E+02  0.45594000000E+02  0.51100000000E-03 0.  1.
         11   -1    0    0    0    0 -0.00000000000E+00 -0.00000000000E+00 -0.45593999997E+02  0.45594000000E+02  0.51100000000E-03 0. -1.
    9900012    2    1    2    0    0  0.59449402561E+01  0.14717378733E+02  0.42156493397E+02  0.46142317776E+02  0.10000000139E+02 0.  0.
         12    1    1    2    0    0 -0.59449402561E+01 -0.14717378733E+02 -0.42156493397E+02  0.45045682224E+02  0.00000000000E+00 0. -1.
         11    1    3    3    0    0  0.44357767870E+01  0.10676619314E+02  0.25997784703E+02  0.28452611925E+02  0.51100000000E-03 0. -1.
        -11    1    3    3    0    0  0.23942439522E+01  0.41987722412E+01  0.16075929559E+02  0.16786828285E+02  0.51100000000E-03 0.  1.
         12    1    3    3    0    0 -0.88508048312E+00 -0.15801282152E+00  0.82779135904E-01  0.90287756574E+00  0.00000000000E+00 0. -1.
</event>
<event>
 7    1  0.2227287E-008  0.4614232E+02  0.7816164E-02  0.1320468E+00
        -11   -1    0    0    0    0  0.00000000000E+00  0.00000000000E+00  0.45593999997E+02  0.45594000000E+02  0.51100000000E-03 0. -1.
         11   -1    0    0    0    0 -0.00000000000E+00 -0.00000000000E+00 -0.45593999997E+02  0.45594000000E+02  0.51100000000E-03 0.  1.
    9900012    2    1    2    0    0 -0.86985840874E+00  0.44977330133E+00 -0.45035037889E+02  0.46142316663E+02  0.99999899833E+01 0.  0.
         12    1    1    2    0    0  0.86985840874E+00 -0.44977330133E+00  0.45035037889E+02  0.45045683337E+02  0.00000000000E+00 0. -1.
         11    1    3    3    0    0 -0.17156168984E+01  0.59584497915E+00 -0.94039998585E+01  0.95777651976E+01  0.51100000000E-03 0. -1.
        -11    1    3    3    0    0  0.10196707758E+01  0.36424026823E+01 -0.24843521176E+02  0.25129810395E+02  0.51100000000E-03 0.  1.
        -12    1    3    3    0    0 -0.17391228618E+00 -0.37884743601E+01 -0.10787516855E+02  0.11434741070E+02  0.00000000000E+00 0.  1.
</event>
<event>
 7    1  0.2227287E-008  0.4614232E+02  0.7816164E-02  0.1320468E+00
        -11   -1    0    0    0    0  0.00000000000E+00  0.00000000000E+00  0.45593999997E+02  0.45594000000E+02  0.51100000000E-03 0. -1.
         11   -1    0    0    0    0 -0.00000000000E+00 -0.00000000000E+00 -0.45593999997E+02  0.45594000000E+02  0.51100000000E-03 0.  1.
    9900012    2    1    2    0    0  0.26546471290E+02 -0.15959742391E+02 -0.32706039845E+02  0.46142316994E+02  0.99999930059E+01 0.  0.
         12    1    1    2    0    0 -0.26546471290E+02  0.15959742391E+02  0.32706039845E+02  0.45045683006E+02  0.00000000000E+00 0. -1.
         11    1    3    3    0    0  0.69696020997E+01 -0.61019838960E+01 -0.14233008074E+02  0.16981992816E+02  0.51100000000E-03 0. -1.
        -11    1    3    3    0    0  0.77834822677E+01 -0.56508906809E+01 -0.52841939482E+01  0.10974418784E+02  0.51100000000E-03 0.  1.
        -12    1    3    3    0    0  0.11793386922E+02 -0.42068678139E+01 -0.13188837823E+02  0.18185905394E+02  0.00000000000E+00 0.  1.
</event>
<event>
 7    1  0.2227287E-008  0.4614232E+02  0.7816164E-02  0.1320468E+00
        -11   -1    0    0    0    0  0.00000000000E+00  0.00000000000E+00  0.45593999997E+02  0.45594000000E+02  0.51100000000E-03 0.  1.
         11   -1    0    0    0    0 -0.00000000000E+00 -0.00000000000E+00 -0.45593999997E+02  0.45594000000E+02  0.51100000000E-03 0. -1.
    9900012    2    1    2    0    0  0.88552243743E+01 -0.43600850980E+02 -0.70472890775E+01  0.46142317763E+02  0.10000000014E+02 0.  0.
         12    1    1    2    0    0 -0.88552243743E+01  0.43600850980E+02  0.70472890775E+01  0.45045682237E+02  0.00000000000E+00 0. -1.
         11    1    3    3    0    0 -0.47304450923E+00 -0.23252415766E+00 -0.42343586567E+00  0.67611891341E+00  0.51100000000E-03 0. -1.
        -11    1    3    3    0    0  0.21425502231E+01 -0.67802220624E+01  0.15874009367E+01  0.72857240319E+01  0.51100000000E-03 0.  1.
        -12    1    3    3    0    0  0.71857186604E+01 -0.36588104760E+02 -0.82112541485E+01  0.38180474817E+02  0.00000000000E+00 0.  1.
</event>
<event>
 7    1  0.2227287E-008  0.4614232E+02  0.7816164E-02  0.1320468E+00
        -11   -1    0    0    0    0  0.00000000000E+00  0.00000000000E+00  0.45593999997E+02  0.45594000000E+02  0.51100000000E-03 0. -1.
         11   -1    0    0    0    0 -0.00000000000E+00 -0.00000000000E+00 -0.45593999997E+02  0.45594000000E+02  0.51100000000E-03 0.  1.
    9900012    2    1    2    0    0 -0.26632197740E+01  0.43663997254E+02  0.10745980516E+02  0.46142317709E+02  0.99999995275E+01 0.  0.
         12    1    1    2    0    0  0.26632197740E+01 -0.43663997254E+02 -0.10745980516E+02  0.45045682291E+02  0.00000000000E+00 0. -1.
         11    1    3    3    0    0 -0.35626973707E+01  0.20293973892E+02  0.34124546030E+01  0.20884995465E+02  0.51100000000E-03 0. -1.
        -11    1    3    3    0    0  0.75605500258E+00  0.16065580763E+02  0.19902812879E+01  0.16206039748E+02  0.51100000000E-03 0.  1.
         12    1    3    3    0    0  0.14342259410E+00  0.73044425990E+01  0.53432446246E+01  0.90512824970E+01  0.00000000000E+00 0. -1.
</event>
<event>
 7    1  0.2227287E-008  0.4614232E+02  0.7816164E-02  0.1320468E+00
        -11   -1    0    0    0    0  0.00000000000E+00  0.00000000000E+00  0.45593999997E+02  0.45594000000E+02  0.51100000000E-03 0.  1.
         11   -1    0    0    0    0 -0.00000000000E+00 -0.00000000000E+00 -0.45593999997E+02  0.45594000000E+02  0.51100000000E-03 0. -1.
    9900012    2    1    2    0    0 -0.10053957643E+02  0.19148008311E+02  0.39514367698E+02  0.46142317176E+02  0.99999946616E+01 0.  0.
         12    1    1    2    0    0  0.10053957643E+02 -0.19148008311E+02 -0.39514367698E+02  0.45045682824E+02  0.00000000000E+00 0. -1.
         11    1    3    3    0    0 -0.45977647935E+00 -0.53220598575E+00  0.28200600110E+01  0.29064370540E+01  0.51100000000E-03 0. -1.
        -11    1    3    3    0    0 -0.53315179042E+01  0.17019206838E+02  0.28194892095E+02  0.33362110621E+02  0.51100000000E-03 0.  1.
        -12    1    3    3    0    0 -0.42626632592E+01  0.26610074585E+01  0.84994155913E+01  0.98737695005E+01  0.00000000000E+00 0.  1.
</event>
<event>
 7    1  0.2227287E-008  0.4614232E+02  0.7816164E-02  0.1320468E+00
        -11   -1    0    0    0    0  0.00000000000E+00  0.00000000000E+00  0.45593999997E+02  0.45594000000E+02  0.51100000000E-03 0. -1.
         11   -1    0    0    0    0 -0.00000000000E+00 -0.00000000000E+00 -0.45593999997E+02  0.45594000000E+02  0.51100000000E-03 0.  1.
    9900012    2    1    2    0    0  0.12619517017E+02 -0.41419764469E+02  0.12420317506E+02  0.46142318905E+02  0.10000010430E+02 0.  0.
         12    1    1    2    0    0 -0.12619517017E+02  0.41419764469E+02 -0.12420317506E+02  0.45045681095E+02  0.00000000000E+00 0. -1.
         11    1    3    3    0    0  0.10774528319E+02 -0.38539474941E+02  0.12828721096E+02  0.42023299186E+02  0.51100000000E-03 0.  1.
        -11    1    3    3    0    0 -0.22323956036E+00  0.23549942980E+00 -0.18287725880E+00  0.37247850362E+00  0.51100000000E-03 0. -1.
        -12    1    3    3    0    0  0.20682282581E+01 -0.31157889574E+01 -0.22552633101E+00  0.37465412157E+01  0.00000000000E+00 0.  1.
</event>
<event>
 7    1  0.2227287E-008  0.4614232E+02  0.7816164E-02  0.1320468E+00
        -11   -1    0    0    0    0  0.00000000000E+00  0.00000000000E+00  0.45593999997E+02  0.45594000000E+02  0.51100000000E-03 0.  1.
         11   -1    0    0    0    0 -0.00000000000E+00 -0.00000000000E+00 -0.45593999997E+02  0.45594000000E+02  0.51100000000E-03 0. -1.
    9900012    2    1    2    0    0 -0.31697633382E+02  0.20450520830E+02  0.24620107231E+02  0.46142318250E+02  0.10000004457E+02 0.  0.
         12    1    1    2    0    0  0.31697633382E+02 -0.20450520830E+02 -0.24620107231E+02  0.45045681750E+02  0.00000000000E+00 0. -1.
         11    1    3    3    0    0 -0.65250453527E+01  0.64583709495E+01  0.42460410181E+01  0.10115119216E+02  0.51100000000E-03 0.  1.
        -11    1    3    3    0    0 -0.10267721709E+02  0.37709862312E+01  0.11576767255E+02  0.15926957857E+02  0.51100000000E-03 0. -1.
        -12    1    3    3    0    0 -0.14904866321E+02  0.10221163649E+02  0.87972989582E+01  0.20100241176E+02  0.00000000000E+00 0.  1.
</event>
<event>
 7    1  0.2227287E-008  0.4614232E+02  0.7816164E-02  0.1320468E+00
        -11   -1    0    0    0    0  0.00000000000E+00  0.00000000000E+00  0.45593999997E+02  0.45594000000E+02  0.51100000000E-03 0.  1.
         11   -1    0    0    0    0 -0.00000000000E+00 -0.00000000000E+00 -0.45593999997E+02  0.45594000000E+02  0.51100000000E-03 0. -1.
    9900012    2    1    2    0    0 -0.22224775770E+02  0.31581328079E+02  0.23190354482E+02  0.46142317830E+02  0.10000000624E+02 0.  0.
         12    1    1    2    0    0  0.22224775770E+02 -0.31581328079E+02 -0.23190354482E+02  0.45045682170E+02  0.00000000000E+00 0. -1.
         11    1    3    3    0    0 -0.45227203587E+01  0.11215850488E+02  0.79452462854E+01  0.14469873545E+02  0.51100000000E-03 0. -1.
        -11    1    3    3    0    0 -0.11524215191E+02  0.16952023829E+02  0.12968841234E+02  0.24256328884E+02  0.51100000000E-03 0.  1.
         12    1    3    3    0    0 -0.61778402195E+01  0.34134537614E+01  0.22762669621E+01  0.74161154010E+01  0.00000000000E+00 0. -1.
</event>
<event>
 7    1  0.2227287E-008  0.4614232E+02  0.7816164E-02  0.1320468E+00
        -11   -1    0    0    0    0  0.00000000000E+00  0.00000000000E+00  0.45593999997E+02  0.45594000000E+02  0.51100000000E-03 0. -1.
         11   -1    0    0    0    0 -0.00000000000E+00 -0.00000000000E+00 -0.45593999997E+02  0.45594000000E+02  0.51100000000E-03 0.  1.
    9900012    2    1    2    0    0 -0.99852859100E+01  0.42625775749E+02  0.10604281962E+02  0.46142317756E+02  0.99999999550E+01 0.  0.
         12    1    1    2    0    0  0.99852859100E+01 -0.42625775749E+02 -0.10604281962E+02  0.45045682244E+02  0.00000000000E+00 0. -1.
         11    1    3    3    0    0 -0.15933315296E+01  0.51791152716E+01  0.17542000275E+01  0.56955384607E+01  0.51100000000E-03 0.  1.
        -11    1    3    3    0    0 -0.43996874474E+01  0.18636979439E+02  0.91337041837E+01  0.21216003502E+02  0.51100000000E-03 0. -1.
        -12    1    3    3    0    0 -0.39922669331E+01  0.18809681038E+02 -0.28362224892E+00  0.19230775793E+02  0.00000000000E+00 0.  1.
</event>
<event>
 7    1  0.2227287E-008  0.4614231E+02  0.7816164E-02  0.1320468E+00
        -11   -1    0    0    0    0  0.00000000000E+00  0.00000000000E+00  0.45593999997E+02  0.45594000000E+02  0.51100000000E-03 0.  1.
         11   -1    0    0    0    0 -0.00000000000E+00 -0.00000000000E+00 -0.45593999997E+02  0.45594000000E+02  0.51100000000E-03 0. -1.
    9900012    2    1    2    0    0 -0.41826056795E+02  0.22742783577E+01  0.16568718093E+02  0.46142314432E+02  0.99999696440E+01 0.  0.
         12    1    1    2    0    0  0.41826056795E+02 -0.22742783577E+01 -0.16568718093E+02  0.45045685568E+02  0.00000000000E+00 0. -1.
         11    1    3    3    0    0 -0.16963718436E+01  0.25384336621E+00  0.28746552388E+01  0.33475000955E+01  0.51100000000E-03 0. -1.
        -11    1    3    3    0    0 -0.34853380241E+02  0.41105353722E+00  0.13141740035E+02  0.37250938386E+02  0.51100000000E-03 0.  1.
        -12    1    3    3    0    0 -0.52763047102E+01  0.16093814542E+01  0.55232281879E+00  0.55438759507E+01  0.00000000000E+00 0.  1.
</event>
<event>
 7    1  0.2227287E-008  0.4614232E+02  0.7816164E-02  0.1320468E+00
        -11   -1    0    0    0    0  0.00000000000E+00  0.00000000000E+00  0.45593999997E+02  0.45594000000E+02  0.51100000000E-03 0.  1.
         11   -1    0    0    0    0 -0.00000000000E+00 -0.00000000000E+00 -0.45593999997E+02  0.45594000000E+02  0.51100000000E-03 0. -1.
    9900012    2    1    2    0    0  0.58056865209E+01 -0.71089339282E+01  0.44100686073E+02  0.46142318191E+02  0.10000003919E+02 0.  0.
         12    1    1    2    0    0 -0.58056865209E+01  0.71089339282E+01 -0.44100686073E+02  0.45045681809E+02  0.00000000000E+00 0. -1.
         11    1    3    3    0    0  0.13562944086E+01 -0.66523527840E+01  0.15620643725E+02  0.17032258886E+02  0.51100000000E-03 0. -1.
        -11    1    3    3    0    0  0.10974940384E+01  0.15165190220E+01  0.13678742813E+02  0.13806242368E+02  0.51100000000E-03 0.  1.
         12    1    3    3    0    0  0.33518980738E+01 -0.19731001663E+01  0.14801299534E+02  0.15303816938E+02  0.00000000000E+00 0. -1.
</event>
<event>
 7    1  0.2227287E-008  0.4614232E+02  0.7816164E-02  0.1320468E+00
        -11   -1    0    0    0    0  0.00000000000E+00  0.00000000000E+00  0.45593999997E+02  0.45594000000E+02  0.51100000000E-03 0. -1.
         11   -1    0    0    0    0 -0.00000000000E+00 -0.00000000000E+00 -0.45593999997E+02  0.45594000000E+02  0.51100000000E-03 0.  1.
    9900012    2    1    2    0    0  0.17715987364E+02 -0.22757818322E+02 -0.34602586225E+02  0.46142317892E+02  0.10000001197E+02 0.  0.
         12    1    1    2    0    0 -0.17715987364E+02  0.22757818322E+02  0.34602586225E+02  0.45045682108E+02  0.00000000000E+00 0. -1.
         11    1    3    3    0    0  0.76135604855E+01 -0.11410140542E+02 -0.94279797346E+01  0.16644651171E+02  0.51100000000E-03 0. -1.
        -11    1    3    3    0    0  0.68058999313E+01 -0.91043968408E+01 -0.19269178218E+02  0.22372115349E+02  0.51100000000E-03 0.  1.
        -12    1    3    3    0    0  0.32965269471E+01 -0.22432809386E+01 -0.59054282725E+01  0.71255513727E+01  0.00000000000E+00 0.  1.
</event>
<event>
 7    1  0.2227287E-008  0.4614232E+02  0.7816164E-02  0.1320468E+00
        -11   -1    0    0    0    0  0.00000000000E+00  0.00000000000E+00  0.45593999997E+02  0.45594000000E+02  0.51100000000E-03 0.  1.
         11   -1    0    0    0    0 -0.00000000000E+00 -0.00000000000E+00 -0.45593999997E+02  0.45594000000E+02  0.51100000000E-03 0. -1.
    9900012    2    1    2    0    0  0.30164652416E+02  0.17333046080E+02  0.28614203873E+02  0.46142318686E+02  0.10000008429E+02 0.  0.
         12    1    1    2    0    0 -0.30164652416E+02 -0.17333046080E+02 -0.28614203873E+02  0.45045681314E+02  0.00000000000E+00 0. -1.
         11    1    3    3    0    0  0.45526894772E+01  0.15086593660E+01  0.75681886887E+01  0.89599394444E+01  0.51100000000E-03 0. -1.
        -11    1    3    3    0    0  0.72495830791E+01  0.75370164949E+01  0.82015761344E+01  0.13290181482E+02  0.51100000000E-03 0.  1.
         12    1    3    3    0    0  0.18362379860E+02  0.82873702189E+01  0.12844439050E+02  0.23892197759E+02  0.00000000000E+00 0. -1.
</event>
<event>
 7    1  0.2227287E-008  0.4614232E+02  0.7816164E-02  0.1320468E+00
        -11   -1    0    0    0    0  0.00000000000E+00  0.00000000000E+00  0.45593999997E+02  0.45594000000E+02  0.51100000000E-03 0. -1.
         11   -1    0    0    0    0 -0.00000000000E+00 -0.00000000000E+00 -0.45593999997E+02  0.45594000000E+02  0.51100000000E-03 0.  1.
    9900012    2    1    2    0    0  0.11232373969E+02  0.37168877033E+02 -0.22834663115E+02  0.46142317804E+02  0.10000000395E+02 0.  0.
         12    1    1    2    0    0 -0.11232373969E+02 -0.37168877033E+02  0.22834663115E+02  0.45045682196E+02  0.00000000000E+00 0. -1.
         11    1    3    3    0    0  0.59303914633E+01  0.13456716752E+02 -0.10944120164E+02  0.18331026569E+02  0.51100000000E-03 0. -1.
        -11    1    3    3    0    0  0.41127090087E+01  0.55625848909E+01 -0.39385240239E+01  0.79604458296E+01  0.51100000000E-03 0.  1.
         12    1    3    3    0    0  0.11892734966E+01  0.18149575390E+02 -0.79520189269E+01  0.19850845406E+02  0.00000000000E+00 0. -1.
</event>
<event>
 7    1  0.2227287E-008  0.4614232E+02  0.7816164E-02  0.1320468E+00
        -11   -1    0    0    0    0  0.00000000000E+00  0.00000000000E+00  0.45593999997E+02  0.45594000000E+02  0.51100000000E-03 0.  1.
         11   -1    0    0    0    0 -0.00000000000E+00 -0.00000000000E+00 -0.45593999997E+02  0.45594000000E+02  0.51100000000E-03 0. -1.
    9900012    2    1    2    0    0 -0.35851562840E+02  0.42249187318E+01  0.26943069568E+02  0.46142317697E+02  0.99999994191E+01 0.  0.
         12    1    1    2    0    0  0.35851562840E+02 -0.42249187318E+01 -0.26943069568E+02  0.45045682303E+02  0.00000000000E+00 0. -1.
         11    1    3    3    0    0 -0.93333502537E+01  0.81888676405E+00  0.51153146237E+01  0.10674663763E+02  0.51100000000E-03 0. -1.
        -11    1    3    3    0    0 -0.24836629470E+02  0.51559660731E+01  0.20908027120E+02  0.32872294533E+02  0.51100000000E-03 0.  1.
         12    1    3    3    0    0 -0.16815831164E+01 -0.17499341053E+01  0.91972782419E+00  0.25953594011E+01  0.00000000000E+00 0. -1.
</event>
<event>
 7    1  0.2227287E-008  0.4614231E+02  0.7816164E-02  0.1320468E+00
        -11   -1    0    0    0    0  0.00000000000E+00  0.00000000000E+00  0.45593999997E+02  0.45594000000E+02  0.51100000000E-03 0.  1.
         11   -1    0    0    0    0 -0.00000000000E+00 -0.00000000000E+00 -0.45593999997E+02  0.45594000000E+02  0.51100000000E-03 0. -1.
    9900012    2    1    2    0    0  0.10390884235E+02  0.12400238640E+02  0.42040188085E+02  0.46142314216E+02  0.99999676741E+01 0.  0.
         12    1    1    2    0    0 -0.10390884235E+02 -0.12400238640E+02 -0.42040188085E+02  0.45045685784E+02  0.00000000000E+00 0. -1.
         11    1    3    3    0    0  0.62556976227E-01  0.26793692394E+01  0.13120500932E+02  0.13391433003E+02  0.51100000000E-03 0. -1.
        -11    1    3    3    0    0  0.88472744088E+01  0.46876929289E+01  0.17033230816E+02  0.19758028286E+02  0.51100000000E-03 0.  1.
        -12    1    3    3    0    0  0.14810528500E+01  0.50331764721E+01  0.11886456337E+02  0.12992852927E+02  0.00000000000E+00 0.  1.
</event>
<event>
 7    1  0.2227287E-008  0.4614232E+02  0.7816164E-02  0.1320468E+00
        -11   -1    0    0    0    0  0.00000000000E+00  0.00000000000E+00  0.45593999997E+02  0.45594000000E+02  0.51100000000E-03 0. -1.
         11   -1    0    0    0    0 -0.00000000000E+00 -0.00000000000E+00 -0.45593999997E+02  0.45594000000E+02  0.51100000000E-03 0.  1.
    9900012    2    1    2    0    0  0.18259626825E+02  0.40794668683E+02 -0.56119908678E+01  0.46142318673E+02  0.10000008315E+02 0.  0.
         12    1    1    2    0    0 -0.18259626825E+02 -0.40794668683E+02  0.56119908678E+01  0.45045681327E+02  0.00000000000E+00 0. -1.
         11    1    3    3    0    0  0.29910825442E+01  0.13222736872E+02 -0.16738843966E+01  0.13659766997E+02  0.51100000000E-03 0.  1.
        -11    1    3    3    0    0  0.15350965918E+02  0.27921025971E+02 -0.40178876323E+01  0.32115094070E+02  0.51100000000E-03 0. -1.
         12    1    3    3    0    0 -0.82421637171E-01 -0.34909415965E+00  0.79781161098E-01  0.36745760605E+00  0.00000000000E+00 0. -1.
</event>
<event>
 7    1  0.2227287E-008  0.4614232E+02  0.7816164E-02  0.1320468E+00
        -11   -1    0    0    0    0  0.00000000000E+00  0.00000000000E+00  0.45593999997E+02  0.45594000000E+02  0.51100000000E-03 0.  1.
         11   -1    0    0    0    0 -0.00000000000E+00 -0.00000000000E+00 -0.45593999997E+02  0.45594000000E+02  0.51100000000E-03 0. -1.
    9900012    2    1    2    0    0  0.42949789249E+01  0.93957983280E+01  0.43845017777E+02  0.46142318142E+02  0.10000003470E+02 0.  0.
         12    1    1    2    0    0 -0.42949789249E+01 -0.93957983280E+01 -0.43845017777E+02  0.45045681858E+02  0.00000000000E+00 0. -1.
         11    1    3    3    0    0  0.21706336935E+01  0.38386786706E+00  0.63602016244E+01  0.67313572283E+01  0.51100000000E-03 0. -1.
        -11    1    3    3    0    0  0.37331128899E+01  0.96044726621E+01  0.29612995672E+02  0.31354609548E+02  0.51100000000E-03 0.  1.
         12    1    3    3    0    0 -0.16087676585E+01 -0.59254220111E+00  0.78718204806E+01  0.80563513651E+01  0.00000000000E+00 0. -1.
</event>
<event>
 7    1  0.2227287E-008  0.4614232E+02  0.7816164E-02  0.1320468E+00
        -11   -1    0    0    0    0  0.00000000000E+00  0.00000000000E+00  0.45593999997E+02  0.45594000000E+02  0.51100000000E-03 0.  1.
         11   -1    0    0    0    0 -0.00000000000E+00 -0.00000000000E+00 -0.45593999997E+02  0.45594000000E+02  0.51100000000E-03 0. -1.
    9900012    2    1    2    0    0 -0.17686071590E+02  0.17772863022E+02  0.37422476074E+02  0.46142317589E+02  0.99999984348E+01 0.  0.
         12    1    1    2    0    0  0.17686071590E+02 -0.17772863022E+02 -0.37422476074E+02  0.45045682411E+02  0.00000000000E+00 0. -1.
         11    1    3    3    0    0  0.78853085876E+00 -0.15722669583E+00  0.19210181294E+01  0.20825013959E+01  0.51100000000E-03 0. -1.
        -11    1    3    3    0    0 -0.18782353005E+01  0.34621877297E+01  0.38850224798E+01  0.55324417439E+01  0.51100000000E-03 0.  1.
        -12    1    3    3    0    0 -0.16596367149E+02  0.14467901988E+02  0.31616435465E+02  0.38527374450E+02  0.00000000000E+00 0.  1.
</event>
<event>
 7    1  0.2227287E-008  0.4614232E+02  0.7816164E-02  0.1320468E+00
        -11   -1    0    0    0    0  0.00000000000E+00  0.00000000000E+00  0.45593999997E+02  0.45594000000E+02  0.51100000000E-03 0. -1.
         11   -1    0    0    0    0 -0.00000000000E+00 -0.00000000000E+00 -0.45593999997E+02  0.45594000000E+02  0.51100000000E-03 0.  1.
    9900012    2    1    2    0    0 -0.11975523908E+02  0.21483837722E+02 -0.37737845383E+02  0.46142318406E+02  0.10000005881E+02 0.  0.
         12    1    1    2    0    0  0.11975523908E+02 -0.21483837722E+02  0.37737845383E+02  0.45045681594E+02  0.00000000000E+00 0. -1.
         11    1    3    3    0    0  0.85789871942E+00  0.51470442414E+00 -0.13050157605E+01  0.16443774668E+01  0.51100000000E-03 0. -1.
        -11    1    3    3    0    0 -0.15720229316E+01  0.97013150808E+00 -0.59528750617E+00  0.19408190839E+01  0.51100000000E-03 0.  1.
        -12    1    3    3    0    0 -0.11261399695E+02  0.19999001789E+02 -0.35837542116E+02  0.42557121855E+02  0.00000000000E+00 0.  1.
</event>
<event>
 7    1  0.2227287E-008  0.4614232E+02  0.7816164E-02  0.1320468E+00
        -11   -1    0    0    0    0  0.00000000000E+00  0.00000000000E+00  0.45593999997E+02  0.45594000000E+02  0.51100000000E-03 0. -1.
         11   -1    0    0    0    0 -0.00000000000E+00 -0.00000000000E+00 -0.45593999997E+02  0.45594000000E+02  0.51100000000E-03 0.  1.
    9900012    2    1    2    0    0  0.31833632360E+02 -0.31861011196E+02  0.78058699619E+00  0.46142317636E+02  0.99999988558E+01 0.  0.
         12    1    1    2    0    0 -0.31833632360E+02  0.31861011196E+02 -0.78058699619E+00  0.45045682364E+02  0.00000000000E+00 0. -1.
         11    1    3    3    0    0  0.25472356659E+02 -0.21215436636E+02  0.30673123763E+00  0.33151618207E+02  0.51100000000E-03 0. -1.
        -11    1    3    3    0    0  0.53908531991E+01 -0.63471723981E+01  0.15114840137E+01  0.84635973351E+01  0.51100000000E-03 0.  1.
         12    1    3    3    0    0  0.97042250192E+00 -0.42984021614E+01 -0.10376282551E+01  0.45271020940E+01  0.00000000000E+00 0. -1.
</event>
<event>
 7    1  0.2227287E-008  0.4614232E+02  0.7816164E-02  0.1320468E+00
        -11   -1    0    0    0    0  0.00000000000E+00  0.00000000000E+00  0.45593999997E+02  0.45594000000E+02  0.51100000000E-03 0.  1.
         11   -1    0    0    0    0 -0.00000000000E+00 -0.00000000000E+00 -0.45593999997E+02  0.45594000000E+02  0.51100000000E-03 0. -1.
    9900012    2    1    2    0    0 -0.37179537485E+01  0.22983651305E+01  0.44833111921E+02  0.46142316667E+02  0.99999900257E+01 0.  0.
         12    1    1    2    0    0  0.37179537485E+01 -0.22983651305E+01 -0.44833111921E+02  0.45045683333E+02  0.00000000000E+00 0. -1.
         11    1    3    3    0    0 -0.53842971484E+01 -0.40180963806E+00  0.19068769892E+02  0.19818428096E+02  0.51100000000E-03 0. -1.
        -11    1    3    3    0    0 -0.10789433119E+01 -0.44874548164E+00  0.42509750961E+01  0.44086597404E+01  0.51100000000E-03 0.  1.
         12    1    3    3    0    0  0.27452867118E+01  0.31489202503E+01  0.21513366934E+02  0.21915228831E+02  0.00000000000E+00 0. -1.
</event>
<event>
 7    1  0.2227287E-008  0.4614232E+02  0.7816164E-02  0.1320468E+00
        -11   -1    0    0    0    0  0.00000000000E+00  0.00000000000E+00  0.45593999997E+02  0.45594000000E+02  0.51100000000E-03 0. -1.
         11   -1    0    0    0    0 -0.00000000000E+00 -0.00000000000E+00 -0.45593999997E+02  0.45594000000E+02  0.51100000000E-03 0.  1.
    9900012    2    1    2    0    0 -0.19775728882E+02 -0.39416594734E+02  0.91851015985E+01  0.46142317803E+02  0.10000000382E+02 0.  0.
         12    1    1    2    0    0  0.19775728882E+02  0.39416594734E+02 -0.91851015985E+01  0.45045682197E+02  0.00000000000E+00 0. -1.
         11    1    3    3    0    0 -0.18220730273E+02 -0.35110486283E+02  0.92013788367E+01  0.40612887505E+02  0.51100000000E-03 0. -1.
        -11    1    3    3    0    0 -0.13618418122E+01 -0.48033157947E+01 -0.71658932553E-01  0.49931544147E+01  0.51100000000E-03 0.  1.
         12    1    3    3    0    0 -0.19315679673E+00  0.49720734406E+00  0.55381694385E-01  0.53627588346E+00  0.00000000000E+00 0. -1.
</event>
<event>
 7    1  0.2227287E-008  0.4614232E+02  0.7816164E-02  0.1320468E+00
        -11   -1    0    0    0    0  0.00000000000E+00  0.00000000000E+00  0.45593999997E+02  0.45594000000E+02  0.51100000000E-03 0.  1.
         11   -1    0    0    0    0 -0.00000000000E+00 -0.00000000000E+00 -0.45593999997E+02  0.45594000000E+02  0.51100000000E-03 0. -1.
    9900012    2    1    2    0    0 -0.28029934923E+02 -0.20339718029E+02  0.28805071342E+02  0.46142317451E+02  0.99999971717E+01 0.  0.
         12    1    1    2    0    0  0.28029934923E+02  0.20339718029E+02 -0.28805071342E+02  0.45045682549E+02  0.00000000000E+00 0. -1.
         11    1    3    3    0    0 -0.16906277060E+02 -0.13019992320E+02  0.14614425091E+02  0.25863561724E+02  0.51100000000E-03 0. -1.
        -11    1    3    3    0    0 -0.83704299289E+01 -0.78964288245E+01  0.12529390281E+02  0.17011857819E+02  0.51100000000E-03 0.  1.
         12    1    3    3    0    0 -0.27532279344E+01  0.57670311640E+00  0.16612559701E+01  0.32668979080E+01  0.00000000000E+00 0. -1.
</event>
<event>
 7    1  0.2227287E-008  0.4614232E+02  0.7816164E-02  0.1320468E+00
        -11   -1    0    0    0    0  0.00000000000E+00  0.00000000000E+00  0.45593999997E+02  0.45594000000E+02  0.51100000000E-03 0. -1.
         11   -1    0    0    0    0 -0.00000000000E+00 -0.00000000000E+00 -0.45593999997E+02  0.45594000000E+02  0.51100000000E-03 0.  1.
    9900012    2    1    2    0    0 -0.27952588839E+01 -0.44948403432E+02  0.96984626670E+00  0.46142322682E+02  0.10000044869E+02 0.  0.
         12    1    1    2    0    0  0.27952588839E+01  0.44948403432E+02 -0.96984626670E+00  0.45045677318E+02  0.00000000000E+00 0. -1.
         11    1    3    3    0    0 -0.14219506233E+00 -0.12686900455E+01  0.18295753930E+01  0.22309505255E+01  0.51100000000E-03 0. -1.
        -11    1    3    3    0    0 -0.39092740559E+00 -0.24009339740E+02 -0.18728519234E+01  0.24085447755E+02  0.51100000000E-03 0.  1.
         12    1    3    3    0    0 -0.22621364160E+01 -0.19670373646E+02  0.10131227971E+01  0.19825924401E+02  0.00000000000E+00 0. -1.
</event>
<event>
 7    1  0.2227287E-008  0.4614232E+02  0.7816164E-02  0.1320468E+00
        -11   -1    0    0    0    0  0.00000000000E+00  0.00000000000E+00  0.45593999997E+02  0.45594000000E+02  0.51100000000E-03 0.  1.
         11   -1    0    0    0    0 -0.00000000000E+00 -0.00000000000E+00 -0.45593999997E+02  0.45594000000E+02  0.51100000000E-03 0. -1.
    9900012    2    1    2    0    0 -0.23510700173E+02 -0.37333772669E+02  0.90856942159E+01  0.46142318256E+02  0.10000004517E+02 0.  0.
         12    1    1    2    0    0  0.23510700173E+02  0.37333772669E+02 -0.90856942159E+01  0.45045681744E+02  0.00000000000E+00 0. -1.
         11    1    3    3    0    0 -0.22516559203E+01 -0.64183201253E+00 -0.63866293876E+00  0.24268896403E+01  0.51100000000E-03 0. -1.
        -11    1    3    3    0    0 -0.64527477765E+01 -0.75443606535E+01  0.22617501902E+01  0.10181888122E+02  0.51100000000E-03 0.  1.
        -12    1    3    3    0    0 -0.14806296476E+02 -0.29147580003E+02  0.74626069645E+01  0.33533540495E+02  0.00000000000E+00 0.  1.
</event>
<event>
 7    1  0.2227287E-008  0.4614232E+02  0.7816164E-02  0.1320468E+00
        -11   -1    0    0    0    0  0.00000000000E+00  0.00000000000E+00  0.45593999997E+02  0.45594000000E+02  0.51100000000E-03 0. -1.
         11   -1    0    0    0    0 -0.00000000000E+00 -0.00000000000E+00 -0.45593999997E+02  0.45594000000E+02  0.51100000000E-03 0.  1.
    9900012    2    1    2    0    0 -0.20222528124E+01  0.44807703728E+02  0.41585841621E+01  0.46142316055E+02  0.99999844434E+01 0.  0.
         12    1    1    2    0    0  0.20222528124E+01 -0.44807703728E+02 -0.41585841621E+01  0.45045683945E+02  0.00000000000E+00 0. -1.
         11    1    3    3    0    0 -0.34892849927E+01  0.26590121921E+02  0.10947691827E+01  0.26840421259E+02  0.51100000000E-03 0.  1.
        -11    1    3    3    0    0  0.38891162847E-01  0.16339163317E+01 -0.13068146145E+01  0.20925964253E+01  0.51100000000E-03 0. -1.
         12    1    3    3    0    0  0.14281410174E+01  0.16583665475E+02  0.43706295939E+01  0.17209298370E+02  0.00000000000E+00 0. -1.
</event>
<event>
 7    1  0.2227287E-008  0.4614232E+02  0.7816164E-02  0.1320468E+00
        -11   -1    0    0    0    0  0.00000000000E+00  0.00000000000E+00  0.45593999997E+02  0.45594000000E+02  0.51100000000E-03 0.  1.
         11   -1    0    0    0    0 -0.00000000000E+00 -0.00000000000E+00 -0.45593999997E+02  0.45594000000E+02  0.51100000000E-03 0. -1.
    9900012    2    1    2    0    0  0.31661449217E+02 -0.11523528898E+02  0.29897731953E+02  0.46142318068E+02  0.10000002802E+02 0.  0.
         12    1    1    2    0    0 -0.31661449217E+02  0.11523528898E+02 -0.29897731953E+02  0.45045681932E+02  0.00000000000E+00 0. -1.
         11    1    3    3    0    0  0.14247875851E+02 -0.39510562931E+01  0.83091296866E+01  0.16960378785E+02  0.51100000000E-03 0. -1.
        -11    1    3    3    0    0  0.58682545302E+01 -0.23544943186E+01  0.39174569435E+01  0.74381801465E+01  0.51100000000E-03 0.  1.
        -12    1    3    3    0    0  0.11545318835E+02 -0.52179782863E+01  0.17671145323E+02  0.21743759137E+02  0.00000000000E+00 0.  1.
</event>
<event>
 7    1  0.2227287E-008  0.4614232E+02  0.7816164E-02  0.1320468E+00
        -11   -1    0    0    0    0  0.00000000000E+00  0.00000000000E+00  0.45593999997E+02  0.45594000000E+02  0.51100000000E-03 0. -1.
         11   -1    0    0    0    0 -0.00000000000E+00 -0.00000000000E+00 -0.45593999997E+02  0.45594000000E+02  0.51100000000E-03 0.  1.
    9900012    2    1    2    0    0  0.36508211343E+02 -0.54239544112E+01 -0.25823327766E+02  0.46142322806E+02  0.10000046007E+02 0.  0.
         12    1    1    2    0    0 -0.36508211343E+02  0.54239544112E+01  0.25823327766E+02  0.45045677194E+02  0.00000000000E+00 0. -1.
         11    1    3    3    0    0  0.13123865117E+02 -0.42394476962E+01 -0.10880509489E+02  0.17566850582E+02  0.51100000000E-03 0. -1.
        -11    1    3    3    0    0  0.65416190707E+01  0.24580793972E+01 -0.57187803520E+01  0.90299160220E+01  0.51100000000E-03 0.  1.
        -12    1    3    3    0    0  0.16842727155E+02 -0.36425861122E+01 -0.92240379249E+01  0.19545556202E+02  0.00000000000E+00 0.  1.
</event>
<event>
 7    1  0.2227287E-008  0.4614232E+02  0.7816164E-02  0.1320468E+00
        -11   -1    0    0    0    0  0.00000000000E+00  0.00000000000E+00  0.45593999997E+02  0.45594000000E+02  0.51100000000E-03 0.  1.
         11   -1    0    0    0    0 -0.00000000000E+00 -0.00000000000E+00 -0.45593999997E+02  0.45594000000E+02  0.51100000000E-03 0. -1.
    9900012    2    1    2    0    0 -0.12993196989E+01 -0.13792522608E+02  0.42862472990E+02  0.46142317605E+02  0.99999985784E+01 0.  0.
         12    1    1    2    0    0  0.12993196989E+01  0.13792522608E+02 -0.42862472990E+02  0.45045682395E+02  0.00000000000E+00 0. -1.
         11    1    3    3    0    0  0.18639659395E+01 -0.71685672463E+01  0.18820361226E+02  0.20225447395E+02  0.51100000000E-03 0. -1.
        -11    1    3    3    0    0 -0.42715610709E+01 -0.68378383918E+01  0.23031269811E+02  0.24401673246E+02  0.51100000000E-03 0.  1.
        -12    1    3    3    0    0  0.11082754325E+01  0.21388303052E+00  0.10108419540E+01  0.15151969645E+01  0.00000000000E+00 0.  1.
</event>
<event>
 7    1  0.2227287E-008  0.4614232E+02  0.7816164E-02  0.1320468E+00
        -11   -1    0    0    0    0  0.00000000000E+00  0.00000000000E+00  0.45593999997E+02  0.45594000000E+02  0.51100000000E-03 0.  1.
         11   -1    0    0    0    0 -0.00000000000E+00 -0.00000000000E+00 -0.45593999997E+02  0.45594000000E+02  0.51100000000E-03 0. -1.
    9900012    2    1    2    0    0  0.12296833250E+02 -0.38470294671E+02  0.19948379047E+02  0.46142317558E+02  0.99999981500E+01 0.  0.
         12    1    1    2    0    0 -0.12296833250E+02  0.38470294671E+02 -0.19948379047E+02  0.45045682442E+02  0.00000000000E+00 0. -1.
         11    1    3    3    0    0 -0.26773748159E+00 -0.12642853931E+01  0.28151870913E+01  0.30976409628E+01  0.51100000000E-03 0. -1.
        -11    1    3    3    0    0  0.22686541898E+01 -0.11866391111E+02  0.63074109367E+01  0.13628699968E+02  0.51100000000E-03 0.  1.
        -12    1    3    3    0    0  0.10295916542E+02 -0.25339618166E+02  0.10825781019E+02  0.29415976627E+02  0.00000000000E+00 0.  1.
</event>
<event>
 7    1  0.2227287E-008  0.4614232E+02  0.7816164E-02  0.1320468E+00
        -11   -1    0    0    0    0  0.00000000000E+00  0.00000000000E+00  0.45593999997E+02  0.45594000000E+02  0.51100000000E-03 0.  1.
         11   -1    0    0    0    0 -0.00000000000E+00 -0.00000000000E+00 -0.45593999997E+02  0.45594000000E+02  0.51100000000E-03 0. -1.
    9900012    2    1    2    0    0 -0.16252418879E+02  0.13487708136E+02  0.39787611418E+02  0.46142318602E+02  0.10000007671E+02 0.  0.
         12    1    1    2    0    0  0.16252418879E+02 -0.13487708136E+02 -0.39787611418E+02  0.45045681398E+02  0.00000000000E+00 0. -1.
         11    1    3    3    0    0 -0.10060165595E+02  0.43888421216E+01  0.15136378101E+02  0.18697026748E+02  0.51100000000E-03 0. -1.
        -11    1    3    3    0    0 -0.35664143301E+01  0.25516484097E+01  0.13993389359E+02  0.14664418393E+02  0.51100000000E-03 0.  1.
         12    1    3    3    0    0 -0.26258389544E+01  0.65472176051E+01  0.10657843958E+02  0.12780873461E+02  0.00000000000E+00 0. -1.
</event>
<event>
 7    1  0.2227287E-008  0.4614232E+02  0.7816164E-02  0.1320468E+00
        -11   -1    0    0    0    0  0.00000000000E+00  0.00000000000E+00  0.45593999997E+02  0.45594000000E+02  0.51100000000E-03 0. -1.
         11   -1    0    0    0    0 -0.00000000000E+00 -0.00000000000E+00 -0.45593999997E+02  0.45594000000E+02  0.51100000000E-03 0.  1.
    9900012    2    1    2    0    0  0.32672844246E+02 -0.16770909640E+02 -0.26083238217E+02  0.46142317885E+02  0.10000001134E+02 0.  0.
         12    1    1    2    0    0 -0.32672844246E+02  0.16770909640E+02  0.26083238217E+02  0.45045682115E+02  0.00000000000E+00 0. -1.
         11    1    3    3    0    0  0.79642373477E+01 -0.55621431679E+01 -0.41415061554E+01  0.10560236107E+02  0.51100000000E-03 0. -1.
        -11    1    3    3    0    0  0.65137167327E+01 -0.44634085730E+01 -0.10207173781E+02  0.12904918389E+02  0.51100000000E-03 0.  1.
         12    1    3    3    0    0  0.18194890166E+02 -0.67453578987E+01 -0.11734558280E+02  0.22677163389E+02  0.00000000000E+00 0. -1.
</event>
<event>
 7    1  0.2227287E-008  0.4614232E+02  0.7816164E-02  0.1320468E+00
        -11   -1    0    0    0    0  0.00000000000E+00  0.00000000000E+00  0.45593999997E+02  0.45594000000E+02  0.51100000000E-03 0. -1.
         11   -1    0    0    0    0 -0.00000000000E+00 -0.00000000000E+00 -0.45593999997E+02  0.45594000000E+02  0.51100000000E-03 0.  1.
    9900012    2    1    2    0    0  0.10923226069E+02  0.17184766350E+02 -0.40180597268E+02  0.46142318087E+02  0.10000002969E+02 0.  0.
         12    1    1    2    0    0 -0.10923226069E+02 -0.17184766350E+02  0.40180597268E+02  0.45045681913E+02  0.00000000000E+00 0. -1.
         11    1    3    3    0    0  0.43537415279E+01  0.24003924019E+01 -0.59198820961E+01  0.77305855708E+01  0.51100000000E-03 0. -1.
        -11    1    3    3    0    0  0.11669534108E+01  0.13043006923E+01 -0.98782299440E+01  0.10032068961E+02  0.51100000000E-03 0.  1.
        -12    1    3    3    0    0  0.54025311305E+01  0.13480073256E+02 -0.24382485228E+02  0.28379663554E+02  0.00000000000E+00 0.  1.
</event>
<event>
 7    1  0.2227287E-008  0.4614232E+02  0.7816164E-02  0.1320468E+00
        -11   -1    0    0    0    0  0.00000000000E+00  0.00000000000E+00  0.45593999997E+02  0.45594000000E+02  0.51100000000E-03 0.  1.
         11   -1    0    0    0    0 -0.00000000000E+00 -0.00000000000E+00 -0.45593999997E+02  0.45594000000E+02  0.51100000000E-03 0. -1.
    9900012    2    1    2    0    0 -0.20891889772E+02 -0.31837031428E+02  0.24063371049E+02  0.46142318136E+02  0.10000003417E+02 0.  0.
         12    1    1    2    0    0  0.20891889772E+02  0.31837031428E+02 -0.24063371049E+02  0.45045681864E+02  0.00000000000E+00 0. -1.
         11    1    3    3    0    0 -0.96719860780E+01 -0.12086773556E+02  0.13996971019E+02  0.20869897164E+02  0.51100000000E-03 0. -1.
        -11    1    3    3    0    0 -0.66832775173E+01 -0.74841546696E+01  0.53403121576E+01  0.11366516779E+02  0.51100000000E-03 0.  1.
        -12    1    3    3    0    0 -0.45366261772E+01 -0.12266103201E+02  0.47260878725E+01  0.13905904192E+02  0.00000000000E+00 0.  1.
</event>
<event>
 7    1  0.2227287E-008  0.4614232E+02  0.7816164E-02  0.1320468E+00
        -11   -1    0    0    0    0  0.00000000000E+00  0.00000000000E+00  0.45593999997E+02  0.45594000000E+02  0.51100000000E-03 0.  1.
         11   -1    0    0    0    0 -0.00000000000E+00 -0.00000000000E+00 -0.45593999997E+02  0.45594000000E+02  0.51100000000E-03 0. -1.
    9900012    2    1    2    0    0  0.19238118967E+02  0.31162200849E+02 -0.26228333457E+02  0.46142318086E+02  0.10000002963E+02 0.  0.
         12    1    1    2    0    0 -0.19238118967E+02 -0.31162200849E+02  0.26228333457E+02  0.45045681914E+02  0.00000000000E+00 0. -1.
         11    1    3    3    0    0 -0.68013941648E+00  0.26602415361E+00 -0.13802385820E+01  0.15615432368E+01  0.51100000000E-03 0. -1.
        -11    1    3    3    0    0  0.90535906624E+01  0.10509281365E+02 -0.10348122178E+02  0.17305956534E+02  0.51100000000E-03 0.  1.
         12    1    3    3    0    0  0.10864667721E+02  0.20386895330E+02 -0.14499972698E+02  0.27274818315E+02  0.00000000000E+00 0. -1.
</event>
<event>
 7    1  0.2227287E-008  0.4614232E+02  0.7816164E-02  0.1320468E+00
        -11   -1    0    0    0    0  0.00000000000E+00  0.00000000000E+00  0.45593999997E+02  0.45594000000E+02  0.51100000000E-03 0.  1.
         11   -1    0    0    0    0 -0.00000000000E+00 -0.00000000000E+00 -0.45593999997E+02  0.45594000000E+02  0.51100000000E-03 0. -1.
    9900012    2    1    2    0    0 -0.20461396582E+02 -0.25060741961E+02  0.31343324620E+02  0.46142317233E+02  0.99999951820E+01 0.  0.
         12    1    1    2    0    0  0.20461396582E+02  0.25060741961E+02 -0.31343324620E+02  0.45045682767E+02  0.00000000000E+00 0. -1.
         11    1    3    3    0    0  0.12841335523E+00 -0.14114361819E+01  0.22011664081E+01  0.26179717154E+01  0.51100000000E-03 0. -1.
        -11    1    3    3    0    0 -0.17099158389E+02 -0.23132227847E+02  0.26551949409E+02  0.39146994781E+02  0.51100000000E-03 0.  1.
        -12    1    3    3    0    0 -0.34906515482E+01 -0.51707793242E+00  0.25902088036E+01  0.43773507360E+01  0.00000000000E+00 0.  1.
</event>
<event>
 7    1  0.2227287E-008  0.4614232E+02  0.7816164E-02  0.1320468E+00
        -11   -1    0    0    0    0  0.00000000000E+00  0.00000000000E+00  0.45593999997E+02  0.45594000000E+02  0.51100000000E-03 0.  1.
         11   -1    0    0    0    0 -0.00000000000E+00 -0.00000000000E+00 -0.45593999997E+02  0.45594000000E+02  0.51100000000E-03 0. -1.
    9900012    2    1    2    0    0 -0.75090477671E+00  0.32169573886E+02  0.31522503633E+02  0.46142316774E+02  0.99999909984E+01 0.  0.
         12    1    1    2    0    0  0.75090477671E+00 -0.32169573886E+02 -0.31522503633E+02  0.45045683226E+02  0.00000000000E+00 0. -1.
         11    1    3    3    0    0  0.28638552397E+01  0.19125038830E+02  0.17221486694E+02  0.25894948953E+02  0.51100000000E-03 0. -1.
        -11    1    3    3    0    0  0.50167172462E+00 -0.13748303789E+00  0.60080057741E+00  0.79469346287E+00  0.51100000000E-03 0.  1.
        -12    1    3    3    0    0 -0.41164317410E+01  0.13182018094E+02  0.13700216362E+02  0.19452674358E+02  0.00000000000E+00 0.  1.
</event>
<event>
 7    1  0.2227287E-008  0.4614232E+02  0.7816164E-02  0.1320468E+00
        -11   -1    0    0    0    0  0.00000000000E+00  0.00000000000E+00  0.45593999997E+02  0.45594000000E+02  0.51100000000E-03 0. -1.
         11   -1    0    0    0    0 -0.00000000000E+00 -0.00000000000E+00 -0.45593999997E+02  0.45594000000E+02  0.51100000000E-03 0.  1.
    9900012    2    1    2    0    0  0.25016347210E+02 -0.37374147646E+02 -0.25433945181E+01  0.46142318790E+02  0.10000009385E+02 0.  0.
         12    1    1    2    0    0 -0.25016347210E+02  0.37374147646E+02  0.25433945181E+01  0.45045681210E+02  0.00000000000E+00 0. -1.
         11    1    3    3    0    0  0.11546122831E+02 -0.13694708404E+02 -0.36518101210E+01  0.18280965733E+02  0.51100000000E-03 0. -1.
        -11    1    3    3    0    0  0.60332188186E+01 -0.14374222467E+02 -0.15194815190E+01  0.15662912411E+02  0.51100000000E-03 0.  1.
        -12    1    3    3    0    0  0.74370055605E+01 -0.93052167742E+01  0.26278971219E+01  0.12198440647E+02  0.00000000000E+00 0.  1.
</event>
<event>
 7    1  0.2227287E-008  0.4614232E+02  0.7816164E-02  0.1320468E+00
        -11   -1    0    0    0    0  0.00000000000E+00  0.00000000000E+00  0.45593999997E+02  0.45594000000E+02  0.51100000000E-03 0. -1.
         11   -1    0    0    0    0 -0.00000000000E+00 -0.00000000000E+00 -0.45593999997E+02  0.45594000000E+02  0.51100000000E-03 0.  1.
    9900012    2    1    2    0    0 -0.16114424175E+02  0.41895998776E+02  0.37635251798E+01  0.46142317613E+02  0.99999986476E+01 0.  0.
         12    1    1    2    0    0  0.16114424175E+02 -0.41895998776E+02 -0.37635251798E+01  0.45045682387E+02  0.00000000000E+00 0. -1.
         11    1    3    3    0    0  0.11648962053E+01  0.23552967224E+01  0.67424762239E+00  0.27127506220E+01  0.51100000000E-03 0. -1.
        -11    1    3    3    0    0 -0.74834137303E+01  0.20722612589E+02  0.28251641083E+01  0.22212827512E+02  0.51100000000E-03 0.  1.
        -12    1    3    3    0    0 -0.97959066499E+01  0.18818089465E+02  0.26411344909E+00  0.21216739479E+02  0.00000000000E+00 0.  1.
</event>
<event>
 7    1  0.2227287E-008  0.4614232E+02  0.7816164E-02  0.1320468E+00
        -11   -1    0    0    0    0  0.00000000000E+00  0.00000000000E+00  0.45593999997E+02  0.45594000000E+02  0.51100000000E-03 0.  1.
         11   -1    0    0    0    0 -0.00000000000E+00 -0.00000000000E+00 -0.45593999997E+02  0.45594000000E+02  0.51100000000E-03 0. -1.
    9900012    2    1    2    0    0  0.24876406591E+02 -0.26193546159E+00  0.37552753036E+02  0.46142317903E+02  0.10000001290E+02 0.  0.
         12    1    1    2    0    0 -0.24876406591E+02  0.26193546159E+00 -0.37552753036E+02  0.45045682097E+02  0.00000000000E+00 0. -1.
         11    1    3    3    0    0  0.16578631176E+02  0.13521193977E+01  0.19172477757E+02  0.25382339178E+02  0.51100000000E-03 0. -1.
        -11    1    3    3    0    0  0.87229600822E+01 -0.15223759599E+01  0.18282787774E+02  0.20314231223E+02  0.51100000000E-03 0.  1.
        -12    1    3    3    0    0 -0.42518466686E+00 -0.91678899364E-01  0.97487504788E-01  0.44574750152E+00  0.00000000000E+00 0.  1.
</event>
<event>
 7    1  0.2227287E-008  0.4614232E+02  0.7816164E-02  0.1320468E+00
        -11   -1    0    0    0    0  0.00000000000E+00  0.00000000000E+00  0.45593999997E+02  0.45594000000E+02  0.51100000000E-03 0.  1.
         11   -1    0    0    0    0 -0.00000000000E+00 -0.00000000000E+00 -0.45593999997E+02  0.45594000000E+02  0.51100000000E-03 0. -1.
    9900012    2    1    2    0    0  0.28720032329E+02 -0.16196760861E+02  0.30691011484E+02  0.46142317573E+02  0.99999982888E+01 0.  0.
         12    1    1    2    0    0 -0.28720032329E+02  0.16196760861E+02 -0.30691011484E+02  0.45045682427E+02  0.00000000000E+00 0. -1.
         11    1    3    3    0    0  0.69539164675E+01 -0.74416446617E+01  0.74154778170E+01  0.12598584882E+02  0.51100000000E-03 0. -1.
        -11    1    3    3    0    0  0.29502718550E+01 -0.15143952082E+01  0.92312288311E+00  0.34423324917E+01  0.51100000000E-03 0.  1.
        -12    1    3    3    0    0  0.18815844006E+02 -0.72407209909E+01  0.22352410784E+02  0.30101400200E+02  0.00000000000E+00 0.  1.
</event>
<event>
 7    1  0.2227287E-008  0.4614232E+02  0.7816164E-02  0.1320468E+00
        -11   -1    0    0    0    0  0.00000000000E+00  0.00000000000E+00  0.45593999997E+02  0.45594000000E+02  0.51100000000E-03 0.  1.
         11   -1    0    0    0    0 -0.00000000000E+00 -0.00000000000E+00 -0.45593999997E+02  0.45594000000E+02  0.51100000000E-03 0. -1.
    9900012    2    1    2    0    0  0.15914841215E+02 -0.32278828341E+02  0.27090746854E+02  0.46142317687E+02  0.99999993198E+01 0.  0.
         12    1    1    2    0    0 -0.15914841215E+02  0.32278828341E+02 -0.27090746854E+02  0.45045682313E+02  0.00000000000E+00 0. -1.
         11    1    3    3    0    0  0.22084626352E-01 -0.50318166013E+01  0.57234330238E+01  0.76208498134E+01  0.51100000000E-03 0. -1.
        -11    1    3    3    0    0  0.58262516170E+01 -0.13325198115E+02  0.12556825484E+02  0.19214056812E+02  0.51100000000E-03 0.  1.
         12    1    3    3    0    0  0.10066504972E+02 -0.13921813625E+02  0.88104883461E+01  0.19307411061E+02  0.00000000000E+00 0. -1.
</event>
<event>
 7    1  0.2227287E-008  0.4614232E+02  0.7816164E-02  0.1320468E+00
        -11   -1    0    0    0    0  0.00000000000E+00  0.00000000000E+00  0.45593999997E+02  0.45594000000E+02  0.51100000000E-03 0.  1.
         11   -1    0    0    0    0 -0.00000000000E+00 -0.00000000000E+00 -0.45593999997E+02  0.45594000000E+02  0.51100000000E-03 0. -1.
    9900012    2    1    2    0    0  0.25824526988E+02  0.27946507851E+02  0.24108089081E+02  0.46142318139E+02  0.10000003442E+02 0.  0.
         12    1    1    2    0    0 -0.25824526988E+02 -0.27946507851E+02 -0.24108089081E+02  0.45045681861E+02  0.00000000000E+00 0. -1.
         11    1    3    3    0    0  0.63142358868E+01  0.12446652721E+02  0.77273894876E+01  0.15953096482E+02  0.51100000000E-03 0. -1.
        -11    1    3    3    0    0  0.19135139683E+02  0.13756571071E+02  0.15425023033E+02  0.28166081626E+02  0.51100000000E-03 0.  1.
        -12    1    3    3    0    0  0.37515141757E+00  0.17432840591E+01  0.95567656068E+00  0.20231400311E+01  0.00000000000E+00 0.  1.
</event>
<event>
 7    1  0.2227287E-008  0.4614232E+02  0.7816164E-02  0.1320468E+00
        -11   -1    0    0    0    0  0.00000000000E+00  0.00000000000E+00  0.45593999997E+02  0.45594000000E+02  0.51100000000E-03 0.  1.
         11   -1    0    0    0    0 -0.00000000000E+00 -0.00000000000E+00 -0.45593999997E+02  0.45594000000E+02  0.51100000000E-03 0. -1.
    9900012    2    1    2    0    0  0.27361848509E+02  0.17072219122E+02  0.31448085737E+02  0.46142317453E+02  0.99999971949E+01 0.  0.
         12    1    1    2    0    0 -0.27361848509E+02 -0.17072219122E+02 -0.31448085737E+02  0.45045682547E+02  0.00000000000E+00 0. -1.
         11    1    3    3    0    0  0.15958596052E+02  0.65910897221E+01  0.12854208553E+02  0.21525564556E+02  0.51100000000E-03 0. -1.
        -11    1    3    3    0    0  0.25997909165E+01  0.25842056466E+01  0.18190018450E+01  0.40921631941E+01  0.51100000000E-03 0.  1.
        -12    1    3    3    0    0  0.88034615405E+01  0.78969237535E+01  0.16774875339E+02  0.20524589703E+02  0.00000000000E+00 0.  1.
</event>
<event>
 7    1  0.2227287E-008  0.4614232E+02  0.7816164E-02  0.1320468E+00
        -11   -1    0    0    0    0  0.00000000000E+00  0.00000000000E+00  0.45593999997E+02  0.45594000000E+02  0.51100000000E-03 0.  1.
         11   -1    0    0    0    0 -0.00000000000E+00 -0.00000000000E+00 -0.45593999997E+02  0.45594000000E+02  0.51100000000E-03 0. -1.
    9900012    2    1    2    0    0 -0.15265414828E+02  0.20918023677E+02  0.36858063793E+02  0.46142317954E+02  0.10000001760E+02 0.  0.
         12    1    1    2    0    0  0.15265414828E+02 -0.20918023677E+02 -0.36858063793E+02  0.45045682046E+02  0.00000000000E+00 0. -1.
         11    1    3    3    0    0 -0.10567201236E+01  0.28517203045E+01  0.36822177644E+01  0.47757401563E+01  0.51100000000E-03 0.  1.
        -11    1    3    3    0    0 -0.51172460407E+01  0.77752531548E+00  0.69364631914E+01  0.86547833320E+01  0.51100000000E-03 0. -1.
         12    1    3    3    0    0 -0.90914486642E+01  0.17288778057E+02  0.26239382837E+02  0.32711794466E+02  0.00000000000E+00 0. -1.
</event>
<event>
 7    1  0.2227287E-008  0.4614232E+02  0.7816164E-02  0.1320468E+00
        -11   -1    0    0    0    0  0.00000000000E+00  0.00000000000E+00  0.45593999997E+02  0.45594000000E+02  0.51100000000E-03 0.  1.
         11   -1    0    0    0    0 -0.00000000000E+00 -0.00000000000E+00 -0.45593999997E+02  0.45594000000E+02  0.51100000000E-03 0. -1.
    9900012    2    1    2    0    0 -0.34460184870E+02 -0.18376119032E+02  0.22448327824E+02  0.46142317476E+02  0.99999974029E+01 0.  0.
         12    1    1    2    0    0  0.34460184870E+02  0.18376119032E+02 -0.22448327824E+02  0.45045682524E+02  0.00000000000E+00 0. -1.
         11    1    3    3    0    0 -0.32663373165E+00 -0.18027893701E+01  0.20804530971E+00  0.18439149166E+01  0.51100000000E-03 0. -1.
        -11    1    3    3    0    0 -0.12202470575E+02 -0.31799369035E+01  0.76001079856E+01  0.14723244497E+02  0.51100000000E-03 0.  1.
        -12    1    3    3    0    0 -0.21931080563E+02 -0.13393392759E+02  0.14640174529E+02  0.29575158063E+02  0.00000000000E+00 0.  1.
</event>
<event>
 7    1  0.2227287E-008  0.4614232E+02  0.7816164E-02  0.1320468E+00
        -11   -1    0    0    0    0  0.00000000000E+00  0.00000000000E+00  0.45593999997E+02  0.45594000000E+02  0.51100000000E-03 0.  1.
         11   -1    0    0    0    0 -0.00000000000E+00 -0.00000000000E+00 -0.45593999997E+02  0.45594000000E+02  0.51100000000E-03 0. -1.
    9900012    2    1    2    0    0  0.18682542075E+02  0.28598469234E+02  0.29363300854E+02  0.46142320319E+02  0.10000023323E+02 0.  0.
         12    1    1    2    0    0 -0.18682542075E+02 -0.28598469234E+02 -0.29363300854E+02  0.45045679681E+02  0.00000000000E+00 0. -1.
         11    1    3    3    0    0  0.51043077560E+01  0.95451442913E+01  0.83266059702E+01  0.13656357657E+02  0.51100000000E-03 0. -1.
        -11    1    3    3    0    0  0.51706893037E+01  0.38270358000E+01  0.99873235907E+01  0.11879766987E+02  0.51100000000E-03 0.  1.
         12    1    3    3    0    0  0.84075450155E+01  0.15226289143E+02  0.11049371293E+02  0.20606195675E+02  0.00000000000E+00 0. -1.
</event>
<event>
 7    1  0.2227287E-008  0.4614232E+02  0.7816164E-02  0.1320468E+00
        -11   -1    0    0    0    0  0.00000000000E+00  0.00000000000E+00  0.45593999997E+02  0.45594000000E+02  0.51100000000E-03 0.  1.
         11   -1    0    0    0    0 -0.00000000000E+00 -0.00000000000E+00 -0.45593999997E+02  0.45594000000E+02  0.51100000000E-03 0. -1.
    9900012    2    1    2    0    0  0.10882688219E+02  0.43050445446E+02  0.75723006210E+01  0.46142317713E+02  0.99999995656E+01 0.  0.
         12    1    1    2    0    0 -0.10882688219E+02 -0.43050445446E+02 -0.75723006210E+01  0.45045682287E+02  0.00000000000E+00 0. -1.
         11    1    3    3    0    0  0.26831283837E+00  0.34540767595E+01  0.11776476025E+01  0.36591655027E+01  0.51100000000E-03 0. -1.
        -11    1    3    3    0    0  0.58110701919E+01  0.32965709250E+02  0.72527355688E+01  0.34250674396E+02  0.51100000000E-03 0.  1.
         12    1    3    3    0    0  0.48033051887E+01  0.66306594368E+01 -0.85808255027E+00  0.82324778145E+01  0.00000000000E+00 0. -1.
</event>
<event>
 7    1  0.2227287E-008  0.4614232E+02  0.7816164E-02  0.1320468E+00
        -11   -1    0    0    0    0  0.00000000000E+00  0.00000000000E+00  0.45593999997E+02  0.45594000000E+02  0.51100000000E-03 0.  1.
         11   -1    0    0    0    0 -0.00000000000E+00 -0.00000000000E+00 -0.45593999997E+02  0.45594000000E+02  0.51100000000E-03 0. -1.
    9900012    2    1    2    0    0 -0.15794098950E+02  0.10067054156E+02  0.40967234987E+02  0.46142317815E+02  0.10000000495E+02 0.  0.
         12    1    1    2    0    0  0.15794098950E+02 -0.10067054156E+02 -0.40967234987E+02  0.45045682185E+02  0.00000000000E+00 0. -1.
         11    1    3    3    0    0 -0.15480142649E+01 -0.92169453825E+00  0.77383798549E+00  0.19607892480E+01  0.51100000000E-03 0. -1.
        -11    1    3    3    0    0 -0.38067489403E+01  0.21762091725E+01  0.66807306548E+01  0.79912068050E+01  0.51100000000E-03 0.  1.
         12    1    3    3    0    0 -0.10439335744E+02  0.88125395217E+01  0.33512666347E+02  0.36190321762E+02  0.00000000000E+00 0. -1.
</event>
<event>
 7    1  0.2227287E-008  0.4614232E+02  0.7816164E-02  0.1320468E+00
        -11   -1    0    0    0    0  0.00000000000E+00  0.00000000000E+00  0.45593999997E+02  0.45594000000E+02  0.51100000000E-03 0.  1.
         11   -1    0    0    0    0 -0.00000000000E+00 -0.00000000000E+00 -0.45593999997E+02  0.45594000000E+02  0.51100000000E-03 0. -1.
    9900012    2    1    2    0    0  0.30543168653E+02  0.24413149355E+02  0.22365741842E+02  0.46142318510E+02  0.10000006826E+02 0.  0.
         12    1    1    2    0    0 -0.30543168653E+02 -0.24413149355E+02 -0.22365741842E+02  0.45045681490E+02  0.00000000000E+00 0. -1.
         11    1    3    3    0    0  0.42904078518E+01  0.40909710618E+01  0.64380924240E+01  0.87517242921E+01  0.51100000000E-03 0. -1.
        -11    1    3    3    0    0  0.12643673535E+02  0.11692589899E+02  0.50437812369E+01  0.17944884186E+02  0.51100000000E-03 0.  1.
         12    1    3    3    0    0  0.13609087266E+02  0.86295883943E+01  0.10883868181E+02  0.19445710032E+02  0.00000000000E+00 0. -1.
</event>
<event>
 7    1  0.2227287E-008  0.4614232E+02  0.7816164E-02  0.1320468E+00
        -11   -1    0    0    0    0  0.00000000000E+00  0.00000000000E+00  0.45593999997E+02  0.45594000000E+02  0.51100000000E-03 0.  1.
         11   -1    0    0    0    0 -0.00000000000E+00 -0.00000000000E+00 -0.45593999997E+02  0.45594000000E+02  0.51100000000E-03 0. -1.
    9900012    2    1    2    0    0 -0.22128788352E+02  0.29706070673E+02  0.25631614008E+02  0.46142317128E+02  0.99999942272E+01 0.  0.
         12    1    1    2    0    0  0.22128788352E+02 -0.29706070673E+02 -0.25631614008E+02  0.45045682872E+02  0.00000000000E+00 0. -1.
         11    1    3    3    0    0 -0.15144961218E+02  0.15477678055E+02  0.13671693321E+02  0.25609442922E+02  0.51100000000E-03 0.  1.
        -11    1    3    3    0    0 -0.82127312000E+00  0.65696264940E-01  0.19779743354E+01  0.21427058289E+01  0.51100000000E-03 0. -1.
        -12    1    3    3    0    0 -0.61625540138E+01  0.14162696353E+02  0.99819463517E+01  0.18390168377E+02  0.00000000000E+00 0.  1.
</event>
<event>
 7    1  0.2227287E-008  0.4614232E+02  0.7816164E-02  0.1320468E+00
        -11   -1    0    0    0    0  0.00000000000E+00  0.00000000000E+00  0.45593999997E+02  0.45594000000E+02  0.51100000000E-03 0.  1.
         11   -1    0    0    0    0 -0.00000000000E+00 -0.00000000000E+00 -0.45593999997E+02  0.45594000000E+02  0.51100000000E-03 0. -1.
    9900012    2    1    2    0    0 -0.38685181486E+02  0.13066154827E+00  0.23077113306E+02  0.46142317659E+02  0.99999990681E+01 0.  0.
         12    1    1    2    0    0  0.38685181486E+02 -0.13066154827E+00 -0.23077113306E+02  0.45045682341E+02  0.00000000000E+00 0. -1.
         11    1    3    3    0    0 -0.27287569084E+02  0.30450353033E+01  0.16214043965E+02  0.31886970513E+02  0.51100000000E-03 0. -1.
        -11    1    3    3    0    0 -0.32984540045E+01  0.86234438198E+00  0.94811634075E+00  0.35386948879E+01  0.51100000000E-03 0.  1.
        -12    1    3    3    0    0 -0.80991583973E+01 -0.37767181370E+01  0.59149530000E+01  0.10716652258E+02  0.00000000000E+00 0.  1.
</event>
<event>
 7    1  0.2227287E-008  0.4614232E+02  0.7816164E-02  0.1320468E+00
        -11   -1    0    0    0    0  0.00000000000E+00  0.00000000000E+00  0.45593999997E+02  0.45594000000E+02  0.51100000000E-03 0. -1.
         11   -1    0    0    0    0 -0.00000000000E+00 -0.00000000000E+00 -0.45593999997E+02  0.45594000000E+02  0.51100000000E-03 0.  1.
    9900012    2    1    2    0    0  0.25278195391E+02  0.33501167233E+02 -0.16364538295E+02  0.46142317834E+02  0.10000000665E+02 0.  0.
         12    1    1    2    0    0 -0.25278195391E+02 -0.33501167233E+02  0.16364538295E+02  0.45045682166E+02  0.00000000000E+00 0. -1.
         11    1    3    3    0    0  0.54024376105E+01  0.12399039453E+02 -0.64950823639E+01  0.15003619785E+02  0.51100000000E-03 0. -1.
        -11    1    3    3    0    0  0.10510468021E+02  0.10435986204E+02 -0.21069733699E+01  0.14960584317E+02  0.51100000000E-03 0.  1.
         12    1    3    3    0    0  0.93652897596E+01  0.10666141576E+02 -0.77624825609E+01  0.16178113732E+02  0.00000000000E+00 0. -1.
</event>
<event>
 7    1  0.2227287E-008  0.4614232E+02  0.7816164E-02  0.1320468E+00
        -11   -1    0    0    0    0  0.00000000000E+00  0.00000000000E+00  0.45593999997E+02  0.45594000000E+02  0.51100000000E-03 0. -1.
         11   -1    0    0    0    0 -0.00000000000E+00 -0.00000000000E+00 -0.45593999997E+02  0.45594000000E+02  0.51100000000E-03 0.  1.
    9900012    2    1    2    0    0  0.28382751922E+01  0.44937701474E+02  0.12886799642E+01  0.46142317456E+02  0.99999972138E+01 0.  0.
         12    1    1    2    0    0 -0.28382751922E+01 -0.44937701474E+02 -0.12886799642E+01  0.45045682544E+02  0.00000000000E+00 0. -1.
         11    1    3    3    0    0 -0.65992702835E+00  0.28626757058E+02 -0.50794325958E+00  0.28638867470E+02  0.51100000000E-03 0. -1.
        -11    1    3    3    0    0  0.15831968626E+01  0.14729428759E+02  0.22334771424E+01  0.14981688966E+02  0.51100000000E-03 0.  1.
         12    1    3    3    0    0  0.19150053579E+01  0.15815156578E+01 -0.43685391862E+00  0.25217610202E+01  0.00000000000E+00 0. -1.
</event>
<event>
 7    1  0.2227287E-008  0.4614232E+02  0.7816164E-02  0.1320468E+00
        -11   -1    0    0    0    0  0.00000000000E+00  0.00000000000E+00  0.45593999997E+02  0.45594000000E+02  0.51100000000E-03 0. -1.
         11   -1    0    0    0    0 -0.00000000000E+00 -0.00000000000E+00 -0.45593999997E+02  0.45594000000E+02  0.51100000000E-03 0.  1.
    9900012    2    1    2    0    0  0.32447900954E+02 -0.61154927868E+01 -0.30640627237E+02  0.46142316902E+02  0.99999921638E+01 0.  0.
         12    1    1    2    0    0 -0.32447900954E+02  0.61154927868E+01  0.30640627237E+02  0.45045683098E+02  0.00000000000E+00 0. -1.
         11    1    3    3    0    0  0.49782106547E+00 -0.14916091419E+00  0.58670975311E+00  0.78377508704E+00  0.51100000000E-03 0. -1.
        -11    1    3    3    0    0  0.69312293195E+01 -0.33608970025E+01 -0.63894714791E+01  0.10008142414E+02  0.51100000000E-03 0.  1.
         12    1    3    3    0    0  0.25018850569E+02 -0.26054348702E+01 -0.24837865511E+02  0.35350399400E+02  0.00000000000E+00 0. -1.
</event>
<event>
 7    1  0.2227287E-008  0.4614232E+02  0.7816164E-02  0.1320468E+00
        -11   -1    0    0    0    0  0.00000000000E+00  0.00000000000E+00  0.45593999997E+02  0.45594000000E+02  0.51100000000E-03 0. -1.
         11   -1    0    0    0    0 -0.00000000000E+00 -0.00000000000E+00 -0.45593999997E+02  0.45594000000E+02  0.51100000000E-03 0.  1.
    9900012    2    1    2    0    0  0.37438302891E+02  0.24109807511E+02  0.67973712544E+01  0.46142316549E+02  0.99999889473E+01 0.  0.
         12    1    1    2    0    0 -0.37438302891E+02 -0.24109807511E+02 -0.67973712544E+01  0.45045683451E+02  0.00000000000E+00 0. -1.
         11    1    3    3    0    0  0.35942978373E+00  0.24676922477E+01  0.43771340185E+00  0.25318546724E+01  0.51100000000E-03 0. -1.
        -11    1    3    3    0    0  0.19897395263E+02  0.12123754270E+02  0.55500698012E+01  0.23951931675E+02  0.51100000000E-03 0.  1.
        -12    1    3    3    0    0  0.17181477844E+02  0.95183609927E+01  0.80958805138E+00  0.19658530202E+02  0.00000000000E+00 0.  1.
</event>
<event>
 7    1  0.2227287E-008  0.4614232E+02  0.7816164E-02  0.1320468E+00
        -11   -1    0    0    0    0  0.00000000000E+00  0.00000000000E+00  0.45593999997E+02  0.45594000000E+02  0.51100000000E-03 0.  1.
         11   -1    0    0    0    0 -0.00000000000E+00 -0.00000000000E+00 -0.45593999997E+02  0.45594000000E+02  0.51100000000E-03 0. -1.
    9900012    2    1    2    0    0  0.15255474603E+02  0.22839559428E+02  0.35703481097E+02  0.46142317159E+02  0.99999945050E+01 0.  0.
         12    1    1    2    0    0 -0.15255474603E+02 -0.22839559428E+02 -0.35703481097E+02  0.45045682841E+02  0.00000000000E+00 0. -1.
         11    1    3    3    0    0  0.12098561132E+02  0.11799107486E+02  0.25245774546E+02  0.30379981100E+02  0.51100000000E-03 0. -1.
        -11    1    3    3    0    0  0.11304328935E+00  0.29483913112E+01  0.40034397744E+01  0.49732605399E+01  0.51100000000E-03 0.  1.
         12    1    3    3    0    0  0.30438701815E+01  0.80920606303E+01  0.64542667764E+01  0.10789075519E+02  0.00000000000E+00 0. -1.
</event>
<event>
 7    1  0.2227287E-008  0.4614232E+02  0.7816164E-02  0.1320468E+00
        -11   -1    0    0    0    0  0.00000000000E+00  0.00000000000E+00  0.45593999997E+02  0.45594000000E+02  0.51100000000E-03 0.  1.
         11   -1    0    0    0    0 -0.00000000000E+00 -0.00000000000E+00 -0.45593999997E+02  0.45594000000E+02  0.51100000000E-03 0. -1.
    9900012    2    1    2    0    0  0.42100101449E+01 -0.42729331265E+02  0.13623265890E+02  0.46142319749E+02  0.10000018130E+02 0.  0.
         12    1    1    2    0    0 -0.42100101449E+01  0.42729331265E+02 -0.13623265890E+02  0.45045680251E+02  0.00000000000E+00 0. -1.
         11    1    3    3    0    0  0.31000286939E+01 -0.76790524635E+01  0.32114332815E+01  0.88820790710E+01  0.51100000000E-03 0. -1.
        -11    1    3    3    0    0 -0.14205076677E+01 -0.18630614047E+02  0.85326692346E+01  0.20540790305E+02  0.51100000000E-03 0.  1.
         12    1    3    3    0    0  0.25304891187E+01 -0.16419664754E+02  0.18791633737E+01  0.16719450373E+02  0.00000000000E+00 0. -1.
</event>
<event>
 7    1  0.2227287E-008  0.4614232E+02  0.7816164E-02  0.1320468E+00
        -11   -1    0    0    0    0  0.00000000000E+00  0.00000000000E+00  0.45593999997E+02  0.45594000000E+02  0.51100000000E-03 0.  1.
         11   -1    0    0    0    0 -0.00000000000E+00 -0.00000000000E+00 -0.45593999997E+02  0.45594000000E+02  0.51100000000E-03 0. -1.
    9900012    2    1    2    0    0  0.25781529411E+02  0.35933703271E+01  0.36762943970E+02  0.46142316317E+02  0.99999868356E+01 0.  0.
         12    1    1    2    0    0 -0.25781529411E+02 -0.35933703271E+01 -0.36762943970E+02  0.45045683683E+02  0.00000000000E+00 0. -1.
         11    1    3    3    0    0  0.51925830981E+01  0.39169665052E+01  0.93061620200E+01  0.11353862675E+02  0.51100000000E-03 0. -1.
        -11    1    3    3    0    0  0.18010605229E+02  0.15774528574E+01  0.24329757292E+02  0.30311835121E+02  0.51100000000E-03 0.  1.
         12    1    3    3    0    0  0.25783410839E+01 -0.19010490354E+01  0.31270246583E+01  0.44766185222E+01  0.00000000000E+00 0. -1.
</event>
<event>
 7    1  0.2227287E-008  0.4614232E+02  0.7816164E-02  0.1320468E+00
        -11   -1    0    0    0    0  0.00000000000E+00  0.00000000000E+00  0.45593999997E+02  0.45594000000E+02  0.51100000000E-03 0.  1.
         11   -1    0    0    0    0 -0.00000000000E+00 -0.00000000000E+00 -0.45593999997E+02  0.45594000000E+02  0.51100000000E-03 0. -1.
    9900012    2    1    2    0    0  0.17798651320E+02  0.10552857627E+02  0.40011981839E+02  0.46142317814E+02  0.10000000487E+02 0.  0.
         12    1    1    2    0    0 -0.17798651320E+02 -0.10552857627E+02 -0.40011981839E+02  0.45045682186E+02  0.00000000000E+00 0. -1.
         11    1    3    3    0    0  0.12721109351E+01 -0.12233827284E+01  0.20411732292E+01  0.26983921035E+01  0.51100000000E-03 0. -1.
        -11    1    3    3    0    0  0.12690941373E+02  0.56784439143E+01  0.25282290205E+02  0.28853057317E+02  0.51100000000E-03 0.  1.
         12    1    3    3    0    0  0.38355990121E+01  0.60977964414E+01  0.12688518404E+02  0.14590868395E+02  0.00000000000E+00 0. -1.
</event>
<event>
 7    1  0.2227287E-008  0.4614232E+02  0.7816164E-02  0.1320468E+00
        -11   -1    0    0    0    0  0.00000000000E+00  0.00000000000E+00  0.45593999997E+02  0.45594000000E+02  0.51100000000E-03 0.  1.
         11   -1    0    0    0    0 -0.00000000000E+00 -0.00000000000E+00 -0.45593999997E+02  0.45594000000E+02  0.51100000000E-03 0. -1.
    9900012    2    1    2    0    0  0.35353120508E+02  0.96957603663E+01  0.26177518788E+02  0.46142318868E+02  0.10000010097E+02 0.  0.
         12    1    1    2    0    0 -0.35353120508E+02 -0.96957603663E+01 -0.26177518788E+02  0.45045681132E+02  0.00000000000E+00 0. -1.
         11    1    3    3    0    0  0.98268852372E+01  0.14406226767E+01  0.82280229665E+01  0.12897419485E+02  0.51100000000E-03 0. -1.
        -11    1    3    3    0    0  0.14342294846E+02  0.79373834822E+00  0.74173070721E+01  0.16166257652E+02  0.51100000000E-03 0.  1.
        -12    1    3    3    0    0  0.11183940425E+02  0.74613993414E+01  0.10532188749E+02  0.17078641732E+02  0.00000000000E+00 0.  1.
</event>
<event>
 7    1  0.2227287E-008  0.4614232E+02  0.7816164E-02  0.1320468E+00
        -11   -1    0    0    0    0  0.00000000000E+00  0.00000000000E+00  0.45593999997E+02  0.45594000000E+02  0.51100000000E-03 0. -1.
         11   -1    0    0    0    0 -0.00000000000E+00 -0.00000000000E+00 -0.45593999997E+02  0.45594000000E+02  0.51100000000E-03 0.  1.
    9900012    2    1    2    0    0  0.38409863730E+02 -0.83216264673E+01  0.22012412938E+02  0.46142318495E+02  0.10000006695E+02 0.  0.
         12    1    1    2    0    0 -0.38409863730E+02  0.83216264673E+01 -0.22012412938E+02  0.45045681505E+02  0.00000000000E+00 0. -1.
         11    1    3    3    0    0  0.18876116089E+02 -0.64487778138E+00  0.75402357359E+01  0.20336636428E+02  0.51100000000E-03 0. -1.
        -11    1    3    3    0    0  0.48509570163E+01 -0.31797257102E+01  0.24197899886E+01  0.62847293829E+01  0.51100000000E-03 0.  1.
         12    1    3    3    0    0  0.14682790625E+02 -0.44970229757E+01  0.12052387214E+02  0.19520952685E+02  0.00000000000E+00 0. -1.
</event>
<event>
 7    1  0.2227287E-008  0.4614232E+02  0.7816164E-02  0.1320468E+00
        -11   -1    0    0    0    0  0.00000000000E+00  0.00000000000E+00  0.45593999997E+02  0.45594000000E+02  0.51100000000E-03 0.  1.
         11   -1    0    0    0    0 -0.00000000000E+00 -0.00000000000E+00 -0.45593999997E+02  0.45594000000E+02  0.51100000000E-03 0. -1.
    9900012    2    1    2    0    0 -0.16316705834E+02  0.24681802425E+02  0.33965971742E+02  0.46142317670E+02  0.99999991658E+01 0.  0.
         12    1    1    2    0    0  0.16316705834E+02 -0.24681802425E+02 -0.33965971742E+02  0.45045682330E+02  0.00000000000E+00 0. -1.
         11    1    3    3    0    0 -0.35285234577E+01  0.37974256905E+01  0.19104214919E+01  0.55245479638E+01  0.51100000000E-03 0. -1.
        -11    1    3    3    0    0 -0.14213434539E+01  0.25010325575E+01  0.67554357242E+01  0.73424310111E+01  0.51100000000E-03 0.  1.
         12    1    3    3    0    0 -0.11366838923E+02  0.18383344177E+02  0.25300114526E+02  0.33275338695E+02  0.00000000000E+00 0. -1.
</event>
<event>
 7    1  0.2227287E-008  0.4614232E+02  0.7816164E-02  0.1320468E+00
        -11   -1    0    0    0    0  0.00000000000E+00  0.00000000000E+00  0.45593999997E+02  0.45594000000E+02  0.51100000000E-03 0.  1.
         11   -1    0    0    0    0 -0.00000000000E+00 -0.00000000000E+00 -0.45593999997E+02  0.45594000000E+02  0.51100000000E-03 0. -1.
    9900012    2    1    2    0    0  0.20024251673E+02  0.27395812367E+02  0.29624519519E+02  0.46142319330E+02  0.10000014306E+02 0.  0.
         12    1    1    2    0    0 -0.20024251673E+02 -0.27395812367E+02 -0.29624519519E+02  0.45045680670E+02  0.00000000000E+00 0. -1.
         11    1    3    3    0    0  0.17547818531E+01  0.14998535985E+00  0.21570652063E+01  0.27847235995E+01  0.51100000000E-03 0. -1.
        -11    1    3    3    0    0  0.12270482243E+02  0.21984069615E+02  0.17858164995E+02  0.30867103987E+02  0.51100000000E-03 0.  1.
        -12    1    3    3    0    0  0.59989875764E+01  0.52617573920E+01  0.96092893179E+01  0.12490491743E+02  0.00000000000E+00 0.  1.
</event>
<event>
 7    1  0.2227287E-008  0.4614232E+02  0.7816164E-02  0.1320468E+00
        -11   -1    0    0    0    0  0.00000000000E+00  0.00000000000E+00  0.45593999997E+02  0.45594000000E+02  0.51100000000E-03 0.  1.
         11   -1    0    0    0    0 -0.00000000000E+00 -0.00000000000E+00 -0.45593999997E+02  0.45594000000E+02  0.51100000000E-03 0. -1.
    9900012    2    1    2    0    0  0.65495908489E+00 -0.20970695298E+02  0.39861188326E+02  0.46142319104E+02  0.10000012242E+02 0.  0.
         12    1    1    2    0    0 -0.65495908489E+00  0.20970695298E+02 -0.39861188326E+02  0.45045680896E+02  0.00000000000E+00 0. -1.
         11    1    3    3    0    0 -0.13915473222E+00 -0.37113403244E+00  0.21044647427E+00  0.44876774526E+00  0.51100000000E-03 0. -1.
        -11    1    3    3    0    0 -0.30992144241E+01 -0.12785814248E+02  0.29528672379E+02  0.32326841305E+02  0.51100000000E-03 0.  1.
         12    1    3    3    0    0  0.38933282412E+01 -0.78137470173E+01  0.10122069472E+02  0.13366710053E+02  0.00000000000E+00 0. -1.
</event>
<event>
 7    1  0.2227287E-008  0.4614232E+02  0.7816164E-02  0.1320468E+00
        -11   -1    0    0    0    0  0.00000000000E+00  0.00000000000E+00  0.45593999997E+02  0.45594000000E+02  0.51100000000E-03 0. -1.
         11   -1    0    0    0    0 -0.00000000000E+00 -0.00000000000E+00 -0.45593999997E+02  0.45594000000E+02  0.51100000000E-03 0.  1.
    9900012    2    1    2    0    0 -0.23879380813E+02 -0.36476676367E+02 -0.11328759019E+02  0.46142317324E+02  0.99999960144E+01 0.  0.
         12    1    1    2    0    0  0.23879380813E+02  0.36476676367E+02  0.11328759019E+02  0.45045682676E+02  0.00000000000E+00 0. -1.
         11    1    3    3    0    0 -0.12078791253E+02 -0.10431047506E+02 -0.34787488695E+01  0.16334186364E+02  0.51100000000E-03 0.  1.
        -11    1    3    3    0    0 -0.58541860479E-01 -0.12384099924E+01  0.71924135349E-01  0.12418775306E+01  0.51100000000E-03 0. -1.
        -12    1    3    3    0    0 -0.11742047699E+02 -0.24807218869E+02 -0.79219342850E+01  0.28566253429E+02  0.00000000000E+00 0.  1.
</event>
<event>
 7    1  0.2227287E-008  0.4614232E+02  0.7816164E-02  0.1320468E+00
        -11   -1    0    0    0    0  0.00000000000E+00  0.00000000000E+00  0.45593999997E+02  0.45594000000E+02  0.51100000000E-03 0. -1.
         11   -1    0    0    0    0 -0.00000000000E+00 -0.00000000000E+00 -0.45593999997E+02  0.45594000000E+02  0.51100000000E-03 0.  1.
    9900012    2    1    2    0    0 -0.20277830068E+02  0.17387416840E+02 -0.36271211311E+02  0.46142318447E+02  0.10000006257E+02 0.  0.
         12    1    1    2    0    0  0.20277830068E+02 -0.17387416840E+02  0.36271211311E+02  0.45045681553E+02  0.00000000000E+00 0. -1.
         11    1    3    3    0    0 -0.22948105380E+01  0.37410679448E+01 -0.67715836173E+01  0.80694541154E+01  0.51100000000E-03 0. -1.
        -11    1    3    3    0    0 -0.10152140330E+01  0.48378492312E+01 -0.56747806704E+01  0.75258607903E+01  0.51100000000E-03 0.  1.
        -12    1    3    3    0    0 -0.16967805497E+02  0.88084996637E+01 -0.23824847023E+02  0.30547003542E+02  0.00000000000E+00 0.  1.
</event>
<event>
 7    1  0.2227287E-008  0.4614232E+02  0.7816164E-02  0.1320468E+00
        -11   -1    0    0    0    0  0.00000000000E+00  0.00000000000E+00  0.45593999997E+02  0.45594000000E+02  0.51100000000E-03 0.  1.
         11   -1    0    0    0    0 -0.00000000000E+00 -0.00000000000E+00 -0.45593999997E+02  0.45594000000E+02  0.51100000000E-03 0. -1.
    9900012    2    1    2    0    0 -0.35144663216E+02  0.27623720736E+02  0.55584304016E+01  0.46142318204E+02  0.10000004043E+02 0.  0.
         12    1    1    2    0    0  0.35144663216E+02 -0.27623720736E+02 -0.55584304016E+01  0.45045681796E+02  0.00000000000E+00 0. -1.
         11    1    3    3    0    0 -0.26189945975E+01  0.18588898787E+01  0.18151300600E+01  0.36890787032E+01  0.51100000000E-03 0. -1.
        -11    1    3    3    0    0 -0.16941904935E+02  0.11635497652E+02  0.56957979801E+01  0.21327331369E+02  0.51100000000E-03 0.  1.
        -12    1    3    3    0    0 -0.15583763684E+02  0.14129333205E+02 -0.19524976385E+01  0.21125908132E+02  0.00000000000E+00 0.  1.
</event>
<event>
 7    1  0.2227287E-008  0.4614232E+02  0.7816164E-02  0.1320468E+00
        -11   -1    0    0    0    0  0.00000000000E+00  0.00000000000E+00  0.45593999997E+02  0.45594000000E+02  0.51100000000E-03 0.  1.
         11   -1    0    0    0    0 -0.00000000000E+00 -0.00000000000E+00 -0.45593999997E+02  0.45594000000E+02  0.51100000000E-03 0. -1.
    9900012    2    1    2    0    0  0.23876614880E+02  0.24973772870E+02  0.28902102886E+02  0.46142316292E+02  0.99999866024E+01 0.  0.
         12    1    1    2    0    0 -0.23876614880E+02 -0.24973772870E+02 -0.28902102886E+02  0.45045683708E+02  0.00000000000E+00 0. -1.
         11    1    3    3    0    0  0.89636276561E+01  0.15563222605E+02  0.12163807826E+02  0.21691443929E+02  0.51100000000E-03 0. -1.
        -11    1    3    3    0    0  0.32924629447E+01  0.32508175236E+01  0.36187234511E+01  0.58739498202E+01  0.51100000000E-03 0.  1.
         12    1    3    3    0    0  0.11620524279E+02  0.61597327411E+01  0.13119571609E+02  0.18576922543E+02  0.00000000000E+00 0. -1.
</event>
<event>
 7    1  0.2227287E-008  0.4614232E+02  0.7816164E-02  0.1320468E+00
        -11   -1    0    0    0    0  0.00000000000E+00  0.00000000000E+00  0.45593999997E+02  0.45594000000E+02  0.51100000000E-03 0.  1.
         11   -1    0    0    0    0 -0.00000000000E+00 -0.00000000000E+00 -0.45593999997E+02  0.45594000000E+02  0.51100000000E-03 0. -1.
    9900012    2    1    2    0    0 -0.18078275816E+02  0.49088052615E+01  0.40965756335E+02  0.46142316326E+02  0.99999869170E+01 0.  0.
         12    1    1    2    0    0  0.18078275816E+02 -0.49088052615E+01 -0.40965756335E+02  0.45045683674E+02  0.00000000000E+00 0. -1.
         11    1    3    3    0    0 -0.96415595175E+01  0.47287487580E+01  0.18872889494E+02  0.21714204864E+02  0.51100000000E-03 0. -1.
        -11    1    3    3    0    0 -0.55196314619E+01  0.24418356659E+01  0.90888620565E+01  0.10910376100E+02  0.51100000000E-03 0.  1.
         12    1    3    3    0    0 -0.29170848362E+01 -0.22617791624E+01  0.13004004784E+02  0.13517735363E+02  0.00000000000E+00 0. -1.
</event>
<event>
 7    1  0.2227287E-008  0.4614232E+02  0.7816164E-02  0.1320468E+00
        -11   -1    0    0    0    0  0.00000000000E+00  0.00000000000E+00  0.45593999997E+02  0.45594000000E+02  0.51100000000E-03 0.  1.
         11   -1    0    0    0    0 -0.00000000000E+00 -0.00000000000E+00 -0.45593999997E+02  0.45594000000E+02  0.51100000000E-03 0. -1.
    9900012    2    1    2    0    0  0.35179745237E+02  0.12763578405E+02  0.25071699519E+02  0.46142317350E+02  0.99999962506E+01 0.  0.
         12    1    1    2    0    0 -0.35179745237E+02 -0.12763578405E+02 -0.25071699519E+02  0.45045682650E+02  0.00000000000E+00 0. -1.
         11    1    3    3    0    0  0.84078226197E+01  0.51501596543E+01  0.10447701072E+02  0.14365586783E+02  0.51100000000E-03 0. -1.
        -11    1    3    3    0    0  0.39426514779E+01  0.28604654403E+01  0.20610157080E+01  0.52890972028E+01  0.51100000000E-03 0.  1.
        -12    1    3    3    0    0  0.22829271139E+02  0.47529533106E+01  0.12562982739E+02  0.26487633364E+02  0.00000000000E+00 0.  1.
</event>
<event>
 7    1  0.2227287E-008  0.4614232E+02  0.7816164E-02  0.1320468E+00
        -11   -1    0    0    0    0  0.00000000000E+00  0.00000000000E+00  0.45593999997E+02  0.45594000000E+02  0.51100000000E-03 0. -1.
         11   -1    0    0    0    0 -0.00000000000E+00 -0.00000000000E+00 -0.45593999997E+02  0.45594000000E+02  0.51100000000E-03 0.  1.
    9900012    2    1    2    0    0  0.38451160355E+02 -0.16544904066E+02 -0.16639939751E+02  0.46142321205E+02  0.10000031406E+02 0.  0.
         12    1    1    2    0    0 -0.38451160355E+02  0.16544904066E+02  0.16639939751E+02  0.45045678795E+02  0.00000000000E+00 0. -1.
         11    1    3    3    0    0  0.14871287253E+01 -0.20652951437E+01 -0.27332931495E+01  0.37346870790E+01  0.51100000000E-03 0. -1.
        -11    1    3    3    0    0  0.28015103378E+02 -0.11826633362E+02 -0.12855158499E+02  0.33014699367E+02  0.51100000000E-03 0.  1.
        -12    1    3    3    0    0  0.89489282509E+01 -0.26529755603E+01 -0.10514881018E+01  0.93929347592E+01  0.00000000000E+00 0.  1.
</event>
<event>
 7    1  0.2227287E-008  0.4614232E+02  0.7816164E-02  0.1320468E+00
        -11   -1    0    0    0    0  0.00000000000E+00  0.00000000000E+00  0.45593999997E+02  0.45594000000E+02  0.51100000000E-03 0. -1.
         11   -1    0    0    0    0 -0.00000000000E+00 -0.00000000000E+00 -0.45593999997E+02  0.45594000000E+02  0.51100000000E-03 0.  1.
    9900012    2    1    2    0    0 -0.26490402085E+02 -0.36163888106E+02 -0.44209690948E+01  0.46142321258E+02  0.10000031889E+02 0.  0.
         12    1    1    2    0    0  0.26490402085E+02  0.36163888106E+02  0.44209690948E+01  0.45045678742E+02  0.00000000000E+00 0. -1.
         11    1    3    3    0    0 -0.29940383490E+01 -0.15603289317E+01 -0.72280367770E+00  0.34527289827E+01  0.51100000000E-03 0. -1.
        -11    1    3    3    0    0 -0.13253371456E+02 -0.22291911257E+02 -0.56890990617E+01  0.26550838232E+02  0.51100000000E-03 0.  1.
         12    1    3    3    0    0 -0.10242992280E+02 -0.12311647918E+02  0.19909336446E+01  0.16138754043E+02  0.00000000000E+00 0. -1.
</event>
<event>
 7    1  0.2227287E-008  0.4614232E+02  0.7816164E-02  0.1320468E+00
        -11   -1    0    0    0    0  0.00000000000E+00  0.00000000000E+00  0.45593999997E+02  0.45594000000E+02  0.51100000000E-03 0. -1.
         11   -1    0    0    0    0 -0.00000000000E+00 -0.00000000000E+00 -0.45593999997E+02  0.45594000000E+02  0.51100000000E-03 0.  1.
    9900012    2    1    2    0    0 -0.10851006901E+02 -0.95400139552E+01 -0.42665644425E+02  0.46142318395E+02  0.10000005782E+02 0.  0.
         12    1    1    2    0    0  0.10851006901E+02  0.95400139552E+01  0.42665644425E+02  0.45045681605E+02  0.00000000000E+00 0. -1.
         11    1    3    3    0    0 -0.37650295469E+01 -0.64545842152E+01 -0.13725997275E+02  0.15628183079E+02  0.51100000000E-03 0. -1.
        -11    1    3    3    0    0  0.56050383030E+00 -0.14449869342E+01 -0.82808471351E+01  0.84246413170E+01  0.51100000000E-03 0.  1.
        -12    1    3    3    0    0 -0.76464811843E+01 -0.16404428058E+01 -0.20658800015E+02  0.22089494000E+02  0.00000000000E+00 0.  1.
</event>
<event>
 7    1  0.2227287E-008  0.4614232E+02  0.7816164E-02  0.1320468E+00
        -11   -1    0    0    0    0  0.00000000000E+00  0.00000000000E+00  0.45593999997E+02  0.45594000000E+02  0.51100000000E-03 0.  1.
         11   -1    0    0    0    0 -0.00000000000E+00 -0.00000000000E+00 -0.45593999997E+02  0.45594000000E+02  0.51100000000E-03 0. -1.
    9900012    2    1    2    0    0  0.25915731638E+02 -0.56148074964E+01  0.36413764087E+02  0.46142318470E+02  0.10000006462E+02 0.  0.
         12    1    1    2    0    0 -0.25915731638E+02  0.56148074964E+01 -0.36413764087E+02  0.45045681530E+02  0.00000000000E+00 0. -1.
         11    1    3    3    0    0  0.10571891158E+02 -0.12845486808E+01  0.12315212284E+02  0.16281259221E+02  0.51100000000E-03 0. -1.
        -11    1    3    3    0    0  0.99082832020E+01  0.94439529497E+00  0.12043468593E+02  0.15624054995E+02  0.51100000000E-03 0.  1.
         12    1    3    3    0    0  0.54355572777E+01 -0.52746541105E+01  0.12055083210E+02  0.14237004253E+02  0.00000000000E+00 0. -1.
</event>
<event>
 7    1  0.2227287E-008  0.4614232E+02  0.7816164E-02  0.1320468E+00
        -11   -1    0    0    0    0  0.00000000000E+00  0.00000000000E+00  0.45593999997E+02  0.45594000000E+02  0.51100000000E-03 0.  1.
         11   -1    0    0    0    0 -0.00000000000E+00 -0.00000000000E+00 -0.45593999997E+02  0.45594000000E+02  0.51100000000E-03 0. -1.
    9900012    2    1    2    0    0 -0.37272391367E+02  0.25169438838E+02  0.25262015520E+01  0.46142317589E+02  0.99999984289E+01 0.  0.
         12    1    1    2    0    0  0.37272391367E+02 -0.25169438838E+02 -0.25262015520E+01  0.45045682411E+02  0.00000000000E+00 0. -1.
         11    1    3    3    0    0 -0.53328021019E+01  0.36517615421E+01 -0.65936339226E+00  0.64968377663E+01  0.51100000000E-03 0. -1.
        -11    1    3    3    0    0 -0.19741684119E+02  0.10299141167E+02 -0.18001528832E+01  0.22339358793E+02  0.51100000000E-03 0.  1.
         12    1    3    3    0    0 -0.12197905146E+02  0.11218536129E+02  0.49857178274E+01  0.17306121030E+02  0.00000000000E+00 0. -1.
</event>
<event>
 7    1  0.2227287E-008  0.4614232E+02  0.7816164E-02  0.1320468E+00
        -11   -1    0    0    0    0  0.00000000000E+00  0.00000000000E+00  0.45593999997E+02  0.45594000000E+02  0.51100000000E-03 0.  1.
         11   -1    0    0    0    0 -0.00000000000E+00 -0.00000000000E+00 -0.45593999997E+02  0.45594000000E+02  0.51100000000E-03 0. -1.
    9900012    2    1    2    0    0  0.34523891014E+01  0.25310996017E+02  0.37101857729E+02  0.46142319222E+02  0.10000013317E+02 0.  0.
         12    1    1    2    0    0 -0.34523891014E+01 -0.25310996017E+02 -0.37101857729E+02  0.45045680778E+02  0.00000000000E+00 0. -1.
         11    1    3    3    0    0  0.19181974194E+01  0.24841009322E+01  0.67004965171E+01  0.73991143131E+01  0.51100000000E-03 0. -1.
        -11    1    3    3    0    0 -0.56568986650E+00  0.18861075084E+02  0.20442795410E+02  0.27820281141E+02  0.51100000000E-03 0.  1.
        -12    1    3    3    0    0  0.20998815484E+01  0.39658200010E+01  0.99585658022E+01  0.10922923768E+02  0.00000000000E+00 0.  1.
</event>
<event>
 7    1  0.2227287E-008  0.4614232E+02  0.7816164E-02  0.1320468E+00
        -11   -1    0    0    0    0  0.00000000000E+00  0.00000000000E+00  0.45593999997E+02  0.45594000000E+02  0.51100000000E-03 0. -1.
         11   -1    0    0    0    0 -0.00000000000E+00 -0.00000000000E+00 -0.45593999997E+02  0.45594000000E+02  0.51100000000E-03 0.  1.
    9900012    2    1    2    0    0 -0.43468872739E+02  0.73714899614E+01  0.92320989951E+01  0.46142318595E+02  0.10000007601E+02 0.  0.
         12    1    1    2    0    0  0.43468872739E+02 -0.73714899614E+01 -0.92320989951E+01  0.45045681405E+02  0.00000000000E+00 0. -1.
         11    1    3    3    0    0 -0.66792914805E+01  0.46679128016E+01  0.31160569285E+01  0.87242280832E+01  0.51100000000E-03 0. -1.
        -11    1    3    3    0    0 -0.17259872152E+02  0.18571619700E+01  0.32488303787E+01  0.17660892854E+02  0.51100000000E-03 0.  1.
         12    1    3    3    0    0 -0.19529709106E+02  0.84641518983E+00  0.28672116879E+01  0.19757197658E+02  0.00000000000E+00 0. -1.
</event>
<event>
 7    1  0.2227287E-008  0.4614232E+02  0.7816164E-02  0.1320468E+00
        -11   -1    0    0    0    0  0.00000000000E+00  0.00000000000E+00  0.45593999997E+02  0.45594000000E+02  0.51100000000E-03 0.  1.
         11   -1    0    0    0    0 -0.00000000000E+00 -0.00000000000E+00 -0.45593999997E+02  0.45594000000E+02  0.51100000000E-03 0. -1.
    9900012    2    1    2    0    0 -0.21833194464E+02  0.36790241806E+02  0.14103305234E+02  0.46142317730E+02  0.99999997194E+01 0.  0.
         12    1    1    2    0    0  0.21833194464E+02 -0.36790241806E+02 -0.14103305234E+02  0.45045682270E+02  0.00000000000E+00 0. -1.
         11    1    3    3    0    0 -0.76568030160E+01  0.11821590440E+02  0.74321937095E+00  0.14104219520E+02  0.51100000000E-03 0. -1.
        -11    1    3    3    0    0 -0.98262389197E+01  0.15445739913E+02  0.60934513540E+01  0.19293936934E+02  0.51100000000E-03 0.  1.
         12    1    3    3    0    0 -0.43501525279E+01  0.95229114529E+01  0.72666345088E+01  0.12744161276E+02  0.00000000000E+00 0. -1.
</event>
<event>
 7    1  0.2227287E-008  0.4614232E+02  0.7816164E-02  0.1320468E+00
        -11   -1    0    0    0    0  0.00000000000E+00  0.00000000000E+00  0.45593999997E+02  0.45594000000E+02  0.51100000000E-03 0.  1.
         11   -1    0    0    0    0 -0.00000000000E+00 -0.00000000000E+00 -0.45593999997E+02  0.45594000000E+02  0.51100000000E-03 0. -1.
    9900012    2    1    2    0    0  0.19424722931E+02  0.24381721988E+02  0.32516540825E+02  0.46142315908E+02  0.99999831060E+01 0.  0.
         12    1    1    2    0    0 -0.19424722931E+02 -0.24381721988E+02 -0.32516540825E+02  0.45045684092E+02  0.00000000000E+00 0. -1.
         11    1    3    3    0    0  0.91140117156E+01  0.69563000601E+01  0.75660990111E+01  0.13736854610E+02  0.51100000000E-03 0. -1.
        -11    1    3    3    0    0  0.65616353088E+01  0.11358831984E+02  0.12869803542E+02  0.18376886718E+02  0.51100000000E-03 0.  1.
         12    1    3    3    0    0  0.37490759063E+01  0.60665899445E+01  0.12080638272E+02  0.14028574580E+02  0.00000000000E+00 0. -1.
</event>
<event>
 7    1  0.2227287E-008  0.4614231E+02  0.7816164E-02  0.1320468E+00
        -11   -1    0    0    0    0  0.00000000000E+00  0.00000000000E+00  0.45593999997E+02  0.45594000000E+02  0.51100000000E-03 0. -1.
         11   -1    0    0    0    0 -0.00000000000E+00 -0.00000000000E+00 -0.45593999997E+02  0.45594000000E+02  0.51100000000E-03 0.  1.
    9900012    2    1    2    0    0  0.58896784261E+01 -0.41532310005E+02 -0.16416234028E+02  0.46142314014E+02  0.99999658328E+01 0.  0.
         12    1    1    2    0    0 -0.58896784261E+01  0.41532310005E+02  0.16416234028E+02  0.45045685986E+02  0.00000000000E+00 0. -1.
         11    1    3    3    0    0  0.12444435394E+01 -0.41198630747E+01 -0.35290188533E+01  0.55655984229E+01  0.51100000000E-03 0. -1.
        -11    1    3    3    0    0  0.41794492058E+01 -0.37621041109E+02 -0.12304609272E+02  0.39802185108E+02  0.51100000000E-03 0.  1.
        -12    1    3    3    0    0  0.46578568086E+00  0.20859417907E+00 -0.58260590212E+00  0.77453048308E+00  0.00000000000E+00 0.  1.
</event>
<event>
 7    1  0.2227287E-008  0.4614232E+02  0.7816164E-02  0.1320468E+00
        -11   -1    0    0    0    0  0.00000000000E+00  0.00000000000E+00  0.45593999997E+02  0.45594000000E+02  0.51100000000E-03 0. -1.
         11   -1    0    0    0    0 -0.00000000000E+00 -0.00000000000E+00 -0.45593999997E+02  0.45594000000E+02  0.51100000000E-03 0.  1.
    9900012    2    1    2    0    0  0.20786973482E+02 -0.39375411646E+02  0.68258405825E+01  0.46142318648E+02  0.10000008090E+02 0.  0.
         12    1    1    2    0    0 -0.20786973482E+02  0.39375411646E+02 -0.68258405825E+01  0.45045681352E+02  0.00000000000E+00 0. -1.
         11    1    3    3    0    0  0.58995371589E+01 -0.12058400390E+02  0.33011037335E+01  0.13824139929E+02  0.51100000000E-03 0.  1.
        -11    1    3    3    0    0  0.97067241174E+01 -0.13996142430E+02 -0.16614110103E+01  0.17113526312E+02  0.51100000000E-03 0. -1.
         12    1    3    3    0    0  0.51807122053E+01 -0.13320868825E+02  0.51861478593E+01  0.15204652407E+02  0.00000000000E+00 0. -1.
</event>
<event>
 7    1  0.2227287E-008  0.4614232E+02  0.7816164E-02  0.1320468E+00
        -11   -1    0    0    0    0  0.00000000000E+00  0.00000000000E+00  0.45593999997E+02  0.45594000000E+02  0.51100000000E-03 0. -1.
         11   -1    0    0    0    0 -0.00000000000E+00 -0.00000000000E+00 -0.45593999997E+02  0.45594000000E+02  0.51100000000E-03 0.  1.
    9900012    2    1    2    0    0  0.87342957581E+01 -0.43986184338E+02  0.42474879895E+01  0.46142317752E+02  0.99999999127E+01 0.  0.
         12    1    1    2    0    0 -0.87342957581E+01  0.43986184338E+02 -0.42474879895E+01  0.45045682248E+02  0.00000000000E+00 0. -1.
         11    1    3    3    0    0  0.12330400922E+00 -0.51176309189E+01 -0.70469798025E+00  0.51673929215E+01  0.51100000000E-03 0. -1.
        -11    1    3    3    0    0  0.60066405747E+01 -0.36961649091E+02  0.45252261012E+01  0.37718972760E+02  0.51100000000E-03 0.  1.
        -12    1    3    3    0    0  0.26043511742E+01 -0.19069043282E+01  0.42695986851E+00  0.32559520704E+01  0.00000000000E+00 0.  1.
</event>
<event>
 7    1  0.2227287E-008  0.4614232E+02  0.7816164E-02  0.1320468E+00
        -11   -1    0    0    0    0  0.00000000000E+00  0.00000000000E+00  0.45593999997E+02  0.45594000000E+02  0.51100000000E-03 0.  1.
         11   -1    0    0    0    0 -0.00000000000E+00 -0.00000000000E+00 -0.45593999997E+02  0.45594000000E+02  0.51100000000E-03 0. -1.
    9900012    2    1    2    0    0  0.26370239046E+01 -0.22951885837E+02  0.38670016989E+02  0.46142321268E+02  0.10000031977E+02 0.  0.
         12    1    1    2    0    0 -0.26370239046E+01  0.22951885837E+02 -0.38670016989E+02  0.45045678732E+02  0.00000000000E+00 0. -1.
         11    1    3    3    0    0  0.48602578861E+00 -0.93467330969E+01  0.95250784970E+01  0.13353829461E+02  0.51100000000E-03 0. -1.
        -11    1    3    3    0    0 -0.37620056645E+00 -0.87687363361E+01  0.12512905047E+02  0.15284143966E+02  0.51100000000E-03 0.  1.
         12    1    3    3    0    0  0.25271986824E+01 -0.48364164040E+01  0.16632033444E+02  0.17504347840E+02  0.00000000000E+00 0. -1.
</event>
<event>
 7    1  0.2227287E-008  0.4614232E+02  0.7816164E-02  0.1320468E+00
        -11   -1    0    0    0    0  0.00000000000E+00  0.00000000000E+00  0.45593999997E+02  0.45594000000E+02  0.51100000000E-03 0. -1.
         11   -1    0    0    0    0 -0.00000000000E+00 -0.00000000000E+00 -0.45593999997E+02  0.45594000000E+02  0.51100000000E-03 0.  1.
    9900012    2    1    2    0    0 -0.35830842362E+02  0.26687369434E+02 -0.57487869577E+01  0.46142317597E+02  0.99999985011E+01 0.  0.
         12    1    1    2    0    0  0.35830842362E+02 -0.26687369434E+02  0.57487869577E+01  0.45045682403E+02  0.00000000000E+00 0. -1.
         11    1    3    3    0    0 -0.65304822722E+01  0.98789792893E+00 -0.12298798005E+00  0.66059266821E+01  0.51100000000E-03 0. -1.
        -11    1    3    3    0    0 -0.16080401757E+02  0.11754721514E+02 -0.27935491850E+01  0.20113595299E+02  0.51100000000E-03 0.  1.
         12    1    3    3    0    0 -0.13219958332E+02  0.13944749991E+02 -0.28322497927E+01  0.19422795615E+02  0.00000000000E+00 0. -1.
</event>
<event>
 7    1  0.2227287E-008  0.4614232E+02  0.7816164E-02  0.1320468E+00
        -11   -1    0    0    0    0  0.00000000000E+00  0.00000000000E+00  0.45593999997E+02  0.45594000000E+02  0.51100000000E-03 0.  1.
         11   -1    0    0    0    0 -0.00000000000E+00 -0.00000000000E+00 -0.45593999997E+02  0.45594000000E+02  0.51100000000E-03 0. -1.
    9900012    2    1    2    0    0 -0.43819717857E+02 -0.97646169429E+01  0.36875733327E+01  0.46142316364E+02  0.99999872635E+01 0.  0.
         12    1    1    2    0    0  0.43819717857E+02  0.97646169429E+01 -0.36875733327E+01  0.45045683636E+02  0.00000000000E+00 0. -1.
         11    1    3    3    0    0 -0.19659658066E+02 -0.52734459806E+01  0.10994772786E+01  0.20384313536E+02  0.51100000000E-03 0.  1.
        -11    1    3    3    0    0 -0.21661788964E+02 -0.29012336387E+01  0.46020874251E-01  0.21855259685E+02  0.51100000000E-03 0. -1.
         12    1    3    3    0    0 -0.24982708271E+01 -0.15899373237E+01  0.25420751799E+01  0.39027431429E+01  0.00000000000E+00 0. -1.
</event>
<event>
 7    1  0.2227287E-008  0.4614231E+02  0.7816164E-02  0.1320468E+00
        -11   -1    0    0    0    0  0.00000000000E+00  0.00000000000E+00  0.45593999997E+02  0.45594000000E+02  0.51100000000E-03 0.  1.
         11   -1    0    0    0    0 -0.00000000000E+00 -0.00000000000E+00 -0.45593999997E+02  0.45594000000E+02  0.51100000000E-03 0. -1.
    9900012    2    1    2    0    0 -0.10900911540E+02  0.12150512437E+01  0.43689902040E+02  0.46142314721E+02  0.99999722821E+01 0.  0.
         12    1    1    2    0    0  0.10900911540E+02 -0.12150512437E+01 -0.43689902040E+02  0.45045685279E+02  0.00000000000E+00 0. -1.
         11    1    3    3    0    0  0.26274109708E+00 -0.26462266675E+01  0.70726626675E+01  0.75560641825E+01  0.51100000000E-03 0. -1.
        -11    1    3    3    0    0 -0.16701440880E+01  0.86526452816E-01  0.28198831247E+01  0.32785071602E+01  0.51100000000E-03 0.  1.
        -12    1    3    3    0    0 -0.94935085494E+01  0.37747514584E+01  0.33797356248E+02  0.35307743379E+02  0.00000000000E+00 0.  1.
</event>
<event>
 7    1  0.2227287E-008  0.4614232E+02  0.7816164E-02  0.1320468E+00
        -11   -1    0    0    0    0  0.00000000000E+00  0.00000000000E+00  0.45593999997E+02  0.45594000000E+02  0.51100000000E-03 0. -1.
         11   -1    0    0    0    0 -0.00000000000E+00 -0.00000000000E+00 -0.45593999997E+02  0.45594000000E+02  0.51100000000E-03 0.  1.
    9900012    2    1    2    0    0  0.16479967662E+02 -0.41600231514E+02 -0.51908543261E+01  0.46142316913E+02  0.99999922662E+01 0.  0.
         12    1    1    2    0    0 -0.16479967662E+02  0.41600231514E+02  0.51908543261E+01  0.45045683087E+02  0.00000000000E+00 0. -1.
         11    1    3    3    0    0  0.64116375390E+01 -0.22179077587E+02 -0.59447831684E+01  0.23840323524E+02  0.51100000000E-03 0. -1.
        -11    1    3    3    0    0  0.49236223858E+01 -0.13549842057E+02  0.13082828998E+01  0.14475906935E+02  0.51100000000E-03 0.  1.
        -12    1    3    3    0    0  0.51447077373E+01 -0.58713118694E+01 -0.55435405752E+00  0.78260864544E+01  0.00000000000E+00 0.  1.
</event>
<event>
 7    1  0.2227287E-008  0.4614232E+02  0.7816164E-02  0.1320468E+00
        -11   -1    0    0    0    0  0.00000000000E+00  0.00000000000E+00  0.45593999997E+02  0.45594000000E+02  0.51100000000E-03 0.  1.
         11   -1    0    0    0    0 -0.00000000000E+00 -0.00000000000E+00 -0.45593999997E+02  0.45594000000E+02  0.51100000000E-03 0. -1.
    9900012    2    1    2    0    0 -0.31345071321E+02 -0.26977851825E+02  0.17854841906E+02  0.46142319134E+02  0.10000012515E+02 0.  0.
         12    1    1    2    0    0  0.31345071321E+02  0.26977851825E+02 -0.17854841906E+02  0.45045680866E+02  0.00000000000E+00 0. -1.
         11    1    3    3    0    0 -0.41324167179E+01 -0.77336324222E+01  0.22419468926E+01  0.90505394592E+01  0.51100000000E-03 0. -1.
        -11    1    3    3    0    0 -0.99614746798E+01 -0.44524334698E+01  0.54915994374E+01  0.12215269389E+02  0.51100000000E-03 0.  1.
         12    1    3    3    0    0 -0.17251179924E+02 -0.14791785933E+02  0.10121295576E+02  0.24876510286E+02  0.00000000000E+00 0. -1.
</event>
<event>
 7    1  0.2227287E-008  0.4614232E+02  0.7816164E-02  0.1320468E+00
        -11   -1    0    0    0    0  0.00000000000E+00  0.00000000000E+00  0.45593999997E+02  0.45594000000E+02  0.51100000000E-03 0. -1.
         11   -1    0    0    0    0 -0.00000000000E+00 -0.00000000000E+00 -0.45593999997E+02  0.45594000000E+02  0.51100000000E-03 0.  1.
    9900012    2    1    2    0    0  0.11456531202E+02 -0.12725029806E+02 -0.41664554755E+02  0.46142316370E+02  0.99999873192E+01 0.  0.
         12    1    1    2    0    0 -0.11456531202E+02  0.12725029806E+02  0.41664554755E+02  0.45045683630E+02  0.00000000000E+00 0. -1.
         11    1    3    3    0    0  0.88367052112E+00  0.97299637903E+00 -0.41759100566E+01  0.43778785508E+01  0.51100000000E-03 0. -1.
        -11    1    3    3    0    0  0.40133679512E+01 -0.51291632253E+01 -0.21578056156E+02  0.22539475270E+02  0.51100000000E-03 0.  1.
        -12    1    3    3    0    0  0.65594927301E+01 -0.85688629594E+01 -0.15910588542E+02  0.19224962550E+02  0.00000000000E+00 0.  1.
</event>
<event>
 7    1  0.2227287E-008  0.4614232E+02  0.7816164E-02  0.1320468E+00
        -11   -1    0    0    0    0  0.00000000000E+00  0.00000000000E+00  0.45593999997E+02  0.45594000000E+02  0.51100000000E-03 0.  1.
         11   -1    0    0    0    0 -0.00000000000E+00 -0.00000000000E+00 -0.45593999997E+02  0.45594000000E+02  0.51100000000E-03 0. -1.
    9900012    2    1    2    0    0  0.44866420871E+01  0.71000368001E+01  0.44255767913E+02  0.46142317928E+02  0.10000001523E+02 0.  0.
         12    1    1    2    0    0 -0.44866420871E+01 -0.71000368001E+01 -0.44255767913E+02  0.45045682072E+02  0.00000000000E+00 0. -1.
         11    1    3    3    0    0 -0.51719169178E+00 -0.14301707854E+01  0.94889262813E+01  0.96100259081E+01  0.51100000000E-03 0. -1.
        -11    1    3    3    0    0  0.32699511412E+01  0.49359712594E+01  0.28457069544E+02  0.29066496178E+02  0.51100000000E-03 0.  1.
         12    1    3    3    0    0  0.17338826377E+01  0.35942363262E+01  0.63097720871E+01  0.74657958424E+01  0.00000000000E+00 0. -1.
</event>
<event>
 7    1  0.2227287E-008  0.4614232E+02  0.7816164E-02  0.1320468E+00
        -11   -1    0    0    0    0  0.00000000000E+00  0.00000000000E+00  0.45593999997E+02  0.45594000000E+02  0.51100000000E-03 0.  1.
         11   -1    0    0    0    0 -0.00000000000E+00 -0.00000000000E+00 -0.45593999997E+02  0.45594000000E+02  0.51100000000E-03 0. -1.
    9900012    2    1    2    0    0 -0.18451689096E+02 -0.10632044467E+02  0.39693927076E+02  0.46142322663E+02  0.10000044696E+02 0.  0.
         12    1    1    2    0    0  0.18451689096E+02  0.10632044467E+02 -0.39693927076E+02  0.45045677337E+02  0.00000000000E+00 0. -1.
         11    1    3    3    0    0 -0.37635851263E+01 -0.11629221053E+01  0.27698231762E+01  0.48154835182E+01  0.51100000000E-03 0. -1.
        -11    1    3    3    0    0 -0.81199480561E-01  0.72643142446E+00  0.11405456318E+01  0.13546736026E+01  0.51100000000E-03 0.  1.
        -12    1    3    3    0    0 -0.14606904489E+02 -0.10195553787E+02  0.35783558268E+02  0.39972165542E+02  0.00000000000E+00 0.  1.
</event>
<event>
 7    1  0.2227287E-008  0.4614231E+02  0.7816164E-02  0.1320468E+00
        -11   -1    0    0    0    0  0.00000000000E+00  0.00000000000E+00  0.45593999997E+02  0.45594000000E+02  0.51100000000E-03 0. -1.
         11   -1    0    0    0    0 -0.00000000000E+00 -0.00000000000E+00 -0.45593999997E+02  0.45594000000E+02  0.51100000000E-03 0.  1.
    9900012    2    1    2    0    0  0.35990723659E+02  0.29781416823E+00 -0.27086767012E+02  0.46142313970E+02  0.99999654257E+01 0.  0.
         12    1    1    2    0    0 -0.35990723659E+02 -0.29781416823E+00  0.27086767012E+02  0.45045686030E+02  0.00000000000E+00 0. -1.
         11    1    3    3    0    0  0.81669529201E+01 -0.17162717823E+01 -0.85405796552E+01  0.11940946777E+02  0.51100000000E-03 0. -1.
        -11    1    3    3    0    0  0.11879269065E+02  0.63572136372E+00 -0.12038932400E+02  0.16925042652E+02  0.51100000000E-03 0.  1.
        -12    1    3    3    0    0  0.15944501674E+02  0.13783645868E+01 -0.65072549575E+01  0.17276324541E+02  0.00000000000E+00 0.  1.
</event>
<event>
 7    1  0.2227287E-008  0.4614232E+02  0.7816164E-02  0.1320468E+00
        -11   -1    0    0    0    0  0.00000000000E+00  0.00000000000E+00  0.45593999997E+02  0.45594000000E+02  0.51100000000E-03 0.  1.
         11   -1    0    0    0    0 -0.00000000000E+00 -0.00000000000E+00 -0.45593999997E+02  0.45594000000E+02  0.51100000000E-03 0. -1.
    9900012    2    1    2    0    0 -0.70975038408E+01  0.36983959023E+02 -0.24716908788E+02  0.46142319121E+02  0.10000012405E+02 0.  0.
         12    1    1    2    0    0  0.70975038408E+01 -0.36983959023E+02  0.24716908788E+02  0.45045680879E+02  0.00000000000E+00 0. -1.
         11    1    3    3    0    0  0.23023594826E+01  0.75563613348E+01 -0.35310125039E+01  0.86526010756E+01  0.51100000000E-03 0. -1.
        -11    1    3    3    0    0 -0.17651669861E+01  0.70118808984E+01 -0.44110797945E+01  0.84699417612E+01  0.51100000000E-03 0.  1.
         12    1    3    3    0    0 -0.76346963373E+01  0.22415716790E+02 -0.16774816489E+02  0.29019776285E+02  0.00000000000E+00 0. -1.
</event>
<event>
 7    1  0.2227287E-008  0.4614231E+02  0.7816164E-02  0.1320468E+00
        -11   -1    0    0    0    0  0.00000000000E+00  0.00000000000E+00  0.45593999997E+02  0.45594000000E+02  0.51100000000E-03 0. -1.
         11   -1    0    0    0    0 -0.00000000000E+00 -0.00000000000E+00 -0.45593999997E+02  0.45594000000E+02  0.51100000000E-03 0.  1.
    9900012    2    1    2    0    0  0.42391606698E+02 -0.15204487717E+02 -0.94304235405E+00  0.46142311038E+02  0.99999386938E+01 0.  0.
         12    1    1    2    0    0 -0.42391606698E+02  0.15204487717E+02  0.94304235405E+00  0.45045688962E+02  0.00000000000E+00 0. -1.
         11    1    3    3    0    0  0.60584044810E+01 -0.46683135382E+00 -0.17707723084E+01  0.63291256266E+01  0.51100000000E-03 0. -1.
        -11    1    3    3    0    0  0.30082878427E+02 -0.10354516731E+02  0.27717028905E+01  0.31935527682E+02  0.51100000000E-03 0.  1.
        -12    1    3    3    0    0  0.62503237900E+01 -0.43831396330E+01 -0.19439729361E+01  0.78776577292E+01  0.00000000000E+00 0.  1.
</event>
<event>
 7    1  0.2227287E-008  0.4614232E+02  0.7816164E-02  0.1320468E+00
        -11   -1    0    0    0    0  0.00000000000E+00  0.00000000000E+00  0.45593999997E+02  0.45594000000E+02  0.51100000000E-03 0. -1.
         11   -1    0    0    0    0 -0.00000000000E+00 -0.00000000000E+00 -0.45593999997E+02  0.45594000000E+02  0.51100000000E-03 0.  1.
    9900012    2    1    2    0    0  0.37475488771E+02  0.56994466711E+01 -0.24335519709E+02  0.46142317960E+02  0.10000001811E+02 0.  0.
         12    1    1    2    0    0 -0.37475488771E+02 -0.56994466711E+01  0.24335519709E+02  0.45045682040E+02  0.00000000000E+00 0. -1.
         11    1    3    3    0    0  0.12209049355E+02  0.18936070304E+01 -0.44630017433E+01  0.13136400518E+02  0.51100000000E-03 0. -1.
        -11    1    3    3    0    0  0.23670101894E+02  0.20213606898E+01 -0.19124051278E+02  0.30497359890E+02  0.51100000000E-03 0.  1.
        -12    1    3    3    0    0  0.15963375216E+01  0.17844789508E+01 -0.74846668765E+00  0.25085575519E+01  0.00000000000E+00 0.  1.
</event>
<event>
 7    1  0.2227287E-008  0.4614232E+02  0.7816164E-02  0.1320468E+00
        -11   -1    0    0    0    0  0.00000000000E+00  0.00000000000E+00  0.45593999997E+02  0.45594000000E+02  0.51100000000E-03 0.  1.
         11   -1    0    0    0    0 -0.00000000000E+00 -0.00000000000E+00 -0.45593999997E+02  0.45594000000E+02  0.51100000000E-03 0. -1.
    9900012    2    1    2    0    0 -0.19507150311E+02  0.21870980199E+02  0.34208840878E+02  0.46142317828E+02  0.10000000608E+02 0.  0.
         12    1    1    2    0    0  0.19507150311E+02 -0.21870980199E+02 -0.34208840878E+02  0.45045682172E+02  0.00000000000E+00 0. -1.
         11    1    3    3    0    0 -0.57220408838E+01  0.19573662350E+01  0.68979047304E+01  0.91735557112E+01  0.51100000000E-03 0. -1.
        -11    1    3    3    0    0 -0.58429677035E+01  0.73324918528E+01  0.14847519541E+02  0.17560026912E+02  0.51100000000E-03 0.  1.
         12    1    3    3    0    0 -0.79421417238E+01  0.12581122111E+02  0.12463416606E+02  0.19408735205E+02  0.00000000000E+00 0. -1.
</event>
<event>
 7    1  0.2227287E-008  0.4614232E+02  0.7816164E-02  0.1320468E+00
        -11   -1    0    0    0    0  0.00000000000E+00  0.00000000000E+00  0.45593999997E+02  0.45594000000E+02  0.51100000000E-03 0. -1.
         11   -1    0    0    0    0 -0.00000000000E+00 -0.00000000000E+00 -0.45593999997E+02  0.45594000000E+02  0.51100000000E-03 0.  1.
    9900012    2    1    2    0    0  0.21373404808E+02  0.32958673643E+02  0.22045791536E+02  0.46142317345E+02  0.99999962045E+01 0.  0.
         12    1    1    2    0    0 -0.21373404808E+02 -0.32958673643E+02 -0.22045791536E+02  0.45045682655E+02  0.00000000000E+00 0. -1.
         11    1    3    3    0    0  0.45143060180E+01  0.11519267219E+02  0.67207399601E+01  0.14079801915E+02  0.51100000000E-03 0. -1.
        -11    1    3    3    0    0  0.71688791178E+01  0.12574673002E+02  0.48571415402E+01  0.15267843761E+02  0.51100000000E-03 0.  1.
         12    1    3    3    0    0  0.96902196720E+01  0.88647334216E+01  0.10467910036E+02  0.16794671668E+02  0.00000000000E+00 0. -1.
</event>
<event>
 7    1  0.2227287E-008  0.4614232E+02  0.7816164E-02  0.1320468E+00
        -11   -1    0    0    0    0  0.00000000000E+00  0.00000000000E+00  0.45593999997E+02  0.45594000000E+02  0.51100000000E-03 0.  1.
         11   -1    0    0    0    0 -0.00000000000E+00 -0.00000000000E+00 -0.45593999997E+02  0.45594000000E+02  0.51100000000E-03 0. -1.
    9900012    2    1    2    0    0  0.13381128121E+02  0.18728624696E+02  0.38720763360E+02  0.46142317765E+02  0.10000000037E+02 0.  0.
         12    1    1    2    0    0 -0.13381128121E+02 -0.18728624696E+02 -0.38720763360E+02  0.45045682235E+02  0.00000000000E+00 0. -1.
         11    1    3    3    0    0  0.50610020384E+01  0.54222119170E+01  0.15125739178E+02  0.16846427207E+02  0.51100000000E-03 0.  1.
        -11    1    3    3    0    0  0.54960493035E+01  0.22353112551E+01  0.77141041698E+01  0.97319359717E+01  0.51100000000E-03 0. -1.
        -12    1    3    3    0    0  0.28240767794E+01  0.11071101524E+02  0.15880920013E+02  0.19563954587E+02  0.00000000000E+00 0.  1.
</event>
<event>
 7    1  0.2227287E-008  0.4614232E+02  0.7816164E-02  0.1320468E+00
        -11   -1    0    0    0    0  0.00000000000E+00  0.00000000000E+00  0.45593999997E+02  0.45594000000E+02  0.51100000000E-03 0. -1.
         11   -1    0    0    0    0 -0.00000000000E+00 -0.00000000000E+00 -0.45593999997E+02  0.45594000000E+02  0.51100000000E-03 0.  1.
    9900012    2    1    2    0    0 -0.28210850645E+02 -0.28726564000E+02 -0.20200151680E+02  0.46142315397E+02  0.99999784460E+01 0.  0.
         12    1    1    2    0    0  0.28210850645E+02  0.28726564000E+02  0.20200151680E+02  0.45045684603E+02  0.00000000000E+00 0. -1.
         11    1    3    3    0    0 -0.10437991080E+02 -0.10575027359E+02 -0.61566975007E+01  0.16083773991E+02  0.51100000000E-03 0.  1.
        -11    1    3    3    0    0 -0.11206707932E+02 -0.15300699968E+02 -0.12561363194E+02  0.22748397037E+02  0.51100000000E-03 0. -1.
         12    1    3    3    0    0 -0.65661516334E+01 -0.28508366737E+01 -0.14820909855E+01  0.73101443694E+01  0.00000000000E+00 0. -1.
</event>
<event>
 7    1  0.2227287E-008  0.4614232E+02  0.7816164E-02  0.1320468E+00
        -11   -1    0    0    0    0  0.00000000000E+00  0.00000000000E+00  0.45593999997E+02  0.45594000000E+02  0.51100000000E-03 0.  1.
         11   -1    0    0    0    0 -0.00000000000E+00 -0.00000000000E+00 -0.45593999997E+02  0.45594000000E+02  0.51100000000E-03 0. -1.
    9900012    2    1    2    0    0  0.92351961762E+01 -0.34735243238E+02  0.27153038441E+02  0.46142317989E+02  0.10000002082E+02 0.  0.
         12    1    1    2    0    0 -0.92351961762E+01  0.34735243238E+02 -0.27153038441E+02  0.45045682011E+02  0.00000000000E+00 0. -1.
         11    1    3    3    0    0  0.15876914243E+01 -0.56954023105E+01  0.88898259451E+01  0.10676487116E+02  0.51100000000E-03 0. -1.
        -11    1    3    3    0    0  0.80310244832E+01 -0.24836732434E+02  0.14803043370E+02  0.30008177644E+02  0.51100000000E-03 0.  1.
        -12    1    3    3    0    0 -0.38351973131E+00 -0.42031084940E+01  0.34601691256E+01  0.54576532296E+01  0.00000000000E+00 0.  1.
</event>
<event>
 7    1  0.2227287E-008  0.4614232E+02  0.7816164E-02  0.1320468E+00
        -11   -1    0    0    0    0  0.00000000000E+00  0.00000000000E+00  0.45593999997E+02  0.45594000000E+02  0.51100000000E-03 0.  1.
         11   -1    0    0    0    0 -0.00000000000E+00 -0.00000000000E+00 -0.45593999997E+02  0.45594000000E+02  0.51100000000E-03 0. -1.
    9900012    2    1    2    0    0  0.16222958028E+02 -0.39444469819E+02 -0.14493549160E+02  0.46142317258E+02  0.99999954085E+01 0.  0.
         12    1    1    2    0    0 -0.16222958028E+02  0.39444469819E+02  0.14493549160E+02  0.45045682742E+02  0.00000000000E+00 0. -1.
         11    1    3    3    0    0  0.44348320682E-01 -0.33405126451E+01  0.72338733183E+00  0.34182277570E+01  0.51100000000E-03 0. -1.
        -11    1    3    3    0    0  0.20792687287E+01 -0.10261865118E+02 -0.44885891932E+01  0.11391956257E+02  0.51100000000E-03 0.  1.
         12    1    3    3    0    0  0.14099340979E+02 -0.25842092056E+02 -0.10728347299E+02  0.31332133244E+02  0.00000000000E+00 0. -1.
</event>
<event>
 7    1  0.2227287E-008  0.4614232E+02  0.7816164E-02  0.1320468E+00
        -11   -1    0    0    0    0  0.00000000000E+00  0.00000000000E+00  0.45593999997E+02  0.45594000000E+02  0.51100000000E-03 0. -1.
         11   -1    0    0    0    0 -0.00000000000E+00 -0.00000000000E+00 -0.45593999997E+02  0.45594000000E+02  0.51100000000E-03 0.  1.
    9900012    2    1    2    0    0 -0.15587274462E+01  0.44533698875E+02  0.65904114896E+01  0.46142317739E+02  0.99999998012E+01 0.  0.
         12    1    1    2    0    0  0.15587274462E+01 -0.44533698875E+02 -0.65904114896E+01  0.45045682261E+02  0.00000000000E+00 0. -1.
         11    1    3    3    0    0  0.13463358321E+00  0.92357462767E+01  0.16994735030E+01  0.93917701174E+01  0.51100000000E-03 0. -1.
        -11    1    3    3    0    0  0.14151532979E+01  0.12009032165E+01  0.14193759833E+01  0.23365478456E+01  0.51100000000E-03 0.  1.
        -12    1    3    3    0    0 -0.31085143273E+01  0.34097049382E+02  0.34715620033E+01  0.34413999776E+02  0.00000000000E+00 0.  1.
</event>
<event>
 7    1  0.2227287E-008  0.4614232E+02  0.7816164E-02  0.1320468E+00
        -11   -1    0    0    0    0  0.00000000000E+00  0.00000000000E+00  0.45593999997E+02  0.45594000000E+02  0.51100000000E-03 0. -1.
         11   -1    0    0    0    0 -0.00000000000E+00 -0.00000000000E+00 -0.45593999997E+02  0.45594000000E+02  0.51100000000E-03 0.  1.
    9900012    2    1    2    0    0 -0.17071958475E+02 -0.19598719191E+02 -0.36790650182E+02  0.46142317622E+02  0.99999987305E+01 0.  0.
         12    1    1    2    0    0  0.17071958475E+02  0.19598719191E+02  0.36790650182E+02  0.45045682378E+02  0.00000000000E+00 0. -1.
         11    1    3    3    0    0 -0.58218347622E+01 -0.70262304422E+01 -0.10883742763E+02  0.14202729703E+02  0.51100000000E-03 0. -1.
        -11    1    3    3    0    0 -0.77530345781E+00 -0.43368515155E+01 -0.11502251390E+02  0.12317108582E+02  0.51100000000E-03 0.  1.
        -12    1    3    3    0    0 -0.10474820255E+02 -0.82356372337E+01 -0.14404656028E+02  0.19622479337E+02  0.00000000000E+00 0.  1.
</event>
<event>
 7    1  0.2227287E-008  0.4614232E+02  0.7816164E-02  0.1320468E+00
        -11   -1    0    0    0    0  0.00000000000E+00  0.00000000000E+00  0.45593999997E+02  0.45594000000E+02  0.51100000000E-03 0. -1.
         11   -1    0    0    0    0 -0.00000000000E+00 -0.00000000000E+00 -0.45593999997E+02  0.45594000000E+02  0.51100000000E-03 0.  1.
    9900012    2    1    2    0    0 -0.25009289707E+02 -0.21766105031E+02 -0.30494024088E+02  0.46142318687E+02  0.10000008448E+02 0.  0.
         12    1    1    2    0    0  0.25009289707E+02  0.21766105031E+02  0.30494024088E+02  0.45045681313E+02  0.00000000000E+00 0. -1.
         11    1    3    3    0    0 -0.12772538013E+02 -0.64682633783E+01 -0.10291021221E+02  0.17631825670E+02  0.51100000000E-03 0. -1.
        -11    1    3    3    0    0 -0.65703067569E+01 -0.10168979419E+02 -0.96590972275E+01  0.15487906018E+02  0.51100000000E-03 0.  1.
         12    1    3    3    0    0 -0.56664449362E+01 -0.51288622334E+01 -0.10543905640E+02  0.13022586999E+02  0.00000000000E+00 0. -1.
</event>
<event>
 7    1  0.2227287E-008  0.4614232E+02  0.7816164E-02  0.1320468E+00
        -11   -1    0    0    0    0  0.00000000000E+00  0.00000000000E+00  0.45593999997E+02  0.45594000000E+02  0.51100000000E-03 0.  1.
         11   -1    0    0    0    0 -0.00000000000E+00 -0.00000000000E+00 -0.45593999997E+02  0.45594000000E+02  0.51100000000E-03 0. -1.
    9900012    2    1    2    0    0  0.17525769199E+02 -0.31590466374E+02  0.26907309234E+02  0.46142318276E+02  0.10000004695E+02 0.  0.
         12    1    1    2    0    0 -0.17525769199E+02  0.31590466374E+02 -0.26907309234E+02  0.45045681724E+02  0.00000000000E+00 0. -1.
         11    1    3    3    0    0 -0.41697257284E-01  0.15863545524E+00  0.11839038038E+01  0.11952122601E+01  0.51100000000E-03 0. -1.
        -11    1    3    3    0    0  0.48334030005E+01 -0.54642876758E+01  0.77961438344E+01  0.10677082154E+02  0.51100000000E-03 0.  1.
        -12    1    3    3    0    0  0.12734063456E+02 -0.26284814154E+02  0.17927261596E+02  0.34270023862E+02  0.00000000000E+00 0.  1.
</event>
<event>
 7    1  0.2227287E-008  0.4614232E+02  0.7816164E-02  0.1320468E+00
        -11   -1    0    0    0    0  0.00000000000E+00  0.00000000000E+00  0.45593999997E+02  0.45594000000E+02  0.51100000000E-03 0.  1.
         11   -1    0    0    0    0 -0.00000000000E+00 -0.00000000000E+00 -0.45593999997E+02  0.45594000000E+02  0.51100000000E-03 0. -1.
    9900012    2    1    2    0    0  0.42764677029E+02  0.62933537516E+01  0.12676340164E+02  0.46142317601E+02  0.99999985430E+01 0.  0.
         12    1    1    2    0    0 -0.42764677029E+02 -0.62933537516E+01 -0.12676340164E+02  0.45045682399E+02  0.00000000000E+00 0. -1.
         11    1    3    3    0    0  0.10788514286E+02  0.14181955164E+01  0.71701035543E+01  0.13031258737E+02  0.51100000000E-03 0.  1.
        -11    1    3    3    0    0  0.11526727284E+02 -0.27028573281E+00  0.12335429628E+01  0.11595694233E+02  0.51100000000E-03 0. -1.
        -12    1    3    3    0    0  0.20449435459E+02  0.51454439680E+01  0.42726936466E+01  0.21515364631E+02  0.00000000000E+00 0.  1.
</event>
<event>
 7    1  0.2227287E-008  0.4614232E+02  0.7816164E-02  0.1320468E+00
        -11   -1    0    0    0    0  0.00000000000E+00  0.00000000000E+00  0.45593999997E+02  0.45594000000E+02  0.51100000000E-03 0.  1.
         11   -1    0    0    0    0 -0.00000000000E+00 -0.00000000000E+00 -0.45593999997E+02  0.45594000000E+02  0.51100000000E-03 0. -1.
    9900012    2    1    2    0    0 -0.30260952674E+02 -0.23488935888E+02  0.23699329354E+02  0.46142316770E+02  0.99999909584E+01 0.  0.
         12    1    1    2    0    0  0.30260952674E+02  0.23488935888E+02 -0.23699329354E+02  0.45045683230E+02  0.00000000000E+00 0. -1.
         11    1    3    3    0    0 -0.47084894957E+01 -0.60465893105E+01  0.25261565220E+01  0.80692368076E+01  0.51100000000E-03 0.  1.
        -11    1    3    3    0    0 -0.19263732168E+02 -0.15172864802E+02  0.19071176986E+02  0.31064722681E+02  0.51100000000E-03 0. -1.
        -12    1    3    3    0    0 -0.62887310100E+01 -0.22694817753E+01  0.21019958458E+01  0.70083572811E+01  0.00000000000E+00 0.  1.
</event>
<event>
 7    1  0.2227287E-008  0.4614232E+02  0.7816164E-02  0.1320468E+00
        -11   -1    0    0    0    0  0.00000000000E+00  0.00000000000E+00  0.45593999997E+02  0.45594000000E+02  0.51100000000E-03 0.  1.
         11   -1    0    0    0    0 -0.00000000000E+00 -0.00000000000E+00 -0.45593999997E+02  0.45594000000E+02  0.51100000000E-03 0. -1.
    9900012    2    1    2    0    0 -0.24076906761E+02 -0.21369517838E+02  0.31508090454E+02  0.46142317678E+02  0.99999992419E+01 0.  0.
         12    1    1    2    0    0  0.24076906761E+02  0.21369517838E+02 -0.31508090454E+02  0.45045682322E+02  0.00000000000E+00 0. -1.
         11    1    3    3    0    0 -0.15783848216E+02 -0.10600114645E+02  0.13925687321E+02  0.23567287978E+02  0.51100000000E-03 0. -1.
        -11    1    3    3    0    0 -0.51480559405E+01 -0.55069309511E+01  0.12565245141E+02  0.14653127795E+02  0.51100000000E-03 0.  1.
         12    1    3    3    0    0 -0.31450026039E+01 -0.52624722425E+01  0.50171579916E+01  0.79219019051E+01  0.00000000000E+00 0. -1.
</event>
<event>
 7    1  0.2227287E-008  0.4614232E+02  0.7816164E-02  0.1320468E+00
        -11   -1    0    0    0    0  0.00000000000E+00  0.00000000000E+00  0.45593999997E+02  0.45594000000E+02  0.51100000000E-03 0.  1.
         11   -1    0    0    0    0 -0.00000000000E+00 -0.00000000000E+00 -0.45593999997E+02  0.45594000000E+02  0.51100000000E-03 0. -1.
    9900012    2    1    2    0    0  0.21992959018E+02 -0.35802799678E+02  0.16235232565E+02  0.46142317770E+02  0.10000000078E+02 0.  0.
         12    1    1    2    0    0 -0.21992959018E+02  0.35802799678E+02 -0.16235232565E+02  0.45045682230E+02  0.00000000000E+00 0. -1.
         11    1    3    3    0    0  0.59746635070E+01 -0.13721097408E+02  0.34419040717E+01  0.15356165602E+02  0.51100000000E-03 0. -1.
        -11    1    3    3    0    0  0.35000836975E+01 -0.99069809040E+01  0.40883534596E+01  0.11274461885E+02  0.51100000000E-03 0.  1.
         12    1    3    3    0    0  0.12518211814E+02 -0.12174721366E+02  0.87049750333E+01  0.19511690283E+02  0.00000000000E+00 0. -1.
</event>
<event>
 7    1  0.2227287E-008  0.4614232E+02  0.7816164E-02  0.1320468E+00
        -11   -1    0    0    0    0  0.00000000000E+00  0.00000000000E+00  0.45593999997E+02  0.45594000000E+02  0.51100000000E-03 0. -1.
         11   -1    0    0    0    0 -0.00000000000E+00 -0.00000000000E+00 -0.45593999997E+02  0.45594000000E+02  0.51100000000E-03 0.  1.
    9900012    2    1    2    0    0 -0.43695968731E+02 -0.10053301893E+02  0.43251420952E+01  0.46142318560E+02  0.10000007284E+02 0.  0.
         12    1    1    2    0    0  0.43695968731E+02  0.10053301893E+02 -0.43251420952E+01  0.45045681440E+02  0.00000000000E+00 0. -1.
         11    1    3    3    0    0 -0.18405037341E+01 -0.57430566873E+00 -0.95081102815E+00  0.21497262311E+01  0.51100000000E-03 0. -1.
        -11    1    3    3    0    0 -0.37688713263E+02 -0.72208933610E+01  0.24005285222E+01  0.38449225555E+02  0.51100000000E-03 0.  1.
         12    1    3    3    0    0 -0.41667517338E+01 -0.22581028634E+01  0.28754246011E+01  0.55433667738E+01  0.00000000000E+00 0. -1.
</event>
<event>
 7    1  0.2227287E-008  0.4614231E+02  0.7816164E-02  0.1320468E+00
        -11   -1    0    0    0    0  0.00000000000E+00  0.00000000000E+00  0.45593999997E+02  0.45594000000E+02  0.51100000000E-03 0.  1.
         11   -1    0    0    0    0 -0.00000000000E+00 -0.00000000000E+00 -0.45593999997E+02  0.45594000000E+02  0.51100000000E-03 0. -1.
    9900012    2    1    2    0    0 -0.12086077045E+02  0.15169457241E+02  0.40656227853E+02  0.46142305927E+02  0.99998920858E+01 0.  0.
         12    1    1    2    0    0  0.12086077045E+02 -0.15169457241E+02 -0.40656227853E+02  0.45045694073E+02  0.00000000000E+00 0. -1.
         11    1    3    3    0    0 -0.78646510506E+00 -0.65044070039E-01 -0.10831596008E+00  0.79654924572E+00  0.51100000000E-03 0. -1.
        -11    1    3    3    0    0 -0.46227054902E+00 -0.31370014068E+00  0.23932535169E+00  0.60776535261E+00  0.51100000000E-03 0.  1.
        -12    1    3    3    0    0 -0.10837341391E+02  0.15548201452E+02  0.40525218461E+02  0.44737991329E+02  0.00000000000E+00 0.  1.
</event>
<event>
 7    1  0.2227287E-008  0.4614232E+02  0.7816164E-02  0.1320468E+00
        -11   -1    0    0    0    0  0.00000000000E+00  0.00000000000E+00  0.45593999997E+02  0.45594000000E+02  0.51100000000E-03 0.  1.
         11   -1    0    0    0    0 -0.00000000000E+00 -0.00000000000E+00 -0.45593999997E+02  0.45594000000E+02  0.51100000000E-03 0. -1.
    9900012    2    1    2    0    0 -0.24455639744E+02 -0.33229567275E+02  0.18078469361E+02  0.46142317509E+02  0.99999977033E+01 0.  0.
         12    1    1    2    0    0  0.24455639744E+02  0.33229567275E+02 -0.18078469361E+02  0.45045682491E+02  0.00000000000E+00 0. -1.
         11    1    3    3    0    0 -0.37591295551E+01 -0.32896367976E+01  0.47598790073E+01  0.68999430213E+01  0.51100000000E-03 0. -1.
        -11    1    3    3    0    0 -0.65342502448E+01 -0.71800712387E+01  0.10596269564E+01  0.97658926270E+01  0.51100000000E-03 0.  1.
        -12    1    3    3    0    0 -0.14162259945E+02 -0.22759859239E+02  0.12258963398E+02  0.29476481861E+02  0.00000000000E+00 0.  1.
</event>
<event>
 7    1  0.2227287E-008  0.4614232E+02  0.7816164E-02  0.1320468E+00
        -11   -1    0    0    0    0  0.00000000000E+00  0.00000000000E+00  0.45593999997E+02  0.45594000000E+02  0.51100000000E-03 0.  1.
         11   -1    0    0    0    0 -0.00000000000E+00 -0.00000000000E+00 -0.45593999997E+02  0.45594000000E+02  0.51100000000E-03 0. -1.
    9900012    2    1    2    0    0 -0.16654436501E+02 -0.19137642230E+02  0.37222224010E+02  0.46142316904E+02  0.99999921886E+01 0.  0.
         12    1    1    2    0    0  0.16654436501E+02  0.19137642230E+02 -0.37222224010E+02  0.45045683096E+02  0.00000000000E+00 0. -1.
         11    1    3    3    0    0  0.33119702136E-01 -0.37540469118E+01  0.68909129715E+01  0.78472063165E+01  0.51100000000E-03 0. -1.
        -11    1    3    3    0    0 -0.15211533472E+02 -0.14506828514E+02  0.29856834831E+02  0.36513961857E+02  0.51100000000E-03 0.  1.
        -12    1    3    3    0    0 -0.14760227308E+01 -0.87676680395E+00  0.47447620772E+00  0.17811487311E+01  0.00000000000E+00 0.  1.
</event>
<event>
 7    1  0.2227287E-008  0.4614232E+02  0.7816164E-02  0.1320468E+00
        -11   -1    0    0    0    0  0.00000000000E+00  0.00000000000E+00  0.45593999997E+02  0.45594000000E+02  0.51100000000E-03 0.  1.
         11   -1    0    0    0    0 -0.00000000000E+00 -0.00000000000E+00 -0.45593999997E+02  0.45594000000E+02  0.51100000000E-03 0. -1.
    9900012    2    1    2    0    0  0.64109793371E+01  0.28647516101E+02  0.34166251967E+02  0.46142316430E+02  0.99999878617E+01 0.  0.
         12    1    1    2    0    0 -0.64109793371E+01 -0.28647516101E+02 -0.34166251967E+02  0.45045683570E+02  0.00000000000E+00 0. -1.
         11    1    3    3    0    0  0.96787747269E+00  0.43516430083E+01  0.33484623398E+01  0.55754626693E+01  0.51100000000E-03 0. -1.
        -11    1    3    3    0    0  0.32003254467E+01  0.23872051679E+02  0.27787141992E+02  0.36772845887E+02  0.51100000000E-03 0.  1.
        -12    1    3    3    0    0  0.22427764177E+01  0.42382141320E+00  0.30306476358E+01  0.37940078733E+01  0.00000000000E+00 0.  1.
</event>
<event>
 7    1  0.2227287E-008  0.4614232E+02  0.7816164E-02  0.1320468E+00
        -11   -1    0    0    0    0  0.00000000000E+00  0.00000000000E+00  0.45593999997E+02  0.45594000000E+02  0.51100000000E-03 0.  1.
         11   -1    0    0    0    0 -0.00000000000E+00 -0.00000000000E+00 -0.45593999997E+02  0.45594000000E+02  0.51100000000E-03 0. -1.
    9900012    2    1    2    0    0  0.18274945643E+02 -0.40350418162E+02 -0.81843580820E+01  0.46142316507E+02  0.99999885655E+01 0.  0.
         12    1    1    2    0    0 -0.18274945643E+02  0.40350418162E+02  0.81843580820E+01  0.45045683493E+02  0.00000000000E+00 0. -1.
         11    1    3    3    0    0  0.72608186097E+01 -0.78579670546E+01 -0.28807774909E+01  0.11079982506E+02  0.51100000000E-03 0. -1.
        -11    1    3    3    0    0  0.96237137528E+01 -0.24066606169E+02 -0.55996055588E+01  0.26517409029E+02  0.51100000000E-03 0.  1.
        -12    1    3    3    0    0  0.13904132809E+01 -0.84258449381E+01  0.29602496766E+00  0.85449249729E+01  0.00000000000E+00 0.  1.
</event>
<event>
 7    1  0.2227287E-008  0.4614232E+02  0.7816164E-02  0.1320468E+00
        -11   -1    0    0    0    0  0.00000000000E+00  0.00000000000E+00  0.45593999997E+02  0.45594000000E+02  0.51100000000E-03 0.  1.
         11   -1    0    0    0    0 -0.00000000000E+00 -0.00000000000E+00 -0.45593999997E+02  0.45594000000E+02  0.51100000000E-03 0. -1.
    9900012    2    1    2    0    0 -0.36177094109E+02 -0.98421491976E+01  0.24969250214E+02  0.46142317685E+02  0.99999993072E+01 0.  0.
         12    1    1    2    0    0  0.36177094109E+02  0.98421491976E+01 -0.24969250214E+02  0.45045682315E+02  0.00000000000E+00 0. -1.
         11    1    3    3    0    0 -0.12004559377E+02 -0.29838918599E+01  0.42749646256E+01  0.13087718643E+02  0.51100000000E-03 0. -1.
        -11    1    3    3    0    0 -0.76543204215E+01 -0.28094315721E+01  0.35092870355E+01  0.88767461737E+01  0.51100000000E-03 0.  1.
        -12    1    3    3    0    0 -0.16518214310E+02 -0.40488257657E+01  0.17184998553E+02  0.24177852869E+02  0.00000000000E+00 0.  1.
</event>
<event>
 7    1  0.2227287E-008  0.4614232E+02  0.7816164E-02  0.1320468E+00
        -11   -1    0    0    0    0  0.00000000000E+00  0.00000000000E+00  0.45593999997E+02  0.45594000000E+02  0.51100000000E-03 0.  1.
         11   -1    0    0    0    0 -0.00000000000E+00 -0.00000000000E+00 -0.45593999997E+02  0.45594000000E+02  0.51100000000E-03 0. -1.
    9900012    2    1    2    0    0  0.13869672673E+02  0.35335365130E+02  0.24251961262E+02  0.46142317921E+02  0.10000001456E+02 0.  0.
         12    1    1    2    0    0 -0.13869672673E+02 -0.35335365130E+02 -0.24251961262E+02  0.45045682079E+02  0.00000000000E+00 0. -1.
         11    1    3    3    0    0  0.13426505296E+02  0.23553866258E+02  0.14897025910E+02  0.30935045521E+02  0.51100000000E-03 0. -1.
        -11    1    3    3    0    0  0.25669285056E+00  0.22671970767E+01  0.82047575516E+00  0.24247174124E+01  0.51100000000E-03 0.  1.
         12    1    3    3    0    0  0.18647452715E+00  0.95143017947E+01  0.85344595964E+01  0.12782554987E+02  0.00000000000E+00 0. -1.
</event>
<event>
 7    1  0.2227287E-008  0.4614232E+02  0.7816164E-02  0.1320468E+00
        -11   -1    0    0    0    0  0.00000000000E+00  0.00000000000E+00  0.45593999997E+02  0.45594000000E+02  0.51100000000E-03 0.  1.
         11   -1    0    0    0    0 -0.00000000000E+00 -0.00000000000E+00 -0.45593999997E+02  0.45594000000E+02  0.51100000000E-03 0. -1.
    9900012    2    1    2    0    0  0.41366209644E+01  0.31882891488E+02  0.31551276457E+02  0.46142318201E+02  0.10000004015E+02 0.  0.
         12    1    1    2    0    0 -0.41366209644E+01 -0.31882891488E+02 -0.31551276457E+02  0.45045681799E+02  0.00000000000E+00 0. -1.
         11    1    3    3    0    0  0.45580649630E+01  0.10388531364E+02  0.96116108818E+01  0.14868779510E+02  0.51100000000E-03 0. -1.
        -11    1    3    3    0    0  0.12875146347E+00  0.11911282005E+02  0.80015587520E+01  0.14349918420E+02  0.51100000000E-03 0.  1.
        -12    1    3    3    0    0 -0.55019546213E+00  0.95830781197E+01  0.13938106823E+02  0.16923620272E+02  0.00000000000E+00 0.  1.
</event>
<event>
 7    1  0.2227287E-008  0.4614232E+02  0.7816164E-02  0.1320468E+00
        -11   -1    0    0    0    0  0.00000000000E+00  0.00000000000E+00  0.45593999997E+02  0.45594000000E+02  0.51100000000E-03 0.  1.
         11   -1    0    0    0    0 -0.00000000000E+00 -0.00000000000E+00 -0.45593999997E+02  0.45594000000E+02  0.51100000000E-03 0. -1.
    9900012    2    1    2    0    0  0.24938988653E+02 -0.33032773442E+02 -0.17776279885E+02  0.46142318710E+02  0.10000008657E+02 0.  0.
         12    1    1    2    0    0 -0.24938988653E+02  0.33032773442E+02  0.17776279885E+02  0.45045681290E+02  0.00000000000E+00 0. -1.
         11    1    3    3    0    0  0.11315465532E+02 -0.19009873847E+02 -0.97030996433E+01  0.24157094338E+02  0.51100000000E-03 0. -1.
        -11    1    3    3    0    0  0.58265923691E+01 -0.10085598157E+02 -0.54894284605E+01  0.12876423956E+02  0.51100000000E-03 0.  1.
        -12    1    3    3    0    0  0.77969307518E+01 -0.39373014380E+01 -0.25837517809E+01  0.91088004165E+01  0.00000000000E+00 0.  1.
</event>
<event>
 7    1  0.2227287E-008  0.4614232E+02  0.7816164E-02  0.1320468E+00
        -11   -1    0    0    0    0  0.00000000000E+00  0.00000000000E+00  0.45593999997E+02  0.45594000000E+02  0.51100000000E-03 0.  1.
         11   -1    0    0    0    0 -0.00000000000E+00 -0.00000000000E+00 -0.45593999997E+02  0.45594000000E+02  0.51100000000E-03 0. -1.
    9900012    2    1    2    0    0 -0.13933691601E+02 -0.42013299175E+02  0.83575311543E+01  0.46142318784E+02  0.10000009328E+02 0.  0.
         12    1    1    2    0    0  0.13933691601E+02  0.42013299175E+02 -0.83575311543E+01  0.45045681216E+02  0.00000000000E+00 0. -1.
         11    1    3    3    0    0 -0.46287818737E+01 -0.26149951505E+02  0.44177134882E+01  0.26921400002E+02  0.51100000000E-03 0. -1.
        -11    1    3    3    0    0 -0.22684016617E+01 -0.67118076066E+01  0.28104077290E+01  0.76218370037E+01  0.51100000000E-03 0.  1.
        -12    1    3    3    0    0 -0.70365080654E+01 -0.91515400633E+01  0.11294099371E+01  0.11599081778E+02  0.00000000000E+00 0.  1.
</event>
<event>
 7    1  0.2227287E-008  0.4614231E+02  0.7816164E-02  0.1320468E+00
        -11   -1    0    0    0    0  0.00000000000E+00  0.00000000000E+00  0.45593999997E+02  0.45594000000E+02  0.51100000000E-03 0.  1.
         11   -1    0    0    0    0 -0.00000000000E+00 -0.00000000000E+00 -0.45593999997E+02  0.45594000000E+02  0.51100000000E-03 0. -1.
    9900012    2    1    2    0    0  0.30768807236E+02 -0.27434850193E+02  0.18158297384E+02  0.46142309110E+02  0.99999211148E+01 0.  0.
         12    1    1    2    0    0 -0.30768807236E+02  0.27434850193E+02 -0.18158297384E+02  0.45045690890E+02  0.00000000000E+00 0. -1.
         11    1    3    3    0    0  0.25988709938E+01 -0.10575092766E+01  0.40816429639E+01  0.49530057398E+01  0.51100000000E-03 0. -1.
        -11    1    3    3    0    0  0.58898076270E+01 -0.48390427268E+01  0.39667744100E+01  0.85931058341E+01  0.51100000000E-03 0.  1.
        -12    1    3    3    0    0  0.22280128615E+02 -0.21538298189E+02  0.10109880010E+02  0.32596197536E+02  0.00000000000E+00 0.  1.
</event>
<event>
 7    1  0.2227287E-008  0.4614232E+02  0.7816164E-02  0.1320468E+00
        -11   -1    0    0    0    0  0.00000000000E+00  0.00000000000E+00  0.45593999997E+02  0.45594000000E+02  0.51100000000E-03 0.  1.
         11   -1    0    0    0    0 -0.00000000000E+00 -0.00000000000E+00 -0.45593999997E+02  0.45594000000E+02  0.51100000000E-03 0. -1.
    9900012    2    1    2    0    0  0.23857982172E+02 -0.40569805912E+01  0.37992776927E+02  0.46142317594E+02  0.99999984742E+01 0.  0.
         12    1    1    2    0    0 -0.23857982172E+02  0.40569805912E+01 -0.37992776927E+02  0.45045682406E+02  0.00000000000E+00 0. -1.
         11    1    3    3    0    0  0.34536067849E+00 -0.17647602033E+01  0.23992342226E+01  0.29983291496E+01  0.51100000000E-03 0. -1.
        -11    1    3    3    0    0  0.60769146146E+01  0.13910092299E+01  0.63513419231E+01  0.88996259694E+01  0.51100000000E-03 0.  1.
        -12    1    3    3    0    0  0.17435706879E+02 -0.36832296178E+01  0.29242200781E+02  0.34244362475E+02  0.00000000000E+00 0.  1.
</event>
<event>
 7    1  0.2227287E-008  0.4614232E+02  0.7816164E-02  0.1320468E+00
        -11   -1    0    0    0    0  0.00000000000E+00  0.00000000000E+00  0.45593999997E+02  0.45594000000E+02  0.51100000000E-03 0.  1.
         11   -1    0    0    0    0 -0.00000000000E+00 -0.00000000000E+00 -0.45593999997E+02  0.45594000000E+02  0.51100000000E-03 0. -1.
    9900012    2    1    2    0    0 -0.40932352294E+02  0.16295340955E+02 -0.93871122797E+01  0.46142317874E+02  0.10000001034E+02 0.  0.
         12    1    1    2    0    0  0.40932352294E+02 -0.16295340955E+02  0.93871122797E+01  0.45045682126E+02  0.00000000000E+00 0. -1.
         11    1    3    3    0    0 -0.94142841140E+01  0.18971012020E+01 -0.46271257462E+01  0.10660114037E+02  0.51100000000E-03 0. -1.
        -11    1    3    3    0    0 -0.23150663196E+02  0.76218141466E+01 -0.38682857052E+01  0.24678105516E+02  0.51100000000E-03 0.  1.
        -12    1    3    3    0    0 -0.83674049847E+01  0.67764256065E+01 -0.89170082833E+00  0.10804098322E+02  0.00000000000E+00 0.  1.
</event>
<event>
 7    1  0.2227287E-008  0.4614232E+02  0.7816164E-02  0.1320468E+00
        -11   -1    0    0    0    0  0.00000000000E+00  0.00000000000E+00  0.45593999997E+02  0.45594000000E+02  0.51100000000E-03 0.  1.
         11   -1    0    0    0    0 -0.00000000000E+00 -0.00000000000E+00 -0.45593999997E+02  0.45594000000E+02  0.51100000000E-03 0. -1.
    9900012    2    1    2    0    0  0.19440575152E+02  0.26597417518E+02  0.30720594542E+02  0.46142317523E+02  0.99999978259E+01 0.  0.
         12    1    1    2    0    0 -0.19440575152E+02 -0.26597417518E+02 -0.30720594542E+02  0.45045682477E+02  0.00000000000E+00 0. -1.
         11    1    3    3    0    0  0.65936181870E+00  0.34500520076E+00  0.19549446584E+01  0.20917924073E+01  0.51100000000E-03 0. -1.
        -11    1    3    3    0    0  0.69757832956E+01  0.86758628836E+01  0.49487696599E+01  0.12182876129E+02  0.51100000000E-03 0.  1.
        -12    1    3    3    0    0  0.11805430037E+02  0.17576549433E+02  0.23816880223E+02  0.31867648987E+02  0.00000000000E+00 0.  1.
</event>
<event>
 7    1  0.2227287E-008  0.4614232E+02  0.7816164E-02  0.1320468E+00
        -11   -1    0    0    0    0  0.00000000000E+00  0.00000000000E+00  0.45593999997E+02  0.45594000000E+02  0.51100000000E-03 0.  1.
         11   -1    0    0    0    0 -0.00000000000E+00 -0.00000000000E+00 -0.45593999997E+02  0.45594000000E+02  0.51100000000E-03 0. -1.
    9900012    2    1    2    0    0  0.26331096534E+02 -0.90081792645E+00  0.36537315206E+02  0.46142317409E+02  0.99999967904E+01 0.  0.
         12    1    1    2    0    0 -0.26331096534E+02  0.90081792645E+00 -0.36537315206E+02  0.45045682591E+02  0.00000000000E+00 0. -1.
         11    1    3    3    0    0  0.35155406911E+00 -0.12501209349E+01  0.95230520977E+00  0.16103658246E+01  0.51100000000E-03 0. -1.
        -11    1    3    3    0    0  0.87624163807E+01  0.31852105358E+01  0.12244873173E+02  0.15390335483E+02  0.51100000000E-03 0.  1.
         12    1    3    3    0    0  0.17217126084E+02 -0.28359075274E+01  0.23340136824E+02  0.29141616102E+02  0.00000000000E+00 0. -1.
</event>
<event>
 7    1  0.2227287E-008  0.4614232E+02  0.7816164E-02  0.1320468E+00
        -11   -1    0    0    0    0  0.00000000000E+00  0.00000000000E+00  0.45593999997E+02  0.45594000000E+02  0.51100000000E-03 0.  1.
         11   -1    0    0    0    0 -0.00000000000E+00 -0.00000000000E+00 -0.45593999997E+02  0.45594000000E+02  0.51100000000E-03 0. -1.
    9900012    2    1    2    0    0 -0.13539047797E+02 -0.11216752802E+02  0.41472789926E+02  0.46142315824E+02  0.99999823314E+01 0.  0.
         12    1    1    2    0    0  0.13539047797E+02  0.11216752802E+02 -0.41472789926E+02  0.45045684176E+02  0.00000000000E+00 0. -1.
         11    1    3    3    0    0 -0.36713936056E+01 -0.63735750514E+01  0.16159343618E+02  0.17754604371E+02  0.51100000000E-03 0. -1.
        -11    1    3    3    0    0 -0.52938150006E+00 -0.27802500319E+01  0.94482948763E+01  0.98630781881E+01  0.51100000000E-03 0.  1.
        -12    1    3    3    0    0 -0.93382726913E+01 -0.20629277188E+01  0.15865151432E+02  0.18524633264E+02  0.00000000000E+00 0.  1.
</event>
<event>
 7    1  0.2227287E-008  0.4614232E+02  0.7816164E-02  0.1320468E+00
        -11   -1    0    0    0    0  0.00000000000E+00  0.00000000000E+00  0.45593999997E+02  0.45594000000E+02  0.51100000000E-03 0.  1.
         11   -1    0    0    0    0 -0.00000000000E+00 -0.00000000000E+00 -0.45593999997E+02  0.45594000000E+02  0.51100000000E-03 0. -1.
    9900012    2    1    2    0    0 -0.92164832899E+01 -0.29337790274E+02 -0.32916013980E+02  0.46142317868E+02  0.10000000975E+02 0.  0.
         12    1    1    2    0    0  0.92164832899E+01  0.29337790274E+02  0.32916013980E+02  0.45045682132E+02  0.00000000000E+00 0. -1.
         11    1    3    3    0    0 -0.14477500035E+01 -0.14641194946E+01  0.13187217731E+00  0.20632538621E+01  0.51100000000E-03 0. -1.
        -11    1    3    3    0    0 -0.38459502104E+01 -0.81955370576E+01 -0.11491836275E+02  0.14629438196E+02  0.51100000000E-03 0.  1.
         12    1    3    3    0    0 -0.39227830759E+01 -0.19678133722E+02 -0.21556049882E+02  0.29449625810E+02  0.00000000000E+00 0. -1.
</event>
<event>
 7    1  0.2227287E-008  0.4614232E+02  0.7816164E-02  0.1320468E+00
        -11   -1    0    0    0    0  0.00000000000E+00  0.00000000000E+00  0.45593999997E+02  0.45594000000E+02  0.51100000000E-03 0. -1.
         11   -1    0    0    0    0 -0.00000000000E+00 -0.00000000000E+00 -0.45593999997E+02  0.45594000000E+02  0.51100000000E-03 0.  1.
    9900012    2    1    2    0    0  0.42115260521E+02  0.36471011413E+01  0.15560104815E+02  0.46142318993E+02  0.10000011237E+02 0.  0.
         12    1    1    2    0    0 -0.42115260521E+02 -0.36471011413E+01 -0.15560104815E+02  0.45045681007E+02  0.00000000000E+00 0. -1.
         11    1    3    3    0    0  0.65784907217E+01  0.32960532808E+00  0.50783027116E+01  0.83171111896E+01  0.51100000000E-03 0.  1.
        -11    1    3    3    0    0  0.24417582749E+01  0.19926551074E+01  0.26044266674E+00  0.31623865187E+01  0.51100000000E-03 0. -1.
        -12    1    3    3    0    0  0.33095011525E+02  0.13248407058E+01  0.10221359436E+02  0.34662821285E+02  0.00000000000E+00 0.  1.
</event>
<event>
 7    1  0.2227287E-008  0.4614232E+02  0.7816164E-02  0.1320468E+00
        -11   -1    0    0    0    0  0.00000000000E+00  0.00000000000E+00  0.45593999997E+02  0.45594000000E+02  0.51100000000E-03 0.  1.
         11   -1    0    0    0    0 -0.00000000000E+00 -0.00000000000E+00 -0.45593999997E+02  0.45594000000E+02  0.51100000000E-03 0. -1.
    9900012    2    1    2    0    0  0.86113633468E+00  0.34983171286E+01  0.44901373672E+02  0.46142321671E+02  0.10000035651E+02 0.  0.
         12    1    1    2    0    0 -0.86113633468E+00 -0.34983171286E+01 -0.44901373672E+02  0.45045678329E+02  0.00000000000E+00 0. -1.
         11    1    3    3    0    0  0.36560254799E+01  0.84429359632E+00  0.12776173441E+02  0.13315778687E+02  0.51100000000E-03 0. -1.
        -11    1    3    3    0    0  0.12231276244E+01  0.18699911034E+01  0.17399345534E+02  0.17542238545E+02  0.51100000000E-03 0.  1.
        -12    1    3    3    0    0 -0.40180167696E+01  0.78403242891E+00  0.14725854697E+02  0.15284304438E+02  0.00000000000E+00 0.  1.
</event>
<event>
 7    1  0.2227287E-008  0.4614233E+02  0.7816164E-02  0.1320468E+00
        -11   -1    0    0    0    0  0.00000000000E+00  0.00000000000E+00  0.45593999997E+02  0.45594000000E+02  0.51100000000E-03 0.  1.
         11   -1    0    0    0    0 -0.00000000000E+00 -0.00000000000E+00 -0.45593999997E+02  0.45594000000E+02  0.51100000000E-03 0. -1.
    9900012    2    1    2    0    0 -0.36125201470E+02 -0.26264980759E+02 -0.58509180064E+01  0.46142327211E+02  0.10000086169E+02 0.  0.
         12    1    1    2    0    0  0.36125201470E+02  0.26264980759E+02  0.58509180064E+01  0.45045672789E+02  0.00000000000E+00 0. -1.
         11    1    3    3    0    0 -0.13511089224E+02 -0.85109753635E+01 -0.22525162245E+01  0.16126377872E+02  0.51100000000E-03 0. -1.
        -11    1    3    3    0    0 -0.10470609211E+02 -0.52784208303E+01  0.16283971394E+01  0.11838372406E+02  0.51100000000E-03 0.  1.
         12    1    3    3    0    0 -0.12143503034E+02 -0.12475584565E+02 -0.52267989214E+01  0.18177576933E+02  0.00000000000E+00 0. -1.
</event>
<event>
 7    1  0.2227287E-008  0.4614232E+02  0.7816164E-02  0.1320468E+00
        -11   -1    0    0    0    0  0.00000000000E+00  0.00000000000E+00  0.45593999997E+02  0.45594000000E+02  0.51100000000E-03 0.  1.
         11   -1    0    0    0    0 -0.00000000000E+00 -0.00000000000E+00 -0.45593999997E+02  0.45594000000E+02  0.51100000000E-03 0. -1.
    9900012    2    1    2    0    0 -0.18417097032E+02  0.20416577396E+02 -0.35680344751E+02  0.46142322103E+02  0.10000039595E+02 0.  0.
         12    1    1    2    0    0  0.18417097032E+02 -0.20416577396E+02  0.35680344751E+02  0.45045677897E+02  0.00000000000E+00 0. -1.
         11    1    3    3    0    0 -0.12019934642E+02  0.11304639991E+02 -0.18302699784E+02  0.24642697372E+02  0.51100000000E-03 0.  1.
        -11    1    3    3    0    0 -0.53507788839E+01  0.99497144066E+01 -0.15125920266E+02  0.18879118507E+02  0.51100000000E-03 0. -1.
        -12    1    3    3    0    0 -0.10463835055E+01 -0.83777700118E+00 -0.22517247012E+01  0.26205062248E+01  0.00000000000E+00 0.  1.
</event>
<event>
 7    1  0.2227287E-008  0.4614230E+02  0.7816164E-02  0.1320468E+00
        -11   -1    0    0    0    0  0.00000000000E+00  0.00000000000E+00  0.45593999997E+02  0.45594000000E+02  0.51100000000E-03 0.  1.
         11   -1    0    0    0    0 -0.00000000000E+00 -0.00000000000E+00 -0.45593999997E+02  0.45594000000E+02  0.51100000000E-03 0. -1.
    9900012    2    1    2    0    0  0.93376338763E+01 -0.84089555216E+01  0.43257516508E+02  0.46142304603E+02  0.99998800136E+01 0.  0.
         12    1    1    2    0    0 -0.93376338763E+01  0.84089555216E+01 -0.43257516508E+02  0.45045695397E+02  0.00000000000E+00 0. -1.
         11    1    3    3    0    0  0.56470576970E+01 -0.58670762779E+01  0.12262923166E+02  0.14720432382E+02  0.51100000000E-03 0. -1.
        -11    1    3    3    0    0  0.12083797819E+01 -0.20159074873E+01  0.98969452273E+01  0.10172196901E+02  0.51100000000E-03 0.  1.
        -12    1    3    3    0    0  0.24821963973E+01 -0.52597175637E+00  0.21097648114E+02  0.21249675320E+02  0.00000000000E+00 0.  1.
</event>
<event>
 7    1  0.2227287E-008  0.4614232E+02  0.7816164E-02  0.1320468E+00
        -11   -1    0    0    0    0  0.00000000000E+00  0.00000000000E+00  0.45593999997E+02  0.45594000000E+02  0.51100000000E-03 0.  1.
         11   -1    0    0    0    0 -0.00000000000E+00 -0.00000000000E+00 -0.45593999997E+02  0.45594000000E+02  0.51100000000E-03 0. -1.
    9900012    2    1    2    0    0 -0.15273339726E+02  0.38986851518E+02 -0.16609153196E+02  0.46142317993E+02  0.10000002112E+02 0.  0.
         12    1    1    2    0    0  0.15273339726E+02 -0.38986851518E+02  0.16609153196E+02  0.45045682007E+02  0.00000000000E+00 0. -1.
         11    1    3    3    0    0 -0.81141923066E+00  0.59334284448E+01 -0.20169181468E+01  0.63191718880E+01  0.51100000000E-03 0. -1.
        -11    1    3    3    0    0 -0.13897556259E+01  0.10604102962E+02 -0.69108335020E+01  0.12733343641E+02  0.51100000000E-03 0.  1.
         12    1    3    3    0    0 -0.13072164869E+02  0.22449320111E+02 -0.76814015467E+01  0.27089802464E+02  0.00000000000E+00 0. -1.
</event>
<event>
 7    1  0.2227287E-008  0.4614232E+02  0.7816164E-02  0.1320468E+00
        -11   -1    0    0    0    0  0.00000000000E+00  0.00000000000E+00  0.45593999997E+02  0.45594000000E+02  0.51100000000E-03 0.  1.
         11   -1    0    0    0    0 -0.00000000000E+00 -0.00000000000E+00 -0.45593999997E+02  0.45594000000E+02  0.51100000000E-03 0. -1.
    9900012    2    1    2    0    0 -0.32854095874E+02  0.27650432127E+02  0.13607921626E+02  0.46142317149E+02  0.99999944222E+01 0.  0.
         12    1    1    2    0    0  0.32854095874E+02 -0.27650432127E+02 -0.13607921626E+02  0.45045682851E+02  0.00000000000E+00 0. -1.
         11    1    3    3    0    0 -0.84000079443E+01  0.36838361165E+01  0.21715613981E+01  0.94258400774E+01  0.51100000000E-03 0. -1.
        -11    1    3    3    0    0 -0.12913214129E+02  0.92885616517E+01  0.28299456436E+01  0.16156641647E+02  0.51100000000E-03 0.  1.
        -12    1    3    3    0    0 -0.11540873801E+02  0.14678034358E+02  0.86064145840E+01  0.20559835425E+02  0.00000000000E+00 0.  1.
</event>
<event>
 7    1  0.2227287E-008  0.4614232E+02  0.7816164E-02  0.1320468E+00
        -11   -1    0    0    0    0  0.00000000000E+00  0.00000000000E+00  0.45593999997E+02  0.45594000000E+02  0.51100000000E-03 0. -1.
         11   -1    0    0    0    0 -0.00000000000E+00 -0.00000000000E+00 -0.45593999997E+02  0.45594000000E+02  0.51100000000E-03 0.  1.
    9900012    2    1    2    0    0 -0.27008927509E+02  0.31157338531E+02 -0.18134266264E+02  0.46142317383E+02  0.99999965498E+01 0.  0.
         12    1    1    2    0    0  0.27008927509E+02 -0.31157338531E+02  0.18134266264E+02  0.45045682617E+02  0.00000000000E+00 0. -1.
         11    1    3    3    0    0 -0.18630620154E+02  0.23557387996E+02 -0.93058420554E+01  0.31442793024E+02  0.51100000000E-03 0. -1.
        -11    1    3    3    0    0 -0.54505884337E+01  0.67938513629E+01 -0.63323696622E+01  0.10768669203E+02  0.51100000000E-03 0.  1.
        -12    1    3    3    0    0 -0.29277189207E+01  0.80609917268E+00 -0.24960545465E+01  0.39308551556E+01  0.00000000000E+00 0.  1.
</event>
<event>
 7    1  0.2227287E-008  0.4614232E+02  0.7816164E-02  0.1320468E+00
        -11   -1    0    0    0    0  0.00000000000E+00  0.00000000000E+00  0.45593999997E+02  0.45594000000E+02  0.51100000000E-03 0.  1.
         11   -1    0    0    0    0 -0.00000000000E+00 -0.00000000000E+00 -0.45593999997E+02  0.45594000000E+02  0.51100000000E-03 0. -1.
    9900012    2    1    2    0    0 -0.39579503331E+02 -0.26345623070E+01  0.21345621057E+02  0.46142317180E+02  0.99999946983E+01 0.  0.
         12    1    1    2    0    0  0.39579503331E+02  0.26345623070E+01 -0.21345621057E+02  0.45045682820E+02  0.00000000000E+00 0. -1.
         11    1    3    3    0    0 -0.96956777942E+01  0.31909362113E+01  0.32442650236E+01  0.10710438721E+02  0.51100000000E-03 0. -1.
        -11    1    3    3    0    0 -0.20174871547E+02 -0.42328369084E+01  0.12588525474E+02  0.24153950486E+02  0.51100000000E-03 0.  1.
         12    1    3    3    0    0 -0.97089539897E+01 -0.15926616099E+01  0.55128305596E+01  0.11277927973E+02  0.00000000000E+00 0. -1.
</event>
<event>
 7    1  0.2227287E-008  0.4614232E+02  0.7816164E-02  0.1320468E+00
        -11   -1    0    0    0    0  0.00000000000E+00  0.00000000000E+00  0.45593999997E+02  0.45594000000E+02  0.51100000000E-03 0. -1.
         11   -1    0    0    0    0 -0.00000000000E+00 -0.00000000000E+00 -0.45593999997E+02  0.45594000000E+02  0.51100000000E-03 0.  1.
    9900012    2    1    2    0    0 -0.40116954324E+02 -0.50308653021E+00 -0.20481464452E+02  0.46142317561E+02  0.99999981711E+01 0.  0.
         12    1    1    2    0    0  0.40116954324E+02  0.50308653021E+00  0.20481464452E+02  0.45045682439E+02  0.00000000000E+00 0. -1.
         11    1    3    3    0    0 -0.18453204061E+02 -0.11384519709E+01 -0.54715499900E+01  0.19280940655E+02  0.51100000000E-03 0. -1.
        -11    1    3    3    0    0 -0.20954598694E+02  0.22785812983E-01 -0.13042077222E+02  0.24681805123E+02  0.51100000000E-03 0.  1.
         12    1    3    3    0    0 -0.70915156974E+00  0.61257962772E+00 -0.19678372400E+01  0.21795717818E+01  0.00000000000E+00 0. -1.
</event>
<event>
 7    1  0.2227287E-008  0.4614232E+02  0.7816164E-02  0.1320468E+00
        -11   -1    0    0    0    0  0.00000000000E+00  0.00000000000E+00  0.45593999997E+02  0.45594000000E+02  0.51100000000E-03 0.  1.
         11   -1    0    0    0    0 -0.00000000000E+00 -0.00000000000E+00 -0.45593999997E+02  0.45594000000E+02  0.51100000000E-03 0. -1.
    9900012    2    1    2    0    0  0.43410702974E+02 -0.64112880550E+01  0.10174459591E+02  0.46142319017E+02  0.10000011452E+02 0.  0.
         12    1    1    2    0    0 -0.43410702974E+02  0.64112880550E+01 -0.10174459591E+02  0.45045680983E+02  0.00000000000E+00 0. -1.
         11    1    3    3    0    0  0.21963241944E+02 -0.16435728187E+01  0.72115283611E+01  0.23175233977E+02  0.51100000000E-03 0.  1.
        -11    1    3    3    0    0  0.12670423302E+02 -0.46004080522E+01  0.41603658766E+01  0.14107162202E+02  0.51100000000E-03 0. -1.
         12    1    3    3    0    0  0.87770377274E+01 -0.16730718407E+00 -0.11974346464E+01  0.88599228380E+01  0.00000000000E+00 0. -1.
</event>
<event>
 7    1  0.2227287E-008  0.4614232E+02  0.7816164E-02  0.1320468E+00
        -11   -1    0    0    0    0  0.00000000000E+00  0.00000000000E+00  0.45593999997E+02  0.45594000000E+02  0.51100000000E-03 0. -1.
         11   -1    0    0    0    0 -0.00000000000E+00 -0.00000000000E+00 -0.45593999997E+02  0.45594000000E+02  0.51100000000E-03 0.  1.
    9900012    2    1    2    0    0  0.15770287719E+02  0.44184908705E+01 -0.41962941504E+02  0.46142317676E+02  0.99999992258E+01 0.  0.
         12    1    1    2    0    0 -0.15770287719E+02 -0.44184908705E+01  0.41962941504E+02  0.45045682324E+02  0.00000000000E+00 0. -1.
         11    1    3    3    0    0  0.75181904207E+01  0.35739674554E+01 -0.22791191053E+02  0.24263858317E+02  0.51100000000E-03 0. -1.
        -11    1    3    3    0    0  0.46939767467E+01 -0.24547295564E+00 -0.16847535656E+02  0.17490944303E+02  0.51100000000E-03 0.  1.
         12    1    3    3    0    0  0.35581205518E+01  0.10899963707E+01 -0.23242147954E+01  0.43875150557E+01  0.00000000000E+00 0. -1.
</event>
<event>
 7    1  0.2227287E-008  0.4614232E+02  0.7816164E-02  0.1320468E+00
        -11   -1    0    0    0    0  0.00000000000E+00  0.00000000000E+00  0.45593999997E+02  0.45594000000E+02  0.51100000000E-03 0.  1.
         11   -1    0    0    0    0 -0.00000000000E+00 -0.00000000000E+00 -0.45593999997E+02  0.45594000000E+02  0.51100000000E-03 0. -1.
    9900012    2    1    2    0    0  0.41867880463E+02 -0.15109515387E+01  0.16550257043E+02  0.46142318773E+02  0.10000009226E+02 0.  0.
         12    1    1    2    0    0 -0.41867880463E+02  0.15109515387E+01 -0.16550257043E+02  0.45045681227E+02  0.00000000000E+00 0. -1.
         11    1    3    3    0    0  0.99143080910E+01  0.12489103995E+01  0.58289291413E+01  0.11568478608E+02  0.51100000000E-03 0. -1.
        -11    1    3    3    0    0  0.22904263536E+02 -0.26319260350E+01  0.10944530168E+02  0.25520875057E+02  0.51100000000E-03 0.  1.
        -12    1    3    3    0    0  0.90493088357E+01 -0.12793590321E+00 -0.22320226605E+00  0.90529651082E+01  0.00000000000E+00 0.  1.
</event>
<event>
 7    1  0.2227287E-008  0.4614232E+02  0.7816164E-02  0.1320468E+00
        -11   -1    0    0    0    0  0.00000000000E+00  0.00000000000E+00  0.45593999997E+02  0.45594000000E+02  0.51100000000E-03 0.  1.
         11   -1    0    0    0    0 -0.00000000000E+00 -0.00000000000E+00 -0.45593999997E+02  0.45594000000E+02  0.51100000000E-03 0. -1.
    9900012    2    1    2    0    0 -0.40804248367E+02  0.18585741558E+02  0.43240026989E+01  0.46142317927E+02  0.10000001514E+02 0.  0.
         12    1    1    2    0    0  0.40804248367E+02 -0.18585741558E+02 -0.43240026989E+01  0.45045682073E+02  0.00000000000E+00 0. -1.
         11    1    3    3    0    0 -0.50724065664E+01  0.28399772113E+01 -0.12943030130E+01  0.59556695246E+01  0.51100000000E-03 0. -1.
        -11    1    3    3    0    0 -0.26673707706E+02  0.13374975090E+02  0.71880020223E+01  0.30692735537E+02  0.51100000000E-03 0.  1.
        -12    1    3    3    0    0 -0.90581340950E+01  0.23707892565E+01 -0.15696963104E+01  0.94939128651E+01  0.00000000000E+00 0.  1.
</event>
<event>
 7    1  0.2227287E-008  0.4614232E+02  0.7816164E-02  0.1320468E+00
        -11   -1    0    0    0    0  0.00000000000E+00  0.00000000000E+00  0.45593999997E+02  0.45594000000E+02  0.51100000000E-03 0. -1.
         11   -1    0    0    0    0 -0.00000000000E+00 -0.00000000000E+00 -0.45593999997E+02  0.45594000000E+02  0.51100000000E-03 0.  1.
    9900012    2    1    2    0    0 -0.11132751791E+02  0.43631845981E+02  0.11988820770E+01  0.46142318027E+02  0.10000002427E+02 0.  0.
         12    1    1    2    0    0  0.11132751791E+02 -0.43631845981E+02 -0.11988820770E+01  0.45045681973E+02  0.00000000000E+00 0. -1.
         11    1    3    3    0    0 -0.93956890450E+00  0.17231840296E+02  0.11851744190E+01  0.17298085107E+02  0.51100000000E-03 0. -1.
        -11    1    3    3    0    0 -0.34944604242E+01  0.16264079216E+02  0.92251394487E+00  0.16660809063E+02  0.51100000000E-03 0.  1.
         12    1    3    3    0    0 -0.66987224621E+01  0.10135926469E+02 -0.90880628687E+00  0.12183423857E+02  0.00000000000E+00 0. -1.
</event>
<event>
 7    1  0.2227287E-008  0.4614232E+02  0.7816164E-02  0.1320468E+00
        -11   -1    0    0    0    0  0.00000000000E+00  0.00000000000E+00  0.45593999997E+02  0.45594000000E+02  0.51100000000E-03 0.  1.
         11   -1    0    0    0    0 -0.00000000000E+00 -0.00000000000E+00 -0.45593999997E+02  0.45594000000E+02  0.51100000000E-03 0. -1.
    9900012    2    1    2    0    0  0.34076759155E+01 -0.12098986724E+02  0.43256395632E+02  0.46142317655E+02  0.99999990294E+01 0.  0.
         12    1    1    2    0    0 -0.34076759155E+01  0.12098986724E+02 -0.43256395632E+02  0.45045682345E+02  0.00000000000E+00 0. -1.
         11    1    3    3    0    0  0.17517981061E+01 -0.10340108019E+01  0.60604091209E+01  0.63926937919E+01  0.51100000000E-03 0.  1.
        -11    1    3    3    0    0  0.39804376750E+01 -0.28689438093E+01  0.19527225449E+02  0.20134230968E+02  0.51100000000E-03 0. -1.
         12    1    3    3    0    0 -0.23245598656E+01 -0.81960321124E+01  0.17668761062E+02  0.19615392895E+02  0.00000000000E+00 0. -1.
</event>
<event>
 7    1  0.2227287E-008  0.4614232E+02  0.7816164E-02  0.1320468E+00
        -11   -1    0    0    0    0  0.00000000000E+00  0.00000000000E+00  0.45593999997E+02  0.45594000000E+02  0.51100000000E-03 0.  1.
         11   -1    0    0    0    0 -0.00000000000E+00 -0.00000000000E+00 -0.45593999997E+02  0.45594000000E+02  0.51100000000E-03 0. -1.
    9900012    2    1    2    0    0 -0.22097597490E+02  0.25102602582E+01  0.39172801211E+02  0.46142316787E+02  0.99999911189E+01 0.  0.
         12    1    1    2    0    0  0.22097597490E+02 -0.25102602582E+01 -0.39172801211E+02  0.45045683213E+02  0.00000000000E+00 0. -1.
         11    1    3    3    0    0 -0.61865888192E+01  0.62583267795E+00  0.10138426655E+02  0.11893411750E+02  0.51100000000E-03 0. -1.
        -11    1    3    3    0    0 -0.16843055385E+02  0.19787662140E+01  0.28517176767E+02  0.33178809524E+02  0.51100000000E-03 0.  1.
         12    1    3    3    0    0  0.93204671351E+00 -0.94338633674E-01  0.51719778892E+00  0.10700955130E+01  0.00000000000E+00 0. -1.
</event>
<event>
 7    1  0.2227287E-008  0.4614232E+02  0.7816164E-02  0.1320468E+00
        -11   -1    0    0    0    0  0.00000000000E+00  0.00000000000E+00  0.45593999997E+02  0.45594000000E+02  0.51100000000E-03 0. -1.
         11   -1    0    0    0    0 -0.00000000000E+00 -0.00000000000E+00 -0.45593999997E+02  0.45594000000E+02  0.51100000000E-03 0.  1.
    9900012    2    1    2    0    0 -0.41280235634E+02  0.14934528948E+02  0.10100274973E+02  0.46142316928E+02  0.99999924002E+01 0.  0.
         12    1    1    2    0    0  0.41280235634E+02 -0.14934528948E+02 -0.10100274973E+02  0.45045683072E+02  0.00000000000E+00 0. -1.
         11    1    3    3    0    0 -0.20771060274E+00  0.78069740804E-01 -0.13246899822E+00  0.25843156837E+00  0.51100000000E-03 0. -1.
        -11    1    3    3    0    0 -0.23616639811E+02  0.11083643741E+02  0.18451174030E+01  0.26153341910E+02  0.51100000000E-03 0.  1.
         12    1    3    3    0    0 -0.17455885220E+02  0.37728154661E+01  0.83876265687E+01  0.19730543450E+02  0.00000000000E+00 0. -1.
</event>
<event>
 7    1  0.2227287E-008  0.4614232E+02  0.7816164E-02  0.1320468E+00
        -11   -1    0    0    0    0  0.00000000000E+00  0.00000000000E+00  0.45593999997E+02  0.45594000000E+02  0.51100000000E-03 0.  1.
         11   -1    0    0    0    0 -0.00000000000E+00 -0.00000000000E+00 -0.45593999997E+02  0.45594000000E+02  0.51100000000E-03 0. -1.
    9900012    2    1    2    0    0 -0.16561772405E+02  0.32596221655E+02 -0.26311725459E+02  0.46142324647E+02  0.10000062789E+02 0.  0.
         12    1    1    2    0    0  0.16561772405E+02 -0.32596221655E+02  0.26311725459E+02  0.45045675353E+02  0.00000000000E+00 0. -1.
         11    1    3    3    0    0 -0.15558433661E+01  0.36274717857E+00 -0.45651626436E+00  0.16615178170E+01  0.51100000000E-03 0. -1.
        -11    1    3    3    0    0 -0.80955395204E+01  0.20794689315E+02 -0.12454746914E+02  0.25555382696E+02  0.51100000000E-03 0.  1.
         12    1    3    3    0    0 -0.69103895188E+01  0.11438785162E+02 -0.13400462281E+02  0.18925424133E+02  0.00000000000E+00 0. -1.
</event>
<event>
 7    1  0.2227287E-008  0.4614232E+02  0.7816164E-02  0.1320468E+00
        -11   -1    0    0    0    0  0.00000000000E+00  0.00000000000E+00  0.45593999997E+02  0.45594000000E+02  0.51100000000E-03 0.  1.
         11   -1    0    0    0    0 -0.00000000000E+00 -0.00000000000E+00 -0.45593999997E+02  0.45594000000E+02  0.51100000000E-03 0. -1.
    9900012    2    1    2    0    0 -0.16242816649E+02 -0.38360978220E+02  0.17138253794E+02  0.46142317790E+02  0.10000000259E+02 0.  0.
         12    1    1    2    0    0  0.16242816649E+02  0.38360978220E+02 -0.17138253794E+02  0.45045682210E+02  0.00000000000E+00 0. -1.
         11    1    3    3    0    0 -0.57225526653E+01 -0.22966948136E+02  0.79077451361E+01  0.24955174796E+02  0.51100000000E-03 0. -1.
        -11    1    3    3    0    0 -0.44831755024E+01 -0.84751438260E+01  0.28392991276E+01  0.99994272462E+01  0.51100000000E-03 0.  1.
         12    1    3    3    0    0 -0.60370884815E+01 -0.69188862578E+01  0.63912095302E+01  0.11187715747E+02  0.00000000000E+00 0. -1.
</event>
<event>
 7    1  0.2227287E-008  0.4614232E+02  0.7816164E-02  0.1320468E+00
        -11   -1    0    0    0    0  0.00000000000E+00  0.00000000000E+00  0.45593999997E+02  0.45594000000E+02  0.51100000000E-03 0.  1.
         11   -1    0    0    0    0 -0.00000000000E+00 -0.00000000000E+00 -0.45593999997E+02  0.45594000000E+02  0.51100000000E-03 0. -1.
    9900012    2    1    2    0    0 -0.87872186090E+01  0.25547006190E+02  0.36045085106E+02  0.46142324331E+02  0.10000059910E+02 0.  0.
         12    1    1    2    0    0  0.87872186090E+01 -0.25547006190E+02 -0.36045085106E+02  0.45045675669E+02  0.00000000000E+00 0. -1.
         11    1    3    3    0    0 -0.33123028778E+01  0.34521596677E+01  0.57557175923E+01  0.74844533527E+01  0.51100000000E-03 0. -1.
        -11    1    3    3    0    0 -0.49124421940E+01  0.78509525244E+01  0.82082975240E+01  0.12375204740E+02  0.51100000000E-03 0.  1.
         12    1    3    3    0    0 -0.56247353714E+00  0.14243893998E+02  0.22081069990E+02  0.26282666238E+02  0.00000000000E+00 0. -1.
</event>
<event>
 7    1  0.2227287E-008  0.4614232E+02  0.7816164E-02  0.1320468E+00
        -11   -1    0    0    0    0  0.00000000000E+00  0.00000000000E+00  0.45593999997E+02  0.45594000000E+02  0.51100000000E-03 0.  1.
         11   -1    0    0    0    0 -0.00000000000E+00 -0.00000000000E+00 -0.45593999997E+02  0.45594000000E+02  0.51100000000E-03 0. -1.
    9900012    2    1    2    0    0  0.21188370135E+01 -0.23649506552E+02  0.38279561099E+02  0.46142318427E+02  0.10000006070E+02 0.  0.
         12    1    1    2    0    0 -0.21188370135E+01  0.23649506552E+02 -0.38279561099E+02  0.45045681573E+02  0.00000000000E+00 0. -1.
         11    1    3    3    0    0  0.15068009066E+01 -0.23233410874E+01  0.14837136115E+01  0.31416188697E+01  0.51100000000E-03 0. -1.
        -11    1    3    3    0    0  0.57902285444E+00 -0.17632071917E+02  0.24699186302E+02  0.30352512775E+02  0.51100000000E-03 0.  1.
        -12    1    3    3    0    0  0.33013252461E-01 -0.36940935475E+01  0.12096661186E+02  0.12648186782E+02  0.00000000000E+00 0.  1.
</event>
<event>
 7    1  0.2227287E-008  0.4614232E+02  0.7816164E-02  0.1320468E+00
        -11   -1    0    0    0    0  0.00000000000E+00  0.00000000000E+00  0.45593999997E+02  0.45594000000E+02  0.51100000000E-03 0. -1.
         11   -1    0    0    0    0 -0.00000000000E+00 -0.00000000000E+00 -0.45593999997E+02  0.45594000000E+02  0.51100000000E-03 0.  1.
    9900012    2    1    2    0    0 -0.77821367993E+01 -0.11122348504E+01 -0.44354421273E+02  0.46142318675E+02  0.10000008336E+02 0.  0.
         12    1    1    2    0    0  0.77821367993E+01  0.11122348504E+01  0.44354421273E+02  0.45045681325E+02  0.00000000000E+00 0. -1.
         11    1    3    3    0    0 -0.60313700496E+00 -0.27078486537E+01 -0.28178617424E+02  0.28314849439E+02  0.51100000000E-03 0. -1.
        -11    1    3    3    0    0 -0.34775266113E+01  0.12038322161E+01 -0.66506991574E+01  0.76009343425E+01  0.51100000000E-03 0.  1.
        -12    1    3    3    0    0 -0.37014731831E+01  0.39178158729E+00 -0.95251046922E+01  0.10226534894E+02  0.00000000000E+00 0.  1.
</event>
<event>
 7    1  0.2227287E-008  0.4614232E+02  0.7816164E-02  0.1320468E+00
        -11   -1    0    0    0    0  0.00000000000E+00  0.00000000000E+00  0.45593999997E+02  0.45594000000E+02  0.51100000000E-03 0.  1.
         11   -1    0    0    0    0 -0.00000000000E+00 -0.00000000000E+00 -0.45593999997E+02  0.45594000000E+02  0.51100000000E-03 0. -1.
    9900012    2    1    2    0    0  0.21947566543E+02  0.26862022645E+02  0.28737600269E+02  0.46142316445E+02  0.99999879979E+01 0.  0.
         12    1    1    2    0    0 -0.21947566543E+02 -0.26862022645E+02 -0.28737600269E+02  0.45045683555E+02  0.00000000000E+00 0. -1.
         11    1    3    3    0    0  0.35172190563E+01  0.37988689231E+01  0.18409280875E+01  0.54946566289E+01  0.51100000000E-03 0. -1.
        -11    1    3    3    0    0  0.13039789144E+02  0.10962956825E+02  0.17379874038E+02  0.24336855695E+02  0.51100000000E-03 0.  1.
        -12    1    3    3    0    0  0.53905583430E+01  0.12100196896E+02  0.95167981429E+01  0.16310804121E+02  0.00000000000E+00 0.  1.
</event>
<event>
 7    1  0.2227287E-008  0.4614232E+02  0.7816164E-02  0.1320468E+00
        -11   -1    0    0    0    0  0.00000000000E+00  0.00000000000E+00  0.45593999997E+02  0.45594000000E+02  0.51100000000E-03 0.  1.
         11   -1    0    0    0    0 -0.00000000000E+00 -0.00000000000E+00 -0.45593999997E+02  0.45594000000E+02  0.51100000000E-03 0. -1.
    9900012    2    1    2    0    0  0.21783352246E+02 -0.26575581539E+02  0.29126238398E+02  0.46142315052E+02  0.99999752955E+01 0.  0.
         12    1    1    2    0    0 -0.21783352246E+02  0.26575581539E+02 -0.29126238398E+02  0.45045684948E+02  0.00000000000E+00 0. -1.
         11    1    3    3    0    0  0.23861467710E+00 -0.78132322165E+00  0.86228187693E+00  0.11878271075E+01  0.51100000000E-03 0.  1.
        -11    1    3    3    0    0  0.86057617739E+01 -0.74834293971E+01  0.15208260773E+02  0.19009262144E+02  0.51100000000E-03 0. -1.
         12    1    3    3    0    0  0.12938975795E+02 -0.18310828920E+02  0.13055695748E+02  0.25945225800E+02  0.00000000000E+00 0. -1.
</event>
<event>
 7    1  0.2227287E-008  0.4614232E+02  0.7816164E-02  0.1320468E+00
        -11   -1    0    0    0    0  0.00000000000E+00  0.00000000000E+00  0.45593999997E+02  0.45594000000E+02  0.51100000000E-03 0.  1.
         11   -1    0    0    0    0 -0.00000000000E+00 -0.00000000000E+00 -0.45593999997E+02  0.45594000000E+02  0.51100000000E-03 0. -1.
    9900012    2    1    2    0    0 -0.21748202659E+02  0.15310957518E+02  0.36355244220E+02  0.46142317396E+02  0.99999966693E+01 0.  0.
         12    1    1    2    0    0  0.21748202659E+02 -0.15310957518E+02 -0.36355244220E+02  0.45045682604E+02  0.00000000000E+00 0. -1.
         11    1    3    3    0    0 -0.15514287355E+00  0.25348184348E+01  0.88752001323E+00  0.26901795189E+01  0.51100000000E-03 0. -1.
        -11    1    3    3    0    0 -0.14255792412E+01  0.10800197343E+01  0.25736916961E+01  0.31341040198E+01  0.51100000000E-03 0.  1.
         12    1    3    3    0    0 -0.20167480544E+02  0.11696119349E+02  0.32894032511E+02  0.40318033857E+02  0.00000000000E+00 0. -1.
</event>
<event>
 7    1  0.2227287E-008  0.4614232E+02  0.7816164E-02  0.1320468E+00
        -11   -1    0    0    0    0  0.00000000000E+00  0.00000000000E+00  0.45593999997E+02  0.45594000000E+02  0.51100000000E-03 0. -1.
         11   -1    0    0    0    0 -0.00000000000E+00 -0.00000000000E+00 -0.45593999997E+02  0.45594000000E+02  0.51100000000E-03 0.  1.
    9900012    2    1    2    0    0 -0.11900126162E+02  0.13019594743E+02 -0.41448652155E+02  0.46142316351E+02  0.99999871453E+01 0.  0.
         12    1    1    2    0    0  0.11900126162E+02 -0.13019594743E+02  0.41448652155E+02  0.45045683649E+02  0.00000000000E+00 0. -1.
         11    1    3    3    0    0 -0.32536369162E+01  0.10308557613E+02 -0.25541017678E+02  0.27734384751E+02  0.51100000000E-03 0. -1.
        -11    1    3    3    0    0 -0.20065509341E+01  0.15173596802E+01 -0.44236542858E+01  0.50889433630E+01  0.51100000000E-03 0.  1.
         12    1    3    3    0    0 -0.66399383117E+01  0.11936774490E+01 -0.11483980191E+02  0.13318988237E+02  0.00000000000E+00 0. -1.
</event>
<event>
 7    1  0.2227287E-008  0.4614232E+02  0.7816164E-02  0.1320468E+00
        -11   -1    0    0    0    0  0.00000000000E+00  0.00000000000E+00  0.45593999997E+02  0.45594000000E+02  0.51100000000E-03 0.  1.
         11   -1    0    0    0    0 -0.00000000000E+00 -0.00000000000E+00 -0.45593999997E+02  0.45594000000E+02  0.51100000000E-03 0. -1.
    9900012    2    1    2    0    0 -0.72309852599E+01 -0.39002453291E+02 -0.21345603061E+02  0.46142320068E+02  0.10000021033E+02 0.  0.
         12    1    1    2    0    0  0.72309852599E+01  0.39002453291E+02  0.21345603061E+02  0.45045679932E+02  0.00000000000E+00 0. -1.
         11    1    3    3    0    0 -0.72090630569E+00 -0.18042141037E+01 -0.33401071881E+01  0.38640924837E+01  0.51100000000E-03 0. -1.
        -11    1    3    3    0    0 -0.56915872284E+01 -0.19936549346E+02 -0.74637983477E+01  0.22035617782E+02  0.51100000000E-03 0.  1.
        -12    1    3    3    0    0 -0.81849172588E+00 -0.17261689841E+02 -0.10541697525E+02  0.20242609802E+02  0.00000000000E+00 0.  1.
</event>
<event>
 7    1  0.2227287E-008  0.4614231E+02  0.7816164E-02  0.1320468E+00
        -11   -1    0    0    0    0  0.00000000000E+00  0.00000000000E+00  0.45593999997E+02  0.45594000000E+02  0.51100000000E-03 0.  1.
         11   -1    0    0    0    0 -0.00000000000E+00 -0.00000000000E+00 -0.45593999997E+02  0.45594000000E+02  0.51100000000E-03 0. -1.
    9900012    2    1    2    0    0 -0.27500289854E+02 -0.20054967460E+02  0.29506713101E+02  0.46142314525E+02  0.99999704917E+01 0.  0.
         12    1    1    2    0    0  0.27500289854E+02  0.20054967460E+02 -0.29506713101E+02  0.45045685475E+02  0.00000000000E+00 0. -1.
         11    1    3    3    0    0 -0.35571691490E+01 -0.18583664550E+01  0.17223110831E+01  0.43673028249E+01  0.51100000000E-03 0. -1.
        -11    1    3    3    0    0 -0.14366729809E+02 -0.11359814231E+02  0.11295317526E+02  0.21518190050E+02  0.51100000000E-03 0.  1.
        -12    1    3    3    0    0 -0.95763908967E+01 -0.68367867742E+01  0.16489084491E+02  0.20256821650E+02  0.00000000000E+00 0.  1.
</event>
<event>
 7    1  0.2227287E-008  0.4614232E+02  0.7816164E-02  0.1320468E+00
        -11   -1    0    0    0    0  0.00000000000E+00  0.00000000000E+00  0.45593999997E+02  0.45594000000E+02  0.51100000000E-03 0.  1.
         11   -1    0    0    0    0 -0.00000000000E+00 -0.00000000000E+00 -0.45593999997E+02  0.45594000000E+02  0.51100000000E-03 0. -1.
    9900012    2    1    2    0    0  0.11123108585E+02 -0.42353177007E+02  0.10564010092E+02  0.46142318116E+02  0.10000003233E+02 0.  0.
         12    1    1    2    0    0 -0.11123108585E+02  0.42353177007E+02 -0.10564010092E+02  0.45045681884E+02  0.00000000000E+00 0. -1.
         11    1    3    3    0    0  0.98879043912E+01 -0.33854080138E+02  0.12125326284E+02  0.37294677006E+02  0.51100000000E-03 0.  1.
        -11    1    3    3    0    0 -0.19008226918E+00 -0.35041976009E+01 -0.77924297481E+00  0.35948229400E+01  0.51100000000E-03 0. -1.
        -12    1    3    3    0    0  0.14252864634E+01 -0.49948992687E+01 -0.78207321729E+00  0.52528181697E+01  0.00000000000E+00 0.  1.
</event>
<event>
 7    1  0.2227287E-008  0.4614232E+02  0.7816164E-02  0.1320468E+00
        -11   -1    0    0    0    0  0.00000000000E+00  0.00000000000E+00  0.45593999997E+02  0.45594000000E+02  0.51100000000E-03 0. -1.
         11   -1    0    0    0    0 -0.00000000000E+00 -0.00000000000E+00 -0.45593999997E+02  0.45594000000E+02  0.51100000000E-03 0.  1.
    9900012    2    1    2    0    0  0.27208597406E+00 -0.23411626231E+02 -0.38482922190E+02  0.46142316812E+02  0.99999913464E+01 0.  0.
         12    1    1    2    0    0 -0.27208597406E+00  0.23411626231E+02  0.38482922190E+02  0.45045683188E+02  0.00000000000E+00 0. -1.
         11    1    3    3    0    0  0.76637913468E+00 -0.22105192619E+01 -0.45382702723E+00  0.23832103594E+01  0.51100000000E-03 0. -1.
        -11    1    3    3    0    0 -0.63415797662E+00 -0.18391029633E+02 -0.29412323429E+02  0.34694623461E+02  0.51100000000E-03 0.  1.
        -12    1    3    3    0    0  0.13986481600E+00 -0.28100773358E+01 -0.86167717337E+01  0.90644829919E+01  0.00000000000E+00 0.  1.
</event>
<event>
 7    1  0.2227287E-008  0.4614232E+02  0.7816164E-02  0.1320468E+00
        -11   -1    0    0    0    0  0.00000000000E+00  0.00000000000E+00  0.45593999997E+02  0.45594000000E+02  0.51100000000E-03 0.  1.
         11   -1    0    0    0    0 -0.00000000000E+00 -0.00000000000E+00 -0.45593999997E+02  0.45594000000E+02  0.51100000000E-03 0. -1.
    9900012    2    1    2    0    0  0.43025639562E+02 -0.11038888522E+02 -0.74867175931E+01  0.46142315858E+02  0.99999826425E+01 0.  0.
         12    1    1    2    0    0 -0.43025639562E+02  0.11038888522E+02  0.74867175931E+01  0.45045684142E+02  0.00000000000E+00 0. -1.
         11    1    3    3    0    0  0.12911612499E+02 -0.29988301014E+01 -0.73381126676E-01  0.13255493365E+02  0.51100000000E-03 0. -1.
        -11    1    3    3    0    0  0.22307041681E+02 -0.44814129269E+01 -0.22273947315E+01  0.22861506029E+02  0.51100000000E-03 0.  1.
         12    1    3    3    0    0  0.78069853821E+01 -0.35586454942E+01 -0.51859417349E+01  0.10025316463E+02  0.00000000000E+00 0. -1.
</event>
<event>
 7    1  0.2227287E-008  0.4614232E+02  0.7816164E-02  0.1320468E+00
        -11   -1    0    0    0    0  0.00000000000E+00  0.00000000000E+00  0.45593999997E+02  0.45594000000E+02  0.51100000000E-03 0.  1.
         11   -1    0    0    0    0 -0.00000000000E+00 -0.00000000000E+00 -0.45593999997E+02  0.45594000000E+02  0.51100000000E-03 0. -1.
    9900012    2    1    2    0    0 -0.39396702383E+02 -0.11606454304E+02  0.18501447572E+02  0.46142317606E+02  0.99999985812E+01 0.  0.
         12    1    1    2    0    0  0.39396702383E+02  0.11606454304E+02 -0.18501447572E+02  0.45045682394E+02  0.00000000000E+00 0. -1.
         11    1    3    3    0    0 -0.13043855491E+01  0.96697698497E-03  0.21498992710E+00  0.13219846919E+01  0.51100000000E-03 0. -1.
        -11    1    3    3    0    0 -0.10288710901E+02 -0.61172322970E+01  0.20070693324E+01  0.12136986057E+02  0.51100000000E-03 0.  1.
        -12    1    3    3    0    0 -0.27803605933E+02 -0.54901889835E+01  0.16279388312E+02  0.32683346857E+02  0.00000000000E+00 0.  1.
</event>
<event>
 7    1  0.2227287E-008  0.4614232E+02  0.7816164E-02  0.1320468E+00
        -11   -1    0    0    0    0  0.00000000000E+00  0.00000000000E+00  0.45593999997E+02  0.45594000000E+02  0.51100000000E-03 0. -1.
         11   -1    0    0    0    0 -0.00000000000E+00 -0.00000000000E+00 -0.45593999997E+02  0.45594000000E+02  0.51100000000E-03 0.  1.
    9900012    2    1    2    0    0  0.27169391328E+02 -0.35834295846E+02  0.26155213675E+01  0.46142317233E+02  0.99999951875E+01 0.  0.
         12    1    1    2    0    0 -0.27169391328E+02  0.35834295846E+02 -0.26155213675E+01  0.45045682767E+02  0.00000000000E+00 0. -1.
         11    1    3    3    0    0  0.15333991043E+01 -0.30932041463E+01 -0.48356936403E+00  0.34861245380E+01  0.51100000000E-03 0. -1.
        -11    1    3    3    0    0  0.15548731829E+02 -0.24483724568E+02  0.51574482493E+01  0.29458701650E+02  0.51100000000E-03 0.  1.
        -12    1    3    3    0    0  0.10087260395E+02 -0.82573671312E+01 -0.20583575177E+01  0.13197491045E+02  0.00000000000E+00 0.  1.
</event>
<event>
 7    1  0.2227287E-008  0.4614232E+02  0.7816164E-02  0.1320468E+00
        -11   -1    0    0    0    0  0.00000000000E+00  0.00000000000E+00  0.45593999997E+02  0.45594000000E+02  0.51100000000E-03 0.  1.
         11   -1    0    0    0    0 -0.00000000000E+00 -0.00000000000E+00 -0.45593999997E+02  0.45594000000E+02  0.51100000000E-03 0. -1.
    9900012    2    1    2    0    0  0.30815432081E+02 -0.13867645240E+02  0.29786085556E+02  0.46142319501E+02  0.10000015867E+02 0.  0.
         12    1    1    2    0    0 -0.30815432081E+02  0.13867645240E+02 -0.29786085556E+02  0.45045680499E+02  0.00000000000E+00 0. -1.
         11    1    3    3    0    0  0.34356049725E+01 -0.37034816209E+01  0.37299787914E+01  0.62794824380E+01  0.51100000000E-03 0. -1.
        -11    1    3    3    0    0  0.93586839839E+01  0.23227867969E+00  0.78894294488E+01  0.12242631114E+02  0.51100000000E-03 0.  1.
        -12    1    3    3    0    0  0.18021143125E+02 -0.10396442299E+02  0.18166677316E+02  0.27620205950E+02  0.00000000000E+00 0.  1.
</event>
<event>
 7    1  0.2227287E-008  0.4614232E+02  0.7816164E-02  0.1320468E+00
        -11   -1    0    0    0    0  0.00000000000E+00  0.00000000000E+00  0.45593999997E+02  0.45594000000E+02  0.51100000000E-03 0.  1.
         11   -1    0    0    0    0 -0.00000000000E+00 -0.00000000000E+00 -0.45593999997E+02  0.45594000000E+02  0.51100000000E-03 0. -1.
    9900012    2    1    2    0    0  0.95121683853E+01 -0.21403356439E+01  0.43977847362E+02  0.46142318269E+02  0.10000004631E+02 0.  0.
         12    1    1    2    0    0 -0.95121683853E+01  0.21403356439E+01 -0.43977847362E+02  0.45045681731E+02  0.00000000000E+00 0. -1.
         11    1    3    3    0    0  0.55607866841E+01 -0.12358064908E+01  0.10564460727E+02  0.12002391301E+02  0.51100000000E-03 0. -1.
        -11    1    3    3    0    0  0.12249872997E+01 -0.31191642591E+01  0.19749402991E+02  0.20031692348E+02  0.51100000000E-03 0.  1.
         12    1    3    3    0    0  0.27263944014E+01  0.22146351061E+01  0.13663983643E+02  0.14108234620E+02  0.00000000000E+00 0. -1.
</event>
<event>
 7    1  0.2227287E-008  0.4614232E+02  0.7816164E-02  0.1320468E+00
        -11   -1    0    0    0    0  0.00000000000E+00  0.00000000000E+00  0.45593999997E+02  0.45594000000E+02  0.51100000000E-03 0.  1.
         11   -1    0    0    0    0 -0.00000000000E+00 -0.00000000000E+00 -0.45593999997E+02  0.45594000000E+02  0.51100000000E-03 0. -1.
    9900012    2    1    2    0    0 -0.17537158921E+01 -0.38410082487E+02  0.23467073691E+02  0.46142317591E+02  0.99999984505E+01 0.  0.
         12    1    1    2    0    0  0.17537158921E+01  0.38410082487E+02 -0.23467073691E+02  0.45045682409E+02  0.00000000000E+00 0. -1.
         11    1    3    3    0    0  0.18816835309E+00  0.12254143655E+00  0.75195964663E+00  0.78477213512E+00  0.51100000000E-03 0. -1.
        -11    1    3    3    0    0  0.22508172980E+01 -0.91017753856E+01  0.72194777495E+01  0.11833399888E+02  0.51100000000E-03 0.  1.
        -12    1    3    3    0    0 -0.41927015432E+01 -0.29430848537E+02  0.15495636295E+02  0.33524145568E+02  0.00000000000E+00 0.  1.
</event>
<event>
 7    1  0.2246718E-008  0.4614232E+02  0.7816164E-02  0.1320468E+00
        -11   -1    0    0    0    0  0.00000000000E+00  0.00000000000E+00  0.45593999997E+02  0.45594000000E+02  0.51100000000E-03 0.  1.
         11   -1    0    0    0    0 -0.00000000000E+00 -0.00000000000E+00 -0.45593999997E+02  0.45594000000E+02  0.51100000000E-03 0. -1.
    9900012    2    1    2    0    0 -0.54942899898E+01  0.24751114158E+02  0.37233164443E+02  0.46142318642E+02  0.10000008036E+02 0.  0.
         12    1    1    2    0    0  0.54942899898E+01 -0.24751114158E+02 -0.37233164443E+02  0.45045681358E+02  0.00000000000E+00 0. -1.
         11    1    3    3    0    0 -0.15071211517E+01  0.93111690524E+01  0.16757442756E+02  0.19229695038E+02  0.51100000000E-03 0. -1.
        -11    1    3    3    0    0 -0.32574436061E+01  0.11930561151E+02  0.19676188612E+02  0.23240086635E+02  0.51100000000E-03 0.  1.
         12    1    3    3    0    0 -0.72972523190E+00  0.35093839542E+01  0.79953307450E+00  0.36725369691E+01  0.00000000000E+00 0. -1.
</event>
<event>
 7    1  0.2227287E-008  0.4614231E+02  0.7816164E-02  0.1320468E+00
        -11   -1    0    0    0    0  0.00000000000E+00  0.00000000000E+00  0.45593999997E+02  0.45594000000E+02  0.51100000000E-03 0.  1.
         11   -1    0    0    0    0 -0.00000000000E+00 -0.00000000000E+00 -0.45593999997E+02  0.45594000000E+02  0.51100000000E-03 0. -1.
    9900012    2    1    2    0    0 -0.21770017754E+01 -0.30233351086E+02  0.33321448311E+02  0.46142314611E+02  0.99999712754E+01 0.  0.
         12    1    1    2    0    0  0.21770017754E+01  0.30233351086E+02 -0.33321448311E+02  0.45045685389E+02  0.00000000000E+00 0. -1.
         11    1    3    3    0    0  0.14751624320E+01 -0.24009998278E+01  0.29791313387E+01  0.41007472694E+01  0.51100000000E-03 0. -1.
        -11    1    3    3    0    0 -0.28632527805E+01 -0.28092793968E+02  0.29772185705E+02  0.41033965582E+02  0.51100000000E-03 0.  1.
         12    1    3    3    0    0 -0.78891142689E+00  0.26044271023E+00  0.57013126705E+00  0.10076017599E+01  0.00000000000E+00 0. -1.
</event>
<event>
 7    1  0.2227287E-008  0.4614232E+02  0.7816164E-02  0.1320468E+00
        -11   -1    0    0    0    0  0.00000000000E+00  0.00000000000E+00  0.45593999997E+02  0.45594000000E+02  0.51100000000E-03 0.  1.
         11   -1    0    0    0    0 -0.00000000000E+00 -0.00000000000E+00 -0.45593999997E+02  0.45594000000E+02  0.51100000000E-03 0. -1.
    9900012    2    1    2    0    0  0.27546181011E+02  0.25628417386E+02  0.24769047319E+02  0.46142316843E+02  0.99999916297E+01 0.  0.
         12    1    1    2    0    0 -0.27546181011E+02 -0.25628417386E+02 -0.24769047319E+02  0.45045683157E+02  0.00000000000E+00 0. -1.
         11    1    3    3    0    0  0.10833745173E+02  0.84455900837E+01  0.13852945963E+02  0.19509027102E+02  0.51100000000E-03 0. -1.
        -11    1    3    3    0    0  0.11303383806E+02  0.12009308598E+02  0.94450696268E+01  0.19005244513E+02  0.51100000000E-03 0.  1.
         12    1    3    3    0    0  0.54090520317E+01  0.51735187043E+01  0.14710317285E+01  0.76280452287E+01  0.00000000000E+00 0. -1.
</event>
<event>
 7    1  0.2227287E-008  0.4614232E+02  0.7816164E-02  0.1320468E+00
        -11   -1    0    0    0    0  0.00000000000E+00  0.00000000000E+00  0.45593999997E+02  0.45594000000E+02  0.51100000000E-03 0.  1.
         11   -1    0    0    0    0 -0.00000000000E+00 -0.00000000000E+00 -0.45593999997E+02  0.45594000000E+02  0.51100000000E-03 0. -1.
    9900012    2    1    2    0    0 -0.24717020395E+02 -0.29188490292E+02 -0.23795262298E+02  0.46142316849E+02  0.99999916821E+01 0.  0.
         12    1    1    2    0    0  0.24717020395E+02  0.29188490292E+02  0.23795262298E+02  0.45045683151E+02  0.00000000000E+00 0. -1.
         11    1    3    3    0    0 -0.84269509563E+01 -0.10174846393E+02 -0.33679927041E+01  0.13633942081E+02  0.51100000000E-03 0.  1.
        -11    1    3    3    0    0 -0.37309334513E+01 -0.56984085717E+01 -0.72987351903E+01  0.99831488173E+01  0.51100000000E-03 0. -1.
        -12    1    3    3    0    0 -0.12559135987E+02 -0.13315235327E+02 -0.13128534404E+02  0.22525225951E+02  0.00000000000E+00 0.  1.
</event>
<event>
 7    1  0.2227287E-008  0.4614232E+02  0.7816164E-02  0.1320468E+00
        -11   -1    0    0    0    0  0.00000000000E+00  0.00000000000E+00  0.45593999997E+02  0.45594000000E+02  0.51100000000E-03 0.  1.
         11   -1    0    0    0    0 -0.00000000000E+00 -0.00000000000E+00 -0.45593999997E+02  0.45594000000E+02  0.51100000000E-03 0. -1.
    9900012    2    1    2    0    0  0.65543853684E+00 -0.41760993700E+02  0.16873149070E+02  0.46142319252E+02  0.10000013598E+02 0.  0.
         12    1    1    2    0    0 -0.65543853684E+00  0.41760993700E+02 -0.16873149070E+02  0.45045680748E+02  0.00000000000E+00 0. -1.
         11    1    3    3    0    0 -0.23155004076E+00 -0.12137245266E+02  0.64581356820E+01  0.13750412896E+02  0.51100000000E-03 0. -1.
        -11    1    3    3    0    0 -0.23536248516E+01 -0.22663601841E+02  0.61132515197E+01  0.23591317105E+02  0.51100000000E-03 0.  1.
         12    1    3    3    0    0  0.32406134292E+01 -0.69601465932E+01  0.43017618681E+01  0.88005892511E+01  0.00000000000E+00 0. -1.
</event>
<event>
 7    1  0.2227287E-008  0.4614232E+02  0.7816164E-02  0.1320468E+00
        -11   -1    0    0    0    0  0.00000000000E+00  0.00000000000E+00  0.45593999997E+02  0.45594000000E+02  0.51100000000E-03 0.  1.
         11   -1    0    0    0    0 -0.00000000000E+00 -0.00000000000E+00 -0.45593999997E+02  0.45594000000E+02  0.51100000000E-03 0. -1.
    9900012    2    1    2    0    0 -0.41076646006E+02  0.10892944551E+02  0.14938750555E+02  0.46142319228E+02  0.10000013374E+02 0.  0.
         12    1    1    2    0    0  0.41076646006E+02 -0.10892944551E+02 -0.14938750555E+02  0.45045680772E+02  0.00000000000E+00 0. -1.
         11    1    3    3    0    0 -0.18638108886E+02  0.83861117291E+01  0.10100154008E+02  0.22797348180E+02  0.51100000000E-03 0. -1.
        -11    1    3    3    0    0 -0.19622717535E+02  0.29476795251E+01  0.33304680323E+01  0.20120434280E+02  0.51100000000E-03 0.  1.
        -12    1    3    3    0    0 -0.28158195844E+01 -0.44084670321E+00  0.15081285144E+01  0.32245367673E+01  0.00000000000E+00 0.  1.
</event>
<event>
 7    1  0.2227287E-008  0.4614231E+02  0.7816164E-02  0.1320468E+00
        -11   -1    0    0    0    0  0.00000000000E+00  0.00000000000E+00  0.45593999997E+02  0.45594000000E+02  0.51100000000E-03 0.  1.
         11   -1    0    0    0    0 -0.00000000000E+00 -0.00000000000E+00 -0.45593999997E+02  0.45594000000E+02  0.51100000000E-03 0. -1.
    9900012    2    1    2    0    0  0.39242076074E+02 -0.22028679096E+02  0.19775366620E+01  0.46142313319E+02  0.99999594935E+01 0.  0.
         12    1    1    2    0    0 -0.39242076074E+02  0.22028679096E+02 -0.19775366620E+01  0.45045686681E+02  0.00000000000E+00 0. -1.
         11    1    3    3    0    0  0.20817018933E+02 -0.77067069822E+01  0.16971556423E+01  0.22262568300E+02  0.51100000000E-03 0. -1.
        -11    1    3    3    0    0  0.12655746456E+02 -0.93442102318E+01  0.25322265174E+01  0.15934062715E+02  0.51100000000E-03 0.  1.
         12    1    3    3    0    0  0.57693106850E+01 -0.49777618815E+01 -0.22518454977E+01  0.79456823039E+01  0.00000000000E+00 0. -1.
</event>
<event>
 7    1  0.2227287E-008  0.4614232E+02  0.7816164E-02  0.1320468E+00
        -11   -1    0    0    0    0  0.00000000000E+00  0.00000000000E+00  0.45593999997E+02  0.45594000000E+02  0.51100000000E-03 0. -1.
         11   -1    0    0    0    0 -0.00000000000E+00 -0.00000000000E+00 -0.45593999997E+02  0.45594000000E+02  0.51100000000E-03 0.  1.
    9900012    2    1    2    0    0 -0.16025724939E+02 -0.39229655145E+02  0.15274940744E+02  0.46142317439E+02  0.99999970650E+01 0.  0.
         12    1    1    2    0    0  0.16025724939E+02  0.39229655145E+02 -0.15274940744E+02  0.45045682561E+02  0.00000000000E+00 0. -1.
         11    1    3    3    0    0 -0.72963654776E+01 -0.12595736132E+02  0.11093631942E+01  0.14598637089E+02  0.51100000000E-03 0. -1.
        -11    1    3    3    0    0 -0.90745050459E+00 -0.53817188461E+01  0.18320557601E+01  0.57569777423E+01  0.51100000000E-03 0.  1.
         12    1    3    3    0    0 -0.78219089572E+01 -0.21252200167E+02  0.12333521789E+02  0.25786702608E+02  0.00000000000E+00 0. -1.
</event>
<event>
 7    1  0.2227287E-008  0.4614232E+02  0.7816164E-02  0.1320468E+00
        -11   -1    0    0    0    0  0.00000000000E+00  0.00000000000E+00  0.45593999997E+02  0.45594000000E+02  0.51100000000E-03 0.  1.
         11   -1    0    0    0    0 -0.00000000000E+00 -0.00000000000E+00 -0.45593999997E+02  0.45594000000E+02  0.51100000000E-03 0. -1.
    9900012    2    1    2    0    0 -0.29044576650E+02  0.19751534825E+02  0.28202889603E+02  0.46142317158E+02  0.99999944961E+01 0.  0.
         12    1    1    2    0    0  0.29044576650E+02 -0.19751534825E+02 -0.28202889603E+02  0.45045682842E+02  0.00000000000E+00 0. -1.
         11    1    3    3    0    0  0.23889067024E+00 -0.18499242399E+00 -0.31987760579E-02  0.30216128566E+00  0.51100000000E-03 0. -1.
        -11    1    3    3    0    0 -0.88906193465E+01  0.68542747280E+01  0.13254804410E+02  0.17369917519E+02  0.51100000000E-03 0.  1.
        -12    1    3    3    0    0 -0.20392847974E+02  0.13082252521E+02  0.14951283970E+02  0.28470238353E+02  0.00000000000E+00 0.  1.
</event>
<event>
 7    1  0.2227287E-008  0.4614232E+02  0.7816164E-02  0.1320468E+00
        -11   -1    0    0    0    0  0.00000000000E+00  0.00000000000E+00  0.45593999997E+02  0.45594000000E+02  0.51100000000E-03 0.  1.
         11   -1    0    0    0    0 -0.00000000000E+00 -0.00000000000E+00 -0.45593999997E+02  0.45594000000E+02  0.51100000000E-03 0. -1.
    9900012    2    1    2    0    0 -0.23543826686E+02 -0.11992064056E+02  0.36482767224E+02  0.46142315637E+02  0.99999806340E+01 0.  0.
         12    1    1    2    0    0  0.23543826686E+02  0.11992064056E+02 -0.36482767224E+02  0.45045684363E+02  0.00000000000E+00 0. -1.
         11    1    3    3    0    0 -0.59225125624E+01 -0.18377582621E+01  0.86577341216E+01  0.10649407066E+02  0.51100000000E-03 0. -1.
        -11    1    3    3    0    0 -0.11929215414E+02 -0.38633992807E+01  0.11131628884E+02  0.16767384897E+02  0.51100000000E-03 0.  1.
         12    1    3    3    0    0 -0.56920987098E+01 -0.62909065132E+01  0.16693404218E+02  0.18725523674E+02  0.00000000000E+00 0. -1.
</event>
<event>
 7    1  0.2227287E-008  0.4614232E+02  0.7816164E-02  0.1320468E+00
        -11   -1    0    0    0    0  0.00000000000E+00  0.00000000000E+00  0.45593999997E+02  0.45594000000E+02  0.51100000000E-03 0.  1.
         11   -1    0    0    0    0 -0.00000000000E+00 -0.00000000000E+00 -0.45593999997E+02  0.45594000000E+02  0.51100000000E-03 0. -1.
    9900012    2    1    2    0    0 -0.35750153021E+02 -0.16264335265E+01  0.27356803328E+02  0.46142318571E+02  0.10000007389E+02 0.  0.
         12    1    1    2    0    0  0.35750153021E+02  0.16264335265E+01 -0.27356803328E+02  0.45045681429E+02  0.00000000000E+00 0. -1.
         11    1    3    3    0    0 -0.85751196401E+01 -0.31366334462E+00  0.11363788148E+02  0.14239618775E+02  0.51100000000E-03 0. -1.
        -11    1    3    3    0    0 -0.67747240966E+01 -0.84191201784E+00  0.63878585314E+01  0.93493550211E+01  0.51100000000E-03 0.  1.
        -12    1    3    3    0    0 -0.20400309284E+02 -0.47085816403E+00  0.96051566492E+01  0.22553344775E+02  0.00000000000E+00 0.  1.
</event>
<event>
 7    1  0.2227287E-008  0.4614232E+02  0.7816164E-02  0.1320468E+00
        -11   -1    0    0    0    0  0.00000000000E+00  0.00000000000E+00  0.45593999997E+02  0.45594000000E+02  0.51100000000E-03 0.  1.
         11   -1    0    0    0    0 -0.00000000000E+00 -0.00000000000E+00 -0.45593999997E+02  0.45594000000E+02  0.51100000000E-03 0. -1.
    9900012    2    1    2    0    0 -0.21656463563E+01  0.40633083375E+02 -0.19322939440E+02  0.46142317884E+02  0.10000001119E+02 0.  0.
         12    1    1    2    0    0  0.21656463563E+01 -0.40633083375E+02  0.19322939440E+02  0.45045682116E+02  0.00000000000E+00 0. -1.
         11    1    3    3    0    0 -0.22121950791E+01  0.72410685783E+01 -0.46178048258E+01  0.88685400655E+01  0.51100000000E-03 0. -1.
        -11    1    3    3    0    0 -0.27340582742E+01  0.28436313357E+02 -0.12340992355E+02  0.31119111243E+02  0.51100000000E-03 0.  1.
         12    1    3    3    0    0  0.27806069970E+01  0.49557014394E+01 -0.23641422595E+01  0.61546665752E+01  0.00000000000E+00 0. -1.
</event>
<event>
 7    1  0.2227287E-008  0.4614231E+02  0.7816164E-02  0.1320468E+00
        -11   -1    0    0    0    0  0.00000000000E+00  0.00000000000E+00  0.45593999997E+02  0.45594000000E+02  0.51100000000E-03 0.  1.
         11   -1    0    0    0    0 -0.00000000000E+00 -0.00000000000E+00 -0.45593999997E+02  0.45594000000E+02  0.51100000000E-03 0. -1.
    9900012    2    1    2    0    0  0.78472613113E+01  0.49094780043E+01  0.44084371641E+02  0.46142308671E+02  0.99999171094E+01 0.  0.
         12    1    1    2    0    0 -0.78472613113E+01 -0.49094780043E+01 -0.44084371641E+02  0.45045691329E+02  0.00000000000E+00 0. -1.
         11    1    3    3    0    0  0.34604574199E+01 -0.10655139393E+01  0.41825839933E+01  0.55320967663E+01  0.51100000000E-03 0. -1.
        -11    1    3    3    0    0  0.17199830923E+01  0.15604166436E+01  0.15131928691E+02  0.15309098867E+02  0.51100000000E-03 0.  1.
         12    1    3    3    0    0  0.26668207990E+01  0.44145753000E+01  0.24769858956E+02  0.25301113038E+02  0.00000000000E+00 0. -1.
</event>
<event>
 7    1  0.2227287E-008  0.4614232E+02  0.7816164E-02  0.1320468E+00
        -11   -1    0    0    0    0  0.00000000000E+00  0.00000000000E+00  0.45593999997E+02  0.45594000000E+02  0.51100000000E-03 0. -1.
         11   -1    0    0    0    0 -0.00000000000E+00 -0.00000000000E+00 -0.45593999997E+02  0.45594000000E+02  0.51100000000E-03 0.  1.
    9900012    2    1    2    0    0  0.19487012689E+02 -0.17336265988E+02 -0.36726334000E+02  0.46142318842E+02  0.10000009854E+02 0.  0.
         12    1    1    2    0    0 -0.19487012689E+02  0.17336265988E+02  0.36726334000E+02  0.45045681158E+02  0.00000000000E+00 0. -1.
         11    1    3    3    0    0  0.75111314793E+01 -0.99920402787E+01 -0.12451420933E+02  0.17643578110E+02  0.51100000000E-03 0. -1.
        -11    1    3    3    0    0  0.25403859876E+01 -0.10597282189E+01 -0.94087421179E+01  0.98031124326E+01  0.51100000000E-03 0.  1.
        -12    1    3    3    0    0  0.94354952218E+01 -0.62844974902E+01 -0.14866170950E+02  0.18695628299E+02  0.00000000000E+00 0.  1.
</event>
<event>
 7    1  0.2227287E-008  0.4614232E+02  0.7816164E-02  0.1320468E+00
        -11   -1    0    0    0    0  0.00000000000E+00  0.00000000000E+00  0.45593999997E+02  0.45594000000E+02  0.51100000000E-03 0.  1.
         11   -1    0    0    0    0 -0.00000000000E+00 -0.00000000000E+00 -0.45593999997E+02  0.45594000000E+02  0.51100000000E-03 0. -1.
    9900012    2    1    2    0    0 -0.23220796361E+02  0.26166757179E+02  0.28376202627E+02  0.46142318293E+02  0.10000004851E+02 0.  0.
         12    1    1    2    0    0  0.23220796361E+02 -0.26166757179E+02 -0.28376202627E+02  0.45045681707E+02  0.00000000000E+00 0. -1.
         11    1    3    3    0    0 -0.77694828304E+01  0.81014234554E+01  0.11186336290E+02  0.15847146283E+02  0.51100000000E-03 0.  1.
        -11    1    3    3    0    0 -0.70311915157E+01  0.45653683332E+01  0.93497320619E+01  0.12557775760E+02  0.51100000000E-03 0. -1.
         12    1    3    3    0    0 -0.84201220152E+01  0.13499965390E+02  0.78401342755E+01  0.17737396251E+02  0.00000000000E+00 0. -1.
</event>
<event>
 7    1  0.2227287E-008  0.4614232E+02  0.7816164E-02  0.1320468E+00
        -11   -1    0    0    0    0  0.00000000000E+00  0.00000000000E+00  0.45593999997E+02  0.45594000000E+02  0.51100000000E-03 0. -1.
         11   -1    0    0    0    0 -0.00000000000E+00 -0.00000000000E+00 -0.45593999997E+02  0.45594000000E+02  0.51100000000E-03 0.  1.
    9900012    2    1    2    0    0  0.17039911711E+02 -0.41639722885E+02 -0.22109652840E+01  0.46142317848E+02  0.10000000788E+02 0.  0.
         12    1    1    2    0    0 -0.17039911711E+02  0.41639722885E+02  0.22109652840E+01  0.45045682152E+02  0.00000000000E+00 0. -1.
         11    1    3    3    0    0  0.27308375404E+01 -0.48579311586E+01  0.10529956981E+01  0.56714873724E+01  0.51100000000E-03 0. -1.
        -11    1    3    3    0    0  0.75852321067E+01 -0.98092397180E+01 -0.25743085430E+01  0.12664280267E+02  0.51100000000E-03 0.  1.
        -12    1    3    3    0    0  0.67238420644E+01 -0.26972552009E+02 -0.68965243921E+00  0.27806550208E+02  0.00000000000E+00 0.  1.
</event>
<event>
 7    1  0.2227287E-008  0.4614232E+02  0.7816164E-02  0.1320468E+00
        -11   -1    0    0    0    0  0.00000000000E+00  0.00000000000E+00  0.45593999997E+02  0.45594000000E+02  0.51100000000E-03 0.  1.
         11   -1    0    0    0    0 -0.00000000000E+00 -0.00000000000E+00 -0.45593999997E+02  0.45594000000E+02  0.51100000000E-03 0. -1.
    9900012    2    1    2    0    0  0.36765975105E+02  0.20821514273E+02  0.15615414315E+02  0.46142317119E+02  0.99999941407E+01 0.  0.
         12    1    1    2    0    0 -0.36765975105E+02 -0.20821514273E+02 -0.15615414315E+02  0.45045682881E+02  0.00000000000E+00 0. -1.
         11    1    3    3    0    0  0.23969817854E+01 -0.58223122049E+00  0.15366863013E+01  0.29061864915E+01  0.51100000000E-03 0. -1.
        -11    1    3    3    0    0  0.15765766206E+02  0.67732137954E+01  0.70115090430E+01  0.18536371503E+02  0.51100000000E-03 0.  1.
         12    1    3    3    0    0  0.18603227114E+02  0.14630531698E+02  0.70672189702E+01  0.24699759124E+02  0.00000000000E+00 0. -1.
</event>
<event>
 7    1  0.2227287E-008  0.4614232E+02  0.7816164E-02  0.1320468E+00
        -11   -1    0    0    0    0  0.00000000000E+00  0.00000000000E+00  0.45593999997E+02  0.45594000000E+02  0.51100000000E-03 0.  1.
         11   -1    0    0    0    0 -0.00000000000E+00 -0.00000000000E+00 -0.45593999997E+02  0.45594000000E+02  0.51100000000E-03 0. -1.
    9900012    2    1    2    0    0 -0.92827604407E+01  0.26872755348E+02  0.34939932088E+02  0.46142317902E+02  0.10000001283E+02 0.  0.
         12    1    1    2    0    0  0.92827604407E+01 -0.26872755348E+02 -0.34939932088E+02  0.45045682098E+02  0.00000000000E+00 0. -1.
         11    1    3    3    0    0  0.13268087962E+01  0.13438170211E+01  0.15302008565E+01  0.24305926623E+01  0.51100000000E-03 0. -1.
        -11    1    3    3    0    0  0.47302756130E-01  0.46511312036E+01  0.69451500549E+01  0.83588497157E+01  0.51100000000E-03 0.  1.
        -12    1    3    3    0    0 -0.10656871993E+02  0.20877807123E+02  0.26464581176E+02  0.35352875524E+02  0.00000000000E+00 0.  1.
</event>
<event>
 7    1  0.2227287E-008  0.4614233E+02  0.7816164E-02  0.1320468E+00
        -11   -1    0    0    0    0  0.00000000000E+00  0.00000000000E+00  0.45593999997E+02  0.45594000000E+02  0.51100000000E-03 0.  1.
         11   -1    0    0    0    0 -0.00000000000E+00 -0.00000000000E+00 -0.45593999997E+02  0.45594000000E+02  0.51100000000E-03 0. -1.
    9900012    2    1    2    0    0  0.90212535175E+01 -0.14567065668E+02  0.41659688856E+02  0.46142333252E+02  0.10000141256E+02 0.  0.
         12    1    1    2    0    0 -0.90212535175E+01  0.14567065668E+02 -0.41659688856E+02  0.45045666748E+02  0.00000000000E+00 0. -1.
         11    1    3    3    0    0  0.34484981849E+01 -0.63546723716E+01  0.70584206155E+01  0.10104222015E+02  0.51100000000E-03 0. -1.
        -11    1    3    3    0    0  0.34562898988E+00 -0.16183277146E+01  0.61293199926E+01  0.63487800264E+01  0.51100000000E-03 0.  1.
         12    1    3    3    0    0  0.52271263428E+01 -0.65940655819E+01  0.28471948248E+02  0.29689331210E+02  0.00000000000E+00 0. -1.
</event>
<event>
 7    1  0.2227287E-008  0.4614232E+02  0.7816164E-02  0.1320468E+00
        -11   -1    0    0    0    0  0.00000000000E+00  0.00000000000E+00  0.45593999997E+02  0.45594000000E+02  0.51100000000E-03 0.  1.
         11   -1    0    0    0    0 -0.00000000000E+00 -0.00000000000E+00 -0.45593999997E+02  0.45594000000E+02  0.51100000000E-03 0. -1.
    9900012    2    1    2    0    0 -0.27528955971E+02  0.12850234226E+01  0.35631710077E+02  0.46142318020E+02  0.10000002360E+02 0.  0.
         12    1    1    2    0    0  0.27528955971E+02 -0.12850234226E+01 -0.35631710077E+02  0.45045681980E+02  0.00000000000E+00 0. -1.
         11    1    3    3    0    0 -0.50946885571E+01 -0.63845806479E+00  0.50292078975E+01  0.71872395627E+01  0.51100000000E-03 0. -1.
        -11    1    3    3    0    0 -0.21555722224E+02 -0.45161433362E+00  0.27017148216E+02  0.34565581350E+02  0.51100000000E-03 0.  1.
         12    1    3    3    0    0 -0.87854519008E+00  0.23750958210E+01  0.35853539635E+01  0.43894971071E+01  0.00000000000E+00 0. -1.
</event>
<event>
 7    1  0.2227287E-008  0.4614232E+02  0.7816164E-02  0.1320468E+00
        -11   -1    0    0    0    0  0.00000000000E+00  0.00000000000E+00  0.45593999997E+02  0.45594000000E+02  0.51100000000E-03 0. -1.
         11   -1    0    0    0    0 -0.00000000000E+00 -0.00000000000E+00 -0.45593999997E+02  0.45594000000E+02  0.51100000000E-03 0.  1.
    9900012    2    1    2    0    0  0.67895214416E+00 -0.58853588444E+01 -0.44654395511E+02  0.46142318041E+02  0.10000002550E+02 0.  0.
         12    1    1    2    0    0 -0.67895214416E+00  0.58853588444E+01  0.44654395511E+02  0.45045681959E+02  0.00000000000E+00 0. -1.
         11    1    3    3    0    0  0.27286861889E+01 -0.42918512425E+01 -0.17356647521E+02  0.18086429411E+02  0.51100000000E-03 0. -1.
        -11    1    3    3    0    0 -0.19485813462E+00 -0.35829023311E+01 -0.18593337914E+02  0.18936403403E+02  0.51100000000E-03 0.  1.
         12    1    3    3    0    0 -0.18548759101E+01  0.19893947291E+01 -0.87044100762E+01  0.91194852269E+01  0.00000000000E+00 0. -1.
</event>
<event>
 7    1  0.2227287E-008  0.4614232E+02  0.7816164E-02  0.1320468E+00
        -11   -1    0    0    0    0  0.00000000000E+00  0.00000000000E+00  0.45593999997E+02  0.45594000000E+02  0.51100000000E-03 0.  1.
         11   -1    0    0    0    0 -0.00000000000E+00 -0.00000000000E+00 -0.45593999997E+02  0.45594000000E+02  0.51100000000E-03 0. -1.
    9900012    2    1    2    0    0  0.19382739316E+01 -0.43362516257E+02  0.12043616798E+02  0.46142318436E+02  0.10000006151E+02 0.  0.
         12    1    1    2    0    0 -0.19382739316E+01  0.43362516257E+02 -0.12043616798E+02  0.45045681564E+02  0.00000000000E+00 0. -1.
         11    1    3    3    0    0  0.16602760113E+01 -0.26934913387E+02  0.39524541182E+01  0.27273943048E+02  0.51100000000E-03 0. -1.
        -11    1    3    3    0    0  0.56137523654E+00 -0.12773565026E+02  0.40481631228E+01  0.13411440287E+02  0.51100000000E-03 0.  1.
         12    1    3    3    0    0 -0.28337731626E+00 -0.36540378445E+01  0.40429995573E+01  0.54569351006E+01  0.00000000000E+00 0. -1.
</event>
<event>
 7    1  0.2227287E-008  0.4614232E+02  0.7816164E-02  0.1320468E+00
        -11   -1    0    0    0    0  0.00000000000E+00  0.00000000000E+00  0.45593999997E+02  0.45594000000E+02  0.51100000000E-03 0.  1.
         11   -1    0    0    0    0 -0.00000000000E+00 -0.00000000000E+00 -0.45593999997E+02  0.45594000000E+02  0.51100000000E-03 0. -1.
    9900012    2    1    2    0    0  0.13204566786E+01 -0.44868546282E+02 -0.37660946454E+01  0.46142317408E+02  0.99999967819E+01 0.  0.
         12    1    1    2    0    0 -0.13204566786E+01  0.44868546282E+02  0.37660946454E+01  0.45045682592E+02  0.00000000000E+00 0. -1.
         11    1    3    3    0    0 -0.39152144680E+01 -0.15788082164E+02 -0.16136072570E+01  0.16346136283E+02  0.51100000000E-03 0. -1.
        -11    1    3    3    0    0  0.46518388168E+00 -0.11278350787E+02 -0.76767306645E+00  0.11314014085E+02  0.51100000000E-03 0.  1.
         12    1    3    3    0    0  0.47704872649E+01 -0.17802113331E+02 -0.13848143219E+01  0.18482167040E+02  0.00000000000E+00 0. -1.
</event>
<event>
 7    1  0.2227287E-008  0.4614232E+02  0.7816164E-02  0.1320468E+00
        -11   -1    0    0    0    0  0.00000000000E+00  0.00000000000E+00  0.45593999997E+02  0.45594000000E+02  0.51100000000E-03 0.  1.
         11   -1    0    0    0    0 -0.00000000000E+00 -0.00000000000E+00 -0.45593999997E+02  0.45594000000E+02  0.51100000000E-03 0. -1.
    9900012    2    1    2    0    0 -0.30336838045E+02 -0.88038404034E+01  0.32113576389E+02  0.46142321662E+02  0.10000035572E+02 0.  0.
         12    1    1    2    0    0  0.30336838045E+02  0.88038404034E+01 -0.32113576389E+02  0.45045678338E+02  0.00000000000E+00 0. -1.
         11    1    3    3    0    0 -0.75081334802E+00  0.30994791046E+00  0.21174005822E+01  0.22678566704E+01  0.51100000000E-03 0. -1.
        -11    1    3    3    0    0 -0.17595940036E+02 -0.52880403452E+01  0.23124336066E+02  0.29534985952E+02  0.51100000000E-03 0.  1.
         12    1    3    3    0    0 -0.11990084661E+02 -0.38257479686E+01  0.68718397406E+01  0.14339479039E+02  0.00000000000E+00 0. -1.
</event>
<event>
 7    1  0.2227287E-008  0.4614232E+02  0.7816164E-02  0.1320468E+00
        -11   -1    0    0    0    0  0.00000000000E+00  0.00000000000E+00  0.45593999997E+02  0.45594000000E+02  0.51100000000E-03 0.  1.
         11   -1    0    0    0    0 -0.00000000000E+00 -0.00000000000E+00 -0.45593999997E+02  0.45594000000E+02  0.51100000000E-03 0. -1.
    9900012    2    1    2    0    0 -0.36786650633E+02  0.23211846197E+02  0.11707519152E+02  0.46142317927E+02  0.10000001514E+02 0.  0.
         12    1    1    2    0    0  0.36786650633E+02 -0.23211846197E+02 -0.11707519152E+02  0.45045682073E+02  0.00000000000E+00 0. -1.
         11    1    3    3    0    0 -0.13897095600E+02  0.10927437113E+02  0.94494291330E+00  0.17703984448E+02  0.51100000000E-03 0. -1.
        -11    1    3    3    0    0 -0.28033718788E+01  0.62239786388E-01  0.13450192903E+01  0.31099589763E+01  0.51100000000E-03 0.  1.
        -12    1    3    3    0    0 -0.20086183155E+02  0.12222169298E+02  0.94175569482E+01  0.25328374503E+02  0.00000000000E+00 0.  1.
</event>
<event>
 7    1  0.2227287E-008  0.4614233E+02  0.7816164E-02  0.1320468E+00
        -11   -1    0    0    0    0  0.00000000000E+00  0.00000000000E+00  0.45593999997E+02  0.45594000000E+02  0.51100000000E-03 0. -1.
         11   -1    0    0    0    0 -0.00000000000E+00 -0.00000000000E+00 -0.45593999997E+02  0.45594000000E+02  0.51100000000E-03 0.  1.
    9900012    2    1    2    0    0 -0.32422429062E+01 -0.24796246865E+02 -0.37466605470E+02  0.46142328475E+02  0.10000097699E+02 0.  0.
         12    1    1    2    0    0  0.32422429062E+01  0.24796246865E+02  0.37466605470E+02  0.45045671525E+02  0.00000000000E+00 0. -1.
         11    1    3    3    0    0  0.10778699422E+01 -0.16775363653E+02 -0.22335787867E+02  0.27954642713E+02  0.51100000000E-03 0. -1.
        -11    1    3    3    0    0  0.16333614184E+00 -0.23048876357E+00 -0.33875841141E+01  0.33993426066E+01  0.51100000000E-03 0.  1.
         12    1    3    3    0    0 -0.44834489902E+01 -0.77903944488E+01 -0.11743233489E+02  0.14788343156E+02  0.00000000000E+00 0. -1.
</event>
<event>
 7    1  0.2227287E-008  0.4614232E+02  0.7816164E-02  0.1320468E+00
        -11   -1    0    0    0    0  0.00000000000E+00  0.00000000000E+00  0.45593999997E+02  0.45594000000E+02  0.51100000000E-03 0.  1.
         11   -1    0    0    0    0 -0.00000000000E+00 -0.00000000000E+00 -0.45593999997E+02  0.45594000000E+02  0.51100000000E-03 0. -1.
    9900012    2    1    2    0    0  0.16268440309E+02  0.15998547772E+02  0.38839384851E+02  0.46142317671E+02  0.99999991763E+01 0.  0.
         12    1    1    2    0    0 -0.16268440309E+02 -0.15998547772E+02 -0.38839384851E+02  0.45045682329E+02  0.00000000000E+00 0. -1.
         11    1    3    3    0    0 -0.31735434370E-01  0.21642101670E+01  0.62662943957E+01  0.66295745338E+01  0.51100000000E-03 0. -1.
        -11    1    3    3    0    0  0.21620199921E+01  0.47735267408E+01  0.10910713183E+02  0.12103906411E+02  0.51100000000E-03 0.  1.
        -12    1    3    3    0    0  0.14138155752E+02  0.90608108646E+01  0.21662377272E+02  0.27408836726E+02  0.00000000000E+00 0.  1.
</event>
<event>
 7    1  0.2227287E-008  0.4614232E+02  0.7816164E-02  0.1320468E+00
        -11   -1    0    0    0    0  0.00000000000E+00  0.00000000000E+00  0.45593999997E+02  0.45594000000E+02  0.51100000000E-03 0. -1.
         11   -1    0    0    0    0 -0.00000000000E+00 -0.00000000000E+00 -0.45593999997E+02  0.45594000000E+02  0.51100000000E-03 0.  1.
    9900012    2    1    2    0    0 -0.26239768674E+02 -0.34170336471E+02  0.13152038345E+02  0.46142317996E+02  0.10000002139E+02 0.  0.
         12    1    1    2    0    0  0.26239768674E+02  0.34170336471E+02 -0.13152038345E+02  0.45045682004E+02  0.00000000000E+00 0. -1.
         11    1    3    3    0    0 -0.56486144544E+00  0.53842242907E+00  0.18263442373E+00  0.80145040927E+00  0.51100000000E-03 0. -1.
        -11    1    3    3    0    0 -0.20169530649E+02 -0.23720460758E+02  0.86803746040E+01  0.32323662056E+02  0.51100000000E-03 0.  1.
         12    1    3    3    0    0 -0.55053765796E+01 -0.10988298142E+02  0.42890293174E+01  0.13017205531E+02  0.00000000000E+00 0. -1.
</event>
<event>
 7    1  0.2227287E-008  0.4614232E+02  0.7816164E-02  0.1320468E+00
        -11   -1    0    0    0    0  0.00000000000E+00  0.00000000000E+00  0.45593999997E+02  0.45594000000E+02  0.51100000000E-03 0.  1.
         11   -1    0    0    0    0 -0.00000000000E+00 -0.00000000000E+00 -0.45593999997E+02  0.45594000000E+02  0.51100000000E-03 0. -1.
    9900012    2    1    2    0    0 -0.22278610418E+02  0.24724910196E+02  0.30355491809E+02  0.46142317085E+02  0.99999938303E+01 0.  0.
         12    1    1    2    0    0  0.22278610418E+02 -0.24724910196E+02 -0.30355491809E+02  0.45045682915E+02  0.00000000000E+00 0. -1.
         11    1    3    3    0    0 -0.43079941768E+01  0.14550154349E+01  0.43738062403E+01  0.63092047861E+01  0.51100000000E-03 0. -1.
        -11    1    3    3    0    0 -0.11338327636E+02  0.14289009672E+02  0.20350238093E+02  0.27328843036E+02  0.51100000000E-03 0.  1.
        -12    1    3    3    0    0 -0.66322886046E+01  0.89808850882E+01  0.56314474765E+01  0.12504269262E+02  0.00000000000E+00 0.  1.
</event>
<event>
 7    1  0.2227287E-008  0.4614232E+02  0.7816164E-02  0.1320468E+00
        -11   -1    0    0    0    0  0.00000000000E+00  0.00000000000E+00  0.45593999997E+02  0.45594000000E+02  0.51100000000E-03 0.  1.
         11   -1    0    0    0    0 -0.00000000000E+00 -0.00000000000E+00 -0.45593999997E+02  0.45594000000E+02  0.51100000000E-03 0. -1.
    9900012    2    1    2    0    0 -0.11255789108E+02  0.86516444733E+01  0.42750085881E+02  0.46142316707E+02  0.99999903869E+01 0.  0.
         12    1    1    2    0    0  0.11255789108E+02 -0.86516444733E+01 -0.42750085881E+02  0.45045683293E+02  0.00000000000E+00 0. -1.
         11    1    3    3    0    0 -0.30484325864E+01  0.29511620098E+01  0.57776999082E+01  0.71682714048E+01  0.51100000000E-03 0. -1.
        -11    1    3    3    0    0 -0.25173359324E+01 -0.15454834756E+01  0.11943448624E+02  0.12303311126E+02  0.51100000000E-03 0.  1.
        -12    1    3    3    0    0 -0.56900205893E+01  0.72459659390E+01  0.25028937349E+02  0.26670734176E+02  0.00000000000E+00 0.  1.
</event>
<event>
 7    1  0.2227287E-008  0.4614232E+02  0.7816164E-02  0.1320468E+00
        -11   -1    0    0    0    0  0.00000000000E+00  0.00000000000E+00  0.45593999997E+02  0.45594000000E+02  0.51100000000E-03 0. -1.
         11   -1    0    0    0    0 -0.00000000000E+00 -0.00000000000E+00 -0.45593999997E+02  0.45594000000E+02  0.51100000000E-03 0.  1.
    9900012    2    1    2    0    0  0.14256221195E+02  0.32756879459E+02 -0.27438303542E+02  0.46142317677E+02  0.99999992359E+01 0.  0.
         12    1    1    2    0    0 -0.14256221195E+02 -0.32756879459E+02  0.27438303542E+02  0.45045682323E+02  0.00000000000E+00 0. -1.
         11    1    3    3    0    0  0.71680640748E+01  0.10701835550E+02 -0.78382244504E+01  0.15078069821E+02  0.51100000000E-03 0.  1.
        -11    1    3    3    0    0  0.11194739120E+00  0.10566833692E+02 -0.72871792929E+01  0.12836412615E+02  0.51100000000E-03 0. -1.
        -12    1    3    3    0    0  0.69762097286E+01  0.11488210216E+02 -0.12312899799E+02  0.18227835242E+02  0.00000000000E+00 0.  1.
</event>
<event>
 7    1  0.2227287E-008  0.4614232E+02  0.7816164E-02  0.1320468E+00
        -11   -1    0    0    0    0  0.00000000000E+00  0.00000000000E+00  0.45593999997E+02  0.45594000000E+02  0.51100000000E-03 0.  1.
         11   -1    0    0    0    0 -0.00000000000E+00 -0.00000000000E+00 -0.45593999997E+02  0.45594000000E+02  0.51100000000E-03 0. -1.
    9900012    2    1    2    0    0 -0.33371717500E+02 -0.26881558567E+02  0.13886096656E+02  0.46142318739E+02  0.10000008919E+02 0.  0.
         12    1    1    2    0    0  0.33371717500E+02  0.26881558567E+02 -0.13886096656E+02  0.45045681261E+02  0.00000000000E+00 0. -1.
         11    1    3    3    0    0 -0.30208836606E+01 -0.59623887300E+00  0.30089006200E+01  0.43051971019E+01  0.51100000000E-03 0. -1.
        -11    1    3    3    0    0 -0.20600787475E+01 -0.12457923457E+01  0.17321178879E+01  0.29658313595E+01  0.51100000000E-03 0.  1.
        -12    1    3    3    0    0 -0.28290755092E+02 -0.25039527348E+02  0.91450781478E+01  0.38871290278E+02  0.00000000000E+00 0.  1.
</event>
<event>
 7    1  0.2227287E-008  0.4614232E+02  0.7816164E-02  0.1320468E+00
        -11   -1    0    0    0    0  0.00000000000E+00  0.00000000000E+00  0.45593999997E+02  0.45594000000E+02  0.51100000000E-03 0.  1.
         11   -1    0    0    0    0 -0.00000000000E+00 -0.00000000000E+00 -0.45593999997E+02  0.45594000000E+02  0.51100000000E-03 0. -1.
    9900012    2    1    2    0    0 -0.97501145265E+01 -0.41804630061E+02 -0.13653629183E+02  0.46142318546E+02  0.10000007157E+02 0.  0.
         12    1    1    2    0    0  0.97501145265E+01  0.41804630061E+02  0.13653629183E+02  0.45045681454E+02  0.00000000000E+00 0. -1.
         11    1    3    3    0    0 -0.30775691011E+01 -0.13983452746E+02 -0.61466490403E+01  0.15581709693E+02  0.51100000000E-03 0. -1.
        -11    1    3    3    0    0 -0.39520995060E+01 -0.20969408900E+02 -0.87892798134E+01  0.23077838721E+02  0.51100000000E-03 0.  1.
         12    1    3    3    0    0 -0.27204459194E+01 -0.68517684144E+01  0.12822996705E+01  0.74827701321E+01  0.00000000000E+00 0. -1.
</event>
<event>
 7    1  0.2227287E-008  0.4614232E+02  0.7816164E-02  0.1320468E+00
        -11   -1    0    0    0    0  0.00000000000E+00  0.00000000000E+00  0.45593999997E+02  0.45594000000E+02  0.51100000000E-03 0. -1.
         11   -1    0    0    0    0 -0.00000000000E+00 -0.00000000000E+00 -0.45593999997E+02  0.45594000000E+02  0.51100000000E-03 0.  1.
    9900012    2    1    2    0    0  0.31295121063E+02  0.31854342349E+02 -0.59185952440E+01  0.46142317648E+02  0.99999989722E+01 0.  0.
         12    1    1    2    0    0 -0.31295121063E+02 -0.31854342349E+02  0.59185952440E+01  0.45045682352E+02  0.00000000000E+00 0. -1.
         11    1    3    3    0    0  0.17100029520E+02  0.13853946071E+02 -0.31634339094E+01  0.22233986275E+02  0.51100000000E-03 0. -1.
        -11    1    3    3    0    0  0.35835832571E+01  0.32565988026E+01 -0.30821045822E+01  0.57399367278E+01  0.51100000000E-03 0.  1.
         12    1    3    3    0    0  0.10611508286E+02  0.14743797476E+02  0.32694324767E+00  0.18168394646E+02  0.00000000000E+00 0. -1.
</event>
<event>
 7    1  0.2227287E-008  0.4614232E+02  0.7816164E-02  0.1320468E+00
        -11   -1    0    0    0    0  0.00000000000E+00  0.00000000000E+00  0.45593999997E+02  0.45594000000E+02  0.51100000000E-03 0.  1.
         11   -1    0    0    0    0 -0.00000000000E+00 -0.00000000000E+00 -0.45593999997E+02  0.45594000000E+02  0.51100000000E-03 0. -1.
    9900012    2    1    2    0    0  0.11338165617E+02 -0.33091288618E+02  0.28381791659E+02  0.46142317857E+02  0.10000000877E+02 0.  0.
         12    1    1    2    0    0 -0.11338165617E+02  0.33091288618E+02 -0.28381791659E+02  0.45045682143E+02  0.00000000000E+00 0. -1.
         11    1    3    3    0    0  0.46200236045E+01 -0.13432542574E+02  0.89873911480E+01  0.16809253940E+02  0.51100000000E-03 0. -1.
        -11    1    3    3    0    0  0.67664346069E+01 -0.12937171770E+02  0.16450647109E+02  0.21994973091E+02  0.51100000000E-03 0.  1.
         12    1    3    3    0    0 -0.48292594156E-01 -0.67215742734E+01  0.29437534017E+01  0.73380908264E+01  0.00000000000E+00 0. -1.
</event>
<event>
 7    1  0.2227287E-008  0.4614232E+02  0.7816164E-02  0.1320468E+00
        -11   -1    0    0    0    0  0.00000000000E+00  0.00000000000E+00  0.45593999997E+02  0.45594000000E+02  0.51100000000E-03 0. -1.
         11   -1    0    0    0    0 -0.00000000000E+00 -0.00000000000E+00 -0.45593999997E+02  0.45594000000E+02  0.51100000000E-03 0.  1.
    9900012    2    1    2    0    0  0.43809238844E+02  0.65733240142E+01  0.81642645363E+01  0.46142320827E+02  0.10000027959E+02 0.  0.
         12    1    1    2    0    0 -0.43809238844E+02 -0.65733240142E+01 -0.81642645363E+01  0.45045679173E+02  0.00000000000E+00 0. -1.
         11    1    3    3    0    0  0.10072998006E+02  0.49863927872E+01  0.95779809516E+00  0.11280371418E+02  0.51100000000E-03 0. -1.
        -11    1    3    3    0    0  0.98020513534E+00  0.26865501280E+00 -0.57609082209E+00  0.11682715950E+01  0.51100000000E-03 0.  1.
         12    1    3    3    0    0  0.32756035703E+02  0.13182762142E+01  0.77825572633E+01  0.33693677815E+02  0.00000000000E+00 0. -1.
</event>
<event>
 7    1  0.2227287E-008  0.4614232E+02  0.7816164E-02  0.1320468E+00
        -11   -1    0    0    0    0  0.00000000000E+00  0.00000000000E+00  0.45593999997E+02  0.45594000000E+02  0.51100000000E-03 0.  1.
         11   -1    0    0    0    0 -0.00000000000E+00 -0.00000000000E+00 -0.45593999997E+02  0.45594000000E+02  0.51100000000E-03 0. -1.
    9900012    2    1    2    0    0  0.21437309015E+02 -0.11449214624E+02  0.37927176155E+02  0.46142318471E+02  0.10000006474E+02 0.  0.
         12    1    1    2    0    0 -0.21437309015E+02  0.11449214624E+02 -0.37927176155E+02  0.45045681529E+02  0.00000000000E+00 0. -1.
         11    1    3    3    0    0  0.82294181130E+01  0.19447610321E+00  0.13030972925E+02  0.15413221567E+02  0.51100000000E-03 0. -1.
        -11    1    3    3    0    0  0.65443928156E+01 -0.49911276863E+01  0.14721815166E+02  0.16866305907E+02  0.51100000000E-03 0.  1.
         12    1    3    3    0    0  0.66634980861E+01 -0.66525630404E+01  0.10174388064E+02  0.13862790997E+02  0.00000000000E+00 0. -1.
</event>
<event>
 7    1  0.2227287E-008  0.4614232E+02  0.7816164E-02  0.1320468E+00
        -11   -1    0    0    0    0  0.00000000000E+00  0.00000000000E+00  0.45593999997E+02  0.45594000000E+02  0.51100000000E-03 0.  1.
         11   -1    0    0    0    0 -0.00000000000E+00 -0.00000000000E+00 -0.45593999997E+02  0.45594000000E+02  0.51100000000E-03 0. -1.
    9900012    2    1    2    0    0  0.18637481197E+02  0.29058344949E+02  0.28937352206E+02  0.46142317973E+02  0.10000001934E+02 0.  0.
         12    1    1    2    0    0 -0.18637481197E+02 -0.29058344949E+02 -0.28937352206E+02  0.45045682027E+02  0.00000000000E+00 0. -1.
         11    1    3    3    0    0  0.15694986713E+01  0.21521296123E+01  0.38066976296E+01  0.46460666215E+01  0.51100000000E-03 0. -1.
        -11    1    3    3    0    0  0.17174906766E+02  0.27097724438E+02  0.23294805410E+02  0.39647346084E+02  0.51100000000E-03 0.  1.
        -12    1    3    3    0    0 -0.10692423951E+00 -0.19150910124E+00  0.18358491660E+01  0.18489052678E+01  0.00000000000E+00 0.  1.
</event>
<event>
 7    1  0.2227287E-008  0.4614232E+02  0.7816164E-02  0.1320468E+00
        -11   -1    0    0    0    0  0.00000000000E+00  0.00000000000E+00  0.45593999997E+02  0.45594000000E+02  0.51100000000E-03 0.  1.
         11   -1    0    0    0    0 -0.00000000000E+00 -0.00000000000E+00 -0.45593999997E+02  0.45594000000E+02  0.51100000000E-03 0. -1.
    9900012    2    1    2    0    0 -0.34559898681E+02 -0.13925541174E+02  0.25314149993E+02  0.46142317813E+02  0.10000000474E+02 0.  0.
         12    1    1    2    0    0  0.34559898681E+02  0.13925541174E+02 -0.25314149993E+02  0.45045682187E+02  0.00000000000E+00 0. -1.
         11    1    3    3    0    0 -0.76313552111E+01 -0.14872121003E+01  0.37554110654E+01  0.86343786528E+01  0.51100000000E-03 0.  1.
        -11    1    3    3    0    0 -0.78560638291E+01 -0.47315948630E-02  0.44507589423E+01  0.90292312352E+01  0.51100000000E-03 0. -1.
        -12    1    3    3    0    0 -0.19072479641E+02 -0.12433597479E+02  0.17107979985E+02  0.28478707925E+02  0.00000000000E+00 0.  1.
</event>
<event>
 7    1  0.2227287E-008  0.4614232E+02  0.7816164E-02  0.1320468E+00
        -11   -1    0    0    0    0  0.00000000000E+00  0.00000000000E+00  0.45593999997E+02  0.45594000000E+02  0.51100000000E-03 0. -1.
         11   -1    0    0    0    0 -0.00000000000E+00 -0.00000000000E+00 -0.45593999997E+02  0.45594000000E+02  0.51100000000E-03 0.  1.
    9900012    2    1    2    0    0 -0.39460483250E+02 -0.19791174386E+02  0.89606445146E+01  0.46142317942E+02  0.10000001654E+02 0.  0.
         12    1    1    2    0    0  0.39460483250E+02  0.19791174386E+02 -0.89606445146E+01  0.45045682058E+02  0.00000000000E+00 0. -1.
         11    1    3    3    0    0 -0.22893132176E+02 -0.12951882614E+02  0.87611482068E+01  0.27723716963E+02  0.51100000000E-03 0. -1.
        -11    1    3    3    0    0 -0.84811512700E+01 -0.56734702182E+01 -0.52070786118E+00  0.10217109578E+02  0.51100000000E-03 0.  1.
         12    1    3    3    0    0 -0.80861998040E+01 -0.11658215528E+01  0.72020416896E+00  0.82014914015E+01  0.00000000000E+00 0. -1.
</event>
<event>
 7    1  0.2227287E-008  0.4614232E+02  0.7816164E-02  0.1320468E+00
        -11   -1    0    0    0    0  0.00000000000E+00  0.00000000000E+00  0.45593999997E+02  0.45594000000E+02  0.51100000000E-03 0.  1.
         11   -1    0    0    0    0 -0.00000000000E+00 -0.00000000000E+00 -0.45593999997E+02  0.45594000000E+02  0.51100000000E-03 0. -1.
    9900012    2    1    2    0    0 -0.32433369675E+02  0.29199757483E+02  0.11160822251E+02  0.46142320309E+02  0.10000023230E+02 0.  0.
         12    1    1    2    0    0  0.32433369675E+02 -0.29199757483E+02 -0.11160822251E+02  0.45045679691E+02  0.00000000000E+00 0. -1.
         11    1    3    3    0    0 -0.30076451099E+01  0.54107422608E+01  0.22568192932E+01  0.65890283429E+01  0.51100000000E-03 0. -1.
        -11    1    3    3    0    0 -0.20326008102E+02  0.20153091327E+02  0.52848926921E+01  0.29107108864E+02  0.51100000000E-03 0.  1.
         12    1    3    3    0    0 -0.90997164632E+01  0.36359238954E+01  0.36191102660E+01  0.10446183102E+02  0.00000000000E+00 0. -1.
</event>
<event>
 7    1  0.2227287E-008  0.4614232E+02  0.7816164E-02  0.1320468E+00
        -11   -1    0    0    0    0  0.00000000000E+00  0.00000000000E+00  0.45593999997E+02  0.45594000000E+02  0.51100000000E-03 0.  1.
         11   -1    0    0    0    0 -0.00000000000E+00 -0.00000000000E+00 -0.45593999997E+02  0.45594000000E+02  0.51100000000E-03 0. -1.
    9900012    2    1    2    0    0 -0.62689109940E+00 -0.27885996876E+02  0.35370774677E+02  0.46142317460E+02  0.99999972549E+01 0.  0.
         12    1    1    2    0    0  0.62689109940E+00  0.27885996876E+02 -0.35370774677E+02  0.45045682540E+02  0.00000000000E+00 0. -1.
         11    1    3    3    0    0  0.10021047185E+01  0.23324758192E+00  0.76158364338E+00  0.12800891408E+01  0.51100000000E-03 0. -1.
        -11    1    3    3    0    0  0.44250124594E+00 -0.18555491064E+02  0.20072383862E+02  0.27338665844E+02  0.51100000000E-03 0.  1.
         12    1    3    3    0    0 -0.20714970639E+01 -0.95637533943E+01  0.14536807172E+02  0.17523562475E+02  0.00000000000E+00 0. -1.
</event>
<event>
 7    1  0.2227287E-008  0.4614232E+02  0.7816164E-02  0.1320468E+00
        -11   -1    0    0    0    0  0.00000000000E+00  0.00000000000E+00  0.45593999997E+02  0.45594000000E+02  0.51100000000E-03 0. -1.
         11   -1    0    0    0    0 -0.00000000000E+00 -0.00000000000E+00 -0.45593999997E+02  0.45594000000E+02  0.51100000000E-03 0.  1.
    9900012    2    1    2    0    0 -0.93750039166E+01  0.49541178754E+01 -0.43779898388E+02  0.46142317796E+02  0.10000000318E+02 0.  0.
         12    1    1    2    0    0  0.93750039166E+01 -0.49541178754E+01  0.43779898388E+02  0.45045682204E+02  0.00000000000E+00 0. -1.
         11    1    3    3    0    0  0.91376118762E-01  0.19952993482E+01 -0.83963722630E+01  0.86306799572E+01  0.51100000000E-03 0. -1.
        -11    1    3    3    0    0 -0.53846005736E+01  0.47869875451E+01 -0.27695697698E+02  0.28617491929E+02  0.51100000000E-03 0.  1.
         12    1    3    3    0    0 -0.40817794618E+01 -0.18281690179E+01 -0.76878284275E+01  0.88941459097E+01  0.00000000000E+00 0. -1.
</event>
<event>
 7    1  0.2227287E-008  0.4614232E+02  0.7816164E-02  0.1320468E+00
        -11   -1    0    0    0    0  0.00000000000E+00  0.00000000000E+00  0.45593999997E+02  0.45594000000E+02  0.51100000000E-03 0.  1.
         11   -1    0    0    0    0 -0.00000000000E+00 -0.00000000000E+00 -0.45593999997E+02  0.45594000000E+02  0.51100000000E-03 0. -1.
    9900012    2    1    2    0    0 -0.18616623581E+02  0.39963009297E+02 -0.92462240541E+01  0.46142318244E+02  0.10000004401E+02 0.  0.
         12    1    1    2    0    0  0.18616623581E+02 -0.39963009297E+02  0.92462240541E+01  0.45045681756E+02  0.00000000000E+00 0. -1.
         11    1    3    3    0    0 -0.39595346449E+01  0.42592367803E+01 -0.13797947088E+00  0.58170483194E+01  0.51100000000E-03 0. -1.
        -11    1    3    3    0    0 -0.10823425169E+02  0.18531124531E+02 -0.28438024842E+01  0.21648009645E+02  0.51100000000E-03 0.  1.
         12    1    3    3    0    0 -0.38336637673E+01  0.17172647986E+02 -0.62644420991E+01  0.18677260279E+02  0.00000000000E+00 0. -1.
</event>
<event>
 7    1  0.2227287E-008  0.4614232E+02  0.7816164E-02  0.1320468E+00
        -11   -1    0    0    0    0  0.00000000000E+00  0.00000000000E+00  0.45593999997E+02  0.45594000000E+02  0.51100000000E-03 0. -1.
         11   -1    0    0    0    0 -0.00000000000E+00 -0.00000000000E+00 -0.45593999997E+02  0.45594000000E+02  0.51100000000E-03 0.  1.
    9900012    2    1    2    0    0  0.14740588567E+02 -0.25124110725E+02 -0.34359971018E+02  0.46142317639E+02  0.99999988895E+01 0.  0.
         12    1    1    2    0    0 -0.14740588567E+02  0.25124110725E+02  0.34359971018E+02  0.45045682361E+02  0.00000000000E+00 0. -1.
         11    1    3    3    0    0 -0.93628663801E+00 -0.35709306676E+01 -0.34441695136E+01  0.50488099985E+01  0.51100000000E-03 0. -1.
        -11    1    3    3    0    0  0.87868001655E+00 -0.38397582430E+01 -0.54442732032E+01  0.67198164342E+01  0.51100000000E-03 0.  1.
         12    1    3    3    0    0  0.14798195188E+02 -0.17713421814E+02 -0.25471528301E+02  0.34373691207E+02  0.00000000000E+00 0. -1.
</event>
<event>
 7    1  0.2227287E-008  0.4614232E+02  0.7816164E-02  0.1320468E+00
        -11   -1    0    0    0    0  0.00000000000E+00  0.00000000000E+00  0.45593999997E+02  0.45594000000E+02  0.51100000000E-03 0.  1.
         11   -1    0    0    0    0 -0.00000000000E+00 -0.00000000000E+00 -0.45593999997E+02  0.45594000000E+02  0.51100000000E-03 0. -1.
    9900012    2    1    2    0    0 -0.42606257946E+02 -0.12297633162E+02  0.79112890669E+01  0.46142317718E+02  0.99999996056E+01 0.  0.
         12    1    1    2    0    0  0.42606257946E+02  0.12297633162E+02 -0.79112890669E+01  0.45045682282E+02  0.00000000000E+00 0. -1.
         11    1    3    3    0    0 -0.14769336957E+01 -0.62303882130E+00 -0.56593590353E+00  0.16999394761E+01  0.51100000000E-03 0. -1.
        -11    1    3    3    0    0 -0.26271086705E+02 -0.82960366098E+01  0.12510760502E+01  0.27578241634E+02  0.51100000000E-03 0.  1.
        -12    1    3    3    0    0 -0.14858237546E+02 -0.33785577308E+01  0.72261489203E+01  0.16864136608E+02  0.00000000000E+00 0.  1.
</event>
<event>
 7    1  0.2227287E-008  0.4614232E+02  0.7816164E-02  0.1320468E+00
        -11   -1    0    0    0    0  0.00000000000E+00  0.00000000000E+00  0.45593999997E+02  0.45594000000E+02  0.51100000000E-03 0.  1.
         11   -1    0    0    0    0 -0.00000000000E+00 -0.00000000000E+00 -0.45593999997E+02  0.45594000000E+02  0.51100000000E-03 0. -1.
    9900012    2    1    2    0    0 -0.31516883464E+02 -0.30796106919E+02  0.93487614754E+01  0.46142317790E+02  0.10000000265E+02 0.  0.
         12    1    1    2    0    0  0.31516883464E+02  0.30796106919E+02 -0.93487614754E+01  0.45045682210E+02  0.00000000000E+00 0. -1.
         11    1    3    3    0    0 -0.63643327974E+01 -0.19590820055E+01  0.18719847517E+01  0.69171570339E+01  0.51100000000E-03 0. -1.
        -11    1    3    3    0    0 -0.80939346353E+01 -0.69305338967E+01  0.91172601027E+00  0.10694639898E+02  0.51100000000E-03 0.  1.
        -12    1    3    3    0    0 -0.17058616031E+02 -0.21906491017E+02  0.65650507135E+01  0.28530520858E+02  0.00000000000E+00 0.  1.
</event>
<event>
 7    1  0.2227287E-008  0.4614232E+02  0.7816164E-02  0.1320468E+00
        -11   -1    0    0    0    0  0.00000000000E+00  0.00000000000E+00  0.45593999997E+02  0.45594000000E+02  0.51100000000E-03 0.  1.
         11   -1    0    0    0    0 -0.00000000000E+00 -0.00000000000E+00 -0.45593999997E+02  0.45594000000E+02  0.51100000000E-03 0. -1.
    9900012    2    1    2    0    0  0.78178090381E+01  0.27235627819E+02  0.35017366418E+02  0.46142317502E+02  0.99999976393E+01 0.  0.
         12    1    1    2    0    0 -0.78178090381E+01 -0.27235627819E+02 -0.35017366418E+02  0.45045682498E+02  0.00000000000E+00 0. -1.
         11    1    3    3    0    0  0.20179505312E+01  0.66222417748E+00  0.25805678454E+01  0.33421543761E+01  0.51100000000E-03 0. -1.
        -11    1    3    3    0    0  0.51992994954E-01  0.19766305815E+01  0.56317922313E+01  0.59688236467E+01  0.51100000000E-03 0.  1.
        -12    1    3    3    0    0  0.57478655119E+01  0.24596773060E+02  0.26805006341E+02  0.36831339479E+02  0.00000000000E+00 0.  1.
</event>
<event>
 7    1  0.2227287E-008  0.4614233E+02  0.7816164E-02  0.1320468E+00
        -11   -1    0    0    0    0  0.00000000000E+00  0.00000000000E+00  0.45593999997E+02  0.45594000000E+02  0.51100000000E-03 0.  1.
         11   -1    0    0    0    0 -0.00000000000E+00 -0.00000000000E+00 -0.45593999997E+02  0.45594000000E+02  0.51100000000E-03 0. -1.
    9900012    2    1    2    0    0  0.77579732756E+01 -0.44315091352E+02  0.22581699934E+01  0.46142325373E+02  0.10000069415E+02 0.  0.
         12    1    1    2    0    0 -0.77579732756E+01  0.44315091352E+02 -0.22581699934E+01  0.45045674627E+02  0.00000000000E+00 0. -1.
         11    1    3    3    0    0  0.27498960805E+01 -0.60201423688E+01 -0.19567908394E+01  0.69016717717E+01  0.51100000000E-03 0. -1.
        -11    1    3    3    0    0  0.10044713780E-01 -0.15501972976E+02  0.35157613313E+01  0.15895654911E+02  0.51100000000E-03 0.  1.
        -12    1    3    3    0    0  0.49980324813E+01 -0.22792976007E+02  0.69919950152E+00  0.23344998691E+02  0.00000000000E+00 0.  1.
</event>
<event>
 7    1  0.2227287E-008  0.4614232E+02  0.7816164E-02  0.1320468E+00
        -11   -1    0    0    0    0  0.00000000000E+00  0.00000000000E+00  0.45593999997E+02  0.45594000000E+02  0.51100000000E-03 0.  1.
         11   -1    0    0    0    0 -0.00000000000E+00 -0.00000000000E+00 -0.45593999997E+02  0.45594000000E+02  0.51100000000E-03 0. -1.
    9900012    2    1    2    0    0  0.32074990777E+02  0.26351397656E+02  0.17490349965E+02  0.46142317259E+02  0.99999954183E+01 0.  0.
         12    1    1    2    0    0 -0.32074990777E+02 -0.26351397656E+02 -0.17490349965E+02  0.45045682741E+02  0.00000000000E+00 0. -1.
         11    1    3    3    0    0  0.17598495753E+02  0.12725172306E+02  0.11059958773E+02  0.24371289488E+02  0.51100000000E-03 0.  1.
        -11    1    3    3    0    0  0.12136548011E+02  0.84649822323E+01  0.63541005443E+01  0.16103611887E+02  0.51100000000E-03 0. -1.
        -12    1    3    3    0    0  0.23399470125E+01  0.51612431168E+01  0.76290647986E-01  0.56674158834E+01  0.00000000000E+00 0.  1.
</event>
<event>
 7    1  0.2227287E-008  0.4614232E+02  0.7816164E-02  0.1320468E+00
        -11   -1    0    0    0    0  0.00000000000E+00  0.00000000000E+00  0.45593999997E+02  0.45594000000E+02  0.51100000000E-03 0.  1.
         11   -1    0    0    0    0 -0.00000000000E+00 -0.00000000000E+00 -0.45593999997E+02  0.45594000000E+02  0.51100000000E-03 0. -1.
    9900012    2    1    2    0    0  0.14417359870E+02  0.15619410229E+02  0.39715075742E+02  0.46142317824E+02  0.10000000572E+02 0.  0.
         12    1    1    2    0    0 -0.14417359870E+02 -0.15619410229E+02 -0.39715075742E+02  0.45045682176E+02  0.00000000000E+00 0. -1.
         11    1    3    3    0    0  0.30017284122E+01  0.55716051304E+01  0.84701022196E+01  0.10573352782E+02  0.51100000000E-03 0. -1.
        -11    1    3    3    0    0  0.86634533475E+01  0.26425031859E+01  0.15475418881E+02  0.17931169421E+02  0.51100000000E-03 0.  1.
         12    1    3    3    0    0  0.27521781100E+01  0.74053019122E+01  0.15769554642E+02  0.17637795621E+02  0.00000000000E+00 0. -1.
</event>
<event>
 7    1  0.2227287E-008  0.4614232E+02  0.7816164E-02  0.1320468E+00
        -11   -1    0    0    0    0  0.00000000000E+00  0.00000000000E+00  0.45593999997E+02  0.45594000000E+02  0.51100000000E-03 0.  1.
         11   -1    0    0    0    0 -0.00000000000E+00 -0.00000000000E+00 -0.45593999997E+02  0.45594000000E+02  0.51100000000E-03 0. -1.
    9900012    2    1    2    0    0 -0.18531446142E+02  0.21536189506E+02  0.34955565350E+02  0.46142317593E+02  0.99999984636E+01 0.  0.
         12    1    1    2    0    0  0.18531446142E+02 -0.21536189506E+02 -0.34955565350E+02  0.45045682407E+02  0.00000000000E+00 0. -1.
         11    1    3    3    0    0  0.21897402334E+00  0.18429851324E+01  0.56541873455E+01  0.59509981197E+01  0.51100000000E-03 0. -1.
        -11    1    3    3    0    0 -0.44004654323E-01  0.11930447417E+01  0.14519521856E+01  0.18797493385E+01  0.51100000000E-03 0.  1.
        -12    1    3    3    0    0 -0.18706415511E+02  0.18500159632E+02  0.27849425819E+02  0.38311570134E+02  0.00000000000E+00 0.  1.
</event>
<event>
 7    1  0.2227287E-008  0.4614232E+02  0.7816164E-02  0.1320468E+00
        -11   -1    0    0    0    0  0.00000000000E+00  0.00000000000E+00  0.45593999997E+02  0.45594000000E+02  0.51100000000E-03 0.  1.
         11   -1    0    0    0    0 -0.00000000000E+00 -0.00000000000E+00 -0.45593999997E+02  0.45594000000E+02  0.51100000000E-03 0. -1.
    9900012    2    1    2    0    0  0.42705753057E+02 -0.13813308582E+02  0.38111184744E+01  0.46142318052E+02  0.10000002649E+02 0.  0.
         12    1    1    2    0    0 -0.42705753057E+02  0.13813308582E+02 -0.38111184744E+01  0.45045681948E+02  0.00000000000E+00 0. -1.
         11    1    3    3    0    0  0.43571680381E+01 -0.39957352755E+01  0.59244072613E+00  0.59415317873E+01  0.51100000000E-03 0. -1.
        -11    1    3    3    0    0  0.21413979439E+02 -0.86496261474E+01  0.20531310713E+01  0.23185984891E+02  0.51100000000E-03 0.  1.
        -12    1    3    3    0    0  0.16934605580E+02 -0.11679471590E+01  0.11655466770E+01  0.17014801374E+02  0.00000000000E+00 0.  1.
</event>
<event>
 7    1  0.2227287E-008  0.4614232E+02  0.7816164E-02  0.1320468E+00
        -11   -1    0    0    0    0  0.00000000000E+00  0.00000000000E+00  0.45593999997E+02  0.45594000000E+02  0.51100000000E-03 0. -1.
         11   -1    0    0    0    0 -0.00000000000E+00 -0.00000000000E+00 -0.45593999997E+02  0.45594000000E+02  0.51100000000E-03 0.  1.
    9900012    2    1    2    0    0 -0.33898719497E+02 -0.11127185651E+02 -0.27498656089E+02  0.46142317290E+02  0.99999957083E+01 0.  0.
         12    1    1    2    0    0  0.33898719497E+02  0.11127185651E+02  0.27498656089E+02  0.45045682710E+02  0.00000000000E+00 0. -1.
         11    1    3    3    0    0  0.46672486499E+00 -0.66613802585E+00 -0.10532813845E+01  0.13307794352E+01  0.51100000000E-03 0. -1.
        -11    1    3    3    0    0 -0.15514359047E+02 -0.38956192450E+01 -0.14226190355E+02  0.21406907255E+02  0.51100000000E-03 0.  1.
        -12    1    3    3    0    0 -0.18851085315E+02 -0.65654283802E+01 -0.12219184350E+02  0.23404630600E+02  0.00000000000E+00 0.  1.
</event>
<event>
 7    1  0.2227287E-008  0.4614232E+02  0.7816164E-02  0.1320468E+00
        -11   -1    0    0    0    0  0.00000000000E+00  0.00000000000E+00  0.45593999997E+02  0.45594000000E+02  0.51100000000E-03 0. -1.
         11   -1    0    0    0    0 -0.00000000000E+00 -0.00000000000E+00 -0.45593999997E+02  0.45594000000E+02  0.51100000000E-03 0.  1.
    9900012    2    1    2    0    0  0.92805958078E+01 -0.36509259393E+02 -0.24699352332E+02  0.46142317792E+02  0.10000000282E+02 0.  0.
         12    1    1    2    0    0 -0.92805958078E+01  0.36509259393E+02  0.24699352332E+02  0.45045682208E+02  0.00000000000E+00 0. -1.
         11    1    3    3    0    0  0.69823229362E+01 -0.11655493211E+02 -0.57697543913E+01  0.14761213418E+02  0.51100000000E-03 0. -1.
        -11    1    3    3    0    0  0.71451099880E+00 -0.57979323360E+01 -0.34943143782E+01  0.68071123521E+01  0.51100000000E-03 0.  1.
        -12    1    3    3    0    0  0.15837618727E+01 -0.19055833846E+02 -0.15435283563E+02  0.24573992022E+02  0.00000000000E+00 0.  1.
</event>
<event>
 7    1  0.2227287E-008  0.4614232E+02  0.7816164E-02  0.1320468E+00
        -11   -1    0    0    0    0  0.00000000000E+00  0.00000000000E+00  0.45593999997E+02  0.45594000000E+02  0.51100000000E-03 0. -1.
         11   -1    0    0    0    0 -0.00000000000E+00 -0.00000000000E+00 -0.45593999997E+02  0.45594000000E+02  0.51100000000E-03 0.  1.
    9900012    2    1    2    0    0  0.29153947105E+02 -0.14923918358E+02 -0.30926323924E+02  0.46142317827E+02  0.10000000604E+02 0.  0.
         12    1    1    2    0    0 -0.29153947105E+02  0.14923918358E+02  0.30926323924E+02  0.45045682173E+02  0.00000000000E+00 0. -1.
         11    1    3    3    0    0  0.64061689978E+00  0.53288243023E+00 -0.39503091498E+00  0.92217318419E+00  0.51100000000E-03 0. -1.
        -11    1    3    3    0    0  0.62055437253E+01 -0.34796429591E+01 -0.27389552888E+01  0.76235532650E+01  0.51100000000E-03 0.  1.
        -12    1    3    3    0    0  0.22307786480E+02 -0.11977157829E+02 -0.27792337720E+02  0.37596591378E+02  0.00000000000E+00 0.  1.
</event>
<event>
 7    1  0.2227287E-008  0.4614232E+02  0.7816164E-02  0.1320468E+00
        -11   -1    0    0    0    0  0.00000000000E+00  0.00000000000E+00  0.45593999997E+02  0.45594000000E+02  0.51100000000E-03 0.  1.
         11   -1    0    0    0    0 -0.00000000000E+00 -0.00000000000E+00 -0.45593999997E+02  0.45594000000E+02  0.51100000000E-03 0. -1.
    9900012    2    1    2    0    0  0.94458048428E+01  0.27780671608E+02  0.34177837612E+02  0.46142317321E+02  0.99999959883E+01 0.  0.
         12    1    1    2    0    0 -0.94458048428E+01 -0.27780671608E+02 -0.34177837612E+02  0.45045682679E+02  0.00000000000E+00 0. -1.
         11    1    3    3    0    0  0.92066927517E+00  0.24897706639E+01  0.78445991340E+01  0.82815654141E+01  0.51100000000E-03 0. -1.
        -11    1    3    3    0    0  0.16507020023E+00  0.43886445432E+01  0.65802389141E+01  0.79111941909E+01  0.51100000000E-03 0.  1.
        -12    1    3    3    0    0  0.83600653674E+01  0.20902256401E+02  0.19752999564E+02  0.29949557716E+02  0.00000000000E+00 0.  1.
</event>
<event>
 7    1  0.2227287E-008  0.4614232E+02  0.7816164E-02  0.1320468E+00
        -11   -1    0    0    0    0  0.00000000000E+00  0.00000000000E+00  0.45593999997E+02  0.45594000000E+02  0.51100000000E-03 0.  1.
         11   -1    0    0    0    0 -0.00000000000E+00 -0.00000000000E+00 -0.45593999997E+02  0.45594000000E+02  0.51100000000E-03 0. -1.
    9900012    2    1    2    0    0 -0.29152793661E+00 -0.45038857559E+02 -0.72786269981E+00  0.46142318044E+02  0.10000002579E+02 0.  0.
         12    1    1    2    0    0  0.29152793661E+00  0.45038857559E+02  0.72786269981E+00  0.45045681956E+02  0.00000000000E+00 0. -1.
         11    1    3    3    0    0 -0.18535782130E+01 -0.58453549381E+01  0.16443697855E+01  0.63488486197E+01  0.51100000000E-03 0. -1.
        -11    1    3    3    0    0  0.38074611573E+01 -0.17285681217E+02 -0.10216637561E+01  0.17729504581E+02  0.51100000000E-03 0.  1.
        -12    1    3    3    0    0 -0.22454108810E+01 -0.21907821404E+02 -0.13505687293E+01  0.22063964843E+02  0.00000000000E+00 0.  1.
</event>
<event>
 7    1  0.2227287E-008  0.4614232E+02  0.7816164E-02  0.1320468E+00
        -11   -1    0    0    0    0  0.00000000000E+00  0.00000000000E+00  0.45593999997E+02  0.45594000000E+02  0.51100000000E-03 0.  1.
         11   -1    0    0    0    0 -0.00000000000E+00 -0.00000000000E+00 -0.45593999997E+02  0.45594000000E+02  0.51100000000E-03 0. -1.
    9900012    2    1    2    0    0 -0.18281894494E+02 -0.40746003203E+02 -0.58863520406E+01  0.46142316704E+02  0.99999903611E+01 0.  0.
         12    1    1    2    0    0  0.18281894494E+02  0.40746003203E+02  0.58863520406E+01  0.45045683296E+02  0.00000000000E+00 0. -1.
         11    1    3    3    0    0 -0.16913663291E+01 -0.95035314874E+01 -0.22033540346E+01  0.99011413511E+01  0.51100000000E-03 0. -1.
        -11    1    3    3    0    0 -0.33988003465E+01 -0.13623255226E+02 -0.12348569661E+01  0.14095027448E+02  0.51100000000E-03 0.  1.
        -12    1    3    3    0    0 -0.13191727818E+02 -0.17619216489E+02 -0.24481410400E+01  0.22146147905E+02  0.00000000000E+00 0.  1.
</event>
<event>
 7    1  0.2370727E-008  0.4614233E+02  0.7816164E-02  0.1320468E+00
        -11   -1    0    0    0    0  0.00000000000E+00  0.00000000000E+00  0.45593999997E+02  0.45594000000E+02  0.51100000000E-03 0. -1.
         11   -1    0    0    0    0 -0.00000000000E+00 -0.00000000000E+00 -0.45593999997E+02  0.45594000000E+02  0.51100000000E-03 0.  1.
    9900012    2    1    2    0    0 -0.38215796276E+02 -0.17402042283E+01 -0.23783120768E+02  0.46142331738E+02  0.10000127449E+02 0.  0.
         12    1    1    2    0    0  0.38215796276E+02  0.17402042283E+01  0.23783120768E+02  0.45045668262E+02  0.00000000000E+00 0. -1.
         11    1    3    3    0    0  0.41510795949E+00  0.21768464888E+00 -0.21971734654E+00  0.51766514069E+00  0.51100000000E-03 0. -1.
        -11    1    3    3    0    0 -0.68454014996E+01 -0.23667942682E+01 -0.36072554834E+01  0.80915714903E+01  0.51100000000E-03 0.  1.
        -12    1    3    3    0    0 -0.31785502736E+02  0.40890539103E+00 -0.19956147938E+02  0.37533095107E+02  0.00000000000E+00 0.  1.
</event>
<event>
 7    1  0.2227287E-008  0.4614232E+02  0.7816164E-02  0.1320468E+00
        -11   -1    0    0    0    0  0.00000000000E+00  0.00000000000E+00  0.45593999997E+02  0.45594000000E+02  0.51100000000E-03 0.  1.
         11   -1    0    0    0    0 -0.00000000000E+00 -0.00000000000E+00 -0.45593999997E+02  0.45594000000E+02  0.51100000000E-03 0. -1.
    9900012    2    1    2    0    0 -0.17064908449E+02 -0.40934654680E+02 -0.78902840509E+01  0.46142316116E+02  0.99999850026E+01 0.  0.
         12    1    1    2    0    0  0.17064908449E+02  0.40934654680E+02  0.78902840509E+01  0.45045683884E+02  0.00000000000E+00 0. -1.
         11    1    3    3    0    0 -0.11187038553E+02 -0.19240986294E+02 -0.78729295217E+01  0.23608227478E+02  0.51100000000E-03 0. -1.
        -11    1    3    3    0    0 -0.18552392791E+01 -0.82516262749E+01 -0.69938876833E+00  0.84864830097E+01  0.51100000000E-03 0.  1.
         12    1    3    3    0    0 -0.40226306174E+01 -0.13442042111E+02  0.68203423908E+00  0.14047605628E+02  0.00000000000E+00 0. -1.
</event>
<event>
 7    1  0.2227287E-008  0.4614232E+02  0.7816164E-02  0.1320468E+00
        -11   -1    0    0    0    0  0.00000000000E+00  0.00000000000E+00  0.45593999997E+02  0.45594000000E+02  0.51100000000E-03 0.  1.
         11   -1    0    0    0    0 -0.00000000000E+00 -0.00000000000E+00 -0.45593999997E+02  0.45594000000E+02  0.51100000000E-03 0. -1.
    9900012    2    1    2    0    0 -0.67035657249E+01  0.42282659138E+02  0.14012580963E+02  0.46142317827E+02  0.10000000597E+02 0.  0.
         12    1    1    2    0    0  0.67035657249E+01 -0.42282659138E+02 -0.14012580963E+02  0.45045682173E+02  0.00000000000E+00 0. -1.
         11    1    3    3    0    0 -0.63870675737E+01  0.27828637204E+02  0.13444024032E+02  0.31558983876E+02  0.51100000000E-03 0. -1.
        -11    1    3    3    0    0  0.62089637528E-01  0.76098482481E+01  0.11818108046E+01  0.77013195312E+01  0.51100000000E-03 0.  1.
         12    1    3    3    0    0 -0.37858778877E+00  0.68441736858E+01 -0.61325387396E+00  0.68820144194E+01  0.00000000000E+00 0. -1.
</event>
<event>
 7    1  0.2227287E-008  0.4614232E+02  0.7816164E-02  0.1320468E+00
        -11   -1    0    0    0    0  0.00000000000E+00  0.00000000000E+00  0.45593999997E+02  0.45594000000E+02  0.51100000000E-03 0.  1.
         11   -1    0    0    0    0 -0.00000000000E+00 -0.00000000000E+00 -0.45593999997E+02  0.45594000000E+02  0.51100000000E-03 0. -1.
    9900012    2    1    2    0    0  0.11570185586E+02  0.36265546124E+02  0.24084316883E+02  0.46142319298E+02  0.10000014015E+02 0.  0.
         12    1    1    2    0    0 -0.11570185586E+02 -0.36265546124E+02 -0.24084316883E+02  0.45045680702E+02  0.00000000000E+00 0. -1.
         11    1    3    3    0    0  0.66531244967E+00  0.19641500711E+01 -0.18024112901E+00  0.20815891245E+01  0.51100000000E-03 0. -1.
        -11    1    3    3    0    0  0.36335394664E+01  0.37085009805E+01  0.21580142126E+01  0.56225095979E+01  0.51100000000E-03 0.  1.
        -12    1    3    3    0    0  0.72713336701E+01  0.30592895072E+02  0.22106543800E+02  0.38438220576E+02  0.00000000000E+00 0.  1.
</event>
<event>
 7    1  0.2227287E-008  0.4614232E+02  0.7816164E-02  0.1320468E+00
        -11   -1    0    0    0    0  0.00000000000E+00  0.00000000000E+00  0.45593999997E+02  0.45594000000E+02  0.51100000000E-03 0. -1.
         11   -1    0    0    0    0 -0.00000000000E+00 -0.00000000000E+00 -0.45593999997E+02  0.45594000000E+02  0.51100000000E-03 0.  1.
    9900012    2    1    2    0    0  0.18307020058E+02  0.41107629094E+02  0.20321014287E+01  0.46142316640E+02  0.99999897765E+01 0.  0.
         12    1    1    2    0    0 -0.18307020058E+02 -0.41107629094E+02 -0.20321014287E+01  0.45045683360E+02  0.00000000000E+00 0. -1.
         11    1    3    3    0    0  0.74134048169E+01  0.93927320475E+01 -0.51569942275E+00  0.11976975096E+02  0.51100000000E-03 0. -1.
        -11    1    3    3    0    0  0.79773421859E+01  0.15446129944E+02  0.29465933382E+01  0.17632451082E+02  0.51100000000E-03 0.  1.
        -12    1    3    3    0    0  0.29162730549E+01  0.16268767103E+02 -0.39879248670E+00  0.16532890462E+02  0.00000000000E+00 0.  1.
</event>
<event>
 7    1  0.2227287E-008  0.4614232E+02  0.7816164E-02  0.1320468E+00
        -11   -1    0    0    0    0  0.00000000000E+00  0.00000000000E+00  0.45593999997E+02  0.45594000000E+02  0.51100000000E-03 0.  1.
         11   -1    0    0    0    0 -0.00000000000E+00 -0.00000000000E+00 -0.45593999997E+02  0.45594000000E+02  0.51100000000E-03 0. -1.
    9900012    2    1    2    0    0  0.11873159564E+02  0.25017608998E+02  0.35528309823E+02  0.46142317888E+02  0.10000001159E+02 0.  0.
         12    1    1    2    0    0 -0.11873159564E+02 -0.25017608998E+02 -0.35528309823E+02  0.45045682112E+02  0.00000000000E+00 0. -1.
         11    1    3    3    0    0 -0.12125854738E+00  0.37854396406E+01  0.70354325509E+01  0.79900918861E+01  0.51100000000E-03 0.  1.
        -11    1    3    3    0    0  0.36192368758E+01  0.13397359590E+02  0.16457562023E+02  0.21527644264E+02  0.51100000000E-03 0. -1.
        -12    1    3    3    0    0  0.83751812359E+01  0.78348097674E+01  0.12035315250E+02  0.16624581739E+02  0.00000000000E+00 0.  1.
</event>
<event>
 7    1  0.2227287E-008  0.4614232E+02  0.7816164E-02  0.1320468E+00
        -11   -1    0    0    0    0  0.00000000000E+00  0.00000000000E+00  0.45593999997E+02  0.45594000000E+02  0.51100000000E-03 0. -1.
         11   -1    0    0    0    0 -0.00000000000E+00 -0.00000000000E+00 -0.45593999997E+02  0.45594000000E+02  0.51100000000E-03 0.  1.
    9900012    2    1    2    0    0 -0.16980270676E+01  0.44686057409E+02  0.54209272026E+01  0.46142317916E+02  0.10000001415E+02 0.  0.
         12    1    1    2    0    0  0.16980270676E+01 -0.44686057409E+02 -0.54209272026E+01  0.45045682084E+02  0.00000000000E+00 0. -1.
         11    1    3    3    0    0  0.19446841134E+01  0.16473303068E+02  0.19301592978E+00  0.16588814475E+02  0.51100000000E-03 0. -1.
        -11    1    3    3    0    0 -0.23520752232E+00  0.20298506747E+02  0.51225784454E+01  0.20936224801E+02  0.51100000000E-03 0.  1.
        -12    1    3    3    0    0 -0.34075036587E+01  0.79142475942E+01  0.10533282747E+00  0.86172786406E+01  0.00000000000E+00 0.  1.
</event>
<event>
 7    1  0.2227287E-008  0.4614232E+02  0.7816164E-02  0.1320468E+00
        -11   -1    0    0    0    0  0.00000000000E+00  0.00000000000E+00  0.45593999997E+02  0.45594000000E+02  0.51100000000E-03 0.  1.
         11   -1    0    0    0    0 -0.00000000000E+00 -0.00000000000E+00 -0.45593999997E+02  0.45594000000E+02  0.51100000000E-03 0. -1.
    9900012    2    1    2    0    0 -0.18040045394E+02 -0.12222249653E+02  0.39424444290E+02  0.46142318387E+02  0.10000005710E+02 0.  0.
         12    1    1    2    0    0  0.18040045394E+02  0.12222249653E+02 -0.39424444290E+02  0.45045681613E+02  0.00000000000E+00 0. -1.
         11    1    3    3    0    0 -0.71242296480E+01 -0.26855221448E+01  0.84314541691E+01  0.11360285953E+02  0.51100000000E-03 0. -1.
        -11    1    3    3    0    0 -0.51242439321E+01 -0.79253401420E+01  0.15295309112E+02  0.17972628448E+02  0.51100000000E-03 0.  1.
         12    1    3    3    0    0 -0.57915718137E+01 -0.16113873666E+01  0.15697681009E+02  0.16809403986E+02  0.00000000000E+00 0. -1.
</event>
<event>
 7    1  0.2227287E-008  0.4614232E+02  0.7816164E-02  0.1320468E+00
        -11   -1    0    0    0    0  0.00000000000E+00  0.00000000000E+00  0.45593999997E+02  0.45594000000E+02  0.51100000000E-03 0.  1.
         11   -1    0    0    0    0 -0.00000000000E+00 -0.00000000000E+00 -0.45593999997E+02  0.45594000000E+02  0.51100000000E-03 0. -1.
    9900012    2    1    2    0    0 -0.42313267277E+02  0.12573534500E+02 -0.89781473538E+01  0.46142317772E+02  0.10000000099E+02 0.  0.
         12    1    1    2    0    0  0.42313267277E+02 -0.12573534500E+02  0.89781473538E+01  0.45045682228E+02  0.00000000000E+00 0. -1.
         11    1    3    3    0    0 -0.20888595461E+01  0.17871467763E+01  0.59575055558E+00  0.28128538514E+01  0.51100000000E-03 0. -1.
        -11    1    3    3    0    0 -0.23000706354E+01  0.22154969816E+01 -0.18441272394E+01  0.36877577659E+01  0.51100000000E-03 0.  1.
        -12    1    3    3    0    0 -0.37924337095E+02  0.85708907422E+01 -0.77297706700E+01  0.39641706155E+02  0.00000000000E+00 0.  1.
</event>
<event>
 7    1  0.2227287E-008  0.4614232E+02  0.7816164E-02  0.1320468E+00
        -11   -1    0    0    0    0  0.00000000000E+00  0.00000000000E+00  0.45593999997E+02  0.45594000000E+02  0.51100000000E-03 0. -1.
         11   -1    0    0    0    0 -0.00000000000E+00 -0.00000000000E+00 -0.45593999997E+02  0.45594000000E+02  0.51100000000E-03 0.  1.
    9900012    2    1    2    0    0  0.43605336085E+02 -0.56543802802E+01  0.97834639342E+01  0.46142317433E+02  0.99999970055E+01 0.  0.
         12    1    1    2    0    0 -0.43605336085E+02  0.56543802802E+01 -0.97834639342E+01  0.45045682567E+02  0.00000000000E+00 0. -1.
         11    1    3    3    0    0  0.11567683911E+02  0.24301574608E+01  0.44364899027E+01  0.12625348283E+02  0.51100000000E-03 0. -1.
        -11    1    3    3    0    0  0.13435674795E+01 -0.86652361226E-01 -0.23497287653E-01  0.13465639930E+01  0.51100000000E-03 0.  1.
        -12    1    3    3    0    0  0.30694084694E+02 -0.79978853798E+01  0.53704713191E+01  0.32170405157E+02  0.00000000000E+00 0.  1.
</event>
<event>
 7    1  0.2227287E-008  0.4614232E+02  0.7816164E-02  0.1320468E+00
        -11   -1    0    0    0    0  0.00000000000E+00  0.00000000000E+00  0.45593999997E+02  0.45594000000E+02  0.51100000000E-03 0.  1.
         11   -1    0    0    0    0 -0.00000000000E+00 -0.00000000000E+00 -0.45593999997E+02  0.45594000000E+02  0.51100000000E-03 0. -1.
    9900012    2    1    2    0    0 -0.15730925828E+02 -0.14118409507E+02  0.39778410493E+02  0.46142318123E+02  0.10000003300E+02 0.  0.
         12    1    1    2    0    0  0.15730925828E+02  0.14118409507E+02 -0.39778410493E+02  0.45045681877E+02  0.00000000000E+00 0. -1.
         11    1    3    3    0    0 -0.66319747990E+01 -0.30216778115E+01  0.12172316025E+02  0.14187279662E+02  0.51100000000E-03 0. -1.
        -11    1    3    3    0    0 -0.24389965532E+01  0.66076658127E+00  0.53751704030E+01  0.59395095575E+01  0.51100000000E-03 0.  1.
        -12    1    3    3    0    0 -0.66599544762E+01 -0.11757498276E+02  0.22230924065E+02  0.26015528903E+02  0.00000000000E+00 0.  1.
</event>
<event>
 7    1  0.2227287E-008  0.4614232E+02  0.7816164E-02  0.1320468E+00
        -11   -1    0    0    0    0  0.00000000000E+00  0.00000000000E+00  0.45593999997E+02  0.45594000000E+02  0.51100000000E-03 0.  1.
         11   -1    0    0    0    0 -0.00000000000E+00 -0.00000000000E+00 -0.45593999997E+02  0.45594000000E+02  0.51100000000E-03 0. -1.
    9900012    2    1    2    0    0 -0.28105105184E+02 -0.71446755186E+01  0.34469842742E+02  0.46142318916E+02  0.10000010532E+02 0.  0.
         12    1    1    2    0    0  0.28105105184E+02  0.71446755186E+01 -0.34469842742E+02  0.45045681084E+02  0.00000000000E+00 0. -1.
         11    1    3    3    0    0  0.37321910705E+00 -0.27819517742E+00  0.58491568341E+00  0.74753707361E+00  0.51100000000E-03 0. -1.
        -11    1    3    3    0    0 -0.25727836990E+02 -0.76789828116E+01  0.32650935033E+02  0.42272590788E+02  0.51100000000E-03 0.  1.
        -12    1    3    3    0    0 -0.27504873011E+01  0.81250247042E+00  0.12339920259E+01  0.31221910540E+01  0.00000000000E+00 0.  1.
</event>
<event>
 7    1  0.2227287E-008  0.4614232E+02  0.7816164E-02  0.1320468E+00
        -11   -1    0    0    0    0  0.00000000000E+00  0.00000000000E+00  0.45593999997E+02  0.45594000000E+02  0.51100000000E-03 0.  1.
         11   -1    0    0    0    0 -0.00000000000E+00 -0.00000000000E+00 -0.45593999997E+02  0.45594000000E+02  0.51100000000E-03 0. -1.
    9900012    2    1    2    0    0  0.36810153115E+02  0.25816633641E+02 -0.27618034235E+01  0.46142317598E+02  0.99999985126E+01 0.  0.
         12    1    1    2    0    0 -0.36810153115E+02 -0.25816633641E+02  0.27618034235E+01  0.45045682402E+02  0.00000000000E+00 0. -1.
         11    1    3    3    0    0 -0.85158090623E-01 -0.41973586700E+00 -0.67404351243E+00  0.79860191348E+00  0.51100000000E-03 0. -1.
        -11    1    3    3    0    0  0.10431206141E+02  0.66293141708E+01 -0.58854163923E+00  0.12373530194E+02  0.51100000000E-03 0.  1.
         12    1    3    3    0    0  0.26464105065E+02  0.19607055338E+02 -0.14992182719E+01  0.32970185491E+02  0.00000000000E+00 0. -1.
</event>
<event>
 7    1  0.2227287E-008  0.4614232E+02  0.7816164E-02  0.1320468E+00
        -11   -1    0    0    0    0  0.00000000000E+00  0.00000000000E+00  0.45593999997E+02  0.45594000000E+02  0.51100000000E-03 0.  1.
         11   -1    0    0    0    0 -0.00000000000E+00 -0.00000000000E+00 -0.45593999997E+02  0.45594000000E+02  0.51100000000E-03 0. -1.
    9900012    2    1    2    0    0 -0.20970832579E+02  0.68140959196E+01  0.39279839472E+02  0.46142317508E+02  0.99999976895E+01 0.  0.
         12    1    1    2    0    0  0.20970832579E+02 -0.68140959196E+01 -0.39279839472E+02  0.45045682492E+02  0.00000000000E+00 0. -1.
         11    1    3    3    0    0 -0.46577580954E+01  0.56607591092E+01  0.85956947231E+01  0.11297117871E+02  0.51100000000E-03 0. -1.
        -11    1    3    3    0    0 -0.18600334581E+01  0.60988974852E+00  0.49871896322E+01  0.53575881382E+01  0.51100000000E-03 0.  1.
        -12    1    3    3    0    0 -0.14453041026E+02  0.54344706191E+00  0.25696955116E+02  0.29487611498E+02  0.00000000000E+00 0.  1.
</event>
<event>
 7    1  0.2227287E-008  0.4614232E+02  0.7816164E-02  0.1320468E+00
        -11   -1    0    0    0    0  0.00000000000E+00  0.00000000000E+00  0.45593999997E+02  0.45594000000E+02  0.51100000000E-03 0.  1.
         11   -1    0    0    0    0 -0.00000000000E+00 -0.00000000000E+00 -0.45593999997E+02  0.45594000000E+02  0.51100000000E-03 0. -1.
    9900012    2    1    2    0    0  0.96556108159E+01  0.41305660594E+01  0.43804350618E+02  0.46142317308E+02  0.99999958651E+01 0.  0.
         12    1    1    2    0    0 -0.96556108159E+01 -0.41305660594E+01 -0.43804350618E+02  0.45045682692E+02  0.00000000000E+00 0. -1.
         11    1    3    3    0    0  0.21831114656E+00 -0.79163755328E+00  0.23698008005E-01  0.82153005373E+00  0.51100000000E-03 0. -1.
        -11    1    3    3    0    0  0.65343343414E+01  0.13540496816E+01  0.19554000424E+02  0.20661314301E+02  0.51100000000E-03 0.  1.
        -12    1    3    3    0    0  0.29029653279E+01  0.35681539311E+01  0.24226652186E+02  0.24659472953E+02  0.00000000000E+00 0.  1.
</event>
<event>
 7    1  0.2227287E-008  0.4614232E+02  0.7816164E-02  0.1320468E+00
        -11   -1    0    0    0    0  0.00000000000E+00  0.00000000000E+00  0.45593999997E+02  0.45594000000E+02  0.51100000000E-03 0.  1.
         11   -1    0    0    0    0 -0.00000000000E+00 -0.00000000000E+00 -0.45593999997E+02  0.45594000000E+02  0.51100000000E-03 0. -1.
    9900012    2    1    2    0    0  0.26617956242E+02  0.29337959021E+02  0.21444855307E+02  0.46142320372E+02  0.10000023812E+02 0.  0.
         12    1    1    2    0    0 -0.26617956242E+02 -0.29337959021E+02 -0.21444855307E+02  0.45045679628E+02  0.00000000000E+00 0. -1.
         11    1    3    3    0    0  0.19734500323E+01 -0.26824919420E+00  0.22875311613E+01  0.30330284758E+01  0.51100000000E-03 0. -1.
        -11    1    3    3    0    0  0.84776196594E+01  0.12183394750E+02  0.69392915694E+01  0.16384715758E+02  0.51100000000E-03 0.  1.
         12    1    3    3    0    0  0.16166886550E+02  0.17422813465E+02  0.12218032576E+02  0.26724576138E+02  0.00000000000E+00 0. -1.
</event>
<event>
 7    1  0.2227287E-008  0.4614232E+02  0.7816164E-02  0.1320468E+00
        -11   -1    0    0    0    0  0.00000000000E+00  0.00000000000E+00  0.45593999997E+02  0.45594000000E+02  0.51100000000E-03 0.  1.
         11   -1    0    0    0    0 -0.00000000000E+00 -0.00000000000E+00 -0.45593999997E+02  0.45594000000E+02  0.51100000000E-03 0. -1.
    9900012    2    1    2    0    0 -0.30682925846E+02  0.33158246332E+01  0.32812754350E+02  0.46142317860E+02  0.10000000898E+02 0.  0.
         12    1    1    2    0    0  0.30682925846E+02 -0.33158246332E+01 -0.32812754350E+02  0.45045682140E+02  0.00000000000E+00 0. -1.
         11    1    3    3    0    0 -0.13728041090E+02 -0.39100957709E+00  0.15016669698E+02  0.20349751098E+02  0.51100000000E-03 0. -1.
        -11    1    3    3    0    0 -0.44395014131E+01 -0.10876839156E+01  0.79205252853E+01  0.91447772063E+01  0.51100000000E-03 0.  1.
         12    1    3    3    0    0 -0.12515383343E+02  0.47945181259E+01  0.98755593661E+01  0.16647789555E+02  0.00000000000E+00 0. -1.
</event>
<event>
 7    1  0.2227287E-008  0.4614231E+02  0.7816164E-02  0.1320468E+00
        -11   -1    0    0    0    0  0.00000000000E+00  0.00000000000E+00  0.45593999997E+02  0.45594000000E+02  0.51100000000E-03 0.  1.
         11   -1    0    0    0    0 -0.00000000000E+00 -0.00000000000E+00 -0.45593999997E+02  0.45594000000E+02  0.51100000000E-03 0. -1.
    9900012    2    1    2    0    0 -0.28764763951E+02  0.15195467426E+02  0.31157663520E+02  0.46142313509E+02  0.99999612260E+01 0.  0.
         12    1    1    2    0    0  0.28764763951E+02 -0.15195467426E+02 -0.31157663520E+02  0.45045686491E+02  0.00000000000E+00 0. -1.
         11    1    3    3    0    0 -0.95193263647E+01  0.26689852524E+01  0.58333938537E+01  0.11479091464E+02  0.51100000000E-03 0. -1.
        -11    1    3    3    0    0 -0.70236689425E+01  0.14438698728E+01  0.76333902355E+01  0.10473076548E+02  0.51100000000E-03 0.  1.
         12    1    3    3    0    0 -0.12221768644E+02  0.11082612301E+02  0.17690879430E+02  0.24190145498E+02  0.00000000000E+00 0. -1.
</event>
<event>
 7    1  0.2227287E-008  0.4614232E+02  0.7816164E-02  0.1320468E+00
        -11   -1    0    0    0    0  0.00000000000E+00  0.00000000000E+00  0.45593999997E+02  0.45594000000E+02  0.51100000000E-03 0.  1.
         11   -1    0    0    0    0 -0.00000000000E+00 -0.00000000000E+00 -0.45593999997E+02  0.45594000000E+02  0.51100000000E-03 0. -1.
    9900012    2    1    2    0    0  0.25675765894E+02 -0.11449057645E+02  0.35196414730E+02  0.46142317797E+02  0.10000000330E+02 0.  0.
         12    1    1    2    0    0 -0.25675765894E+02  0.11449057645E+02 -0.35196414730E+02  0.45045682203E+02  0.00000000000E+00 0. -1.
         11    1    3    3    0    0 -0.23079203013E+00  0.42095338984E+00  0.10975761173E+01  0.11979734187E+01  0.51100000000E-03 0. -1.
        -11    1    3    3    0    0  0.24737519013E+02 -0.12632968058E+02  0.33185984113E+02  0.43276393919E+02  0.51100000000E-03 0.  1.
        -12    1    3    3    0    0  0.11690389115E+01  0.76295702303E+00  0.91285450044E+00  0.16679504592E+01  0.00000000000E+00 0.  1.
</event>
<event>
 7    1  0.2227287E-008  0.4614232E+02  0.7816164E-02  0.1320468E+00
        -11   -1    0    0    0    0  0.00000000000E+00  0.00000000000E+00  0.45593999997E+02  0.45594000000E+02  0.51100000000E-03 0.  1.
         11   -1    0    0    0    0 -0.00000000000E+00 -0.00000000000E+00 -0.45593999997E+02  0.45594000000E+02  0.51100000000E-03 0. -1.
    9900012    2    1    2    0    0 -0.12277574463E+02  0.36412371872E+02  0.23505609807E+02  0.46142319270E+02  0.10000013757E+02 0.  0.
         12    1    1    2    0    0  0.12277574463E+02 -0.36412371872E+02 -0.23505609807E+02  0.45045680730E+02  0.00000000000E+00 0. -1.
         11    1    3    3    0    0 -0.69207590153E+01  0.25416361507E+02  0.17657251989E+02  0.31712251350E+02  0.51100000000E-03 0. -1.
        -11    1    3    3    0    0 -0.11302194075E+01  0.64288665158E+01  0.48400817316E+01  0.81261375829E+01  0.51100000000E-03 0.  1.
        -12    1    3    3    0    0 -0.42265960401E+01  0.45671438492E+01  0.10082760862E+01  0.63039303368E+01  0.00000000000E+00 0.  1.
</event>
<event>
 7    1  0.2227287E-008  0.4614232E+02  0.7816164E-02  0.1320468E+00
        -11   -1    0    0    0    0  0.00000000000E+00  0.00000000000E+00  0.45593999997E+02  0.45594000000E+02  0.51100000000E-03 0.  1.
         11   -1    0    0    0    0 -0.00000000000E+00 -0.00000000000E+00 -0.45593999997E+02  0.45594000000E+02  0.51100000000E-03 0. -1.
    9900012    2    1    2    0    0 -0.40097435963E+02  0.20045098049E+02 -0.44162325049E+01  0.46142318341E+02  0.10000005284E+02 0.  0.
         12    1    1    2    0    0  0.40097435963E+02 -0.20045098049E+02  0.44162325049E+01  0.45045681659E+02  0.00000000000E+00 0. -1.
         11    1    3    3    0    0 -0.55519689455E+01  0.35182557786E+01  0.87723875198E+00  0.66311410017E+01  0.51100000000E-03 0. -1.
        -11    1    3    3    0    0 -0.19491223836E+02  0.13274258951E+02 -0.13920665157E+01  0.23623115941E+02  0.51100000000E-03 0.  1.
        -12    1    3    3    0    0 -0.15054243182E+02  0.32525833194E+01 -0.39014047413E+01  0.15888061398E+02  0.00000000000E+00 0.  1.
</event>
<event>
 7    1  0.2227287E-008  0.4614232E+02  0.7816164E-02  0.1320468E+00
        -11   -1    0    0    0    0  0.00000000000E+00  0.00000000000E+00  0.45593999997E+02  0.45594000000E+02  0.51100000000E-03 0.  1.
         11   -1    0    0    0    0 -0.00000000000E+00 -0.00000000000E+00 -0.45593999997E+02  0.45594000000E+02  0.51100000000E-03 0. -1.
    9900012    2    1    2    0    0 -0.83209318131E+01 -0.41169480723E+02 -0.16277265207E+02  0.46142318610E+02  0.10000007744E+02 0.  0.
         12    1    1    2    0    0  0.83209318131E+01  0.41169480723E+02  0.16277265207E+02  0.45045681390E+02  0.00000000000E+00 0. -1.
         11    1    3    3    0    0 -0.43793401480E+00 -0.75787895472E+01 -0.56215410458E+01  0.94462458783E+01  0.51100000000E-03 0.  1.
        -11    1    3    3    0    0 -0.27583791566E+01 -0.13504906273E+02 -0.97613943342E+00  0.13818248713E+02  0.51100000000E-03 0. -1.
         12    1    3    3    0    0 -0.51246186417E+01 -0.20085784902E+02 -0.96795847276E+01  0.22877824020E+02  0.00000000000E+00 0. -1.
</event>
<event>
 7    1  0.2227287E-008  0.4614232E+02  0.7816164E-02  0.1320468E+00
        -11   -1    0    0    0    0  0.00000000000E+00  0.00000000000E+00  0.45593999997E+02  0.45594000000E+02  0.51100000000E-03 0.  1.
         11   -1    0    0    0    0 -0.00000000000E+00 -0.00000000000E+00 -0.45593999997E+02  0.45594000000E+02  0.51100000000E-03 0. -1.
    9900012    2    1    2    0    0 -0.15413326113E+02  0.20819365389E+02  0.36852369047E+02  0.46142315396E+02  0.99999784319E+01 0.  0.
         12    1    1    2    0    0  0.15413326113E+02 -0.20819365389E+02 -0.36852369047E+02  0.45045684604E+02  0.00000000000E+00 0. -1.
         11    1    3    3    0    0  0.88497809378E+00  0.32601486687E+01  0.46786326059E+01  0.57707329596E+01  0.51100000000E-03 0. -1.
        -11    1    3    3    0    0 -0.32263210172E+01  0.13231944347E+01  0.56179747326E+01  0.66122334483E+01  0.51100000000E-03 0.  1.
         12    1    3    3    0    0 -0.13071983189E+02  0.16236022286E+02  0.26555761709E+02  0.33759348988E+02  0.00000000000E+00 0. -1.
</event>
<event>
 7    1  0.2227287E-008  0.4614232E+02  0.7816164E-02  0.1320468E+00
        -11   -1    0    0    0    0  0.00000000000E+00  0.00000000000E+00  0.45593999997E+02  0.45594000000E+02  0.51100000000E-03 0.  1.
         11   -1    0    0    0    0 -0.00000000000E+00 -0.00000000000E+00 -0.45593999997E+02  0.45594000000E+02  0.51100000000E-03 0. -1.
    9900012    2    1    2    0    0 -0.13374686292E+02  0.31096238672E+02  0.29719607448E+02  0.46142319188E+02  0.10000013011E+02 0.  0.
         12    1    1    2    0    0  0.13374686292E+02 -0.31096238672E+02 -0.29719607448E+02  0.45045680812E+02  0.00000000000E+00 0. -1.
         11    1    3    3    0    0 -0.77023747794E+01  0.21480244059E+02  0.16039923288E+02  0.27892769698E+02  0.51100000000E-03 0. -1.
        -11    1    3    3    0    0 -0.64684369672E+01  0.89414123752E+01  0.12477611124E+02  0.16657740293E+02  0.51100000000E-03 0.  1.
         12    1    3    3    0    0  0.79612545424E+00  0.67458223762E+00  0.12020730364E+01  0.15918091968E+01  0.00000000000E+00 0. -1.
</event>
<event>
 7    1  0.2227287E-008  0.4614232E+02  0.7816164E-02  0.1320468E+00
        -11   -1    0    0    0    0  0.00000000000E+00  0.00000000000E+00  0.45593999997E+02  0.45594000000E+02  0.51100000000E-03 0. -1.
         11   -1    0    0    0    0 -0.00000000000E+00 -0.00000000000E+00 -0.45593999997E+02  0.45594000000E+02  0.51100000000E-03 0.  1.
    9900012    2    1    2    0    0 -0.14964274462E+00 -0.16985531531E+02 -0.41720292523E+02  0.46142317826E+02  0.10000000591E+02 0.  0.
         12    1    1    2    0    0  0.14964274462E+00  0.16985531531E+02  0.41720292523E+02  0.45045682174E+02  0.00000000000E+00 0. -1.
         11    1    3    3    0    0 -0.54066006432E+00 -0.75009293325E+01 -0.81862107407E+01  0.11116217914E+02  0.51100000000E-03 0. -1.
        -11    1    3    3    0    0  0.30694045749E+00 -0.50349300403E+01 -0.23714700683E+02  0.24245242043E+02  0.51100000000E-03 0.  1.
        -12    1    3    3    0    0  0.84076862209E-01 -0.44496721580E+01 -0.98193810986E+01  0.10780857869E+02  0.00000000000E+00 0.  1.
</event>
<event>
 7    1  0.2227287E-008  0.4614232E+02  0.7816164E-02  0.1320468E+00
        -11   -1    0    0    0    0  0.00000000000E+00  0.00000000000E+00  0.45593999997E+02  0.45594000000E+02  0.51100000000E-03 0.  1.
         11   -1    0    0    0    0 -0.00000000000E+00 -0.00000000000E+00 -0.45593999997E+02  0.45594000000E+02  0.51100000000E-03 0. -1.
    9900012    2    1    2    0    0 -0.82258766234E+01 -0.27909513074E+02  0.34387609987E+02  0.46142315558E+02  0.99999799068E+01 0.  0.
         12    1    1    2    0    0  0.82258766234E+01  0.27909513074E+02 -0.34387609987E+02  0.45045684442E+02  0.00000000000E+00 0. -1.
         11    1    3    3    0    0  0.20169008315E+01 -0.55795533307E+01  0.77250442769E+01  0.97404113709E+01  0.51100000000E-03 0. -1.
        -11    1    3    3    0    0 -0.50628116073E+01 -0.12888713875E+02  0.12883901721E+02  0.18914172743E+02  0.51100000000E-03 0.  1.
        -12    1    3    3    0    0 -0.51799658476E+01 -0.94412458687E+01  0.13778663989E+02  0.17487731444E+02  0.00000000000E+00 0.  1.
</event>
<event>
 7    1  0.2227287E-008  0.4614232E+02  0.7816164E-02  0.1320468E+00
        -11   -1    0    0    0    0  0.00000000000E+00  0.00000000000E+00  0.45593999997E+02  0.45594000000E+02  0.51100000000E-03 0.  1.
         11   -1    0    0    0    0 -0.00000000000E+00 -0.00000000000E+00 -0.45593999997E+02  0.45594000000E+02  0.51100000000E-03 0. -1.
    9900012    2    1    2    0    0 -0.29801632112E+02  0.31874953792E+02  0.11178709189E+02  0.46142317688E+02  0.99999993331E+01 0.  0.
         12    1    1    2    0    0  0.29801632112E+02 -0.31874953792E+02 -0.11178709189E+02  0.45045682312E+02  0.00000000000E+00 0. -1.
         11    1    3    3    0    0 -0.40299144685E+01  0.77793454826E+01  0.70289298004E+00  0.87893393132E+01  0.51100000000E-03 0. -1.
        -11    1    3    3    0    0 -0.86772542633E+01  0.45962609008E+01  0.16272844143E+01  0.99533115416E+01  0.51100000000E-03 0.  1.
        -12    1    3    3    0    0 -0.17094463381E+02  0.19499347409E+02  0.88485317948E+01  0.27399666833E+02  0.00000000000E+00 0.  1.
</event>
<event>
 7    1  0.2227287E-008  0.4614232E+02  0.7816164E-02  0.1320468E+00
        -11   -1    0    0    0    0  0.00000000000E+00  0.00000000000E+00  0.45593999997E+02  0.45594000000E+02  0.51100000000E-03 0.  1.
         11   -1    0    0    0    0 -0.00000000000E+00 -0.00000000000E+00 -0.45593999997E+02  0.45594000000E+02  0.51100000000E-03 0. -1.
    9900012    2    1    2    0    0 -0.33897569095E+02  0.25600711899E+02  0.14989040772E+02  0.46142323364E+02  0.10000051094E+02 0.  0.
         12    1    1    2    0    0  0.33897569095E+02 -0.25600711899E+02 -0.14989040772E+02  0.45045676636E+02  0.00000000000E+00 0. -1.
         11    1    3    3    0    0 -0.14078700674E+02  0.55009095159E+01  0.27697259930E+01  0.15366886494E+02  0.51100000000E-03 0. -1.
        -11    1    3    3    0    0 -0.16553870670E+01  0.13704553752E+01  0.75927398617E+00  0.22792436298E+01  0.51100000000E-03 0.  1.
         12    1    3    3    0    0 -0.18163481354E+02  0.18729347008E+02  0.11460040793E+02  0.28496193241E+02  0.00000000000E+00 0. -1.
</event>
<event>
 7    1  0.2227287E-008  0.4614232E+02  0.7816164E-02  0.1320468E+00
        -11   -1    0    0    0    0  0.00000000000E+00  0.00000000000E+00  0.45593999997E+02  0.45594000000E+02  0.51100000000E-03 0.  1.
         11   -1    0    0    0    0 -0.00000000000E+00 -0.00000000000E+00 -0.45593999997E+02  0.45594000000E+02  0.51100000000E-03 0. -1.
    9900012    2    1    2    0    0 -0.27736212107E+02 -0.34903862302E+02 -0.64448742215E+01  0.46142317972E+02  0.10000001922E+02 0.  0.
         12    1    1    2    0    0  0.27736212107E+02  0.34903862302E+02  0.64448742215E+01  0.45045682028E+02  0.00000000000E+00 0. -1.
         11    1    3    3    0    0 -0.12672408342E+01 -0.95365696176E+00 -0.82375720492E+00  0.17871589538E+01  0.51100000000E-03 0. -1.
        -11    1    3    3    0    0 -0.11585209171E+02 -0.22166695180E+02 -0.29690940810E+01  0.25187198468E+02  0.51100000000E-03 0.  1.
         12    1    3    3    0    0 -0.14883762102E+02 -0.11783510160E+02 -0.26520229355E+01  0.19167960550E+02  0.00000000000E+00 0. -1.
</event>
<event>
 7    1  0.2227287E-008  0.4614232E+02  0.7816164E-02  0.1320468E+00
        -11   -1    0    0    0    0  0.00000000000E+00  0.00000000000E+00  0.45593999997E+02  0.45594000000E+02  0.51100000000E-03 0.  1.
         11   -1    0    0    0    0 -0.00000000000E+00 -0.00000000000E+00 -0.45593999997E+02  0.45594000000E+02  0.51100000000E-03 0. -1.
    9900012    2    1    2    0    0 -0.36965626851E+02  0.17429049438E+02  0.18944235102E+02  0.46142319004E+02  0.10000011334E+02 0.  0.
         12    1    1    2    0    0  0.36965626851E+02 -0.17429049438E+02 -0.18944235102E+02  0.45045680996E+02  0.00000000000E+00 0. -1.
         11    1    3    3    0    0 -0.17280066395E+02  0.78072538968E+01  0.87457031548E+01  0.20881600321E+02  0.51100000000E-03 0. -1.
        -11    1    3    3    0    0 -0.19773067517E+02  0.85132656567E+01  0.10700602580E+02  0.24040648640E+02  0.51100000000E-03 0.  1.
         12    1    3    3    0    0  0.87507060952E-01  0.11085298849E+01 -0.50207063305E+00  0.12200700439E+01  0.00000000000E+00 0. -1.
</event>
<event>
 7    1  0.2227287E-008  0.4614232E+02  0.7816164E-02  0.1320468E+00
        -11   -1    0    0    0    0  0.00000000000E+00  0.00000000000E+00  0.45593999997E+02  0.45594000000E+02  0.51100000000E-03 0.  1.
         11   -1    0    0    0    0 -0.00000000000E+00 -0.00000000000E+00 -0.45593999997E+02  0.45594000000E+02  0.51100000000E-03 0. -1.
    9900012    2    1    2    0    0 -0.21310884581E+02 -0.19932279053E+02  0.34317108238E+02  0.46142317990E+02  0.10000002088E+02 0.  0.
         12    1    1    2    0    0  0.21310884581E+02  0.19932279053E+02 -0.34317108238E+02  0.45045682010E+02  0.00000000000E+00 0. -1.
         11    1    3    3    0    0 -0.14269182697E+02 -0.91468388051E+01  0.25040208168E+02  0.30237166870E+02  0.51100000000E-03 0.  1.
        -11    1    3    3    0    0 -0.10131115356E+01 -0.98609189914E+00  0.10561955347E+01  0.17647440284E+01  0.51100000000E-03 0. -1.
        -12    1    3    3    0    0 -0.60285903484E+01 -0.97993483488E+01  0.82207045357E+01  0.14140407092E+02  0.00000000000E+00 0.  1.
</event>
<event>
 7    1  0.2227287E-008  0.4614232E+02  0.7816164E-02  0.1320468E+00
        -11   -1    0    0    0    0  0.00000000000E+00  0.00000000000E+00  0.45593999997E+02  0.45594000000E+02  0.51100000000E-03 0.  1.
         11   -1    0    0    0    0 -0.00000000000E+00 -0.00000000000E+00 -0.45593999997E+02  0.45594000000E+02  0.51100000000E-03 0. -1.
    9900012    2    1    2    0    0 -0.13188709956E+02 -0.33939903900E+02  0.26518945176E+02  0.46142316519E+02  0.99999886718E+01 0.  0.
         12    1    1    2    0    0  0.13188709956E+02  0.33939903900E+02 -0.26518945176E+02  0.45045683481E+02  0.00000000000E+00 0. -1.
         11    1    3    3    0    0 -0.72627718467E+01 -0.23063548147E+02  0.21801794271E+02  0.32557538938E+02  0.51100000000E-03 0.  1.
        -11    1    3    3    0    0  0.13530806418E-01 -0.86586232784E+00  0.10914674347E+01  0.13932702809E+01  0.51100000000E-03 0. -1.
        -12    1    3    3    0    0 -0.59394689160E+01 -0.10010493425E+02  0.36256834710E+01  0.12191507300E+02  0.00000000000E+00 0.  1.
</event>
<event>
 7    1  0.2227287E-008  0.4614232E+02  0.7816164E-02  0.1320468E+00
        -11   -1    0    0    0    0  0.00000000000E+00  0.00000000000E+00  0.45593999997E+02  0.45594000000E+02  0.51100000000E-03 0. -1.
         11   -1    0    0    0    0 -0.00000000000E+00 -0.00000000000E+00 -0.45593999997E+02  0.45594000000E+02  0.51100000000E-03 0.  1.
    9900012    2    1    2    0    0  0.29209195587E+02 -0.29335087221E+02 -0.17759195937E+02  0.46142317749E+02  0.99999998878E+01 0.  0.
         12    1    1    2    0    0 -0.29209195587E+02  0.29335087221E+02  0.17759195937E+02  0.45045682251E+02  0.00000000000E+00 0. -1.
         11    1    3    3    0    0  0.52855890906E+01 -0.16525413498E+01 -0.80300917619E+00  0.55958170937E+01  0.51100000000E-03 0. -1.
        -11    1    3    3    0    0  0.97810023783E+01 -0.14471413615E+02 -0.75551414895E+01  0.19030764113E+02  0.51100000000E-03 0.  1.
        -12    1    3    3    0    0  0.14142604118E+02 -0.13211132256E+02 -0.94010452716E+01  0.21515736542E+02  0.00000000000E+00 0.  1.
</event>
<event>
 7    1  0.2227287E-008  0.4614232E+02  0.7816164E-02  0.1320468E+00
        -11   -1    0    0    0    0  0.00000000000E+00  0.00000000000E+00  0.45593999997E+02  0.45594000000E+02  0.51100000000E-03 0.  1.
         11   -1    0    0    0    0 -0.00000000000E+00 -0.00000000000E+00 -0.45593999997E+02  0.45594000000E+02  0.51100000000E-03 0. -1.
    9900012    2    1    2    0    0  0.15208147736E+02 -0.40416961707E+02  0.12817756711E+02  0.46142318317E+02  0.10000005071E+02 0.  0.
         12    1    1    2    0    0 -0.15208147736E+02  0.40416961707E+02 -0.12817756711E+02  0.45045681683E+02  0.00000000000E+00 0. -1.
         11    1    3    3    0    0  0.11044333919E+02 -0.23228736492E+02  0.38614605267E+01  0.26008890564E+02  0.51100000000E-03 0.  1.
        -11    1    3    3    0    0  0.10462386716E+01 -0.30969685082E+01  0.24950136805E+00  0.32784265269E+01  0.51100000000E-03 0. -1.
         12    1    3    3    0    0  0.31175751454E+01 -0.14091256707E+02  0.87067948159E+01  0.16855001226E+02  0.00000000000E+00 0. -1.
</event>
<event>
 7    1  0.2227287E-008  0.4614232E+02  0.7816164E-02  0.1320468E+00
        -11   -1    0    0    0    0  0.00000000000E+00  0.00000000000E+00  0.45593999997E+02  0.45594000000E+02  0.51100000000E-03 0. -1.
         11   -1    0    0    0    0 -0.00000000000E+00 -0.00000000000E+00 -0.45593999997E+02  0.45594000000E+02  0.51100000000E-03 0.  1.
    9900012    2    1    2    0    0  0.27252882144E+02  0.33771175691E+02  0.12078973179E+02  0.46142317790E+02  0.10000000265E+02 0.  0.
         12    1    1    2    0    0 -0.27252882144E+02 -0.33771175691E+02 -0.12078973179E+02  0.45045682210E+02  0.00000000000E+00 0. -1.
         11    1    3    3    0    0  0.15704440825E+02  0.15749059130E+02  0.39774450819E+01  0.22593857456E+02  0.51100000000E-03 0. -1.
        -11    1    3    3    0    0  0.17720632470E+01  0.53045676642E+01  0.33632119336E-01  0.55928327023E+01  0.51100000000E-03 0.  1.
         12    1    3    3    0    0  0.97763780719E+01  0.12717548897E+02  0.80678959775E+01  0.17955627632E+02  0.00000000000E+00 0. -1.
</event>
<event>
 7    1  0.2227287E-008  0.4614232E+02  0.7816164E-02  0.1320468E+00
        -11   -1    0    0    0    0  0.00000000000E+00  0.00000000000E+00  0.45593999997E+02  0.45594000000E+02  0.51100000000E-03 0. -1.
         11   -1    0    0    0    0 -0.00000000000E+00 -0.00000000000E+00 -0.45593999997E+02  0.45594000000E+02  0.51100000000E-03 0.  1.
    9900012    2    1    2    0    0 -0.14496510385E+02 -0.34901707629E+02 -0.24511945082E+02  0.46142318071E+02  0.10000002822E+02 0.  0.
         12    1    1    2    0    0  0.14496510385E+02  0.34901707629E+02  0.24511945082E+02  0.45045681929E+02  0.00000000000E+00 0. -1.
         11    1    3    3    0    0 -0.95154030880E+00 -0.43022615727E+00 -0.27000104522E+01  0.28949231784E+01  0.51100000000E-03 0. -1.
        -11    1    3    3    0    0 -0.99470027208E+01 -0.18927484446E+02 -0.12904691259E+02  0.24974458700E+02  0.51100000000E-03 0.  1.
         12    1    3    3    0    0 -0.35979673558E+01 -0.15543997026E+02 -0.89072433707E+01  0.18272936192E+02  0.00000000000E+00 0. -1.
</event>
<event>
 7    1  0.2227287E-008  0.4614232E+02  0.7816164E-02  0.1320468E+00
        -11   -1    0    0    0    0  0.00000000000E+00  0.00000000000E+00  0.45593999997E+02  0.45594000000E+02  0.51100000000E-03 0.  1.
         11   -1    0    0    0    0 -0.00000000000E+00 -0.00000000000E+00 -0.45593999997E+02  0.45594000000E+02  0.51100000000E-03 0. -1.
    9900012    2    1    2    0    0  0.78665522141E+01 -0.21171254235E+02  0.38974463896E+02  0.46142317792E+02  0.10000000281E+02 0.  0.
         12    1    1    2    0    0 -0.78665522141E+01  0.21171254235E+02 -0.38974463896E+02  0.45045682208E+02  0.00000000000E+00 0. -1.
         11    1    3    3    0    0 -0.67700558760E+00  0.26799431651E+00  0.10866506586E+01  0.13080395385E+01  0.51100000000E-03 0. -1.
        -11    1    3    3    0    0  0.55211472405E-01 -0.43926843680E+01  0.38961687302E+01  0.58718698299E+01  0.51100000000E-03 0.  1.
        -12    1    3    3    0    0  0.84883463293E+01 -0.17046564183E+02  0.33991644507E+02  0.38962408424E+02  0.00000000000E+00 0.  1.
</event>
<event>
 7    1  0.2227287E-008  0.4614232E+02  0.7816164E-02  0.1320468E+00
        -11   -1    0    0    0    0  0.00000000000E+00  0.00000000000E+00  0.45593999997E+02  0.45594000000E+02  0.51100000000E-03 0.  1.
         11   -1    0    0    0    0 -0.00000000000E+00 -0.00000000000E+00 -0.45593999997E+02  0.45594000000E+02  0.51100000000E-03 0. -1.
    9900012    2    1    2    0    0 -0.11374061025E+02  0.42732776588E+02  0.85821954375E+01  0.46142317214E+02  0.99999950080E+01 0.  0.
         12    1    1    2    0    0  0.11374061025E+02 -0.42732776588E+02 -0.85821954375E+01  0.45045682786E+02  0.00000000000E+00 0. -1.
         11    1    3    3    0    0 -0.14973200959E+01  0.88707586072E+00 -0.37564460167E+00  0.17804438155E+01  0.51100000000E-03 0. -1.
        -11    1    3    3    0    0 -0.23872229912E+01  0.47134590364E+01  0.28161955407E+01  0.59871936066E+01  0.51100000000E-03 0.  1.
         12    1    3    3    0    0 -0.74895179378E+01  0.37132241691E+02  0.61416444984E+01  0.38374679792E+02  0.00000000000E+00 0. -1.
</event>
<event>
 7    1  0.2227287E-008  0.4614232E+02  0.7816164E-02  0.1320468E+00
        -11   -1    0    0    0    0  0.00000000000E+00  0.00000000000E+00  0.45593999997E+02  0.45594000000E+02  0.51100000000E-03 0.  1.
         11   -1    0    0    0    0 -0.00000000000E+00 -0.00000000000E+00 -0.45593999997E+02  0.45594000000E+02  0.51100000000E-03 0. -1.
    9900012    2    1    2    0    0 -0.19898535145E+02  0.38575376394E+02  0.12045830857E+02  0.46142318676E+02  0.10000008341E+02 0.  0.
         12    1    1    2    0    0  0.19898535145E+02 -0.38575376394E+02 -0.12045830857E+02  0.45045681324E+02  0.00000000000E+00 0. -1.
         11    1    3    3    0    0 -0.37413945301E+01  0.14386311553E+02  0.17772059386E+01  0.14970719900E+02  0.51100000000E-03 0. -1.
        -11    1    3    3    0    0 -0.56654221051E+01  0.55272261964E+01  0.16045512860E+01  0.80760028569E+01  0.51100000000E-03 0.  1.
         12    1    3    3    0    0 -0.10491718510E+02  0.18661838645E+02  0.86640736328E+01  0.23095595919E+02  0.00000000000E+00 0. -1.
</event>
<event>
 7    1  0.2227287E-008  0.4614232E+02  0.7816164E-02  0.1320468E+00
        -11   -1    0    0    0    0  0.00000000000E+00  0.00000000000E+00  0.45593999997E+02  0.45594000000E+02  0.51100000000E-03 0.  1.
         11   -1    0    0    0    0 -0.00000000000E+00 -0.00000000000E+00 -0.45593999997E+02  0.45594000000E+02  0.51100000000E-03 0. -1.
    9900012    2    1    2    0    0 -0.17462355356E+02  0.19737971535E+02  0.36532069996E+02  0.46142317487E+02  0.99999975006E+01 0.  0.
         12    1    1    2    0    0  0.17462355356E+02 -0.19737971535E+02 -0.36532069996E+02  0.45045682513E+02  0.00000000000E+00 0. -1.
         11    1    3    3    0    0 -0.16322726219E+02  0.15863862134E+02  0.33990684555E+02  0.40907947270E+02  0.51100000000E-03 0. -1.
        -11    1    3    3    0    0 -0.12306545667E+01  0.25659643904E+01  0.26883753645E+01  0.39148494577E+01  0.51100000000E-03 0.  1.
         12    1    3    3    0    0  0.91025429617E-01  0.13081450101E+01 -0.14698992426E+00  0.13195207593E+01  0.00000000000E+00 0. -1.
</event>
<event>
 7    1  0.2227287E-008  0.4614232E+02  0.7816164E-02  0.1320468E+00
        -11   -1    0    0    0    0  0.00000000000E+00  0.00000000000E+00  0.45593999997E+02  0.45594000000E+02  0.51100000000E-03 0. -1.
         11   -1    0    0    0    0 -0.00000000000E+00 -0.00000000000E+00 -0.45593999997E+02  0.45594000000E+02  0.51100000000E-03 0.  1.
    9900012    2    1    2    0    0 -0.15414415795E+02 -0.27644258266E+02 -0.32051587504E+02  0.46142317733E+02  0.99999997420E+01 0.  0.
         12    1    1    2    0    0  0.15414415795E+02  0.27644258266E+02  0.32051587504E+02  0.45045682267E+02  0.00000000000E+00 0. -1.
         11    1    3    3    0    0 -0.94484788017E+01 -0.11014702182E+02 -0.14701799242E+02  0.20657693894E+02  0.51100000000E-03 0. -1.
        -11    1    3    3    0    0 -0.47595415080E+01 -0.47491483090E+01 -0.64141149492E+01  0.92923902129E+01  0.51100000000E-03 0.  1.
         12    1    3    3    0    0 -0.12063954849E+01 -0.11880407775E+02 -0.10935673313E+02  0.16192233626E+02  0.00000000000E+00 0. -1.
</event>
<event>
 7    1  0.2227287E-008  0.4614232E+02  0.7816164E-02  0.1320468E+00
        -11   -1    0    0    0    0  0.00000000000E+00  0.00000000000E+00  0.45593999997E+02  0.45594000000E+02  0.51100000000E-03 0.  1.
         11   -1    0    0    0    0 -0.00000000000E+00 -0.00000000000E+00 -0.45593999997E+02  0.45594000000E+02  0.51100000000E-03 0. -1.
    9900012    2    1    2    0    0  0.14700960109E+00 -0.27156136243E+02  0.35939342668E+02  0.46142315424E+02  0.99999786911E+01 0.  0.
         12    1    1    2    0    0 -0.14700960109E+00  0.27156136243E+02 -0.35939342668E+02  0.45045684576E+02  0.00000000000E+00 0. -1.
         11    1    3    3    0    0 -0.39704525578E+01 -0.10521041723E+02  0.10195875345E+02  0.15179350670E+02  0.51100000000E-03 0.  1.
        -11    1    3    3    0    0  0.95585776573E+00 -0.56314227803E+01  0.96240439197E+01  0.11191461398E+02  0.51100000000E-03 0. -1.
        -12    1    3    3    0    0  0.31616043932E+01 -0.11003671739E+02  0.16119423404E+02  0.19771503356E+02  0.00000000000E+00 0.  1.
</event>
<event>
 7    1  0.2227287E-008  0.4614232E+02  0.7816164E-02  0.1320468E+00
        -11   -1    0    0    0    0  0.00000000000E+00  0.00000000000E+00  0.45593999997E+02  0.45594000000E+02  0.51100000000E-03 0.  1.
         11   -1    0    0    0    0 -0.00000000000E+00 -0.00000000000E+00 -0.45593999997E+02  0.45594000000E+02  0.51100000000E-03 0. -1.
    9900012    2    1    2    0    0  0.29799797388E+02 -0.30221492512E+02  0.15091286694E+02  0.46142317986E+02  0.10000002051E+02 0.  0.
         12    1    1    2    0    0 -0.29799797388E+02  0.30221492512E+02 -0.15091286694E+02  0.45045682014E+02  0.00000000000E+00 0. -1.
         11    1    3    3    0    0  0.18120562594E+02 -0.16470873870E+02  0.99287932284E+01  0.26423955230E+02  0.51100000000E-03 0.  1.
        -11    1    3    3    0    0  0.47297727997E+01 -0.15410743613E+01  0.15908322332E+01  0.52226821059E+01  0.51100000000E-03 0. -1.
         12    1    3    3    0    0  0.69494619951E+01 -0.12209544281E+02  0.35716612320E+01  0.14495680651E+02  0.00000000000E+00 0. -1.
</event>
<event>
 7    1  0.2227287E-008  0.4614232E+02  0.7816164E-02  0.1320468E+00
        -11   -1    0    0    0    0  0.00000000000E+00  0.00000000000E+00  0.45593999997E+02  0.45594000000E+02  0.51100000000E-03 0. -1.
         11   -1    0    0    0    0 -0.00000000000E+00 -0.00000000000E+00 -0.45593999997E+02  0.45594000000E+02  0.51100000000E-03 0.  1.
    9900012    2    1    2    0    0  0.66276887277E+01 -0.21084519089E+02 -0.39250863537E+02  0.46142317726E+02  0.99999996835E+01 0.  0.
         12    1    1    2    0    0 -0.66276887277E+01  0.21084519089E+02  0.39250863537E+02  0.45045682274E+02  0.00000000000E+00 0. -1.
         11    1    3    3    0    0  0.68687541739E+01 -0.89856375115E+01 -0.21104225916E+02  0.23943888932E+02  0.51100000000E-03 0. -1.
        -11    1    3    3    0    0  0.12417811480E+01 -0.56880631577E+01 -0.11244516616E+02  0.12662355116E+02  0.51100000000E-03 0.  1.
         12    1    3    3    0    0 -0.14828465942E+01 -0.64108184197E+01 -0.69021210054E+01  0.95360736786E+01  0.00000000000E+00 0. -1.
</event>
<event>
 7    1  0.2227287E-008  0.4614231E+02  0.7816164E-02  0.1320468E+00
        -11   -1    0    0    0    0  0.00000000000E+00  0.00000000000E+00  0.45593999997E+02  0.45594000000E+02  0.51100000000E-03 0. -1.
         11   -1    0    0    0    0 -0.00000000000E+00 -0.00000000000E+00 -0.45593999997E+02  0.45594000000E+02  0.51100000000E-03 0.  1.
    9900012    2    1    2    0    0 -0.30441201881E+02 -0.10405813454E+02 -0.31530400831E+02  0.46142313168E+02  0.99999581185E+01 0.  0.
         12    1    1    2    0    0  0.30441201881E+02  0.10405813454E+02  0.31530400831E+02  0.45045686832E+02  0.00000000000E+00 0. -1.
         11    1    3    3    0    0 -0.70582283035E+01  0.66602000596E+00 -0.10765174566E+02  0.12889963271E+02  0.51100000000E-03 0. -1.
        -11    1    3    3    0    0 -0.13634731137E+02 -0.56724721514E+01 -0.10706696325E+02  0.18240509312E+02  0.51100000000E-03 0.  1.
         12    1    3    3    0    0 -0.97482424407E+01 -0.53993613088E+01 -0.10058529939E+02  0.15011840585E+02  0.00000000000E+00 0. -1.
</event>
<event>
 7    1  0.2227287E-008  0.4614232E+02  0.7816164E-02  0.1320468E+00
        -11   -1    0    0    0    0  0.00000000000E+00  0.00000000000E+00  0.45593999997E+02  0.45594000000E+02  0.51100000000E-03 0.  1.
         11   -1    0    0    0    0 -0.00000000000E+00 -0.00000000000E+00 -0.45593999997E+02  0.45594000000E+02  0.51100000000E-03 0. -1.
    9900012    2    1    2    0    0 -0.15179365612E+02 -0.40406284830E+02 -0.12885357902E+02  0.46142318271E+02  0.10000004650E+02 0.  0.
         12    1    1    2    0    0  0.15179365612E+02  0.40406284830E+02  0.12885357902E+02  0.45045681729E+02  0.00000000000E+00 0. -1.
         11    1    3    3    0    0 -0.27247315155E+00 -0.90437211876E+01 -0.32117857463E+01  0.96009740380E+01  0.51100000000E-03 0. -1.
        -11    1    3    3    0    0 -0.14802444895E+02 -0.26346821805E+02 -0.82278830715E+01  0.31320368041E+02  0.51100000000E-03 0.  1.
        -12    1    3    3    0    0 -0.10444756541E+00 -0.50157418373E+01 -0.14456890843E+01  0.52209761924E+01  0.00000000000E+00 0.  1.
</event>
<event>
 7    1  0.2227287E-008  0.4614232E+02  0.7816164E-02  0.1320468E+00
        -11   -1    0    0    0    0  0.00000000000E+00  0.00000000000E+00  0.45593999997E+02  0.45594000000E+02  0.51100000000E-03 0. -1.
         11   -1    0    0    0    0 -0.00000000000E+00 -0.00000000000E+00 -0.45593999997E+02  0.45594000000E+02  0.51100000000E-03 0.  1.
    9900012    2    1    2    0    0 -0.30812515950E+02 -0.87467961504E+01 -0.31673267473E+02  0.46142318138E+02  0.10000003432E+02 0.  0.
         12    1    1    2    0    0  0.30812515950E+02  0.87467961504E+01  0.31673267473E+02  0.45045681862E+02  0.00000000000E+00 0. -1.
         11    1    3    3    0    0 -0.97244214769E+00 -0.17676523625E+01 -0.84231727276E+00  0.21862610216E+01  0.51100000000E-03 0. -1.
        -11    1    3    3    0    0 -0.38653106110E+01 -0.27617162385E+01 -0.28261959958E+01  0.55276655805E+01  0.51100000000E-03 0.  1.
         12    1    3    3    0    0 -0.25974763191E+02 -0.42174275494E+01 -0.28004754204E+02  0.38428391536E+02  0.00000000000E+00 0. -1.
</event>
<event>
 7    1  0.2227287E-008  0.4614232E+02  0.7816164E-02  0.1320468E+00
        -11   -1    0    0    0    0  0.00000000000E+00  0.00000000000E+00  0.45593999997E+02  0.45594000000E+02  0.51100000000E-03 0. -1.
         11   -1    0    0    0    0 -0.00000000000E+00 -0.00000000000E+00 -0.45593999997E+02  0.45594000000E+02  0.51100000000E-03 0.  1.
    9900012    2    1    2    0    0  0.94666161064E+01 -0.42596303375E+02 -0.11182645082E+02  0.46142318378E+02  0.10000005629E+02 0.  0.
         12    1    1    2    0    0 -0.94666161064E+01  0.42596303375E+02  0.11182645082E+02  0.45045681622E+02  0.00000000000E+00 0. -1.
         11    1    3    3    0    0  0.27019922699E+01 -0.17029097273E+02 -0.76190303791E+01  0.18850478517E+02  0.51100000000E-03 0. -1.
        -11    1    3    3    0    0  0.57124374794E+01 -0.20467429827E+02 -0.51185834244E+01  0.21857436314E+02  0.51100000000E-03 0.  1.
         12    1    3    3    0    0  0.10521863571E+01 -0.50997762750E+01  0.15549687218E+01  0.54344035470E+01  0.00000000000E+00 0. -1.
</event>
<event>
 7    1  0.2227287E-008  0.4614232E+02  0.7816164E-02  0.1320468E+00
        -11   -1    0    0    0    0  0.00000000000E+00  0.00000000000E+00  0.45593999997E+02  0.45594000000E+02  0.51100000000E-03 0.  1.
         11   -1    0    0    0    0 -0.00000000000E+00 -0.00000000000E+00 -0.45593999997E+02  0.45594000000E+02  0.51100000000E-03 0. -1.
    9900012    2    1    2    0    0 -0.25208898402E+02  0.33777151281E+02  0.15897458655E+02  0.46142315423E+02  0.99999786790E+01 0.  0.
         12    1    1    2    0    0  0.25208898402E+02 -0.33777151281E+02 -0.15897458655E+02  0.45045684577E+02  0.00000000000E+00 0. -1.
         11    1    3    3    0    0 -0.47255107133E+00  0.19055395450E+00  0.20262935501E+01  0.20893733838E+01  0.51100000000E-03 0. -1.
        -11    1    3    3    0    0 -0.45286848058E+01  0.44282489737E+01  0.22574366295E+01  0.67241650367E+01  0.51100000000E-03 0.  1.
         12    1    3    3    0    0 -0.20207662525E+02  0.29158348353E+02  0.11613728475E+02  0.37328777003E+02  0.00000000000E+00 0. -1.
</event>
<event>
 7    1  0.2227287E-008  0.4614232E+02  0.7816164E-02  0.1320468E+00
        -11   -1    0    0    0    0  0.00000000000E+00  0.00000000000E+00  0.45593999997E+02  0.45594000000E+02  0.51100000000E-03 0.  1.
         11   -1    0    0    0    0 -0.00000000000E+00 -0.00000000000E+00 -0.45593999997E+02  0.45594000000E+02  0.51100000000E-03 0. -1.
    9900012    2    1    2    0    0  0.48385467257E+01  0.28698199364E+02  0.34381904131E+02  0.46142317490E+02  0.99999975239E+01 0.  0.
         12    1    1    2    0    0 -0.48385467257E+01 -0.28698199364E+02 -0.34381904131E+02  0.45045682510E+02  0.00000000000E+00 0. -1.
         11    1    3    3    0    0 -0.10378374920E+01  0.39492593638E+01  0.80701785577E+01  0.90444202908E+01  0.51100000000E-03 0. -1.
        -11    1    3    3    0    0  0.32920526904E+01  0.48013806499E+01  0.80202623195E+01  0.99103720917E+01  0.51100000000E-03 0.  1.
        -12    1    3    3    0    0  0.25843315272E+01  0.19947559351E+02  0.18291463254E+02  0.27187525107E+02  0.00000000000E+00 0.  1.
</event>
<event>
 7    1  0.2227287E-008  0.4614232E+02  0.7816164E-02  0.1320468E+00
        -11   -1    0    0    0    0  0.00000000000E+00  0.00000000000E+00  0.45593999997E+02  0.45594000000E+02  0.51100000000E-03 0.  1.
         11   -1    0    0    0    0 -0.00000000000E+00 -0.00000000000E+00 -0.45593999997E+02  0.45594000000E+02  0.51100000000E-03 0. -1.
    9900012    2    1    2    0    0 -0.17222324321E+02  0.24206935098E+02  0.33860437144E+02  0.46142319125E+02  0.10000012437E+02 0.  0.
         12    1    1    2    0    0  0.17222324321E+02 -0.24206935098E+02 -0.33860437144E+02  0.45045680875E+02  0.00000000000E+00 0. -1.
         11    1    3    3    0    0 -0.90007106744E+01  0.16580727942E+02  0.23574198824E+02  0.30193975925E+02  0.51100000000E-03 0. -1.
        -11    1    3    3    0    0 -0.13125162231E+01  0.16187141804E+01  0.49026905266E+01  0.53272233945E+01  0.51100000000E-03 0.  1.
         12    1    3    3    0    0 -0.69090974238E+01  0.60074929756E+01  0.53835477940E+01  0.10621119805E+02  0.00000000000E+00 0. -1.
</event>
<event>
 7    1  0.2227287E-008  0.4614232E+02  0.7816164E-02  0.1320468E+00
        -11   -1    0    0    0    0  0.00000000000E+00  0.00000000000E+00  0.45593999997E+02  0.45594000000E+02  0.51100000000E-03 0. -1.
         11   -1    0    0    0    0 -0.00000000000E+00 -0.00000000000E+00 -0.45593999997E+02  0.45594000000E+02  0.51100000000E-03 0.  1.
    9900012    2    1    2    0    0 -0.15601111688E+02 -0.39268763255E+02 -0.15610347449E+02  0.46142318732E+02  0.10000008850E+02 0.  0.
         12    1    1    2    0    0  0.15601111688E+02  0.39268763255E+02  0.15610347449E+02  0.45045681268E+02  0.00000000000E+00 0. -1.
         11    1    3    3    0    0 -0.45676130510E+01 -0.65514995221E+01 -0.11661529563E+01  0.80712544224E+01  0.51100000000E-03 0. -1.
        -11    1    3    3    0    0  0.58420571804E-01  0.33839264878E+00 -0.39323143756E-01  0.34564305101E+00  0.51100000000E-03 0.  1.
        -12    1    3    3    0    0 -0.11091919208E+02 -0.33055656382E+02 -0.14404871349E+02  0.37725421258E+02  0.00000000000E+00 0.  1.
</event>
<event>
 7    1  0.2227287E-008  0.4614232E+02  0.7816164E-02  0.1320468E+00
        -11   -1    0    0    0    0  0.00000000000E+00  0.00000000000E+00  0.45593999997E+02  0.45594000000E+02  0.51100000000E-03 0.  1.
         11   -1    0    0    0    0 -0.00000000000E+00 -0.00000000000E+00 -0.45593999997E+02  0.45594000000E+02  0.51100000000E-03 0. -1.
    9900012    2    1    2    0    0  0.26142744454E+02  0.34196212112E+02 -0.13277406920E+02  0.46142317133E+02  0.99999942769E+01 0.  0.
         12    1    1    2    0    0 -0.26142744454E+02 -0.34196212112E+02  0.13277406920E+02  0.45045682867E+02  0.00000000000E+00 0. -1.
         11    1    3    3    0    0  0.11420351383E+02  0.10046100635E+02 -0.30249144897E+01  0.15508019590E+02  0.51100000000E-03 0. -1.
        -11    1    3    3    0    0  0.77748755556E+01  0.79257725659E+01 -0.26328440638E+01  0.11410452611E+02  0.51100000000E-03 0.  1.
         12    1    3    3    0    0  0.69475175149E+01  0.16224338912E+02 -0.76196483666E+01  0.19223844932E+02  0.00000000000E+00 0. -1.
</event>
<event>
 7    1  0.2227287E-008  0.4614232E+02  0.7816164E-02  0.1320468E+00
        -11   -1    0    0    0    0  0.00000000000E+00  0.00000000000E+00  0.45593999997E+02  0.45594000000E+02  0.51100000000E-03 0.  1.
         11   -1    0    0    0    0 -0.00000000000E+00 -0.00000000000E+00 -0.45593999997E+02  0.45594000000E+02  0.51100000000E-03 0. -1.
    9900012    2    1    2    0    0 -0.66290743468E+01 -0.33714789703E+01  0.44427491378E+02  0.46142317773E+02  0.10000000109E+02 0.  0.
         12    1    1    2    0    0  0.66290743468E+01  0.33714789703E+01 -0.44427491378E+02  0.45045682227E+02  0.00000000000E+00 0. -1.
         11    1    3    3    0    0 -0.30455132077E+01 -0.45786501424E+00  0.45231904779E+01  0.54721150783E+01  0.51100000000E-03 0. -1.
        -11    1    3    3    0    0 -0.42104239313E+01  0.60771329713E+00  0.23280935262E+02  0.23666409361E+02  0.51100000000E-03 0.  1.
         12    1    3    3    0    0  0.62686279209E+00 -0.35213272532E+01  0.16623365638E+02  0.17003793334E+02  0.00000000000E+00 0. -1.
</event>
<event>
 7    1  0.2227287E-008  0.4614232E+02  0.7816164E-02  0.1320468E+00
        -11   -1    0    0    0    0  0.00000000000E+00  0.00000000000E+00  0.45593999997E+02  0.45594000000E+02  0.51100000000E-03 0.  1.
         11   -1    0    0    0    0 -0.00000000000E+00 -0.00000000000E+00 -0.45593999997E+02  0.45594000000E+02  0.51100000000E-03 0. -1.
    9900012    2    1    2    0    0 -0.12517757294E+02  0.95393108581E+01  0.42206880357E+02  0.46142318201E+02  0.10000004008E+02 0.  0.
         12    1    1    2    0    0  0.12517757294E+02 -0.95393108581E+01 -0.42206880357E+02  0.45045681799E+02  0.00000000000E+00 0. -1.
         11    1    3    3    0    0 -0.82449036755E+01  0.59458303362E+01  0.16126261607E+02  0.19062729308E+02  0.51100000000E-03 0. -1.
        -11    1    3    3    0    0 -0.37298342040E+01  0.42974257561E+01  0.25176656349E+02  0.25811694181E+02  0.51100000000E-03 0.  1.
         12    1    3    3    0    0 -0.54301941421E+00 -0.70394523416E+00  0.90396240127E+00  0.12678947116E+01  0.00000000000E+00 0. -1.
</event>
<event>
 7    1  0.2227287E-008  0.4614232E+02  0.7816164E-02  0.1320468E+00
        -11   -1    0    0    0    0  0.00000000000E+00  0.00000000000E+00  0.45593999997E+02  0.45594000000E+02  0.51100000000E-03 0.  1.
         11   -1    0    0    0    0 -0.00000000000E+00 -0.00000000000E+00 -0.45593999997E+02  0.45594000000E+02  0.51100000000E-03 0. -1.
    9900012    2    1    2    0    0 -0.18558835813E+02  0.87355037801E+01  0.40104539725E+02  0.46142317415E+02  0.99999968403E+01 0.  0.
         12    1    1    2    0    0  0.18558835813E+02 -0.87355037801E+01 -0.40104539725E+02  0.45045682585E+02  0.00000000000E+00 0. -1.
         11    1    3    3    0    0 -0.10485861604E+02  0.38665193101E+00  0.13503014618E+02  0.17100707510E+02  0.51100000000E-03 0. -1.
        -11    1    3    3    0    0 -0.25927574997E+01  0.24248535059E+01  0.91486476978E+01  0.98132594451E+01  0.51100000000E-03 0.  1.
         12    1    3    3    0    0 -0.54802167092E+01  0.59239983431E+01  0.17452877409E+02  0.19228350460E+02  0.00000000000E+00 0. -1.
</event>
<event>
 7    1  0.2227287E-008  0.4614232E+02  0.7816164E-02  0.1320468E+00
        -11   -1    0    0    0    0  0.00000000000E+00  0.00000000000E+00  0.45593999997E+02  0.45594000000E+02  0.51100000000E-03 0.  1.
         11   -1    0    0    0    0 -0.00000000000E+00 -0.00000000000E+00 -0.45593999997E+02  0.45594000000E+02  0.51100000000E-03 0. -1.
    9900012    2    1    2    0    0 -0.41646699028E+02  0.10037136771E+02 -0.13925580572E+02  0.46142318200E+02  0.10000004005E+02 0.  0.
         12    1    1    2    0    0  0.41646699028E+02 -0.10037136771E+02  0.13925580572E+02  0.45045681800E+02  0.00000000000E+00 0. -1.
         11    1    3    3    0    0 -0.95395629910E+01  0.50352291992E+01 -0.50205331586E+01  0.11898006077E+02  0.51100000000E-03 0. -1.
        -11    1    3    3    0    0 -0.17998612604E+02  0.14258628128E+01 -0.77367583400E+01  0.19642824907E+02  0.51100000000E-03 0.  1.
         12    1    3    3    0    0 -0.14108523433E+02  0.35760447594E+01 -0.11682890735E+01  0.14601487217E+02  0.00000000000E+00 0. -1.
</event>
<event>
 7    1  0.2227287E-008  0.4614232E+02  0.7816164E-02  0.1320468E+00
        -11   -1    0    0    0    0  0.00000000000E+00  0.00000000000E+00  0.45593999997E+02  0.45594000000E+02  0.51100000000E-03 0.  1.
         11   -1    0    0    0    0 -0.00000000000E+00 -0.00000000000E+00 -0.45593999997E+02  0.45594000000E+02  0.51100000000E-03 0. -1.
    9900012    2    1    2    0    0  0.98737329459E+00  0.30660099389E+02  0.32986313630E+02  0.46142317771E+02  0.10000000088E+02 0.  0.
         12    1    1    2    0    0 -0.98737329459E+00 -0.30660099389E+02 -0.32986313630E+02  0.45045682229E+02  0.00000000000E+00 0. -1.
         11    1    3    3    0    0 -0.97752360400E+00  0.66188624285E+01  0.95149461474E+01  0.11631813818E+02  0.51100000000E-03 0. -1.
        -11    1    3    3    0    0  0.47903529606E-02  0.18858582432E+02  0.21572046047E+02  0.28653085788E+02  0.51100000000E-03 0.  1.
         12    1    3    3    0    0  0.19601065456E+01  0.51826545290E+01  0.18993214359E+01  0.58574181645E+01  0.00000000000E+00 0. -1.
</event>
<event>
 7    1  0.2227287E-008  0.4614232E+02  0.7816164E-02  0.1320468E+00
        -11   -1    0    0    0    0  0.00000000000E+00  0.00000000000E+00  0.45593999997E+02  0.45594000000E+02  0.51100000000E-03 0. -1.
         11   -1    0    0    0    0 -0.00000000000E+00 -0.00000000000E+00 -0.45593999997E+02  0.45594000000E+02  0.51100000000E-03 0.  1.
    9900012    2    1    2    0    0  0.29351237691E+02 -0.29479079106E+02 -0.17280108844E+02  0.46142318514E+02  0.10000006863E+02 0.  0.
         12    1    1    2    0    0 -0.29351237691E+02  0.29479079106E+02  0.17280108844E+02  0.45045681486E+02  0.00000000000E+00 0. -1.
         11    1    3    3    0    0  0.19838943485E+02 -0.15320042840E+02 -0.91882583544E+01  0.26696656777E+02  0.51100000000E-03 0. -1.
        -11    1    3    3    0    0  0.89154870861E+01 -0.11895187082E+02 -0.52537347504E+01  0.15766518791E+02  0.51100000000E-03 0.  1.
         12    1    3    3    0    0  0.59680711910E+00 -0.22638491838E+01 -0.28381157390E+01  0.36791429454E+01  0.00000000000E+00 0. -1.
</event>
<event>
 7    1  0.2227287E-008  0.4614232E+02  0.7816164E-02  0.1320468E+00
        -11   -1    0    0    0    0  0.00000000000E+00  0.00000000000E+00  0.45593999997E+02  0.45594000000E+02  0.51100000000E-03 0. -1.
         11   -1    0    0    0    0 -0.00000000000E+00 -0.00000000000E+00 -0.45593999997E+02  0.45594000000E+02  0.51100000000E-03 0.  1.
    9900012    2    1    2    0    0 -0.13713295789E+02 -0.25215375010E+02 -0.34716623988E+02  0.46142316529E+02  0.99999887622E+01 0.  0.
         12    1    1    2    0    0  0.13713295789E+02  0.25215375010E+02  0.34716623988E+02  0.45045683471E+02  0.00000000000E+00 0. -1.
         11    1    3    3    0    0  0.35419073151E+00 -0.97965106246E-01 -0.22059878096E+00  0.42861675144E+00  0.51100000000E-03 0. -1.
        -11    1    3    3    0    0 -0.71523507554E+01 -0.72226869095E+01 -0.76706247173E+01  0.12734277024E+02  0.51100000000E-03 0.  1.
        -12    1    3    3    0    0 -0.69151357647E+01 -0.17894722994E+02 -0.26825400489E+02  0.32979422753E+02  0.00000000000E+00 0.  1.
</event>
<event>
 7    1  0.2227287E-008  0.4614232E+02  0.7816164E-02  0.1320468E+00
        -11   -1    0    0    0    0  0.00000000000E+00  0.00000000000E+00  0.45593999997E+02  0.45594000000E+02  0.51100000000E-03 0. -1.
         11   -1    0    0    0    0 -0.00000000000E+00 -0.00000000000E+00 -0.45593999997E+02  0.45594000000E+02  0.51100000000E-03 0.  1.
    9900012    2    1    2    0    0  0.43923155976E+02  0.34973249239E+01 -0.93615480298E+01  0.46142317698E+02  0.99999994280E+01 0.  0.
         12    1    1    2    0    0 -0.43923155976E+02 -0.34973249239E+01  0.93615480298E+01  0.45045682302E+02  0.00000000000E+00 0. -1.
         11    1    3    3    0    0  0.67514142586E+01 -0.31706644985E+00 -0.42529003235E+01  0.79855674218E+01  0.51100000000E-03 0. -1.
        -11    1    3    3    0    0  0.12739661635E+02 -0.96909744679E+00 -0.32967757678E+01  0.13194955823E+02  0.51100000000E-03 0.  1.
        -12    1    3    3    0    0  0.24432080082E+02  0.47834888206E+01 -0.18118719384E+01  0.24961794454E+02  0.00000000000E+00 0.  1.
</event>
<event>
 7    1  0.2227287E-008  0.4614232E+02  0.7816164E-02  0.1320468E+00
        -11   -1    0    0    0    0  0.00000000000E+00  0.00000000000E+00  0.45593999997E+02  0.45594000000E+02  0.51100000000E-03 0.  1.
         11   -1    0    0    0    0 -0.00000000000E+00 -0.00000000000E+00 -0.45593999997E+02  0.45594000000E+02  0.51100000000E-03 0. -1.
    9900012    2    1    2    0    0  0.26145202653E+02  0.29743704229E+02  0.21467510729E+02  0.46142316745E+02  0.99999907370E+01 0.  0.
         12    1    1    2    0    0 -0.26145202653E+02 -0.29743704229E+02 -0.21467510729E+02  0.45045683255E+02  0.00000000000E+00 0. -1.
         11    1    3    3    0    0  0.23135857557E+01  0.76784455141E+01  0.27552215515E+01  0.84795312737E+01  0.51100000000E-03 0. -1.
        -11    1    3    3    0    0  0.10176706943E+02  0.79160213478E+01  0.90597488135E+01  0.15757785600E+02  0.51100000000E-03 0.  1.
         12    1    3    3    0    0  0.13654909954E+02  0.14149237367E+02  0.96525403638E+01  0.21904999872E+02  0.00000000000E+00 0. -1.
</event>
<event>
 7    1  0.2227287E-008  0.4614233E+02  0.7816164E-02  0.1320468E+00
        -11   -1    0    0    0    0  0.00000000000E+00  0.00000000000E+00  0.45593999997E+02  0.45594000000E+02  0.51100000000E-03 0.  1.
         11   -1    0    0    0    0 -0.00000000000E+00 -0.00000000000E+00 -0.45593999997E+02  0.45594000000E+02  0.51100000000E-03 0. -1.
    9900012    2    1    2    0    0 -0.23693929443E+02  0.36992715820E+02  0.99623719653E+01  0.46142332379E+02  0.10000133300E+02 0.  0.
         12    1    1    2    0    0  0.23693929443E+02 -0.36992715820E+02 -0.99623719653E+01  0.45045667621E+02  0.00000000000E+00 0. -1.
         11    1    3    3    0    0 -0.32346031389E+01  0.83547731729E+00  0.37169845789E+00  0.33613746918E+01  0.51100000000E-03 0. -1.
        -11    1    3    3    0    0 -0.40959220909E+01  0.50859307298E+01  0.22352203930E+01  0.69021358745E+01  0.51100000000E-03 0.  1.
        -12    1    3    3    0    0 -0.16363404213E+02  0.31071307773E+02  0.73554531144E+01  0.35878821813E+02  0.00000000000E+00 0.  1.
</event>
<event>
 7    1  0.2227287E-008  0.4614232E+02  0.7816164E-02  0.1320468E+00
        -11   -1    0    0    0    0  0.00000000000E+00  0.00000000000E+00  0.45593999997E+02  0.45594000000E+02  0.51100000000E-03 0.  1.
         11   -1    0    0    0    0 -0.00000000000E+00 -0.00000000000E+00 -0.45593999997E+02  0.45594000000E+02  0.51100000000E-03 0. -1.
    9900012    2    1    2    0    0 -0.25540578488E+02  0.37102268297E+02  0.46263662154E+00  0.46142317688E+02  0.99999993369E+01 0.  0.
         12    1    1    2    0    0  0.25540578488E+02 -0.37102268297E+02 -0.46263662154E+00  0.45045682312E+02  0.00000000000E+00 0. -1.
         11    1    3    3    0    0 -0.22439796692E+01  0.45836966039E+01 -0.24066104582E+01  0.56424722836E+01  0.51100000000E-03 0. -1.
        -11    1    3    3    0    0 -0.17733200699E+02  0.23464114621E+02 -0.29095522284E+00  0.29412849865E+02  0.51100000000E-03 0.  1.
         12    1    3    3    0    0 -0.55633981205E+01  0.90544570715E+01  0.31602023026E+01  0.11086995540E+02  0.00000000000E+00 0. -1.
</event>
<event>
 7    1  0.2227287E-008  0.4614232E+02  0.7816164E-02  0.1320468E+00
        -11   -1    0    0    0    0  0.00000000000E+00  0.00000000000E+00  0.45593999997E+02  0.45594000000E+02  0.51100000000E-03 0.  1.
         11   -1    0    0    0    0 -0.00000000000E+00 -0.00000000000E+00 -0.45593999997E+02  0.45594000000E+02  0.51100000000E-03 0. -1.
    9900012    2    1    2    0    0  0.22119573504E+02 -0.31374677350E+02  0.23568359973E+02  0.46142317603E+02  0.99999985560E+01 0.  0.
         12    1    1    2    0    0 -0.22119573504E+02  0.31374677350E+02 -0.23568359973E+02  0.45045682397E+02  0.00000000000E+00 0. -1.
         11    1    3    3    0    0  0.48701209532E+01 -0.32517082080E+01  0.30777863615E+01  0.66154707706E+01  0.51100000000E-03 0. -1.
        -11    1    3    3    0    0  0.28583912813E+01 -0.86053720015E+01  0.27325719625E+01  0.94704687208E+01  0.51100000000E-03 0.  1.
        -12    1    3    3    0    0  0.14391061269E+02 -0.19517597141E+02  0.17758001649E+02  0.30056378111E+02  0.00000000000E+00 0.  1.
</event>
<event>
 7    1  0.2227287E-008  0.4614232E+02  0.7816164E-02  0.1320468E+00
        -11   -1    0    0    0    0  0.00000000000E+00  0.00000000000E+00  0.45593999997E+02  0.45594000000E+02  0.51100000000E-03 0.  1.
         11   -1    0    0    0    0 -0.00000000000E+00 -0.00000000000E+00 -0.45593999997E+02  0.45594000000E+02  0.51100000000E-03 0. -1.
    9900012    2    1    2    0    0 -0.58155955647E-01 -0.24651852393E+02  0.37701409205E+02  0.46142318025E+02  0.10000002405E+02 0.  0.
         12    1    1    2    0    0  0.58155955647E-01  0.24651852393E+02 -0.37701409205E+02  0.45045681975E+02  0.00000000000E+00 0. -1.
         11    1    3    3    0    0 -0.23317416354E+01 -0.56698094067E+01  0.55484054060E+01  0.82685283197E+01  0.51100000000E-03 0. -1.
        -11    1    3    3    0    0 -0.18271165051E+01 -0.60250348367E+01  0.82579299384E+01  0.10384257635E+02  0.51100000000E-03 0.  1.
        -12    1    3    3    0    0  0.41007021848E+01 -0.12957008150E+02  0.23895073861E+02  0.27489532070E+02  0.00000000000E+00 0.  1.
</event>
<event>
 7    1  0.2227287E-008  0.4614232E+02  0.7816164E-02  0.1320468E+00
        -11   -1    0    0    0    0  0.00000000000E+00  0.00000000000E+00  0.45593999997E+02  0.45594000000E+02  0.51100000000E-03 0. -1.
         11   -1    0    0    0    0 -0.00000000000E+00 -0.00000000000E+00 -0.45593999997E+02  0.45594000000E+02  0.51100000000E-03 0.  1.
    9900012    2    1    2    0    0  0.43356007057E+02 -0.59210292464E+01  0.10691666473E+02  0.46142315776E+02  0.99999818997E+01 0.  0.
         12    1    1    2    0    0 -0.43356007057E+02  0.59210292464E+01 -0.10691666473E+02  0.45045684224E+02  0.00000000000E+00 0. -1.
         11    1    3    3    0    0  0.85252973574E+01 -0.32509984198E+01  0.11716941365E-01  0.91241341127E+01  0.51100000000E-03 0. -1.
        -11    1    3    3    0    0  0.25404487050E+02 -0.30900310630E+01  0.52263552922E+01  0.26119935761E+02  0.51100000000E-03 0.  1.
         12    1    3    3    0    0  0.94262226488E+01  0.42000023633E+00  0.54535942392E+01  0.10898245902E+02  0.00000000000E+00 0. -1.
</event>
<event>
 7    1  0.2227287E-008  0.4614232E+02  0.7816164E-02  0.1320468E+00
        -11   -1    0    0    0    0  0.00000000000E+00  0.00000000000E+00  0.45593999997E+02  0.45594000000E+02  0.51100000000E-03 0.  1.
         11   -1    0    0    0    0 -0.00000000000E+00 -0.00000000000E+00 -0.45593999997E+02  0.45594000000E+02  0.51100000000E-03 0. -1.
    9900012    2    1    2    0    0  0.91758127527E+00 -0.42708225047E+02 -0.14292623983E+02  0.46142317162E+02  0.99999945341E+01 0.  0.
         12    1    1    2    0    0 -0.91758127527E+00  0.42708225047E+02  0.14292623983E+02  0.45045682838E+02  0.00000000000E+00 0. -1.
         11    1    3    3    0    0  0.35639194822E+01 -0.12512670046E+02 -0.63629832032E+01  0.14482955128E+02  0.51100000000E-03 0. -1.
        -11    1    3    3    0    0 -0.53365515299E+00 -0.12140311902E+02 -0.54294585080E+01  0.13309807694E+02  0.51100000000E-03 0.  1.
         12    1    3    3    0    0 -0.21126830539E+01 -0.18055243099E+02 -0.25001822718E+01  0.18349554339E+02  0.00000000000E+00 0. -1.
</event>
<event>
 7    1  0.2227287E-008  0.4614232E+02  0.7816164E-02  0.1320468E+00
        -11   -1    0    0    0    0  0.00000000000E+00  0.00000000000E+00  0.45593999997E+02  0.45594000000E+02  0.51100000000E-03 0.  1.
         11   -1    0    0    0    0 -0.00000000000E+00 -0.00000000000E+00 -0.45593999997E+02  0.45594000000E+02  0.51100000000E-03 0. -1.
    9900012    2    1    2    0    0  0.15108361183E+02 -0.12977366523E+01 -0.42416587645E+02  0.46142316461E+02  0.99999881434E+01 0.  0.
         12    1    1    2    0    0 -0.15108361183E+02  0.12977366523E+01  0.42416587645E+02  0.45045683539E+02  0.00000000000E+00 0. -1.
         11    1    3    3    0    0  0.23710886086E+01 -0.24731681399E+01 -0.15765377232E+02  0.16133373527E+02  0.51100000000E-03 0. -1.
        -11    1    3    3    0    0  0.93657513062E+01 -0.96424489075E+00 -0.15182238727E+02  0.17864698116E+02  0.51100000000E-03 0.  1.
        -12    1    3    3    0    0  0.33715212684E+01  0.21396763784E+01 -0.11468971686E+02  0.12144244818E+02  0.00000000000E+00 0.  1.
</event>
<event>
 7    1  0.2227287E-008  0.4614232E+02  0.7816164E-02  0.1320468E+00
        -11   -1    0    0    0    0  0.00000000000E+00  0.00000000000E+00  0.45593999997E+02  0.45594000000E+02  0.51100000000E-03 0.  1.
         11   -1    0    0    0    0 -0.00000000000E+00 -0.00000000000E+00 -0.45593999997E+02  0.45594000000E+02  0.51100000000E-03 0. -1.
    9900012    2    1    2    0    0  0.41726674396E+02  0.49987080926E+01  0.16217613737E+02  0.46142318364E+02  0.10000005493E+02 0.  0.
         12    1    1    2    0    0 -0.41726674396E+02 -0.49987080926E+01 -0.16217613737E+02  0.45045681636E+02  0.00000000000E+00 0. -1.
         11    1    3    3    0    0  0.22068357049E+02  0.72629009451E+01  0.97320653402E+01  0.25188791337E+02  0.51100000000E-03 0. -1.
        -11    1    3    3    0    0  0.58571791982E+01  0.23765453826E+00  0.13383740268E+01  0.60128423508E+01  0.51100000000E-03 0.  1.
         12    1    3    3    0    0  0.13801138149E+02 -0.25018473908E+01  0.51471743704E+01  0.14940684676E+02  0.00000000000E+00 0. -1.
</event>
<event>
 7    1  0.2227287E-008  0.4614232E+02  0.7816164E-02  0.1320468E+00
        -11   -1    0    0    0    0  0.00000000000E+00  0.00000000000E+00  0.45593999997E+02  0.45594000000E+02  0.51100000000E-03 0.  1.
         11   -1    0    0    0    0 -0.00000000000E+00 -0.00000000000E+00 -0.45593999997E+02  0.45594000000E+02  0.51100000000E-03 0. -1.
    9900012    2    1    2    0    0  0.13720251273E+02 -0.28181107038E+02  0.32352644312E+02  0.46142315602E+02  0.99999803139E+01 0.  0.
         12    1    1    2    0    0 -0.13720251273E+02  0.28181107038E+02 -0.32352644312E+02  0.45045684398E+02  0.00000000000E+00 0. -1.
         11    1    3    3    0    0  0.23464401295E+01 -0.95343701385E+01  0.92297209901E+01  0.13475820755E+02  0.51100000000E-03 0. -1.
        -11    1    3    3    0    0  0.45863351767E+01 -0.10598173408E+02  0.16797092169E+02  0.20383769414E+02  0.51100000000E-03 0.  1.
         12    1    3    3    0    0  0.67874759667E+01 -0.80485634913E+01  0.63258311531E+01  0.12282725432E+02  0.00000000000E+00 0. -1.
</event>
<event>
 7    1  0.2227287E-008  0.4614232E+02  0.7816164E-02  0.1320468E+00
        -11   -1    0    0    0    0  0.00000000000E+00  0.00000000000E+00  0.45593999997E+02  0.45594000000E+02  0.51100000000E-03 0.  1.
         11   -1    0    0    0    0 -0.00000000000E+00 -0.00000000000E+00 -0.45593999997E+02  0.45594000000E+02  0.51100000000E-03 0. -1.
    9900012    2    1    2    0    0  0.38733424911E+01 -0.10883652013E+02  0.43539140744E+02  0.46142318298E+02  0.10000004898E+02 0.  0.
         12    1    1    2    0    0 -0.38733424911E+01  0.10883652013E+02 -0.43539140744E+02  0.45045681702E+02  0.00000000000E+00 0. -1.
         11    1    3    3    0    0  0.21755575557E+01 -0.28626938906E+01  0.64732814427E+01  0.74048254461E+01  0.51100000000E-03 0. -1.
        -11    1    3    3    0    0  0.49900485997E+00 -0.11928749314E+01  0.23192013710E+02  0.23228031700E+02  0.51100000000E-03 0.  1.
        -12    1    3    3    0    0  0.11987800754E+01 -0.68280831915E+01  0.13873845592E+02  0.15509461153E+02  0.00000000000E+00 0.  1.
</event>
<event>
 7    1  0.2227287E-008  0.4614232E+02  0.7816164E-02  0.1320468E+00
        -11   -1    0    0    0    0  0.00000000000E+00  0.00000000000E+00  0.45593999997E+02  0.45594000000E+02  0.51100000000E-03 0. -1.
         11   -1    0    0    0    0 -0.00000000000E+00 -0.00000000000E+00 -0.45593999997E+02  0.45594000000E+02  0.51100000000E-03 0.  1.
    9900012    2    1    2    0    0  0.42067190953E+02  0.15961934142E+02 -0.21636695090E+01  0.46142319164E+02  0.10000012795E+02 0.  0.
         12    1    1    2    0    0 -0.42067190953E+02 -0.15961934142E+02  0.21636695090E+01  0.45045680836E+02  0.00000000000E+00 0. -1.
         11    1    3    3    0    0  0.23172048842E+02  0.62981856454E+01  0.19102679772E+01  0.24088588875E+02  0.51100000000E-03 0. -1.
        -11    1    3    3    0    0  0.17975355646E+02  0.87544353690E+01 -0.27144138365E+01  0.20177254321E+02  0.51100000000E-03 0.  1.
         12    1    3    3    0    0  0.91978646518E+00  0.90931312733E+00 -0.13595236497E+01  0.18764759682E+01  0.00000000000E+00 0. -1.
</event>
<event>
 7    1  0.2227287E-008  0.4614232E+02  0.7816164E-02  0.1320468E+00
        -11   -1    0    0    0    0  0.00000000000E+00  0.00000000000E+00  0.45593999997E+02  0.45594000000E+02  0.51100000000E-03 0.  1.
         11   -1    0    0    0    0 -0.00000000000E+00 -0.00000000000E+00 -0.45593999997E+02  0.45594000000E+02  0.51100000000E-03 0. -1.
    9900012    2    1    2    0    0  0.93965722725E+01 -0.34610753870E+02  0.27256443325E+02  0.46142317003E+02  0.99999930873E+01 0.  0.
         12    1    1    2    0    0 -0.93965722725E+01  0.34610753870E+02 -0.27256443325E+02  0.45045682997E+02  0.00000000000E+00 0. -1.
         11    1    3    3    0    0  0.25015457721E+01 -0.95228482264E+01  0.12626669334E+02  0.16011719093E+02  0.51100000000E-03 0. -1.
        -11    1    3    3    0    0  0.19700782351E+01 -0.51093060037E+01  0.49871358685E+01  0.74066011451E+01  0.51100000000E-03 0.  1.
        -12    1    3    3    0    0  0.49249482653E+01 -0.19978599640E+02  0.96426381227E+01  0.22723996765E+02  0.00000000000E+00 0.  1.
</event>
<event>
 7    1  0.2227287E-008  0.4614232E+02  0.7816164E-02  0.1320468E+00
        -11   -1    0    0    0    0  0.00000000000E+00  0.00000000000E+00  0.45593999997E+02  0.45594000000E+02  0.51100000000E-03 0. -1.
         11   -1    0    0    0    0 -0.00000000000E+00 -0.00000000000E+00 -0.45593999997E+02  0.45594000000E+02  0.51100000000E-03 0.  1.
    9900012    2    1    2    0    0 -0.33721003998E+02 -0.27910998719E+02  0.10629370598E+02  0.46142317860E+02  0.10000000903E+02 0.  0.
         12    1    1    2    0    0  0.33721003998E+02  0.27910998719E+02 -0.10629370598E+02  0.45045682140E+02  0.00000000000E+00 0. -1.
         11    1    3    3    0    0 -0.33097153455E+01 -0.29620448673E+01 -0.15796780690E+01  0.47141604265E+01  0.51100000000E-03 0. -1.
        -11    1    3    3    0    0 -0.14079385657E+02 -0.12399234368E+02  0.80534124367E+01  0.20416355344E+02  0.51100000000E-03 0.  1.
        -12    1    3    3    0    0 -0.16331902996E+02 -0.12549719483E+02  0.41556362304E+01  0.21011802090E+02  0.00000000000E+00 0.  1.
</event>
<event>
 7    1  0.2227287E-008  0.4614232E+02  0.7816164E-02  0.1320468E+00
        -11   -1    0    0    0    0  0.00000000000E+00  0.00000000000E+00  0.45593999997E+02  0.45594000000E+02  0.51100000000E-03 0.  1.
         11   -1    0    0    0    0 -0.00000000000E+00 -0.00000000000E+00 -0.45593999997E+02  0.45594000000E+02  0.51100000000E-03 0. -1.
    9900012    2    1    2    0    0  0.56313486637E+01  0.51612182829E+01  0.44393278237E+02  0.46142318581E+02  0.10000007472E+02 0.  0.
         12    1    1    2    0    0 -0.56313486637E+01 -0.51612182829E+01 -0.44393278237E+02  0.45045681419E+02  0.00000000000E+00 0. -1.
         11    1    3    3    0    0  0.13317206583E+00  0.33108240115E+01  0.42961876596E+01  0.54255432079E+01  0.51100000000E-03 0. -1.
        -11    1    3    3    0    0  0.83094705152E-01 -0.21366834395E+00  0.13221535305E+02  0.13223522790E+02  0.51100000000E-03 0.  1.
        -12    1    3    3    0    0  0.54150818927E+01  0.20640626154E+01  0.26875555272E+02  0.27493252583E+02  0.00000000000E+00 0.  1.
</event>
<event>
 7    1  0.2227287E-008  0.4614232E+02  0.7816164E-02  0.1320468E+00
        -11   -1    0    0    0    0  0.00000000000E+00  0.00000000000E+00  0.45593999997E+02  0.45594000000E+02  0.51100000000E-03 0.  1.
         11   -1    0    0    0    0 -0.00000000000E+00 -0.00000000000E+00 -0.45593999997E+02  0.45594000000E+02  0.51100000000E-03 0. -1.
    9900012    2    1    2    0    0 -0.25350349797E+02  0.33153657650E+02 -0.16950168516E+02  0.46142318041E+02  0.10000002552E+02 0.  0.
         12    1    1    2    0    0  0.25350349797E+02 -0.33153657650E+02  0.16950168516E+02  0.45045681959E+02  0.00000000000E+00 0. -1.
         11    1    3    3    0    0 -0.12506222738E+02  0.13915440783E+02 -0.10807896442E+02  0.21606844405E+02  0.51100000000E-03 0. -1.
        -11    1    3    3    0    0 -0.67011836535E+01  0.13620296423E+02 -0.56483526504E+01  0.16196364559E+02  0.51100000000E-03 0.  1.
         12    1    3    3    0    0 -0.61429434054E+01  0.56179204451E+01 -0.49391942313E+00  0.83391090774E+01  0.00000000000E+00 0. -1.
</event>
<event>
 7    1  0.2227287E-008  0.4614232E+02  0.7816164E-02  0.1320468E+00
        -11   -1    0    0    0    0  0.00000000000E+00  0.00000000000E+00  0.45593999997E+02  0.45594000000E+02  0.51100000000E-03 0. -1.
         11   -1    0    0    0    0 -0.00000000000E+00 -0.00000000000E+00 -0.45593999997E+02  0.45594000000E+02  0.51100000000E-03 0.  1.
    9900012    2    1    2    0    0  0.31221614948E+02  0.24397712539E+01 -0.32378569572E+02  0.46142317729E+02  0.99999997100E+01 0.  0.
         12    1    1    2    0    0 -0.31221614948E+02 -0.24397712539E+01  0.32378569572E+02  0.45045682271E+02  0.00000000000E+00 0. -1.
         11    1    3    3    0    0  0.43951841419E+01 -0.26498476532E+01 -0.47745257505E+01  0.70096670841E+01  0.51100000000E-03 0. -1.
        -11    1    3    3    0    0  0.26281127864E+02  0.40993433781E+01 -0.26281259445E+02  0.37392604833E+02  0.51100000000E-03 0.  1.
        -12    1    3    3    0    0  0.54530294179E+00  0.99027552898E+00 -0.13227843762E+01  0.17400458119E+01  0.00000000000E+00 0.  1.
</event>
<event>
 7    1  0.2227287E-008  0.4614232E+02  0.7816164E-02  0.1320468E+00
        -11   -1    0    0    0    0  0.00000000000E+00  0.00000000000E+00  0.45593999997E+02  0.45594000000E+02  0.51100000000E-03 0. -1.
         11   -1    0    0    0    0 -0.00000000000E+00 -0.00000000000E+00 -0.45593999997E+02  0.45594000000E+02  0.51100000000E-03 0.  1.
    9900012    2    1    2    0    0 -0.10575250427E+02  0.42733830900E+02  0.95444876428E+01  0.46142317973E+02  0.10000001929E+02 0.  0.
         12    1    1    2    0    0  0.10575250427E+02 -0.42733830900E+02 -0.95444876428E+01  0.45045682027E+02  0.00000000000E+00 0. -1.
         11    1    3    3    0    0 -0.31229305086E+00  0.35855883835E+01  0.32516271784E+01  0.48504691086E+01  0.51100000000E-03 0. -1.
        -11    1    3    3    0    0 -0.97402220432E+01  0.30637395905E+02  0.35974668046E+01  0.32349091502E+02  0.51100000000E-03 0.  1.
        -12    1    3    3    0    0 -0.52273533271E+00  0.85108466109E+01  0.26953936598E+01  0.89427573625E+01  0.00000000000E+00 0.  1.
</event>
<event>
 7    1  0.2227287E-008  0.4614232E+02  0.7816164E-02  0.1320468E+00
        -11   -1    0    0    0    0  0.00000000000E+00  0.00000000000E+00  0.45593999997E+02  0.45594000000E+02  0.51100000000E-03 0. -1.
         11   -1    0    0    0    0 -0.00000000000E+00 -0.00000000000E+00 -0.45593999997E+02  0.45594000000E+02  0.51100000000E-03 0.  1.
    9900012    2    1    2    0    0 -0.16734859110E+02 -0.15206978752E+02 -0.38959025483E+02  0.46142318977E+02  0.10000011090E+02 0.  0.
         12    1    1    2    0    0  0.16734859110E+02  0.15206978752E+02  0.38959025483E+02  0.45045681023E+02  0.00000000000E+00 0. -1.
         11    1    3    3    0    0 -0.91046574360E+00 -0.43689709841E+01 -0.84309523200E+01  0.95392773633E+01  0.51100000000E-03 0. -1.
        -11    1    3    3    0    0 -0.58884549813E+01 -0.42495007856E+01 -0.17481694540E+02  0.18929918205E+02  0.51100000000E-03 0.  1.
         12    1    3    3    0    0 -0.99359383851E+01 -0.65885069826E+01 -0.13046378623E+02  0.17673123409E+02  0.00000000000E+00 0. -1.
</event>
<event>
 7    1  0.2227287E-008  0.4614232E+02  0.7816164E-02  0.1320468E+00
        -11   -1    0    0    0    0  0.00000000000E+00  0.00000000000E+00  0.45593999997E+02  0.45594000000E+02  0.51100000000E-03 0. -1.
         11   -1    0    0    0    0 -0.00000000000E+00 -0.00000000000E+00 -0.45593999997E+02  0.45594000000E+02  0.51100000000E-03 0.  1.
    9900012    2    1    2    0    0 -0.14552617590E+02 -0.42467060316E+02  0.37260713554E+01  0.46142317650E+02  0.99999989913E+01 0.  0.
         12    1    1    2    0    0  0.14552617590E+02  0.42467060316E+02 -0.37260713554E+01  0.45045682350E+02  0.00000000000E+00 0. -1.
         11    1    3    3    0    0  0.96047702569E+00 -0.40258339259E+01 -0.42932804985E+00  0.41610308520E+01  0.51100000000E-03 0. -1.
        -11    1    3    3    0    0 -0.11525162350E+02 -0.25753850241E+02  0.62788898185E+00  0.28222055458E+02  0.51100000000E-03 0.  1.
         12    1    3    3    0    0 -0.39879322662E+01 -0.12687376149E+02  0.35275104234E+01  0.13759231341E+02  0.00000000000E+00 0. -1.
</event>
<event>
 7    1  0.2227287E-008  0.4614232E+02  0.7816164E-02  0.1320468E+00
        -11   -1    0    0    0    0  0.00000000000E+00  0.00000000000E+00  0.45593999997E+02  0.45594000000E+02  0.51100000000E-03 0.  1.
         11   -1    0    0    0    0 -0.00000000000E+00 -0.00000000000E+00 -0.45593999997E+02  0.45594000000E+02  0.51100000000E-03 0. -1.
    9900012    2    1    2    0    0 -0.37340580195E+02 -0.69981317012E+01  0.24203734847E+02  0.46142316998E+02  0.99999930383E+01 0.  0.
         12    1    1    2    0    0  0.37340580195E+02  0.69981317012E+01 -0.24203734847E+02  0.45045683002E+02  0.00000000000E+00 0. -1.
         11    1    3    3    0    0 -0.35514498729E+01 -0.11239001073E+01 -0.42818256577E+00  0.37495717384E+01  0.51100000000E-03 0. -1.
        -11    1    3    3    0    0 -0.22373100358E+02 -0.55360292434E+01  0.15583229470E+02  0.27821579401E+02  0.51100000000E-03 0.  1.
         12    1    3    3    0    0 -0.11416029964E+02 -0.33820235060E+00  0.90486879432E+01  0.14571165858E+02  0.00000000000E+00 0. -1.
</event>
<event>
 7    1  0.2227287E-008  0.4614232E+02  0.7816164E-02  0.1320468E+00
        -11   -1    0    0    0    0  0.00000000000E+00  0.00000000000E+00  0.45593999997E+02  0.45594000000E+02  0.51100000000E-03 0.  1.
         11   -1    0    0    0    0 -0.00000000000E+00 -0.00000000000E+00 -0.45593999997E+02  0.45594000000E+02  0.51100000000E-03 0. -1.
    9900012    2    1    2    0    0  0.33717609211E+02 -0.28721773923E+01  0.29731917730E+02  0.46142317568E+02  0.99999982391E+01 0.  0.
         12    1    1    2    0    0 -0.33717609211E+02  0.28721773923E+01 -0.29731917730E+02  0.45045682432E+02  0.00000000000E+00 0. -1.
         11    1    3    3    0    0  0.72625801096E+01 -0.18210869774E+01  0.11059231437E+02  0.13355449370E+02  0.51100000000E-03 0. -1.
        -11    1    3    3    0    0  0.19507952194E+02 -0.48207458795E+00  0.16292907952E+02  0.25421476049E+02  0.51100000000E-03 0.  1.
        -12    1    3    3    0    0  0.69470769070E+01 -0.56901582700E+00  0.23797783414E+01  0.73653921496E+01  0.00000000000E+00 0.  1.
</event>
<event>
 7    1  0.2227287E-008  0.4614232E+02  0.7816164E-02  0.1320468E+00
        -11   -1    0    0    0    0  0.00000000000E+00  0.00000000000E+00  0.45593999997E+02  0.45594000000E+02  0.51100000000E-03 0.  1.
         11   -1    0    0    0    0 -0.00000000000E+00 -0.00000000000E+00 -0.45593999997E+02  0.45594000000E+02  0.51100000000E-03 0. -1.
    9900012    2    1    2    0    0 -0.26616234642E+02  0.23175221990E+02  0.27992831706E+02  0.46142317768E+02  0.10000000058E+02 0.  0.
         12    1    1    2    0    0  0.26616234642E+02 -0.23175221990E+02 -0.27992831706E+02  0.45045682232E+02  0.00000000000E+00 0. -1.
         11    1    3    3    0    0 -0.26433351856E+01  0.49474918978E+01  0.13102156801E+01  0.57603439456E+01  0.51100000000E-03 0. -1.
        -11    1    3    3    0    0 -0.82795534846E+01  0.71839230197E+01  0.77493310121E+01  0.13424302114E+02  0.51100000000E-03 0.  1.
        -12    1    3    3    0    0 -0.15693345972E+02  0.11043807073E+02  0.18933285014E+02  0.26957671708E+02  0.00000000000E+00 0.  1.
</event>
<event>
 7    1  0.2227287E-008  0.4614232E+02  0.7816164E-02  0.1320468E+00
        -11   -1    0    0    0    0  0.00000000000E+00  0.00000000000E+00  0.45593999997E+02  0.45594000000E+02  0.51100000000E-03 0.  1.
         11   -1    0    0    0    0 -0.00000000000E+00 -0.00000000000E+00 -0.45593999997E+02  0.45594000000E+02  0.51100000000E-03 0. -1.
    9900012    2    1    2    0    0 -0.31247895231E+02 -0.25245501643E+02  0.20380066271E+02  0.46142318622E+02  0.10000007854E+02 0.  0.
         12    1    1    2    0    0  0.31247895231E+02  0.25245501643E+02 -0.20380066271E+02  0.45045681378E+02  0.00000000000E+00 0. -1.
         11    1    3    3    0    0  0.51689349614E-01 -0.13786522008E+01  0.79818485184E+00  0.15938798570E+01  0.51100000000E-03 0. -1.
        -11    1    3    3    0    0 -0.64255035663E+01 -0.61132255901E+01  0.77498776853E+01  0.11777912701E+02  0.51100000000E-03 0.  1.
        -12    1    3    3    0    0 -0.24874081014E+02 -0.17753623852E+02  0.11832003734E+02  0.32770526064E+02  0.00000000000E+00 0.  1.
</event>
<event>
 7    1  0.2227287E-008  0.4614232E+02  0.7816164E-02  0.1320468E+00
        -11   -1    0    0    0    0  0.00000000000E+00  0.00000000000E+00  0.45593999997E+02  0.45594000000E+02  0.51100000000E-03 0.  1.
         11   -1    0    0    0    0 -0.00000000000E+00 -0.00000000000E+00 -0.45593999997E+02  0.45594000000E+02  0.51100000000E-03 0. -1.
    9900012    2    1    2    0    0 -0.96570140885E+01  0.28293739500E+02  0.33694509005E+02  0.46142317043E+02  0.99999934484E+01 0.  0.
         12    1    1    2    0    0  0.96570140885E+01 -0.28293739500E+02 -0.33694509005E+02  0.45045682957E+02  0.00000000000E+00 0. -1.
         11    1    3    3    0    0 -0.52813235982E+01  0.83552114097E+01  0.15921994111E+02  0.18740646558E+02  0.51100000000E-03 0. -1.
        -11    1    3    3    0    0  0.34229598202E+00  0.85455070714E+00  0.19865838694E+01  0.21895066069E+01  0.51100000000E-03 0.  1.
         12    1    3    3    0    0 -0.47179864723E+01  0.19083977383E+02  0.15785931024E+02  0.25212163878E+02  0.00000000000E+00 0. -1.
</event>
<event>
 7    1  0.2227287E-008  0.4614232E+02  0.7816164E-02  0.1320468E+00
        -11   -1    0    0    0    0  0.00000000000E+00  0.00000000000E+00  0.45593999997E+02  0.45594000000E+02  0.51100000000E-03 0.  1.
         11   -1    0    0    0    0 -0.00000000000E+00 -0.00000000000E+00 -0.45593999997E+02  0.45594000000E+02  0.51100000000E-03 0. -1.
    9900012    2    1    2    0    0 -0.32251136809E+02  0.19895329529E+02  0.24354743183E+02  0.46142317876E+02  0.10000001045E+02 0.  0.
         12    1    1    2    0    0  0.32251136809E+02 -0.19895329529E+02 -0.24354743183E+02  0.45045682124E+02  0.00000000000E+00 0. -1.
         11    1    3    3    0    0 -0.25594114007E+02  0.11501456445E+02  0.20176081983E+02  0.34560330678E+02  0.51100000000E-03 0. -1.
        -11    1    3    3    0    0 -0.96649534966E+00  0.17705709181E+01  0.34978980838E+00  0.20472879153E+01  0.51100000000E-03 0.  1.
         12    1    3    3    0    0 -0.56905274523E+01  0.66233021659E+01  0.38288713917E+01  0.95346992822E+01  0.00000000000E+00 0. -1.
</event>
<event>
 7    1  0.2227287E-008  0.4614231E+02  0.7816164E-02  0.1320468E+00
        -11   -1    0    0    0    0  0.00000000000E+00  0.00000000000E+00  0.45593999997E+02  0.45594000000E+02  0.51100000000E-03 0.  1.
         11   -1    0    0    0    0 -0.00000000000E+00 -0.00000000000E+00 -0.45593999997E+02  0.45594000000E+02  0.51100000000E-03 0. -1.
    9900012    2    1    2    0    0 -0.21356581928E+02 -0.20450122622E+02  0.33982389541E+02  0.46142313127E+02  0.99999577440E+01 0.  0.
         12    1    1    2    0    0  0.21356581928E+02  0.20450122622E+02 -0.33982389541E+02  0.45045686873E+02  0.00000000000E+00 0. -1.
         11    1    3    3    0    0 -0.64403406000E+01 -0.11085348088E+02  0.11073326755E+02  0.16940528179E+02  0.51100000000E-03 0. -1.
        -11    1    3    3    0    0 -0.65016539956E+00 -0.18509260349E+01  0.29649322917E+01  0.35552026650E+01  0.51100000000E-03 0.  1.
        -12    1    3    3    0    0 -0.14266075928E+02 -0.75138484996E+01  0.19944130494E+02  0.25646582284E+02  0.00000000000E+00 0.  1.
</event>
<event>
 7    1  0.2227287E-008  0.4614232E+02  0.7816164E-02  0.1320468E+00
        -11   -1    0    0    0    0  0.00000000000E+00  0.00000000000E+00  0.45593999997E+02  0.45594000000E+02  0.51100000000E-03 0.  1.
         11   -1    0    0    0    0 -0.00000000000E+00 -0.00000000000E+00 -0.45593999997E+02  0.45594000000E+02  0.51100000000E-03 0. -1.
    9900012    2    1    2    0    0 -0.22897969601E+01  0.91164508364E+01  0.44054065340E+02  0.46142317422E+02  0.99999969034E+01 0.  0.
         12    1    1    2    0    0  0.22897969601E+01 -0.91164508364E+01 -0.44054065340E+02  0.45045682578E+02  0.00000000000E+00 0. -1.
         11    1    3    3    0    0  0.12184659803E+01  0.22083979674E+01  0.52700165302E+01  0.58424956497E+01  0.51100000000E-03 0. -1.
        -11    1    3    3    0    0  0.22155228048E+01  0.29445658740E+01  0.18228952643E+02  0.18597680614E+02  0.51100000000E-03 0.  1.
         12    1    3    3    0    0 -0.57237857453E+01  0.39634869950E+01  0.20555096167E+02  0.21702141158E+02  0.00000000000E+00 0. -1.
</event>
<event>
 7    1  0.2227287E-008  0.4614232E+02  0.7816164E-02  0.1320468E+00
        -11   -1    0    0    0    0  0.00000000000E+00  0.00000000000E+00  0.45593999997E+02  0.45594000000E+02  0.51100000000E-03 0. -1.
         11   -1    0    0    0    0 -0.00000000000E+00 -0.00000000000E+00 -0.45593999997E+02  0.45594000000E+02  0.51100000000E-03 0.  1.
    9900012    2    1    2    0    0 -0.99439425404E+01  0.43386851711E+02  0.69146625549E+01  0.46142318155E+02  0.10000003593E+02 0.  0.
         12    1    1    2    0    0  0.99439425404E+01 -0.43386851711E+02 -0.69146625549E+01  0.45045681845E+02  0.00000000000E+00 0. -1.
         11    1    3    3    0    0  0.11752983408E+01  0.40513513100E+01 -0.92533710437E-01  0.42194000018E+01  0.51100000000E-03 0. -1.
        -11    1    3    3    0    0 -0.62395527126E+01  0.11675014126E+02  0.26251904484E+01  0.13495539932E+02  0.51100000000E-03 0.  1.
         12    1    3    3    0    0 -0.48796881686E+01  0.27660486275E+02  0.43820058170E+01  0.28427378222E+02  0.00000000000E+00 0. -1.
</event>
<event>
 7    1  0.2227287E-008  0.4614232E+02  0.7816164E-02  0.1320468E+00
        -11   -1    0    0    0    0  0.00000000000E+00  0.00000000000E+00  0.45593999997E+02  0.45594000000E+02  0.51100000000E-03 0.  1.
         11   -1    0    0    0    0 -0.00000000000E+00 -0.00000000000E+00 -0.45593999997E+02  0.45594000000E+02  0.51100000000E-03 0. -1.
    9900012    2    1    2    0    0  0.29538829734E+02  0.15319722051E+02  0.30362430854E+02  0.46142317042E+02  0.99999934418E+01 0.  0.
         12    1    1    2    0    0 -0.29538829734E+02 -0.15319722051E+02 -0.30362430854E+02  0.45045682958E+02  0.00000000000E+00 0. -1.
         11    1    3    3    0    0  0.74712648653E+01  0.49807473531E+00  0.86254550279E+01  0.11422186823E+02  0.51100000000E-03 0. -1.
        -11    1    3    3    0    0  0.62602101614E+00  0.66585471877E+00  0.23862853057E+01  0.25553126307E+01  0.51100000000E-03 0.  1.
        -12    1    3    3    0    0  0.21441543853E+02  0.14155792597E+02  0.19350690520E+02  0.32164817588E+02  0.00000000000E+00 0.  1.
</event>
<event>
 7    1  0.2227287E-008  0.4614232E+02  0.7816164E-02  0.1320468E+00
        -11   -1    0    0    0    0  0.00000000000E+00  0.00000000000E+00  0.45593999997E+02  0.45594000000E+02  0.51100000000E-03 0. -1.
         11   -1    0    0    0    0 -0.00000000000E+00 -0.00000000000E+00 -0.45593999997E+02  0.45594000000E+02  0.51100000000E-03 0.  1.
    9900012    2    1    2    0    0 -0.37479470370E+02 -0.23510420010E+02  0.84653933022E+01  0.46142318386E+02  0.10000005703E+02 0.  0.
         12    1    1    2    0    0  0.37479470370E+02  0.23510420010E+02 -0.84653933022E+01  0.45045681614E+02  0.00000000000E+00 0. -1.
         11    1    3    3    0    0 -0.19622957577E+01 -0.17001584497E+01  0.32144267889E+01  0.41320313693E+01  0.51100000000E-03 0. -1.
        -11    1    3    3    0    0 -0.11428836782E+02 -0.69404473712E+01  0.15256124176E+01  0.13457920100E+02  0.51100000000E-03 0.  1.
         12    1    3    3    0    0 -0.24088337830E+02 -0.14869814190E+02  0.37253540957E+01  0.28552366917E+02  0.00000000000E+00 0. -1.
</event>
<event>
 7    1  0.2227287E-008  0.4614232E+02  0.7816164E-02  0.1320468E+00
        -11   -1    0    0    0    0  0.00000000000E+00  0.00000000000E+00  0.45593999997E+02  0.45594000000E+02  0.51100000000E-03 0.  1.
         11   -1    0    0    0    0 -0.00000000000E+00 -0.00000000000E+00 -0.45593999997E+02  0.45594000000E+02  0.51100000000E-03 0. -1.
    9900012    2    1    2    0    0  0.39619837383E+01 -0.36600302064E+02  0.25958313627E+02  0.46142317935E+02  0.10000001587E+02 0.  0.
         12    1    1    2    0    0 -0.39619837383E+01  0.36600302064E+02 -0.25958313627E+02  0.45045682065E+02  0.00000000000E+00 0. -1.
         11    1    3    3    0    0  0.16476466898E+01 -0.29300627210E+02  0.17382716862E+02  0.34108654918E+02  0.51100000000E-03 0. -1.
        -11    1    3    3    0    0  0.22729746208E+01 -0.57206453736E+01  0.43921841723E+01  0.75619758782E+01  0.51100000000E-03 0.  1.
         12    1    3    3    0    0  0.41362427677E-01 -0.15790294803E+01  0.41834125926E+01  0.44716871391E+01  0.00000000000E+00 0. -1.
</event>
<event>
 7    1  0.2227287E-008  0.4614232E+02  0.7816164E-02  0.1320468E+00
        -11   -1    0    0    0    0  0.00000000000E+00  0.00000000000E+00  0.45593999997E+02  0.45594000000E+02  0.51100000000E-03 0.  1.
         11   -1    0    0    0    0 -0.00000000000E+00 -0.00000000000E+00 -0.45593999997E+02  0.45594000000E+02  0.51100000000E-03 0. -1.
    9900012    2    1    2    0    0  0.92462396552E+01 -0.19989573817E+02  0.39294243127E+02  0.46142317054E+02  0.99999935504E+01 0.  0.
         12    1    1    2    0    0 -0.92462396552E+01  0.19989573817E+02 -0.39294243127E+02  0.45045682946E+02  0.00000000000E+00 0. -1.
         11    1    3    3    0    0  0.40799276257E+01 -0.46012907132E+01  0.98652017504E+01  0.11624968451E+02  0.51100000000E-03 0.  1.
        -11    1    3    3    0    0  0.27046569825E+01 -0.46264764776E+00  0.30025787516E+01  0.40675166453E+01  0.51100000000E-03 0. -1.
        -12    1    3    3    0    0  0.24616550470E+01 -0.14925635456E+02  0.26426462625E+02  0.30449831957E+02  0.00000000000E+00 0.  1.
</event>
<event>
 7    1  0.2227287E-008  0.4614232E+02  0.7816164E-02  0.1320468E+00
        -11   -1    0    0    0    0  0.00000000000E+00  0.00000000000E+00  0.45593999997E+02  0.45594000000E+02  0.51100000000E-03 0.  1.
         11   -1    0    0    0    0 -0.00000000000E+00 -0.00000000000E+00 -0.45593999997E+02  0.45594000000E+02  0.51100000000E-03 0. -1.
    9900012    2    1    2    0    0  0.33619157675E+02 -0.74206030254E+01  0.29048231065E+02  0.46142324957E+02  0.10000065618E+02 0.  0.
         12    1    1    2    0    0 -0.33619157675E+02  0.74206030254E+01 -0.29048231065E+02  0.45045675043E+02  0.00000000000E+00 0. -1.
         11    1    3    3    0    0 -0.48030567655E+00  0.44012184954E+00  0.37805491607E+00  0.75321083772E+00  0.51100000000E-03 0. -1.
        -11    1    3    3    0    0  0.27600623264E+02 -0.76089160036E+01  0.22357889893E+02  0.36325820679E+02  0.51100000000E-03 0.  1.
         12    1    3    3    0    0  0.64988400882E+01 -0.25180887135E+00  0.63122862564E+01  0.90632934402E+01  0.00000000000E+00 0. -1.
</event>
<event>
 7    1  0.2227287E-008  0.4614232E+02  0.7816164E-02  0.1320468E+00
        -11   -1    0    0    0    0  0.00000000000E+00  0.00000000000E+00  0.45593999997E+02  0.45594000000E+02  0.51100000000E-03 0.  1.
         11   -1    0    0    0    0 -0.00000000000E+00 -0.00000000000E+00 -0.45593999997E+02  0.45594000000E+02  0.51100000000E-03 0. -1.
    9900012    2    1    2    0    0  0.15629520551E+02 -0.34470853105E+02 -0.24425230873E+02  0.46142317303E+02  0.99999958215E+01 0.  0.
         12    1    1    2    0    0 -0.15629520551E+02  0.34470853105E+02  0.24425230873E+02  0.45045682697E+02  0.00000000000E+00 0. -1.
         11    1    3    3    0    0  0.42915779905E+01 -0.49601039770E+01 -0.43700583174E+01  0.78814772137E+01  0.51100000000E-03 0. -1.
        -11    1    3    3    0    0  0.20671115355E+01 -0.24000734459E+01 -0.49347070393E+01  0.58638414432E+01  0.51100000000E-03 0.  1.
        -12    1    3    3    0    0  0.92708310247E+01 -0.27110675682E+02 -0.15120465517E+02  0.32396998646E+02  0.00000000000E+00 0.  1.
</event>
<event>
 7    1  0.2227287E-008  0.4614232E+02  0.7816164E-02  0.1320468E+00
        -11   -1    0    0    0    0  0.00000000000E+00  0.00000000000E+00  0.45593999997E+02  0.45594000000E+02  0.51100000000E-03 0.  1.
         11   -1    0    0    0    0 -0.00000000000E+00 -0.00000000000E+00 -0.45593999997E+02  0.45594000000E+02  0.51100000000E-03 0. -1.
    9900012    2    1    2    0    0  0.43825770156E+02 -0.93675008556E+01 -0.45459089451E+01  0.46142317741E+02  0.99999998150E+01 0.  0.
         12    1    1    2    0    0 -0.43825770156E+02  0.93675008556E+01  0.45459089451E+01  0.45045682259E+02  0.00000000000E+00 0. -1.
         11    1    3    3    0    0  0.26132088079E+02 -0.51865638339E+01 -0.74378838514E+01  0.27660596310E+02  0.51100000000E-03 0. -1.
        -11    1    3    3    0    0  0.28669028246E+01 -0.10867878285E+01  0.22232083039E-01  0.30660616622E+01  0.51100000000E-03 0.  1.
         12    1    3    3    0    0  0.14826779252E+02 -0.30941491932E+01  0.28697428233E+01  0.15415659768E+02  0.00000000000E+00 0. -1.
</event>
<event>
 7    1  0.2227287E-008  0.4614232E+02  0.7816164E-02  0.1320468E+00
        -11   -1    0    0    0    0  0.00000000000E+00  0.00000000000E+00  0.45593999997E+02  0.45594000000E+02  0.51100000000E-03 0.  1.
         11   -1    0    0    0    0 -0.00000000000E+00 -0.00000000000E+00 -0.45593999997E+02  0.45594000000E+02  0.51100000000E-03 0. -1.
    9900012    2    1    2    0    0 -0.24284657988E+02  0.37562014288E+02 -0.53351615214E+01  0.46142317861E+02  0.10000000906E+02 0.  0.
         12    1    1    2    0    0  0.24284657988E+02 -0.37562014288E+02  0.53351615214E+01  0.45045682139E+02  0.00000000000E+00 0. -1.
         11    1    3    3    0    0 -0.10914170653E+02  0.14121407671E+02 -0.23015229626E+01  0.17995285045E+02  0.51100000000E-03 0.  1.
        -11    1    3    3    0    0 -0.70098782753E+01  0.59684257447E+01  0.50079010330E+00  0.92201567391E+01  0.51100000000E-03 0. -1.
         12    1    3    3    0    0 -0.63606090599E+01  0.17472180872E+02 -0.35344286621E+01  0.18926876076E+02  0.00000000000E+00 0. -1.
</event>
<event>
 7    1  0.2227287E-008  0.4614232E+02  0.7816164E-02  0.1320468E+00
        -11   -1    0    0    0    0  0.00000000000E+00  0.00000000000E+00  0.45593999997E+02  0.45594000000E+02  0.51100000000E-03 0.  1.
         11   -1    0    0    0    0 -0.00000000000E+00 -0.00000000000E+00 -0.45593999997E+02  0.45594000000E+02  0.51100000000E-03 0. -1.
    9900012    2    1    2    0    0 -0.25326980330E+02  0.26884207273E+02  0.25785594683E+02  0.46142318448E+02  0.10000006260E+02 0.  0.
         12    1    1    2    0    0  0.25326980330E+02 -0.26884207273E+02 -0.25785594683E+02  0.45045681552E+02  0.00000000000E+00 0. -1.
         11    1    3    3    0    0 -0.16264595189E+02  0.19785409938E+02  0.14651160027E+02  0.29506880443E+02  0.51100000000E-03 0. -1.
        -11    1    3    3    0    0 -0.79583128836E+01  0.55425399168E+01  0.66420914049E+01  0.11754653171E+02  0.51100000000E-03 0.  1.
        -12    1    3    3    0    0 -0.11040722571E+01  0.15562574190E+01  0.44923432517E+01  0.48807848338E+01  0.00000000000E+00 0.  1.
</event>
<event>
 7    1  0.2227287E-008  0.4614232E+02  0.7816164E-02  0.1320468E+00
        -11   -1    0    0    0    0  0.00000000000E+00  0.00000000000E+00  0.45593999997E+02  0.45594000000E+02  0.51100000000E-03 0. -1.
         11   -1    0    0    0    0 -0.00000000000E+00 -0.00000000000E+00 -0.45593999997E+02  0.45594000000E+02  0.51100000000E-03 0.  1.
    9900012    2    1    2    0    0  0.38152280068E+02  0.15154389142E+02  0.18543500088E+02  0.46142318962E+02  0.10000010954E+02 0.  0.
         12    1    1    2    0    0 -0.38152280068E+02 -0.15154389142E+02 -0.18543500088E+02  0.45045681038E+02  0.00000000000E+00 0. -1.
         11    1    3    3    0    0  0.41132104227E+00  0.48385875614E+00  0.15015821942E+00  0.65257340406E+00  0.51100000000E-03 0. -1.
        -11    1    3    3    0    0  0.43920245649E+00  0.22455605792E+01  0.10640105773E+01  0.25234024416E+01  0.51100000000E-03 0.  1.
        -12    1    3    3    0    0  0.37301756569E+02  0.12424969807E+02  0.17329331291E+02  0.42966343117E+02  0.00000000000E+00 0.  1.
</event>
<event>
 7    1  0.2227287E-008  0.4614231E+02  0.7816164E-02  0.1320468E+00
        -11   -1    0    0    0    0  0.00000000000E+00  0.00000000000E+00  0.45593999997E+02  0.45594000000E+02  0.51100000000E-03 0.  1.
         11   -1    0    0    0    0 -0.00000000000E+00 -0.00000000000E+00 -0.45593999997E+02  0.45594000000E+02  0.51100000000E-03 0. -1.
    9900012    2    1    2    0    0  0.28578820399E+02 -0.31989881145E+01  0.34671768492E+02  0.46142311742E+02  0.99999451087E+01 0.  0.
         12    1    1    2    0    0 -0.28578820399E+02  0.31989881145E+01 -0.34671768492E+02  0.45045688258E+02  0.00000000000E+00 0. -1.
         11    1    3    3    0    0  0.15181536831E+02 -0.11841758858E+01  0.15433670160E+02  0.21681317025E+02  0.51100000000E-03 0.  1.
        -11    1    3    3    0    0  0.10551167829E+02 -0.40268664163E+01  0.12310817404E+02  0.16706256945E+02  0.51100000000E-03 0. -1.
         12    1    3    3    0    0  0.28461157382E+01  0.20120541875E+01  0.69272809279E+01  0.77547377714E+01  0.00000000000E+00 0. -1.
</event>
<event>
 7    1  0.2227287E-008  0.4614233E+02  0.7816164E-02  0.1320468E+00
        -11   -1    0    0    0    0  0.00000000000E+00  0.00000000000E+00  0.45593999997E+02  0.45594000000E+02  0.51100000000E-03 0.  1.
         11   -1    0    0    0    0 -0.00000000000E+00 -0.00000000000E+00 -0.45593999997E+02  0.45594000000E+02  0.51100000000E-03 0. -1.
    9900012    2    1    2    0    0  0.19471959557E+02  0.12163163208E+01  0.40601423907E+02  0.46142331422E+02  0.10000124568E+02 0.  0.
         12    1    1    2    0    0 -0.19471959557E+02 -0.12163163208E+01 -0.40601423907E+02  0.45045668578E+02  0.00000000000E+00 0. -1.
         11    1    3    3    0    0  0.52246229614E+01  0.62371649111E+00  0.14990057169E+02  0.15886708958E+02  0.51100000000E-03 0. -1.
        -11    1    3    3    0    0  0.13250095899E+02  0.29141996070E+01  0.22038451139E+02  0.25879546549E+02  0.51100000000E-03 0.  1.
         12    1    3    3    0    0  0.99724069641E+00 -0.23215997773E+01  0.35729155992E+01  0.43760759147E+01  0.00000000000E+00 0. -1.
</event>
<event>
 7    1  0.2227287E-008  0.4614232E+02  0.7816164E-02  0.1320468E+00
        -11   -1    0    0    0    0  0.00000000000E+00  0.00000000000E+00  0.45593999997E+02  0.45594000000E+02  0.51100000000E-03 0. -1.
         11   -1    0    0    0    0 -0.00000000000E+00 -0.00000000000E+00 -0.45593999997E+02  0.45594000000E+02  0.51100000000E-03 0.  1.
    9900012    2    1    2    0    0 -0.25743677000E+01  0.44464298937E+02  0.67388546496E+01  0.46142318620E+02  0.10000007831E+02 0.  0.
         12    1    1    2    0    0  0.25743677000E+01 -0.44464298937E+02 -0.67388546496E+01  0.45045681380E+02  0.00000000000E+00 0. -1.
         11    1    3    3    0    0  0.62252533021E+00  0.63523745620E+00 -0.10484160795E+01  0.13748603382E+01  0.51100000000E-03 0. -1.
        -11    1    3    3    0    0  0.48124911117E+00  0.45104862747E+01  0.10729386761E+00  0.45373559896E+01  0.51100000000E-03 0.  1.
         12    1    3    3    0    0 -0.36781421414E+01  0.39318575206E+02  0.76799768616E+01  0.40230102292E+02  0.00000000000E+00 0. -1.
</event>
<event>
 7    1  0.2227287E-008  0.4614232E+02  0.7816164E-02  0.1320468E+00
        -11   -1    0    0    0    0  0.00000000000E+00  0.00000000000E+00  0.45593999997E+02  0.45594000000E+02  0.51100000000E-03 0.  1.
         11   -1    0    0    0    0 -0.00000000000E+00 -0.00000000000E+00 -0.45593999997E+02  0.45594000000E+02  0.51100000000E-03 0. -1.
    9900012    2    1    2    0    0  0.88753473870E+01 -0.10948105961E+02  0.42784117501E+02  0.46142317347E+02  0.99999962209E+01 0.  0.
         12    1    1    2    0    0 -0.88753473870E+01  0.10948105961E+02 -0.42784117501E+02  0.45045682653E+02  0.00000000000E+00 0. -1.
         11    1    3    3    0    0  0.21420278078E+01 -0.60831341865E+00  0.54582939973E+01  0.58950234917E+01  0.51100000000E-03 0. -1.
        -11    1    3    3    0    0  0.44275364842E+01 -0.19892544823E+01  0.58521533850E+01  0.76031514662E+01  0.51100000000E-03 0.  1.
        -12    1    3    3    0    0  0.23057830949E+01 -0.83505380597E+01  0.31473670119E+02  0.32644142389E+02  0.00000000000E+00 0.  1.
</event>
<event>
 7    1  0.2227287E-008  0.4614232E+02  0.7816164E-02  0.1320468E+00
        -11   -1    0    0    0    0  0.00000000000E+00  0.00000000000E+00  0.45593999997E+02  0.45594000000E+02  0.51100000000E-03 0.  1.
         11   -1    0    0    0    0 -0.00000000000E+00 -0.00000000000E+00 -0.45593999997E+02  0.45594000000E+02  0.51100000000E-03 0. -1.
    9900012    2    1    2    0    0  0.37663982015E+02 -0.17164001391E+02  0.17774561031E+02  0.46142317578E+02  0.99999983332E+01 0.  0.
         12    1    1    2    0    0 -0.37663982015E+02  0.17164001391E+02 -0.17774561031E+02  0.45045682422E+02  0.00000000000E+00 0. -1.
         11    1    3    3    0    0  0.80734906995E+01 -0.12110903266E+01  0.17196778207E+01  0.83429781207E+01  0.51100000000E-03 0. -1.
        -11    1    3    3    0    0  0.29334730154E+02 -0.14630900819E+02  0.15931271193E+02  0.36447154266E+02  0.51100000000E-03 0.  1.
        -12    1    3    3    0    0  0.25576116128E+00 -0.13220102457E+01  0.12361201676E+00  0.13521851915E+01  0.00000000000E+00 0.  1.
</event>
<event>
 7    1  0.2227287E-008  0.4614232E+02  0.7816164E-02  0.1320468E+00
        -11   -1    0    0    0    0  0.00000000000E+00  0.00000000000E+00  0.45593999997E+02  0.45594000000E+02  0.51100000000E-03 0.  1.
         11   -1    0    0    0    0 -0.00000000000E+00 -0.00000000000E+00 -0.45593999997E+02  0.45594000000E+02  0.51100000000E-03 0. -1.
    9900012    2    1    2    0    0 -0.30235474945E+02  0.32209108926E+02  0.88035714134E+01  0.46142317492E+02  0.99999975477E+01 0.  0.
         12    1    1    2    0    0  0.30235474945E+02 -0.32209108926E+02 -0.88035714134E+01  0.45045682508E+02  0.00000000000E+00 0. -1.
         11    1    3    3    0    0 -0.91538287133E+01  0.73985944932E+01  0.10039607198E+01  0.11812693087E+02  0.51100000000E-03 0. -1.
        -11    1    3    3    0    0 -0.16063945832E+02  0.17704546837E+02  0.90084069118E+01  0.25547068908E+02  0.51100000000E-03 0.  1.
         12    1    3    3    0    0 -0.50177003999E+01  0.71059675950E+01 -0.12087962182E+01  0.87825554972E+01  0.00000000000E+00 0. -1.
</event>
<event>
 7    1  0.2227287E-008  0.4614232E+02  0.7816164E-02  0.1320468E+00
        -11   -1    0    0    0    0  0.00000000000E+00  0.00000000000E+00  0.45593999997E+02  0.45594000000E+02  0.51100000000E-03 0. -1.
         11   -1    0    0    0    0 -0.00000000000E+00 -0.00000000000E+00 -0.45593999997E+02  0.45594000000E+02  0.51100000000E-03 0.  1.
    9900012    2    1    2    0    0  0.23879282754E+02  0.36363615954E+02 -0.11686776938E+02  0.46142318017E+02  0.10000002336E+02 0.  0.
         12    1    1    2    0    0 -0.23879282754E+02 -0.36363615954E+02  0.11686776938E+02  0.45045681983E+02  0.00000000000E+00 0. -1.
         11    1    3    3    0    0  0.16059723994E+02  0.23884933281E+02 -0.95041578634E+01  0.30310621728E+02  0.51100000000E-03 0. -1.
        -11    1    3    3    0    0  0.43603597021E+01  0.11152988801E+02 -0.15931586241E+01  0.12080564995E+02  0.51100000000E-03 0.  1.
        -12    1    3    3    0    0  0.34591990579E+01  0.13256938717E+01 -0.58946045013E+00  0.37511312942E+01  0.00000000000E+00 0.  1.
</event>
<event>
 7    1  0.2227287E-008  0.4614232E+02  0.7816164E-02  0.1320468E+00
        -11   -1    0    0    0    0  0.00000000000E+00  0.00000000000E+00  0.45593999997E+02  0.45594000000E+02  0.51100000000E-03 0.  1.
         11   -1    0    0    0    0 -0.00000000000E+00 -0.00000000000E+00 -0.45593999997E+02  0.45594000000E+02  0.51100000000E-03 0. -1.
    9900012    2    1    2    0    0  0.14894612817E+02  0.40513213473E+02  0.12881909041E+02  0.46142317217E+02  0.99999950342E+01 0.  0.
         12    1    1    2    0    0 -0.14894612817E+02 -0.40513213473E+02 -0.12881909041E+02  0.45045682783E+02  0.00000000000E+00 0. -1.
         11    1    3    3    0    0  0.38242587980E+00  0.42160928801E+01  0.38636386793E+01  0.57314389845E+01  0.51100000000E-03 0. -1.
        -11    1    3    3    0    0  0.57373545804E+01  0.11269470394E+02  0.91363574023E+00  0.12678837923E+02  0.51100000000E-03 0.  1.
         12    1    3    3    0    0  0.87748323569E+01  0.25027650199E+02  0.81046346216E+01  0.27732040309E+02  0.00000000000E+00 0. -1.
</event>
<event>
 7    1  0.2227287E-008  0.4614232E+02  0.7816164E-02  0.1320468E+00
        -11   -1    0    0    0    0  0.00000000000E+00  0.00000000000E+00  0.45593999997E+02  0.45594000000E+02  0.51100000000E-03 0.  1.
         11   -1    0    0    0    0 -0.00000000000E+00 -0.00000000000E+00 -0.45593999997E+02  0.45594000000E+02  0.51100000000E-03 0. -1.
    9900012    2    1    2    0    0 -0.18197865800E+02 -0.23947778663E+02  0.33532895167E+02  0.46142317845E+02  0.10000000762E+02 0.  0.
         12    1    1    2    0    0  0.18197865800E+02  0.23947778663E+02 -0.33532895167E+02  0.45045682155E+02  0.00000000000E+00 0. -1.
         11    1    3    3    0    0 -0.82444417385E+01 -0.10144594456E+02  0.11552450402E+02  0.17445421371E+02  0.51100000000E-03 0. -1.
        -11    1    3    3    0    0 -0.33798201279E+01 -0.81931286933E+00  0.21123069699E+01  0.40689431885E+01  0.51100000000E-03 0.  1.
        -12    1    3    3    0    0 -0.65736039336E+01 -0.12983871338E+02  0.19868137795E+02  0.24627953285E+02  0.00000000000E+00 0.  1.
</event>
<event>
 7    1  0.2227287E-008  0.4614232E+02  0.7816164E-02  0.1320468E+00
        -11   -1    0    0    0    0  0.00000000000E+00  0.00000000000E+00  0.45593999997E+02  0.45594000000E+02  0.51100000000E-03 0.  1.
         11   -1    0    0    0    0 -0.00000000000E+00 -0.00000000000E+00 -0.45593999997E+02  0.45594000000E+02  0.51100000000E-03 0. -1.
    9900012    2    1    2    0    0 -0.19671839799E+02  0.38385190435E+02  0.12988815458E+02  0.46142318156E+02  0.10000003597E+02 0.  0.
         12    1    1    2    0    0  0.19671839799E+02 -0.38385190435E+02 -0.12988815458E+02  0.45045681844E+02  0.00000000000E+00 0. -1.
         11    1    3    3    0    0 -0.99685322048E+01  0.26217900131E+02  0.71190882351E+01  0.28938405954E+02  0.51100000000E-03 0. -1.
        -11    1    3    3    0    0 -0.10151027257E+01  0.42678773554E+01  0.10503785046E+01  0.45109318249E+01  0.51100000000E-03 0.  1.
         12    1    3    3    0    0 -0.86882048682E+01  0.78994129485E+01  0.48193487188E+01  0.12692980376E+02  0.00000000000E+00 0. -1.
</event>
<event>
 7    1  0.2227287E-008  0.4614232E+02  0.7816164E-02  0.1320468E+00
        -11   -1    0    0    0    0  0.00000000000E+00  0.00000000000E+00  0.45593999997E+02  0.45594000000E+02  0.51100000000E-03 0.  1.
         11   -1    0    0    0    0 -0.00000000000E+00 -0.00000000000E+00 -0.45593999997E+02  0.45594000000E+02  0.51100000000E-03 0. -1.
    9900012    2    1    2    0    0  0.16764729164E+01 -0.23947670909E+01  0.44950727696E+02  0.46142318839E+02  0.10000009831E+02 0.  0.
         12    1    1    2    0    0 -0.16764729164E+01  0.23947670909E+01 -0.44950727696E+02  0.45045681161E+02  0.00000000000E+00 0. -1.
         11    1    3    3    0    0 -0.88764265215E+00 -0.33092953318E+01  0.32995798528E+02  0.33173213077E+02  0.51100000000E-03 0. -1.
        -11    1    3    3    0    0 -0.60760516497E-01  0.19710723351E+01  0.68984497879E+01  0.71747771901E+01  0.51100000000E-03 0.  1.
         12    1    3    3    0    0  0.26248760850E+01 -0.10565440943E+01  0.50564793797E+01  0.57943285722E+01  0.00000000000E+00 0. -1.
</event>
<event>
 7    1  0.2227287E-008  0.4614232E+02  0.7816164E-02  0.1320468E+00
        -11   -1    0    0    0    0  0.00000000000E+00  0.00000000000E+00  0.45593999997E+02  0.45594000000E+02  0.51100000000E-03 0.  1.
         11   -1    0    0    0    0 -0.00000000000E+00 -0.00000000000E+00 -0.45593999997E+02  0.45594000000E+02  0.51100000000E-03 0. -1.
    9900012    2    1    2    0    0 -0.13481921410E+02 -0.42870813227E+02  0.30732349047E+01  0.46142316473E+02  0.99999882504E+01 0.  0.
         12    1    1    2    0    0  0.13481921410E+02  0.42870813227E+02 -0.30732349047E+01  0.45045683527E+02  0.00000000000E+00 0. -1.
         11    1    3    3    0    0 -0.16432172128E+01 -0.65852426759E+01  0.33240452089E+01  0.75574374440E+01  0.51100000000E-03 0. -1.
        -11    1    3    3    0    0 -0.91551463277E+01 -0.19562214739E+02  0.81666091491E+00  0.21613974301E+02  0.51100000000E-03 0.  1.
         12    1    3    3    0    0 -0.26835578695E+01 -0.16723355813E+02 -0.10674712191E+01  0.16970904728E+02  0.00000000000E+00 0. -1.
</event>
<event>
 7    1  0.2227287E-008  0.4614232E+02  0.7816164E-02  0.1320468E+00
        -11   -1    0    0    0    0  0.00000000000E+00  0.00000000000E+00  0.45593999997E+02  0.45594000000E+02  0.51100000000E-03 0.  1.
         11   -1    0    0    0    0 -0.00000000000E+00 -0.00000000000E+00 -0.45593999997E+02  0.45594000000E+02  0.51100000000E-03 0. -1.
    9900012    2    1    2    0    0  0.12075535903E+01  0.25031283868E+02  0.37431139047E+02  0.46142317320E+02  0.99999959732E+01 0.  0.
         12    1    1    2    0    0 -0.12075535903E+01 -0.25031283868E+02 -0.37431139047E+02  0.45045682680E+02  0.00000000000E+00 0. -1.
         11    1    3    3    0    0  0.20907371850E+00  0.15256637817E+02  0.29305330203E+02  0.33039538251E+02  0.51100000000E-03 0. -1.
        -11    1    3    3    0    0  0.95458772571E-01  0.85963750342E+01  0.77427194508E+01  0.11569636159E+02  0.51100000000E-03 0.  1.
         12    1    3    3    0    0  0.90302109923E+00  0.11782710175E+01  0.38308939391E+00  0.15331429092E+01  0.00000000000E+00 0. -1.
</event>
<event>
 7    1  0.2227287E-008  0.4614232E+02  0.7816164E-02  0.1320468E+00
        -11   -1    0    0    0    0  0.00000000000E+00  0.00000000000E+00  0.45593999997E+02  0.45594000000E+02  0.51100000000E-03 0. -1.
         11   -1    0    0    0    0 -0.00000000000E+00 -0.00000000000E+00 -0.45593999997E+02  0.45594000000E+02  0.51100000000E-03 0.  1.
    9900012    2    1    2    0    0  0.38200839787E+02 -0.11772061335E+02 -0.20766027888E+02  0.46142317601E+02  0.99999985445E+01 0.  0.
         12    1    1    2    0    0 -0.38200839787E+02  0.11772061335E+02  0.20766027888E+02  0.45045682399E+02  0.00000000000E+00 0. -1.
         11    1    3    3    0    0  0.95505032503E+01  0.87232088754E+00 -0.51167203606E+01  0.10869861249E+02  0.51100000000E-03 0. -1.
        -11    1    3    3    0    0  0.93850977194E+01 -0.33273589906E+01 -0.70926888030E+01  0.12225285754E+02  0.51100000000E-03 0.  1.
         12    1    3    3    0    0  0.19265238817E+02 -0.93170232317E+01 -0.85566187248E+01  0.23047170598E+02  0.00000000000E+00 0. -1.
</event>
<event>
 7    1  0.2227287E-008  0.4614232E+02  0.7816164E-02  0.1320468E+00
        -11   -1    0    0    0    0  0.00000000000E+00  0.00000000000E+00  0.45593999997E+02  0.45594000000E+02  0.51100000000E-03 0. -1.
         11   -1    0    0    0    0 -0.00000000000E+00 -0.00000000000E+00 -0.45593999997E+02  0.45594000000E+02  0.51100000000E-03 0.  1.
    9900012    2    1    2    0    0  0.10706991622E+02  0.37563423940E+02 -0.22437980221E+02  0.46142318253E+02  0.10000004486E+02 0.  0.
         12    1    1    2    0    0 -0.10706991622E+02 -0.37563423940E+02  0.22437980221E+02  0.45045681747E+02  0.00000000000E+00 0. -1.
         11    1    3    3    0    0  0.18157047476E+01  0.63468129375E+00 -0.45673836650E+00  0.19769204010E+01  0.51100000000E-03 0. -1.
        -11    1    3    3    0    0  0.38393640155E+01  0.25528538929E+02 -0.14121112198E+02  0.29425377242E+02  0.51100000000E-03 0.  1.
        -12    1    3    3    0    0  0.50519228588E+01  0.11400203717E+02 -0.78601296564E+01  0.14740020610E+02  0.00000000000E+00 0.  1.
</event>
<event>
 7    1  0.2227287E-008  0.4614232E+02  0.7816164E-02  0.1320468E+00
        -11   -1    0    0    0    0  0.00000000000E+00  0.00000000000E+00  0.45593999997E+02  0.45594000000E+02  0.51100000000E-03 0. -1.
         11   -1    0    0    0    0 -0.00000000000E+00 -0.00000000000E+00 -0.45593999997E+02  0.45594000000E+02  0.51100000000E-03 0.  1.
    9900012    2    1    2    0    0  0.28112126785E+02  0.31971372034E+02  0.14719144712E+02  0.46142317375E+02  0.99999964811E+01 0.  0.
         12    1    1    2    0    0 -0.28112126785E+02 -0.31971372034E+02 -0.14719144712E+02  0.45045682625E+02  0.00000000000E+00 0. -1.
         11    1    3    3    0    0  0.48412679099E+01  0.70735225992E+01 -0.25479115806E+00  0.85754017826E+01  0.51100000000E-03 0. -1.
        -11    1    3    3    0    0  0.17492988225E+02  0.17926431000E+02  0.85548227551E+01  0.26467840072E+02  0.51100000000E-03 0.  1.
         12    1    3    3    0    0  0.57778706492E+01  0.69714184352E+01  0.64191131145E+01  0.11099075521E+02  0.00000000000E+00 0. -1.
</event>
<event>
 7    1  0.2227287E-008  0.4614232E+02  0.7816164E-02  0.1320468E+00
        -11   -1    0    0    0    0  0.00000000000E+00  0.00000000000E+00  0.45593999997E+02  0.45594000000E+02  0.51100000000E-03 0.  1.
         11   -1    0    0    0    0 -0.00000000000E+00 -0.00000000000E+00 -0.45593999997E+02  0.45594000000E+02  0.51100000000E-03 0. -1.
    9900012    2    1    2    0    0 -0.23299628095E+02  0.19799331258E+02  0.33079108464E+02  0.46142316473E+02  0.99999882556E+01 0.  0.
         12    1    1    2    0    0  0.23299628095E+02 -0.19799331258E+02 -0.33079108464E+02  0.45045683527E+02  0.00000000000E+00 0. -1.
         11    1    3    3    0    0 -0.20246071701E+01  0.10698565706E+01  0.37173315483E+00  0.23198735040E+01  0.51100000000E-03 0. -1.
        -11    1    3    3    0    0 -0.73758674655E+01  0.33105945439E+01  0.64010361233E+01  0.10311969783E+02  0.51100000000E-03 0.  1.
         12    1    3    3    0    0 -0.13899153459E+02  0.15418880143E+02  0.26306339186E+02  0.33510473186E+02  0.00000000000E+00 0. -1.
</event>
<event>
 7    1  0.2227287E-008  0.4614232E+02  0.7816164E-02  0.1320468E+00
        -11   -1    0    0    0    0  0.00000000000E+00  0.00000000000E+00  0.45593999997E+02  0.45594000000E+02  0.51100000000E-03 0.  1.
         11   -1    0    0    0    0 -0.00000000000E+00 -0.00000000000E+00 -0.45593999997E+02  0.45594000000E+02  0.51100000000E-03 0. -1.
    9900012    2    1    2    0    0  0.40244243644E+02  0.77076267705E+01  0.18711143080E+02  0.46142317273E+02  0.99999955517E+01 0.  0.
         12    1    1    2    0    0 -0.40244243644E+02 -0.77076267705E+01 -0.18711143080E+02  0.45045682727E+02  0.00000000000E+00 0. -1.
         11    1    3    3    0    0  0.28560257491E+02  0.53389301710E+01  0.12918169921E+02  0.31797352054E+02  0.51100000000E-03 0. -1.
        -11    1    3    3    0    0  0.11945114583E+02  0.30882773608E+01  0.56328628032E+01  0.13562903933E+02  0.51100000000E-03 0.  1.
         12    1    3    3    0    0 -0.26112842980E+00 -0.71958076136E+00  0.16011035624E+00  0.78206128605E+00  0.00000000000E+00 0. -1.
</event>
<event>
 7    1  0.2227287E-008  0.4614232E+02  0.7816164E-02  0.1320468E+00
        -11   -1    0    0    0    0  0.00000000000E+00  0.00000000000E+00  0.45593999997E+02  0.45594000000E+02  0.51100000000E-03 0.  1.
         11   -1    0    0    0    0 -0.00000000000E+00 -0.00000000000E+00 -0.45593999997E+02  0.45594000000E+02  0.51100000000E-03 0. -1.
    9900012    2    1    2    0    0 -0.32421213872E+01 -0.18105644265E+02  0.41119190239E+02  0.46142317507E+02  0.99999976851E+01 0.  0.
         12    1    1    2    0    0  0.32421213872E+01  0.18105644265E+02 -0.41119190239E+02  0.45045682493E+02  0.00000000000E+00 0. -1.
         11    1    3    3    0    0  0.13956754349E+00 -0.72240125392E+01  0.71630837710E+01  0.10174261921E+02  0.51100000000E-03 0. -1.
        -11    1    3    3    0    0 -0.30758703488E+01 -0.52728058108E+01  0.14919644992E+02  0.16120150944E+02  0.51100000000E-03 0.  1.
         12    1    3    3    0    0 -0.30581858192E+00 -0.56088259148E+01  0.19036461476E+02  0.19847904642E+02  0.00000000000E+00 0. -1.
</event>
<event>
 7    1  0.2227287E-008  0.4614232E+02  0.7816164E-02  0.1320468E+00
        -11   -1    0    0    0    0  0.00000000000E+00  0.00000000000E+00  0.45593999997E+02  0.45594000000E+02  0.51100000000E-03 0.  1.
         11   -1    0    0    0    0 -0.00000000000E+00 -0.00000000000E+00 -0.45593999997E+02  0.45594000000E+02  0.51100000000E-03 0. -1.
    9900012    2    1    2    0    0  0.92530429668E+01  0.44023138125E+02  0.23362316547E+01  0.46142317933E+02  0.10000001570E+02 0.  0.
         12    1    1    2    0    0 -0.92530429668E+01 -0.44023138125E+02 -0.23362316547E+01  0.45045682067E+02  0.00000000000E+00 0. -1.
         11    1    3    3    0    0  0.77051958492E+01  0.17796264626E+02  0.17303471795E+01  0.19469750366E+02  0.51100000000E-03 0. -1.
        -11    1    3    3    0    0 -0.47100817606E+00  0.11054202667E+01  0.84505888998E+00  0.14689885829E+01  0.51100000000E-03 0.  1.
        -12    1    3    3    0    0  0.20188552937E+01  0.25121453232E+02 -0.23917441482E+00  0.25203578984E+02  0.00000000000E+00 0.  1.
</event>
<event>
 7    1  0.2227287E-008  0.4614232E+02  0.7816164E-02  0.1320468E+00
        -11   -1    0    0    0    0  0.00000000000E+00  0.00000000000E+00  0.45593999997E+02  0.45594000000E+02  0.51100000000E-03 0.  1.
         11   -1    0    0    0    0 -0.00000000000E+00 -0.00000000000E+00 -0.45593999997E+02  0.45594000000E+02  0.51100000000E-03 0. -1.
    9900012    2    1    2    0    0  0.17186051046E+01  0.39392491160E+02  0.21780531383E+02  0.46142317514E+02  0.99999977487E+01 0.  0.
         12    1    1    2    0    0 -0.17186051046E+01 -0.39392491160E+02 -0.21780531383E+02  0.45045682486E+02  0.00000000000E+00 0. -1.
         11    1    3    3    0    0  0.88853290598E+00  0.11585435587E+02  0.22810286609E+01  0.11841237287E+02  0.51100000000E-03 0. -1.
        -11    1    3    3    0    0 -0.13308160783E+01  0.14329829038E+02  0.80790823805E+01  0.16504140210E+02  0.51100000000E-03 0.  1.
        -12    1    3    3    0    0  0.21608882769E+01  0.13477226535E+02  0.11420420342E+02  0.17796940018E+02  0.00000000000E+00 0.  1.
</event>
<event>
 7    1  0.2227287E-008  0.4614232E+02  0.7816164E-02  0.1320468E+00
        -11   -1    0    0    0    0  0.00000000000E+00  0.00000000000E+00  0.45593999997E+02  0.45594000000E+02  0.51100000000E-03 0. -1.
         11   -1    0    0    0    0 -0.00000000000E+00 -0.00000000000E+00 -0.45593999997E+02  0.45594000000E+02  0.51100000000E-03 0.  1.
    9900012    2    1    2    0    0  0.41960260892E+02  0.65059046231E+01 -0.15037391341E+02  0.46142318438E+02  0.10000006168E+02 0.  0.
         12    1    1    2    0    0 -0.41960260892E+02 -0.65059046231E+01  0.15037391341E+02  0.45045681562E+02  0.00000000000E+00 0. -1.
         11    1    3    3    0    0  0.17230865107E+02 -0.39682575079E+00 -0.71426756580E+01  0.18656848577E+02  0.51100000000E-03 0. -1.
        -11    1    3    3    0    0  0.19680971839E+02  0.60671278871E+01 -0.86030458793E+01  0.22319567469E+02  0.51100000000E-03 0.  1.
         12    1    3    3    0    0  0.50484239456E+01  0.83560248682E+00  0.70833019658E+00  0.51659023914E+01  0.00000000000E+00 0. -1.
</event>
<event>
 7    1  0.2227287E-008  0.4614232E+02  0.7816164E-02  0.1320468E+00
        -11   -1    0    0    0    0  0.00000000000E+00  0.00000000000E+00  0.45593999997E+02  0.45594000000E+02  0.51100000000E-03 0. -1.
         11   -1    0    0    0    0 -0.00000000000E+00 -0.00000000000E+00 -0.45593999997E+02  0.45594000000E+02  0.51100000000E-03 0.  1.
    9900012    2    1    2    0    0  0.10842809331E+02  0.16655901185E+02 -0.40424348308E+02  0.46142317692E+02  0.99999993682E+01 0.  0.
         12    1    1    2    0    0 -0.10842809331E+02 -0.16655901185E+02  0.40424348308E+02  0.45045682308E+02  0.00000000000E+00 0. -1.
         11    1    3    3    0    0  0.63336194585E+01  0.49940138444E+01 -0.10752441937E+02  0.13441351033E+02  0.51100000000E-03 0. -1.
        -11    1    3    3    0    0  0.42907319946E+01  0.37922304067E+01 -0.10195058504E+02  0.11693186506E+02  0.51100000000E-03 0.  1.
         12    1    3    3    0    0  0.21845787804E+00  0.78696569343E+01 -0.19476847868E+02  0.21007780153E+02  0.00000000000E+00 0. -1.
</event>
<event>
 7    1  0.2227287E-008  0.4614232E+02  0.7816164E-02  0.1320468E+00
        -11   -1    0    0    0    0  0.00000000000E+00  0.00000000000E+00  0.45593999997E+02  0.45594000000E+02  0.51100000000E-03 0. -1.
         11   -1    0    0    0    0 -0.00000000000E+00 -0.00000000000E+00 -0.45593999997E+02  0.45594000000E+02  0.51100000000E-03 0.  1.
    9900012    2    1    2    0    0 -0.37989557290E+02 -0.19618725281E+02 -0.14177891330E+02  0.46142318217E+02  0.10000004154E+02 0.  0.
         12    1    1    2    0    0  0.37989557290E+02  0.19618725281E+02  0.14177891330E+02  0.45045681783E+02  0.00000000000E+00 0. -1.
         11    1    3    3    0    0 -0.20116070195E+02 -0.73731533296E+01 -0.45690675734E+01  0.21906529823E+02  0.51100000000E-03 0. -1.
        -11    1    3    3    0    0 -0.14718422965E+02 -0.91238660503E+01 -0.54523713759E+01  0.18155034017E+02  0.51100000000E-03 0.  1.
         12    1    3    3    0    0 -0.31550641304E+01 -0.31217059014E+01 -0.41564523809E+01  0.60807543773E+01  0.00000000000E+00 0. -1.
</event>
<event>
 7    1  0.2227287E-008  0.4614232E+02  0.7816164E-02  0.1320468E+00
        -11   -1    0    0    0    0  0.00000000000E+00  0.00000000000E+00  0.45593999997E+02  0.45594000000E+02  0.51100000000E-03 0.  1.
         11   -1    0    0    0    0 -0.00000000000E+00 -0.00000000000E+00 -0.45593999997E+02  0.45594000000E+02  0.51100000000E-03 0. -1.
    9900012    2    1    2    0    0 -0.40138994204E+02 -0.13281730986E+01  0.20401229894E+02  0.46142322287E+02  0.10000041267E+02 0.  0.
         12    1    1    2    0    0  0.40138994204E+02  0.13281730986E+01 -0.20401229894E+02  0.45045677713E+02  0.00000000000E+00 0. -1.
         11    1    3    3    0    0 -0.16101473782E+01  0.10084701967E+01  0.16973852471E+01  0.25476859413E+01  0.51100000000E-03 0. -1.
        -11    1    3    3    0    0 -0.24132747290E+01  0.15418293385E+01  0.25761406561E+01  0.38519648970E+01  0.51100000000E-03 0.  1.
        -12    1    3    3    0    0 -0.36115572097E+02 -0.38784726338E+01  0.16127703990E+02  0.39742671448E+02  0.00000000000E+00 0.  1.
</event>
<event>
 7    1  0.2227287E-008  0.4614233E+02  0.7816164E-02  0.1320468E+00
        -11   -1    0    0    0    0  0.00000000000E+00  0.00000000000E+00  0.45593999997E+02  0.45594000000E+02  0.51100000000E-03 0.  1.
         11   -1    0    0    0    0 -0.00000000000E+00 -0.00000000000E+00 -0.45593999997E+02  0.45594000000E+02  0.51100000000E-03 0. -1.
    9900012    2    1    2    0    0  0.66520184634E+01 -0.40486479716E+02  0.18593229439E+02  0.46142327950E+02  0.10000092910E+02 0.  0.
         12    1    1    2    0    0 -0.66520184634E+01  0.40486479716E+02 -0.18593229439E+02  0.45045672050E+02  0.00000000000E+00 0. -1.
         11    1    3    3    0    0  0.38440023977E+01 -0.19253687542E+02  0.81903704429E+01  0.21273528308E+02  0.51100000000E-03 0. -1.
        -11    1    3    3    0    0  0.39456900245E+01 -0.65218139040E+01  0.19654110127E+01  0.78718083740E+01  0.51100000000E-03 0.  1.
        -12    1    3    3    0    0 -0.11376739588E+01 -0.14710978270E+02  0.84374479833E+01  0.16996991268E+02  0.00000000000E+00 0.  1.
</event>
<event>
 7    1  0.2227287E-008  0.4614232E+02  0.7816164E-02  0.1320468E+00
        -11   -1    0    0    0    0  0.00000000000E+00  0.00000000000E+00  0.45593999997E+02  0.45594000000E+02  0.51100000000E-03 0. -1.
         11   -1    0    0    0    0 -0.00000000000E+00 -0.00000000000E+00 -0.45593999997E+02  0.45594000000E+02  0.51100000000E-03 0.  1.
    9900012    2    1    2    0    0  0.20953301086E+02  0.34865177270E+02  0.19351798598E+02  0.46142317394E+02  0.99999966542E+01 0.  0.
         12    1    1    2    0    0 -0.20953301086E+02 -0.34865177270E+02 -0.19351798598E+02  0.45045682606E+02  0.00000000000E+00 0. -1.
         11    1    3    3    0    0 -0.14964092859E+00  0.18067010352E+00 -0.54671641005E-01  0.24088035052E+00  0.51100000000E-03 0. -1.
        -11    1    3    3    0    0  0.17929946159E+01  0.58411413666E+01 -0.49072272966E-01  0.61103330929E+01  0.51100000000E-03 0.  1.
        -12    1    3    3    0    0  0.19309947398E+02  0.28843365800E+02  0.19455542512E+02  0.39791103951E+02  0.00000000000E+00 0.  1.
</event>
<event>
 7    1  0.2227287E-008  0.4614232E+02  0.7816164E-02  0.1320468E+00
        -11   -1    0    0    0    0  0.00000000000E+00  0.00000000000E+00  0.45593999997E+02  0.45594000000E+02  0.51100000000E-03 0.  1.
         11   -1    0    0    0    0 -0.00000000000E+00 -0.00000000000E+00 -0.45593999997E+02  0.45594000000E+02  0.51100000000E-03 0. -1.
    9900012    2    1    2    0    0 -0.23759270091E+02 -0.20999791315E+02  0.31994051963E+02  0.46142317504E+02  0.99999976554E+01 0.  0.
         12    1    1    2    0    0  0.23759270091E+02  0.20999791315E+02 -0.31994051963E+02  0.45045682496E+02  0.00000000000E+00 0. -1.
         11    1    3    3    0    0 -0.23342743633E+01 -0.60168657838E+01  0.71082944770E+01  0.96010083479E+01  0.51100000000E-03 0. -1.
        -11    1    3    3    0    0 -0.11217107837E+02 -0.11239747599E+02  0.15137679430E+02  0.21938659328E+02  0.51100000000E-03 0.  1.
         12    1    3    3    0    0 -0.10207887891E+02 -0.37431779318E+01  0.97480780553E+01  0.14602649828E+02  0.00000000000E+00 0. -1.
</event>
<event>
 7    1  0.2227287E-008  0.4614231E+02  0.7816164E-02  0.1320468E+00
        -11   -1    0    0    0    0  0.00000000000E+00  0.00000000000E+00  0.45593999997E+02  0.45594000000E+02  0.51100000000E-03 0. -1.
         11   -1    0    0    0    0 -0.00000000000E+00 -0.00000000000E+00 -0.45593999997E+02  0.45594000000E+02  0.51100000000E-03 0.  1.
    9900012    2    1    2    0    0  0.25642664523E+02 -0.11221610539E+02 -0.35293668636E+02  0.46142313939E+02  0.99999651430E+01 0.  0.
         12    1    1    2    0    0 -0.25642664523E+02  0.11221610539E+02  0.35293668636E+02  0.45045686061E+02  0.00000000000E+00 0. -1.
         11    1    3    3    0    0  0.46526692039E+01 -0.27200266611E+01 -0.42915382661E+01  0.68893524157E+01  0.51100000000E-03 0.  1.
        -11    1    3    3    0    0  0.64476803667E+00  0.11212575920E+01 -0.34036113819E+01  0.36410870779E+01  0.51100000000E-03 0. -1.
         12    1    3    3    0    0  0.20345227283E+02 -0.96228414695E+01 -0.27598518988E+02  0.35611874445E+02  0.00000000000E+00 0. -1.
</event>
<event>
 7    1  0.2227287E-008  0.4614232E+02  0.7816164E-02  0.1320468E+00
        -11   -1    0    0    0    0  0.00000000000E+00  0.00000000000E+00  0.45593999997E+02  0.45594000000E+02  0.51100000000E-03 0.  1.
         11   -1    0    0    0    0 -0.00000000000E+00 -0.00000000000E+00 -0.45593999997E+02  0.45594000000E+02  0.51100000000E-03 0. -1.
    9900012    2    1    2    0    0  0.32549863338E+02  0.22664978334E+02  0.21352250542E+02  0.46142318193E+02  0.10000003939E+02 0.  0.
         12    1    1    2    0    0 -0.32549863338E+02 -0.22664978334E+02 -0.21352250542E+02  0.45045681807E+02  0.00000000000E+00 0. -1.
         11    1    3    3    0    0  0.11234559961E+01  0.21599954422E+01 -0.20642298500E+00  0.24434288193E+01  0.51100000000E-03 0. -1.
        -11    1    3    3    0    0  0.10725376162E+02  0.91578290836E+01  0.54503143341E+01  0.15119704162E+02  0.51100000000E-03 0.  1.
         12    1    3    3    0    0  0.20701031181E+02  0.11347153809E+02  0.16108359193E+02  0.28579185212E+02  0.00000000000E+00 0. -1.
</event>
<event>
 7    1  0.2227287E-008  0.4614232E+02  0.7816164E-02  0.1320468E+00
        -11   -1    0    0    0    0  0.00000000000E+00  0.00000000000E+00  0.45593999997E+02  0.45594000000E+02  0.51100000000E-03 0.  1.
         11   -1    0    0    0    0 -0.00000000000E+00 -0.00000000000E+00 -0.45593999997E+02  0.45594000000E+02  0.51100000000E-03 0. -1.
    9900012    2    1    2    0    0  0.20054438802E+02  0.12981103566E+02  0.38189315785E+02  0.46142318680E+02  0.10000008382E+02 0.  0.
         12    1    1    2    0    0 -0.20054438802E+02 -0.12981103566E+02 -0.38189315785E+02  0.45045681320E+02  0.00000000000E+00 0. -1.
         11    1    3    3    0    0  0.76958763051E+01  0.59786595132E+00  0.80380004262E+01  0.11144209569E+02  0.51100000000E-03 0. -1.
        -11    1    3    3    0    0  0.97993911519E+01  0.78847403463E+01  0.22038175420E+02  0.25374758588E+02  0.51100000000E-03 0.  1.
         12    1    3    3    0    0  0.25591713448E+01  0.44984972681E+01  0.81131399387E+01  0.96233505240E+01  0.00000000000E+00 0. -1.
</event>
<event>
 7    1  0.2227287E-008  0.4614232E+02  0.7816164E-02  0.1320468E+00
        -11   -1    0    0    0    0  0.00000000000E+00  0.00000000000E+00  0.45593999997E+02  0.45594000000E+02  0.51100000000E-03 0.  1.
         11   -1    0    0    0    0 -0.00000000000E+00 -0.00000000000E+00 -0.45593999997E+02  0.45594000000E+02  0.51100000000E-03 0. -1.
    9900012    2    1    2    0    0  0.23376394091E+02  0.16098476370E+02  0.34978520596E+02  0.46142316020E+02  0.99999841250E+01 0.  0.
         12    1    1    2    0    0 -0.23376394091E+02 -0.16098476370E+02 -0.34978520596E+02  0.45045683980E+02  0.00000000000E+00 0. -1.
         11    1    3    3    0    0  0.11881564945E+02  0.10055742143E+02  0.19367029004E+02  0.24846958532E+02  0.51100000000E-03 0. -1.
        -11    1    3    3    0    0  0.76327886691E+01  0.52014891286E+01  0.14495541512E+02  0.17188242377E+02  0.51100000000E-03 0.  1.
         12    1    3    3    0    0  0.38620404762E+01  0.84124509858E+00  0.11159500802E+01  0.41071151112E+01  0.00000000000E+00 0. -1.
</event>
<event>
 7    1  0.2227287E-008  0.4614232E+02  0.7816164E-02  0.1320468E+00
        -11   -1    0    0    0    0  0.00000000000E+00  0.00000000000E+00  0.45593999997E+02  0.45594000000E+02  0.51100000000E-03 0.  1.
         11   -1    0    0    0    0 -0.00000000000E+00 -0.00000000000E+00 -0.45593999997E+02  0.45594000000E+02  0.51100000000E-03 0. -1.
    9900012    2    1    2    0    0 -0.53251329709E+01  0.27186934421E+02  0.35519390251E+02  0.46142317319E+02  0.99999959668E+01 0.  0.
         12    1    1    2    0    0  0.53251329709E+01 -0.27186934421E+02 -0.35519390251E+02  0.45045682681E+02  0.00000000000E+00 0. -1.
         11    1    3    3    0    0  0.19742858180E+01  0.11094678640E+02  0.10826134867E+02  0.15626736545E+02  0.51100000000E-03 0. -1.
        -11    1    3    3    0    0 -0.20632219882E+01  0.29987030921E+01  0.34315288260E+01  0.50024489554E+01  0.51100000000E-03 0.  1.
        -12    1    3    3    0    0 -0.52361968008E+01  0.13093552690E+02  0.21261726558E+02  0.25513131819E+02  0.00000000000E+00 0.  1.
</event>
<event>
 7    1  0.2227287E-008  0.4614232E+02  0.7816164E-02  0.1320468E+00
        -11   -1    0    0    0    0  0.00000000000E+00  0.00000000000E+00  0.45593999997E+02  0.45594000000E+02  0.51100000000E-03 0.  1.
         11   -1    0    0    0    0 -0.00000000000E+00 -0.00000000000E+00 -0.45593999997E+02  0.45594000000E+02  0.51100000000E-03 0. -1.
    9900012    2    1    2    0    0 -0.20537587170E+02  0.24153327035E+02  0.31999028684E+02  0.46142317295E+02  0.99999957513E+01 0.  0.
         12    1    1    2    0    0  0.20537587170E+02 -0.24153327035E+02 -0.31999028684E+02  0.45045682705E+02  0.00000000000E+00 0. -1.
         11    1    3    3    0    0 -0.61218665824E+01  0.58834080608E+01  0.11788127917E+02  0.14527618556E+02  0.51100000000E-03 0.  1.
        -11    1    3    3    0    0 -0.66480270372E+01  0.96804821490E+01  0.57132574723E+01  0.13059452873E+02  0.51100000000E-03 0. -1.
         12    1    3    3    0    0 -0.77676935508E+01  0.85894368248E+01  0.14497643295E+02  0.18555245867E+02  0.00000000000E+00 0. -1.
</event>
<event>
 7    1  0.2227287E-008  0.4614232E+02  0.7816164E-02  0.1320468E+00
        -11   -1    0    0    0    0  0.00000000000E+00  0.00000000000E+00  0.45593999997E+02  0.45594000000E+02  0.51100000000E-03 0. -1.
         11   -1    0    0    0    0 -0.00000000000E+00 -0.00000000000E+00 -0.45593999997E+02  0.45594000000E+02  0.51100000000E-03 0.  1.
    9900012    2    1    2    0    0  0.25846827993E+02 -0.13987411940E+02 -0.34138062936E+02  0.46142317065E+02  0.99999936515E+01 0.  0.
         12    1    1    2    0    0 -0.25846827993E+02  0.13987411940E+02  0.34138062936E+02  0.45045682935E+02  0.00000000000E+00 0. -1.
         11    1    3    3    0    0  0.37282350766E+01 -0.40896333111E+01 -0.23607343696E+01  0.60164694323E+01  0.51100000000E-03 0. -1.
        -11    1    3    3    0    0  0.95911593035E+01 -0.45122178324E+01 -0.11019856264E+02  0.15290117033E+02  0.51100000000E-03 0.  1.
         12    1    3    3    0    0  0.12527433613E+02 -0.53855607964E+01 -0.20757472303E+02  0.24835730600E+02  0.00000000000E+00 0. -1.
</event>
<event>
 7    1  0.2227287E-008  0.4614232E+02  0.7816164E-02  0.1320468E+00
        -11   -1    0    0    0    0  0.00000000000E+00  0.00000000000E+00  0.45593999997E+02  0.45594000000E+02  0.51100000000E-03 0. -1.
         11   -1    0    0    0    0 -0.00000000000E+00 -0.00000000000E+00 -0.45593999997E+02  0.45594000000E+02  0.51100000000E-03 0.  1.
    9900012    2    1    2    0    0 -0.44092054581E+02  0.68385505792E+01 -0.61837289296E+01  0.46142317025E+02  0.99999932875E+01 0.  0.
         12    1    1    2    0    0  0.44092054581E+02 -0.68385505792E+01  0.61837289296E+01  0.45045682975E+02  0.00000000000E+00 0. -1.
         11    1    3    3    0    0 -0.18238419142E+02  0.28355584308E+01 -0.56274332640E+01  0.19296329439E+02  0.51100000000E-03 0. -1.
        -11    1    3    3    0    0 -0.20281849452E+02  0.55362575096E+01 -0.10192397054E+01  0.21048572737E+02  0.51100000000E-03 0.  1.
         12    1    3    3    0    0 -0.55717859868E+01 -0.15332653611E+01  0.46294403977E+00  0.57974148492E+01  0.00000000000E+00 0. -1.
</event>
<event>
 7    1  0.2227287E-008  0.4614232E+02  0.7816164E-02  0.1320468E+00
        -11   -1    0    0    0    0  0.00000000000E+00  0.00000000000E+00  0.45593999997E+02  0.45594000000E+02  0.51100000000E-03 0. -1.
         11   -1    0    0    0    0 -0.00000000000E+00 -0.00000000000E+00 -0.45593999997E+02  0.45594000000E+02  0.51100000000E-03 0.  1.
    9900012    2    1    2    0    0 -0.42508837200E+02  0.13767787755E+02 -0.57061715655E+01  0.46142316370E+02  0.99999873149E+01 0.  0.
         12    1    1    2    0    0  0.42508837200E+02 -0.13767787755E+02  0.57061715655E+01  0.45045683630E+02  0.00000000000E+00 0. -1.
         11    1    3    3    0    0 -0.71454389454E+01  0.39894889878E+01 -0.16491519359E+01  0.83482346922E+01  0.51100000000E-03 0. -1.
        -11    1    3    3    0    0 -0.29831144085E+02  0.85838657618E+01 -0.63553560911E+01  0.31685492897E+02  0.51100000000E-03 0.  1.
         12    1    3    3    0    0 -0.55322541692E+01  0.11944330058E+01  0.22983364615E+01  0.61085887804E+01  0.00000000000E+00 0. -1.
</event>
<event>
 7    1  0.2227287E-008  0.4614232E+02  0.7816164E-02  0.1320468E+00
        -11   -1    0    0    0    0  0.00000000000E+00  0.00000000000E+00  0.45593999997E+02  0.45594000000E+02  0.51100000000E-03 0.  1.
         11   -1    0    0    0    0 -0.00000000000E+00 -0.00000000000E+00 -0.45593999997E+02  0.45594000000E+02  0.51100000000E-03 0. -1.
    9900012    2    1    2    0    0 -0.22345404133E+02  0.36469134267E+02  0.14135012655E+02  0.46142318489E+02  0.10000006636E+02 0.  0.
         12    1    1    2    0    0  0.22345404133E+02 -0.36469134267E+02 -0.14135012655E+02  0.45045681511E+02  0.00000000000E+00 0. -1.
         11    1    3    3    0    0 -0.11281113840E+02  0.11713864997E+02  0.51500304849E+01  0.17058750743E+02  0.51100000000E-03 0. -1.
        -11    1    3    3    0    0 -0.43315315515E+01  0.42569030256E+01  0.23297803588E+01  0.65047110414E+01  0.51100000000E-03 0.  1.
        -12    1    3    3    0    0 -0.67327587413E+01  0.20498366244E+02  0.66552018116E+01  0.22578856705E+02  0.00000000000E+00 0.  1.
</event>
<event>
 7    1  0.2227287E-008  0.4614233E+02  0.7816164E-02  0.1320468E+00
        -11   -1    0    0    0    0  0.00000000000E+00  0.00000000000E+00  0.45593999997E+02  0.45594000000E+02  0.51100000000E-03 0. -1.
         11   -1    0    0    0    0 -0.00000000000E+00 -0.00000000000E+00 -0.45593999997E+02  0.45594000000E+02  0.51100000000E-03 0.  1.
    9900012    2    1    2    0    0  0.21684091582E+02 -0.36764052306E+02  0.14398522119E+02  0.46142325303E+02  0.10000068776E+02 0.  0.
         12    1    1    2    0    0 -0.21684091582E+02  0.36764052306E+02 -0.14398522119E+02  0.45045674697E+02  0.00000000000E+00 0. -1.
         11    1    3    3    0    0  0.79201311970E+01 -0.73726018711E+01  0.47920085956E+01  0.11834149026E+02  0.51100000000E-03 0. -1.
        -11    1    3    3    0    0  0.75591066224E+01 -0.13988179978E+02  0.74630836691E+01  0.17564364211E+02  0.51100000000E-03 0.  1.
         12    1    3    3    0    0  0.62048537625E+01 -0.15403270457E+02  0.21434298540E+01  0.16743812067E+02  0.00000000000E+00 0. -1.
</event>
<event>
 7    1  0.2468217E-008  0.4614232E+02  0.7816164E-02  0.1320468E+00
        -11   -1    0    0    0    0  0.00000000000E+00  0.00000000000E+00  0.45593999997E+02  0.45594000000E+02  0.51100000000E-03 0. -1.
         11   -1    0    0    0    0 -0.00000000000E+00 -0.00000000000E+00 -0.45593999997E+02  0.45594000000E+02  0.51100000000E-03 0.  1.
    9900012    2    1    2    0    0  0.21292226494E+02  0.32875181097E+02 -0.22248080302E+02  0.46142317428E+02  0.99999969653E+01 0.  0.
         12    1    1    2    0    0 -0.21292226494E+02 -0.32875181097E+02  0.22248080302E+02  0.45045682572E+02  0.00000000000E+00 0. -1.
         11    1    3    3    0    0  0.95028593840E+01  0.15187784344E+02 -0.10055995093E+02  0.20544979127E+02  0.51100000000E-03 0. -1.
        -11    1    3    3    0    0  0.12744991258E+02  0.17126615989E+02 -0.11189823175E+02  0.24103276133E+02  0.51100000000E-03 0.  1.
         12    1    3    3    0    0 -0.95562414815E+00  0.56078076381E+00 -0.10022620340E+01  0.14940621682E+01  0.00000000000E+00 0. -1.
</event>
<event>
 7    1  0.2227287E-008  0.4614232E+02  0.7816164E-02  0.1320468E+00
        -11   -1    0    0    0    0  0.00000000000E+00  0.00000000000E+00  0.45593999997E+02  0.45594000000E+02  0.51100000000E-03 0.  1.
         11   -1    0    0    0    0 -0.00000000000E+00 -0.00000000000E+00 -0.45593999997E+02  0.45594000000E+02  0.51100000000E-03 0. -1.
    9900012    2    1    2    0    0 -0.40830159697E+01 -0.19674153629E+02  0.40315879706E+02  0.46142317667E+02  0.99999991394E+01 0.  0.
         12    1    1    2    0    0  0.40830159697E+01  0.19674153629E+02 -0.40315879706E+02  0.45045682333E+02  0.00000000000E+00 0. -1.
         11    1    3    3    0    0 -0.11975085978E+01 -0.83358075270E+01  0.11441097188E+02  0.14206280973E+02  0.51100000000E-03 0. -1.
        -11    1    3    3    0    0 -0.18721655101E+01 -0.12181591832E+02  0.26198791368E+02  0.28952942038E+02  0.51100000000E-03 0.  1.
         12    1    3    3    0    0 -0.10133418619E+01  0.84324572967E+00  0.26759911495E+01  0.29830946552E+01  0.00000000000E+00 0. -1.
</event>
<event>
 7    1  0.2227287E-008  0.4614232E+02  0.7816164E-02  0.1320468E+00
        -11   -1    0    0    0    0  0.00000000000E+00  0.00000000000E+00  0.45593999997E+02  0.45594000000E+02  0.51100000000E-03 0.  1.
         11   -1    0    0    0    0 -0.00000000000E+00 -0.00000000000E+00 -0.45593999997E+02  0.45594000000E+02  0.51100000000E-03 0. -1.
    9900012    2    1    2    0    0  0.38748609740E+02  0.18679230036E+01  0.22894750250E+02  0.46142317830E+02  0.10000000631E+02 0.  0.
         12    1    1    2    0    0 -0.38748609740E+02 -0.18679230036E+01 -0.22894750250E+02  0.45045682170E+02  0.00000000000E+00 0. -1.
         11    1    3    3    0    0  0.38919692535E+01  0.21818875632E+01  0.23473353841E+01  0.50416308547E+01  0.51100000000E-03 0. -1.
        -11    1    3    3    0    0  0.28807073361E+02 -0.30234092343E+01  0.16549250139E+02  0.33359648671E+02  0.51100000000E-03 0.  1.
        -12    1    3    3    0    0  0.60495671253E+01  0.27094446747E+01  0.39981647267E+01  0.77410383044E+01  0.00000000000E+00 0.  1.
</event>
<event>
 7    1  0.2227287E-008  0.4614231E+02  0.7816164E-02  0.1320468E+00
        -11   -1    0    0    0    0  0.00000000000E+00  0.00000000000E+00  0.45593999997E+02  0.45594000000E+02  0.51100000000E-03 0.  1.
         11   -1    0    0    0    0 -0.00000000000E+00 -0.00000000000E+00 -0.45593999997E+02  0.45594000000E+02  0.51100000000E-03 0. -1.
    9900012    2    1    2    0    0  0.19440475439E+02 -0.35677192899E+01  0.40477809445E+02  0.46142314705E+02  0.99999721327E+01 0.  0.
         12    1    1    2    0    0 -0.19440475439E+02  0.35677192899E+01 -0.40477809445E+02  0.45045685295E+02  0.00000000000E+00 0. -1.
         11    1    3    3    0    0  0.85513698695E+01 -0.58949271613E+01  0.24801516491E+02  0.26888497790E+02  0.51100000000E-03 0. -1.
        -11    1    3    3    0    0  0.18339018195E+01  0.58985511615E+00  0.32892678792E+01  0.38118772782E+01  0.51100000000E-03 0.  1.
        -12    1    3    3    0    0  0.90552037502E+01  0.17373527552E+01  0.12387025075E+02  0.15441939637E+02  0.00000000000E+00 0.  1.
</event>
<event>
 7    1  0.2227287E-008  0.4614232E+02  0.7816164E-02  0.1320468E+00
        -11   -1    0    0    0    0  0.00000000000E+00  0.00000000000E+00  0.45593999997E+02  0.45594000000E+02  0.51100000000E-03 0.  1.
         11   -1    0    0    0    0 -0.00000000000E+00 -0.00000000000E+00 -0.45593999997E+02  0.45594000000E+02  0.51100000000E-03 0. -1.
    9900012    2    1    2    0    0  0.30748959720E+02  0.30741605052E+02  0.11771518799E+02  0.46142318077E+02  0.10000002882E+02 0.  0.
         12    1    1    2    0    0 -0.30748959720E+02 -0.30741605052E+02 -0.11771518799E+02  0.45045681923E+02  0.00000000000E+00 0. -1.
         11    1    3    3    0    0  0.40214758397E+00  0.62153145892E+00  0.12980665052E+01  0.14943229058E+01  0.51100000000E-03 0.  1.
        -11    1    3    3    0    0  0.85870980828E+01  0.13589091778E+02  0.37828792954E+01  0.16513989369E+02  0.51100000000E-03 0. -1.
        -12    1    3    3    0    0  0.21759714054E+02  0.16530981815E+02  0.66905729980E+01  0.28134005803E+02  0.00000000000E+00 0.  1.
</event>
<event>
 7    1  0.2227287E-008  0.4614232E+02  0.7816164E-02  0.1320468E+00
        -11   -1    0    0    0    0  0.00000000000E+00  0.00000000000E+00  0.45593999997E+02  0.45594000000E+02  0.51100000000E-03 0. -1.
         11   -1    0    0    0    0 -0.00000000000E+00 -0.00000000000E+00 -0.45593999997E+02  0.45594000000E+02  0.51100000000E-03 0.  1.
    9900012    2    1    2    0    0 -0.35026355912E+02 -0.16647333429E+02 -0.22915805359E+02  0.46142318142E+02  0.10000003477E+02 0.  0.
         12    1    1    2    0    0  0.35026355912E+02  0.16647333429E+02  0.22915805359E+02  0.45045681858E+02  0.00000000000E+00 0. -1.
         11    1    3    3    0    0 -0.21142510825E+00 -0.18995418899E+01 -0.86529335956E+00  0.20980211694E+01  0.51100000000E-03 0. -1.
        -11    1    3    3    0    0 -0.19910462557E+02 -0.10060879241E+02 -0.10757984915E+02  0.24766551032E+02  0.51100000000E-03 0.  1.
         12    1    3    3    0    0 -0.14904468246E+02 -0.46869122981E+01 -0.11292527085E+02  0.19277745941E+02  0.00000000000E+00 0. -1.
</event>
<event>
 7    1  0.2227287E-008  0.4614232E+02  0.7816164E-02  0.1320468E+00
        -11   -1    0    0    0    0  0.00000000000E+00  0.00000000000E+00  0.45593999997E+02  0.45594000000E+02  0.51100000000E-03 0.  1.
         11   -1    0    0    0    0 -0.00000000000E+00 -0.00000000000E+00 -0.45593999997E+02  0.45594000000E+02  0.51100000000E-03 0. -1.
    9900012    2    1    2    0    0  0.22996551425E+02 -0.61852074234E+01  0.38236309554E+02  0.46142317226E+02  0.99999951191E+01 0.  0.
         12    1    1    2    0    0 -0.22996551425E+02  0.61852074234E+01 -0.38236309554E+02  0.45045682774E+02  0.00000000000E+00 0. -1.
         11    1    3    3    0    0  0.13425801973E+02 -0.44855629692E+01  0.15794879716E+02  0.21209683148E+02  0.51100000000E-03 0. -1.
        -11    1    3    3    0    0  0.72653644841E+01 -0.31743737654E+01  0.14402345418E+02  0.16440490373E+02  0.51100000000E-03 0.  1.
         12    1    3    3    0    0  0.23053849677E+01  0.14747293112E+01  0.80390844199E+01  0.84921437047E+01  0.00000000000E+00 0. -1.
</event>
<event>
 7    1  0.2227287E-008  0.4614232E+02  0.7816164E-02  0.1320468E+00
        -11   -1    0    0    0    0  0.00000000000E+00  0.00000000000E+00  0.45593999997E+02  0.45594000000E+02  0.51100000000E-03 0. -1.
         11   -1    0    0    0    0 -0.00000000000E+00 -0.00000000000E+00 -0.45593999997E+02  0.45594000000E+02  0.51100000000E-03 0.  1.
    9900012    2    1    2    0    0 -0.96583825594E+01 -0.36333054038E+02 -0.24814077779E+02  0.46142316239E+02  0.99999861232E+01 0.  0.
         12    1    1    2    0    0  0.96583825594E+01  0.36333054038E+02  0.24814077779E+02  0.45045683761E+02  0.00000000000E+00 0. -1.
         11    1    3    3    0    0 -0.26138295429E+01 -0.96503649603E+01 -0.73135452396E+01  0.12387477265E+02  0.51100000000E-03 0. -1.
        -11    1    3    3    0    0 -0.51739570313E+01 -0.21981417934E+02 -0.17698405575E+02  0.28691220362E+02  0.51100000000E-03 0.  1.
         12    1    3    3    0    0 -0.18705959852E+01 -0.47012711446E+01  0.19787303488E+00  0.50636186125E+01  0.00000000000E+00 0. -1.
</event>
<event>
 7    1  0.2227287E-008  0.4614232E+02  0.7816164E-02  0.1320468E+00
        -11   -1    0    0    0    0  0.00000000000E+00  0.00000000000E+00  0.45593999997E+02  0.45594000000E+02  0.51100000000E-03 0. -1.
         11   -1    0    0    0    0 -0.00000000000E+00 -0.00000000000E+00 -0.45593999997E+02  0.45594000000E+02  0.51100000000E-03 0.  1.
    9900012    2    1    2    0    0 -0.24004342180E+02  0.26439211515E+02 -0.27456750397E+02  0.46142317728E+02  0.99999996967E+01 0.  0.
         12    1    1    2    0    0  0.24004342180E+02 -0.26439211515E+02  0.27456750397E+02  0.45045682272E+02  0.00000000000E+00 0. -1.
         11    1    3    3    0    0 -0.18475097753E+02  0.18018843113E+02 -0.16945184389E+02  0.30873082424E+02  0.51100000000E-03 0. -1.
        -11    1    3    3    0    0 -0.62693869514E+01  0.66785459065E+01 -0.90635167009E+01  0.12886253273E+02  0.51100000000E-03 0.  1.
         12    1    3    3    0    0  0.74014252498E+00  0.17418224955E+01 -0.14480493075E+01  0.23829820310E+01  0.00000000000E+00 0. -1.
</event>
<event>
 7    1  0.2227287E-008  0.4614232E+02  0.7816164E-02  0.1320468E+00
        -11   -1    0    0    0    0  0.00000000000E+00  0.00000000000E+00  0.45593999997E+02  0.45594000000E+02  0.51100000000E-03 0. -1.
         11   -1    0    0    0    0 -0.00000000000E+00 -0.00000000000E+00 -0.45593999997E+02  0.45594000000E+02  0.51100000000E-03 0.  1.
    9900012    2    1    2    0    0 -0.36336463260E+01 -0.44644392491E+02  0.47737190632E+01  0.46142316963E+02  0.99999927247E+01 0.  0.
         12    1    1    2    0    0  0.36336463260E+01  0.44644392491E+02 -0.47737190632E+01  0.45045683037E+02  0.00000000000E+00 0. -1.
         11    1    3    3    0    0 -0.12643720822E+01 -0.34960770165E+02  0.69530401342E+01  0.35667896696E+02  0.51100000000E-03 0. -1.
        -11    1    3    3    0    0 -0.22215960824E+01 -0.70906563464E+01 -0.64638542639E+00  0.74585997986E+01  0.51100000000E-03 0.  1.
        -12    1    3    3    0    0 -0.14767816140E+00 -0.25929659797E+01 -0.15329356446E+01  0.30158204691E+01  0.00000000000E+00 0.  1.
</event>
<event>
 7    1  0.2227287E-008  0.4614232E+02  0.7816164E-02  0.1320468E+00
        -11   -1    0    0    0    0  0.00000000000E+00  0.00000000000E+00  0.45593999997E+02  0.45594000000E+02  0.51100000000E-03 0. -1.
         11   -1    0    0    0    0 -0.00000000000E+00 -0.00000000000E+00 -0.45593999997E+02  0.45594000000E+02  0.51100000000E-03 0.  1.
    9900012    2    1    2    0    0  0.19122792340E+02 -0.26860912460E+02 -0.30690775917E+02  0.46142317283E+02  0.99999956414E+01 0.  0.
         12    1    1    2    0    0 -0.19122792340E+02  0.26860912460E+02  0.30690775917E+02  0.45045682717E+02  0.00000000000E+00 0. -1.
         11    1    3    3    0    0  0.18249779624E+01 -0.28910218838E+01 -0.59655581555E+01  0.68757862433E+01  0.51100000000E-03 0.  1.
        -11    1    3    3    0    0  0.97002082916E+01 -0.94551236548E+01 -0.74551864025E+01  0.15461992394E+02  0.51100000000E-03 0. -1.
        -12    1    3    3    0    0  0.75976060857E+01 -0.14514766921E+02 -0.17270031359E+02  0.23804538646E+02  0.00000000000E+00 0.  1.
</event>
<event>
 7    1  0.2227287E-008  0.4614232E+02  0.7816164E-02  0.1320468E+00
        -11   -1    0    0    0    0  0.00000000000E+00  0.00000000000E+00  0.45593999997E+02  0.45594000000E+02  0.51100000000E-03 0.  1.
         11   -1    0    0    0    0 -0.00000000000E+00 -0.00000000000E+00 -0.45593999997E+02  0.45594000000E+02  0.51100000000E-03 0. -1.
    9900012    2    1    2    0    0  0.87927901047E+01  0.13228729338E+01  0.44159374350E+02  0.46142317703E+02  0.99999994725E+01 0.  0.
         12    1    1    2    0    0 -0.87927901047E+01 -0.13228729338E+01 -0.44159374350E+02  0.45045682297E+02  0.00000000000E+00 0. -1.
         11    1    3    3    0    0  0.49827868326E+00 -0.20062716174E+01  0.52225565740E+01  0.56168055760E+01  0.51100000000E-03 0. -1.
        -11    1    3    3    0    0  0.79819427606E+01  0.13810199232E+01  0.21465002879E+02  0.22942645338E+02  0.51100000000E-03 0.  1.
         12    1    3    3    0    0  0.31256866080E+00  0.19481246280E+01  0.17471814897E+02  0.17582866789E+02  0.00000000000E+00 0. -1.
</event>
<event>
 7    1  0.2227287E-008  0.4614232E+02  0.7816164E-02  0.1320468E+00
        -11   -1    0    0    0    0  0.00000000000E+00  0.00000000000E+00  0.45593999997E+02  0.45594000000E+02  0.51100000000E-03 0.  1.
         11   -1    0    0    0    0 -0.00000000000E+00 -0.00000000000E+00 -0.45593999997E+02  0.45594000000E+02  0.51100000000E-03 0. -1.
    9900012    2    1    2    0    0  0.38279673120E+02  0.23216909044E+02  0.49754585488E+01  0.46142318437E+02  0.10000006163E+02 0.  0.
         12    1    1    2    0    0 -0.38279673120E+02 -0.23216909044E+02 -0.49754585488E+01  0.45045681563E+02  0.00000000000E+00 0. -1.
         11    1    3    3    0    0  0.72477334980E+01  0.27298631482E+01  0.29357332909E+01  0.82825312485E+01  0.51100000000E-03 0. -1.
        -11    1    3    3    0    0  0.98905193512E+01  0.37550640583E+01  0.25936930743E+01  0.10892663730E+02  0.51100000000E-03 0.  1.
         12    1    3    3    0    0  0.21141420271E+02  0.16731981837E+02 -0.55396781641E+00  0.26967123458E+02  0.00000000000E+00 0. -1.
</event>
<event>
 7    1  0.2227287E-008  0.4614232E+02  0.7816164E-02  0.1320468E+00
        -11   -1    0    0    0    0  0.00000000000E+00  0.00000000000E+00  0.45593999997E+02  0.45594000000E+02  0.51100000000E-03 0.  1.
         11   -1    0    0    0    0 -0.00000000000E+00 -0.00000000000E+00 -0.45593999997E+02  0.45594000000E+02  0.51100000000E-03 0. -1.
    9900012    2    1    2    0    0  0.20275301507E+02  0.26093856825E+02  0.30612680819E+02  0.46142318274E+02  0.10000004680E+02 0.  0.
         12    1    1    2    0    0 -0.20275301507E+02 -0.26093856825E+02 -0.30612680819E+02  0.45045681726E+02  0.00000000000E+00 0. -1.
         11    1    3    3    0    0  0.47623246900E+01  0.72334348060E+01  0.13698848114E+02  0.16206812008E+02  0.51100000000E-03 0. -1.
        -11    1    3    3    0    0  0.58375220321E+01  0.91041742364E+01  0.90635879940E+01  0.14110679629E+02  0.51100000000E-03 0.  1.
         12    1    3    3    0    0  0.96754547846E+01  0.97562477825E+01  0.78502447113E+01  0.15824826638E+02  0.00000000000E+00 0. -1.
</event>
<event>
 7    1  0.2227287E-008  0.4614232E+02  0.7816164E-02  0.1320468E+00
        -11   -1    0    0    0    0  0.00000000000E+00  0.00000000000E+00  0.45593999997E+02  0.45594000000E+02  0.51100000000E-03 0.  1.
         11   -1    0    0    0    0 -0.00000000000E+00 -0.00000000000E+00 -0.45593999997E+02  0.45594000000E+02  0.51100000000E-03 0. -1.
    9900012    2    1    2    0    0  0.18691999354E+02 -0.37019067631E+02  0.17587247403E+02  0.46142317862E+02  0.10000000916E+02 0.  0.
         12    1    1    2    0    0 -0.18691999354E+02  0.37019067631E+02 -0.17587247403E+02  0.45045682138E+02  0.00000000000E+00 0. -1.
         11    1    3    3    0    0  0.18945022136E+01 -0.55383080266E+01  0.53785160900E+01  0.79492408459E+01  0.51100000000E-03 0. -1.
        -11    1    3    3    0    0  0.54060422908E+01 -0.16469707658E+02  0.63185055700E+01  0.18449934322E+02  0.51100000000E-03 0.  1.
        -12    1    3    3    0    0  0.11391454849E+02 -0.15011051947E+02  0.58902257429E+01  0.19743142694E+02  0.00000000000E+00 0.  1.
</event>
<event>
 7    1  0.2227287E-008  0.4614232E+02  0.7816164E-02  0.1320468E+00
        -11   -1    0    0    0    0  0.00000000000E+00  0.00000000000E+00  0.45593999997E+02  0.45594000000E+02  0.51100000000E-03 0. -1.
         11   -1    0    0    0    0 -0.00000000000E+00 -0.00000000000E+00 -0.45593999997E+02  0.45594000000E+02  0.51100000000E-03 0.  1.
    9900012    2    1    2    0    0 -0.22317429932E+02 -0.37528555626E+02  0.11074871700E+02  0.46142323744E+02  0.10000054561E+02 0.  0.
         12    1    1    2    0    0  0.22317429932E+02  0.37528555626E+02 -0.11074871700E+02  0.45045676256E+02  0.00000000000E+00 0. -1.
         11    1    3    3    0    0 -0.12868481309E+01 -0.69593315640E+01  0.18523061575E+01  0.73156894611E+01  0.51100000000E-03 0. -1.
        -11    1    3    3    0    0 -0.77329798967E+01 -0.74378557289E+01  0.44483371198E+00  0.10738647644E+02  0.51100000000E-03 0.  1.
        -12    1    3    3    0    0 -0.13297601904E+02 -0.23131368333E+02  0.87777318304E+01  0.28087986639E+02  0.00000000000E+00 0.  1.
</event>
<event>
 7    1  0.2227287E-008  0.4614232E+02  0.7816164E-02  0.1320468E+00
        -11   -1    0    0    0    0  0.00000000000E+00  0.00000000000E+00  0.45593999997E+02  0.45594000000E+02  0.51100000000E-03 0. -1.
         11   -1    0    0    0    0 -0.00000000000E+00 -0.00000000000E+00 -0.45593999997E+02  0.45594000000E+02  0.51100000000E-03 0.  1.
    9900012    2    1    2    0    0  0.42467444103E+02  0.13719773893E+02 -0.61153619928E+01  0.46142315893E+02  0.99999829676E+01 0.  0.
         12    1    1    2    0    0 -0.42467444103E+02 -0.13719773893E+02  0.61153619928E+01  0.45045684107E+02  0.00000000000E+00 0. -1.
         11    1    3    3    0    0  0.17625562758E+01 -0.11007720339E+01  0.25062340847E+00  0.20931115713E+01  0.51100000000E-03 0. -1.
        -11    1    3    3    0    0  0.24610613860E+02  0.66036886625E+01 -0.45945533788E+01  0.25892101876E+02  0.51100000000E-03 0.  1.
        -12    1    3    3    0    0  0.16094273967E+02  0.82168572644E+01 -0.17714320225E+01  0.18157102446E+02  0.00000000000E+00 0.  1.
</event>
<event>
 7    1  0.2227287E-008  0.4614232E+02  0.7816164E-02  0.1320468E+00
        -11   -1    0    0    0    0  0.00000000000E+00  0.00000000000E+00  0.45593999997E+02  0.45594000000E+02  0.51100000000E-03 0.  1.
         11   -1    0    0    0    0 -0.00000000000E+00 -0.00000000000E+00 -0.45593999997E+02  0.45594000000E+02  0.51100000000E-03 0. -1.
    9900012    2    1    2    0    0  0.13488201327E+01 -0.11547338678E+02  0.43519572165E+02  0.46142317546E+02  0.99999980366E+01 0.  0.
         12    1    1    2    0    0 -0.13488201327E+01  0.11547338678E+02 -0.43519572165E+02  0.45045682454E+02  0.00000000000E+00 0. -1.
         11    1    3    3    0    0  0.18555846322E+01 -0.12828574995E+01  0.82515159655E+01  0.85543225145E+01  0.51100000000E-03 0. -1.
        -11    1    3    3    0    0  0.18717677904E+01  0.50672510606E+00  0.62588337870E+01  0.65523496266E+01  0.51100000000E-03 0.  1.
        -12    1    3    3    0    0 -0.23785322900E+01 -0.10771206285E+02  0.29009222413E+02  0.31035645405E+02  0.00000000000E+00 0.  1.
</event>
<event>
 7    1  0.2227287E-008  0.4614232E+02  0.7816164E-02  0.1320468E+00
        -11   -1    0    0    0    0  0.00000000000E+00  0.00000000000E+00  0.45593999997E+02  0.45594000000E+02  0.51100000000E-03 0. -1.
         11   -1    0    0    0    0 -0.00000000000E+00 -0.00000000000E+00 -0.45593999997E+02  0.45594000000E+02  0.51100000000E-03 0.  1.
    9900012    2    1    2    0    0  0.27816109474E+01 -0.37402316779E+02 -0.24948803446E+02  0.46142318151E+02  0.10000003554E+02 0.  0.
         12    1    1    2    0    0 -0.27816109474E+01  0.37402316779E+02  0.24948803446E+02  0.45045681849E+02  0.00000000000E+00 0. -1.
         11    1    3    3    0    0 -0.23855420663E+01 -0.13900184657E+02 -0.81701915521E+01  0.16299017600E+02  0.51100000000E-03 0. -1.
        -11    1    3    3    0    0  0.61835310314E+00 -0.78640217655E+01 -0.27680360429E+01  0.83598578149E+01  0.51100000000E-03 0.  1.
        -12    1    3    3    0    0  0.45487999106E+01 -0.15638110356E+02 -0.14010575851E+02  0.21483442736E+02  0.00000000000E+00 0.  1.
</event>
<event>
 7    1  0.2227287E-008  0.4614232E+02  0.7816164E-02  0.1320468E+00
        -11   -1    0    0    0    0  0.00000000000E+00  0.00000000000E+00  0.45593999997E+02  0.45594000000E+02  0.51100000000E-03 0.  1.
         11   -1    0    0    0    0 -0.00000000000E+00 -0.00000000000E+00 -0.45593999997E+02  0.45594000000E+02  0.51100000000E-03 0. -1.
    9900012    2    1    2    0    0 -0.83711348957E+01  0.32720915562E+02  0.29805690950E+02  0.46142318435E+02  0.10000006144E+02 0.  0.
         12    1    1    2    0    0  0.83711348957E+01 -0.32720915562E+02 -0.29805690950E+02  0.45045681565E+02  0.00000000000E+00 0. -1.
         11    1    3    3    0    0  0.16067782029E+01  0.55870904522E+01  0.27593180138E+01  0.64351497322E+01  0.51100000000E-03 0. -1.
        -11    1    3    3    0    0 -0.67258446291E+01  0.19384101290E+02  0.20955761984E+02  0.29327876319E+02  0.51100000000E-03 0.  1.
        -12    1    3    3    0    0 -0.32520684695E+01  0.77497238194E+01  0.60906109527E+01  0.10379292384E+02  0.00000000000E+00 0.  1.
</event>
<event>
 7    1  0.2227287E-008  0.4614232E+02  0.7816164E-02  0.1320468E+00
        -11   -1    0    0    0    0  0.00000000000E+00  0.00000000000E+00  0.45593999997E+02  0.45594000000E+02  0.51100000000E-03 0. -1.
         11   -1    0    0    0    0 -0.00000000000E+00 -0.00000000000E+00 -0.45593999997E+02  0.45594000000E+02  0.51100000000E-03 0.  1.
    9900012    2    1    2    0    0 -0.20554456919E+02  0.38183976428E+02  0.12190639176E+02  0.46142318313E+02  0.10000005034E+02 0.  0.
         12    1    1    2    0    0  0.20554456919E+02 -0.38183976428E+02 -0.12190639176E+02  0.45045681687E+02  0.00000000000E+00 0. -1.
         11    1    3    3    0    0 -0.10613139066E+01  0.40127576977E+01  0.36487212974E+01  0.55264616995E+01  0.51100000000E-03 0. -1.
        -11    1    3    3    0    0 -0.53648867782E+01  0.14495244761E+02  0.25807754828E+01  0.15670179743E+02  0.51100000000E-03 0.  1.
         12    1    3    3    0    0 -0.14128256234E+02  0.19675973970E+02  0.59611423957E+01  0.24945676871E+02  0.00000000000E+00 0. -1.
</event>
<event>
 7    1  0.2227287E-008  0.4614232E+02  0.7816164E-02  0.1320468E+00
        -11   -1    0    0    0    0  0.00000000000E+00  0.00000000000E+00  0.45593999997E+02  0.45594000000E+02  0.51100000000E-03 0.  1.
         11   -1    0    0    0    0 -0.00000000000E+00 -0.00000000000E+00 -0.45593999997E+02  0.45594000000E+02  0.51100000000E-03 0. -1.
    9900012    2    1    2    0    0 -0.36418160497E+02  0.67330061569E+01  0.25641718574E+02  0.46142317440E+02  0.99999970718E+01 0.  0.
         12    1    1    2    0    0  0.36418160497E+02 -0.67330061569E+01 -0.25641718574E+02  0.45045682560E+02  0.00000000000E+00 0. -1.
         11    1    3    3    0    0 -0.27742347023E+02  0.58133590145E+01  0.17674109104E+02  0.33403698811E+02  0.51100000000E-03 0.  1.
        -11    1    3    3    0    0 -0.61599552209E+00  0.66993315100E+00 -0.50608047913E+00  0.10413350193E+01  0.51100000000E-03 0. -1.
        -12    1    3    3    0    0 -0.80598179513E+01  0.24971399138E+00  0.84736899491E+01  0.11697283609E+02  0.00000000000E+00 0.  1.
</event>
<event>
 7    1  0.2227287E-008  0.4614232E+02  0.7816164E-02  0.1320468E+00
        -11   -1    0    0    0    0  0.00000000000E+00  0.00000000000E+00  0.45593999997E+02  0.45594000000E+02  0.51100000000E-03 0. -1.
         11   -1    0    0    0    0 -0.00000000000E+00 -0.00000000000E+00 -0.45593999997E+02  0.45594000000E+02  0.51100000000E-03 0.  1.
    9900012    2    1    2    0    0  0.19386142838E+02  0.40352285638E+02 -0.49983973215E+01  0.46142318008E+02  0.10000002252E+02 0.  0.
         12    1    1    2    0    0 -0.19386142838E+02 -0.40352285638E+02  0.49983973215E+01  0.45045681992E+02  0.00000000000E+00 0. -1.
         11    1    3    3    0    0  0.32812801138E+01  0.58770780149E+01  0.15835499021E+01  0.69148012070E+01  0.51100000000E-03 0. -1.
        -11    1    3    3    0    0  0.62547838666E+01  0.95932565138E+01  0.76162148981E+00  0.11477497955E+02  0.51100000000E-03 0.  1.
         12    1    3    3    0    0  0.98500788575E+01  0.24881951109E+02 -0.73435687133E+01  0.27750018846E+02  0.00000000000E+00 0. -1.
</event>
<event>
 7    1  0.2227287E-008  0.4614232E+02  0.7816164E-02  0.1320468E+00
        -11   -1    0    0    0    0  0.00000000000E+00  0.00000000000E+00  0.45593999997E+02  0.45594000000E+02  0.51100000000E-03 0.  1.
         11   -1    0    0    0    0 -0.00000000000E+00 -0.00000000000E+00 -0.45593999997E+02  0.45594000000E+02  0.51100000000E-03 0. -1.
    9900012    2    1    2    0    0  0.19514145228E+02  0.40597915603E+02  0.34721843296E+00  0.46142321229E+02  0.10000031623E+02 0.  0.
         12    1    1    2    0    0 -0.19514145228E+02 -0.40597915603E+02 -0.34721843296E+00  0.45045678771E+02  0.00000000000E+00 0. -1.
         11    1    3    3    0    0  0.10394077869E+01  0.11146675330E+01  0.52016728375E+00  0.16104119103E+01  0.51100000000E-03 0. -1.
        -11    1    3    3    0    0  0.36488518547E+01  0.78450925321E+01  0.36362977860E+01  0.93852148907E+01  0.51100000000E-03 0.  1.
         12    1    3    3    0    0  0.14825885587E+02  0.31638155538E+02 -0.38092466368E+01  0.35146694428E+02  0.00000000000E+00 0. -1.
</event>
<event>
 7    1  0.2227287E-008  0.4614232E+02  0.7816164E-02  0.1320468E+00
        -11   -1    0    0    0    0  0.00000000000E+00  0.00000000000E+00  0.45593999997E+02  0.45594000000E+02  0.51100000000E-03 0.  1.
         11   -1    0    0    0    0 -0.00000000000E+00 -0.00000000000E+00 -0.45593999997E+02  0.45594000000E+02  0.51100000000E-03 0. -1.
    9900012    2    1    2    0    0 -0.52567232400E+01 -0.31257340069E+02  0.32007172665E+02  0.46142317084E+02  0.99999938262E+01 0.  0.
         12    1    1    2    0    0  0.52567232400E+01  0.31257340069E+02 -0.32007172665E+02  0.45045682916E+02  0.00000000000E+00 0. -1.
         11    1    3    3    0    0 -0.53625870610E+00 -0.51461544974E+01  0.15785697089E+01  0.54094696688E+01  0.51100000000E-03 0. -1.
        -11    1    3    3    0    0 -0.94499284917E+00 -0.19020581681E+02  0.21191056911E+02  0.28490988614E+02  0.51100000000E-03 0.  1.
        -12    1    3    3    0    0 -0.37754716847E+01 -0.70906038905E+01  0.92375460450E+01  0.12241858801E+02  0.00000000000E+00 0.  1.
</event>
<event>
 7    1  0.2227287E-008  0.4614232E+02  0.7816164E-02  0.1320468E+00
        -11   -1    0    0    0    0  0.00000000000E+00  0.00000000000E+00  0.45593999997E+02  0.45594000000E+02  0.51100000000E-03 0. -1.
         11   -1    0    0    0    0 -0.00000000000E+00 -0.00000000000E+00 -0.45593999997E+02  0.45594000000E+02  0.51100000000E-03 0.  1.
    9900012    2    1    2    0    0 -0.43686966828E+02 -0.90124773928E+01 -0.62719728374E+01  0.46142318046E+02  0.10000002601E+02 0.  0.
         12    1    1    2    0    0  0.43686966828E+02  0.90124773928E+01  0.62719728374E+01  0.45045681954E+02  0.00000000000E+00 0. -1.
         11    1    3    3    0    0 -0.93005720030E+01 -0.56421561146E+01 -0.27712478611E+00  0.10881698563E+02  0.51100000000E-03 0. -1.
        -11    1    3    3    0    0 -0.68667991962E+01  0.80049240170E+00 -0.11568379049E+01  0.70094217654E+01  0.51100000000E-03 0.  1.
        -12    1    3    3    0    0 -0.27519595629E+02 -0.41708136799E+01 -0.48380101464E+01  0.28251197718E+02  0.00000000000E+00 0.  1.
</event>
<event>
 7    1  0.2227287E-008  0.4614232E+02  0.7816164E-02  0.1320468E+00
        -11   -1    0    0    0    0  0.00000000000E+00  0.00000000000E+00  0.45593999997E+02  0.45594000000E+02  0.51100000000E-03 0.  1.
         11   -1    0    0    0    0 -0.00000000000E+00 -0.00000000000E+00 -0.45593999997E+02  0.45594000000E+02  0.51100000000E-03 0. -1.
    9900012    2    1    2    0    0 -0.27605952734E+02  0.17822503289E+01  0.35550645118E+02  0.46142318621E+02  0.10000007837E+02 0.  0.
         12    1    1    2    0    0  0.27605952734E+02 -0.17822503289E+01 -0.35550645118E+02  0.45045681379E+02  0.00000000000E+00 0. -1.
         11    1    3    3    0    0 -0.15061155764E+02  0.33596226407E+01  0.19027783854E+02  0.24498612939E+02  0.51100000000E-03 0. -1.
        -11    1    3    3    0    0 -0.10073267264E+02 -0.10284864790E+01  0.84663883368E+01  0.13198796519E+02  0.51100000000E-03 0.  1.
         12    1    3    3    0    0 -0.24715297055E+01 -0.54888583282E+00  0.80564729270E+01  0.84449091627E+01  0.00000000000E+00 0. -1.
</event>
<event>
 7    1  0.2227287E-008  0.4614231E+02  0.7816164E-02  0.1320468E+00
        -11   -1    0    0    0    0  0.00000000000E+00  0.00000000000E+00  0.45593999997E+02  0.45594000000E+02  0.51100000000E-03 0.  1.
         11   -1    0    0    0    0 -0.00000000000E+00 -0.00000000000E+00 -0.45593999997E+02  0.45594000000E+02  0.51100000000E-03 0. -1.
    9900012    2    1    2    0    0 -0.18949567541E+01  0.33571658629E+02  0.29974434882E+02  0.46142313517E+02  0.99999612976E+01 0.  0.
         12    1    1    2    0    0  0.18949567541E+01 -0.33571658629E+02 -0.29974434882E+02  0.45045686483E+02  0.00000000000E+00 0. -1.
         11    1    3    3    0    0  0.83030284917E+00  0.32264138339E+01  0.53856253661E+00  0.33747887217E+01  0.51100000000E-03 0. -1.
        -11    1    3    3    0    0  0.10320844022E+01  0.17698889380E+02  0.15132303527E+02  0.23308850117E+02  0.51100000000E-03 0.  1.
        -12    1    3    3    0    0 -0.37573440054E+01  0.12646355415E+02  0.14303568819E+02  0.19458674678E+02  0.00000000000E+00 0.  1.
</event>
<event>
 7    1  0.2227287E-008  0.4614232E+02  0.7816164E-02  0.1320468E+00
        -11   -1    0    0    0    0  0.00000000000E+00  0.00000000000E+00  0.45593999997E+02  0.45594000000E+02  0.51100000000E-03 0.  1.
         11   -1    0    0    0    0 -0.00000000000E+00 -0.00000000000E+00 -0.45593999997E+02  0.45594000000E+02  0.51100000000E-03 0. -1.
    9900012    2    1    2    0    0 -0.10111820205E+02  0.39745677397E+02  0.18631851574E+02  0.46142315716E+02  0.99999813477E+01 0.  0.
         12    1    1    2    0    0  0.10111820205E+02 -0.39745677397E+02 -0.18631851574E+02  0.45045684284E+02  0.00000000000E+00 0. -1.
         11    1    3    3    0    0 -0.70110150073E+01  0.26227527006E+02  0.14846491155E+02  0.30942782747E+02  0.51100000000E-03 0. -1.
        -11    1    3    3    0    0 -0.39155807662E+01  0.13290799757E+02  0.37445070428E+01  0.14352646591E+02  0.51100000000E-03 0.  1.
         12    1    3    3    0    0  0.81477556828E+00  0.22735063387E+00  0.40853375939E-01  0.84688637710E+00  0.00000000000E+00 0. -1.
</event>
<event>
 7    1  0.2227287E-008  0.4614231E+02  0.7816164E-02  0.1320468E+00
        -11   -1    0    0    0    0  0.00000000000E+00  0.00000000000E+00  0.45593999997E+02  0.45594000000E+02  0.51100000000E-03 0.  1.
         11   -1    0    0    0    0 -0.00000000000E+00 -0.00000000000E+00 -0.45593999997E+02  0.45594000000E+02  0.51100000000E-03 0. -1.
    9900012    2    1    2    0    0 -0.52075434367E+01 -0.43208891408E+02  0.11618393602E+02  0.46142313466E+02  0.99999608367E+01 0.  0.
         12    1    1    2    0    0  0.52075434367E+01  0.43208891408E+02 -0.11618393602E+02  0.45045686534E+02  0.00000000000E+00 0. -1.
         11    1    3    3    0    0  0.13947941379E+01 -0.38378062059E+01  0.30037839898E+01  0.50692135169E+01  0.51100000000E-03 0. -1.
        -11    1    3    3    0    0  0.55594167977E+00 -0.23793707522E+01  0.96110579855E+00  0.26256810440E+01  0.51100000000E-03 0.  1.
        -12    1    3    3    0    0 -0.71582792545E+01 -0.36991714450E+02  0.76535038139E+01  0.38447418905E+02  0.00000000000E+00 0.  1.
</event>
<event>
 7    1  0.2227287E-008  0.4614232E+02  0.7816164E-02  0.1320468E+00
        -11   -1    0    0    0    0  0.00000000000E+00  0.00000000000E+00  0.45593999997E+02  0.45594000000E+02  0.51100000000E-03 0. -1.
         11   -1    0    0    0    0 -0.00000000000E+00 -0.00000000000E+00 -0.45593999997E+02  0.45594000000E+02  0.51100000000E-03 0.  1.
    9900012    2    1    2    0    0 -0.38189220996E+02 -0.22618090415E+02 -0.76888790880E+01  0.46142317899E+02  0.10000001259E+02 0.  0.
         12    1    1    2    0    0  0.38189220996E+02  0.22618090415E+02  0.76888790880E+01  0.45045682101E+02  0.00000000000E+00 0. -1.
         11    1    3    3    0    0 -0.16777720905E+02 -0.15119636744E+02 -0.33474809496E+01  0.22832016183E+02  0.51100000000E-03 0. -1.
        -11    1    3    3    0    0 -0.12245753107E+02 -0.58688481599E+01 -0.21819987876E+01  0.13753652855E+02  0.51100000000E-03 0.  1.
        -12    1    3    3    0    0 -0.91657469833E+01 -0.16296055115E+01 -0.21593993508E+01  0.95566488604E+01  0.00000000000E+00 0.  1.
</event>
<event>
 7    1  0.2227287E-008  0.4614232E+02  0.7816164E-02  0.1320468E+00
        -11   -1    0    0    0    0  0.00000000000E+00  0.00000000000E+00  0.45593999997E+02  0.45594000000E+02  0.51100000000E-03 0.  1.
         11   -1    0    0    0    0 -0.00000000000E+00 -0.00000000000E+00 -0.45593999997E+02  0.45594000000E+02  0.51100000000E-03 0. -1.
    9900012    2    1    2    0    0  0.27221749818E+02 -0.35188802804E+02  0.70596083086E+01  0.46142316795E+02  0.99999911928E+01 0.  0.
         12    1    1    2    0    0 -0.27221749818E+02  0.35188802804E+02 -0.70596083086E+01  0.45045683205E+02  0.00000000000E+00 0. -1.
         11    1    3    3    0    0  0.17550226907E+02 -0.17494547923E+02  0.37097636068E+01  0.25056576338E+02  0.51100000000E-03 0. -1.
        -11    1    3    3    0    0  0.78358016452E+01 -0.15398191878E+02  0.97173111413E+00  0.17304576335E+02  0.51100000000E-03 0.  1.
         12    1    3    3    0    0  0.18357212659E+01 -0.22960630028E+01  0.23781135877E+01  0.37811641216E+01  0.00000000000E+00 0. -1.
</event>
<event>
 7    1  0.2227287E-008  0.4614232E+02  0.7816164E-02  0.1320468E+00
        -11   -1    0    0    0    0  0.00000000000E+00  0.00000000000E+00  0.45593999997E+02  0.45594000000E+02  0.51100000000E-03 0.  1.
         11   -1    0    0    0    0 -0.00000000000E+00 -0.00000000000E+00 -0.45593999997E+02  0.45594000000E+02  0.51100000000E-03 0. -1.
    9900012    2    1    2    0    0  0.29040586215E+02 -0.65637406384E-01  0.34434770751E+02  0.46142318824E+02  0.10000009689E+02 0.  0.
         12    1    1    2    0    0 -0.29040586215E+02  0.65637406384E-01 -0.34434770751E+02  0.45045681176E+02  0.00000000000E+00 0. -1.
         11    1    3    3    0    0  0.15528320838E+02  0.82766071692E+00  0.19864569232E+02  0.25227264642E+02  0.51100000000E-03 0.  1.
        -11    1    3    3    0    0  0.80372067485E+01 -0.16805013648E+00  0.39777519389E+01  0.89692499082E+01  0.51100000000E-03 0. -1.
        -12    1    3    3    0    0  0.54750586291E+01 -0.72524798682E+00  0.10592449580E+02  0.11945804273E+02  0.00000000000E+00 0.  1.
</event>
<event>
 7    1  0.2227287E-008  0.4614232E+02  0.7816164E-02  0.1320468E+00
        -11   -1    0    0    0    0  0.00000000000E+00  0.00000000000E+00  0.45593999997E+02  0.45594000000E+02  0.51100000000E-03 0.  1.
         11   -1    0    0    0    0 -0.00000000000E+00 -0.00000000000E+00 -0.45593999997E+02  0.45594000000E+02  0.51100000000E-03 0. -1.
    9900012    2    1    2    0    0  0.87085004777E-01 -0.31191638962E+02  0.32499038451E+02  0.46142318463E+02  0.10000006397E+02 0.  0.
         12    1    1    2    0    0 -0.87085004777E-01  0.31191638962E+02 -0.32499038451E+02  0.45045681537E+02  0.00000000000E+00 0. -1.
         11    1    3    3    0    0 -0.40279759351E+01 -0.66976548153E+01  0.63728419584E+01  0.10084457598E+02  0.51100000000E-03 0. -1.
        -11    1    3    3    0    0  0.15916209185E+01 -0.11585207551E+02  0.12628928900E+02  0.17211627947E+02  0.51100000000E-03 0.  1.
         12    1    3    3    0    0  0.25234400214E+01 -0.12908776596E+02  0.13497267592E+02  0.18846232918E+02  0.00000000000E+00 0. -1.
</event>
<event>
 7    1  0.2227287E-008  0.4614232E+02  0.7816164E-02  0.1320468E+00
        -11   -1    0    0    0    0  0.00000000000E+00  0.00000000000E+00  0.45593999997E+02  0.45594000000E+02  0.51100000000E-03 0. -1.
         11   -1    0    0    0    0 -0.00000000000E+00 -0.00000000000E+00 -0.45593999997E+02  0.45594000000E+02  0.51100000000E-03 0.  1.
    9900012    2    1    2    0    0  0.69227192779E+01  0.44497987409E+02  0.10575730619E+01  0.46142318893E+02  0.10000010317E+02 0.  0.
         12    1    1    2    0    0 -0.69227192779E+01 -0.44497987409E+02 -0.10575730619E+01  0.45045681107E+02  0.00000000000E+00 0. -1.
         11    1    3    3    0    0 -0.15171143146E+01  0.22825465748E+01  0.73162641602E+00  0.28367115087E+01  0.51100000000E-03 0. -1.
        -11    1    3    3    0    0  0.16044187728E+01  0.13321553399E+02 -0.18008276036E+01  0.13538128559E+02  0.51100000000E-03 0.  1.
        -12    1    3    3    0    0  0.68354148197E+01  0.28893887436E+02  0.21267742495E+01  0.29767478825E+02  0.00000000000E+00 0.  1.
</event>
<event>
 7    1  0.2227287E-008  0.4614232E+02  0.7816164E-02  0.1320468E+00
        -11   -1    0    0    0    0  0.00000000000E+00  0.00000000000E+00  0.45593999997E+02  0.45594000000E+02  0.51100000000E-03 0.  1.
         11   -1    0    0    0    0 -0.00000000000E+00 -0.00000000000E+00 -0.45593999997E+02  0.45594000000E+02  0.51100000000E-03 0. -1.
    9900012    2    1    2    0    0 -0.33859333845E+01 -0.18245535459E+02  0.41045699021E+02  0.46142317441E+02  0.99999970775E+01 0.  0.
         12    1    1    2    0    0  0.33859333845E+01  0.18245535459E+02 -0.41045699021E+02  0.45045682559E+02  0.00000000000E+00 0. -1.
         11    1    3    3    0    0 -0.12487389248E+01 -0.41083497874E+01  0.55440347946E+01  0.70124324555E+01  0.51100000000E-03 0. -1.
        -11    1    3    3    0    0 -0.44860848467E+00 -0.13413862325E+02  0.24135348241E+02  0.27616082036E+02  0.51100000000E-03 0.  1.
        -12    1    3    3    0    0 -0.16885859750E+01 -0.72332334698E+00  0.11366315986E+02  0.11513802950E+02  0.00000000000E+00 0.  1.
</event>
<event>
 7    1  0.2227287E-008  0.4614232E+02  0.7816164E-02  0.1320468E+00
        -11   -1    0    0    0    0  0.00000000000E+00  0.00000000000E+00  0.45593999997E+02  0.45594000000E+02  0.51100000000E-03 0.  1.
         11   -1    0    0    0    0 -0.00000000000E+00 -0.00000000000E+00 -0.45593999997E+02  0.45594000000E+02  0.51100000000E-03 0. -1.
    9900012    2    1    2    0    0 -0.15285026492E+02 -0.37117952149E+02  0.20438665688E+02  0.46142318057E+02  0.10000002701E+02 0.  0.
         12    1    1    2    0    0  0.15285026492E+02  0.37117952149E+02 -0.20438665688E+02  0.45045681943E+02  0.00000000000E+00 0. -1.
         11    1    3    3    0    0  0.11821910582E+01 -0.36901712337E+01  0.32605266520E+01  0.50641853977E+01  0.51100000000E-03 0. -1.
        -11    1    3    3    0    0 -0.71380803589E+01 -0.15737822097E+02  0.70931609769E+01  0.18680047336E+02  0.51100000000E-03 0.  1.
         12    1    3    3    0    0 -0.93291371913E+01 -0.17689958818E+02  0.10084978059E+02  0.22398085323E+02  0.00000000000E+00 0. -1.
</event>
<event>
 7    1  0.2227287E-008  0.4614232E+02  0.7816164E-02  0.1320468E+00
        -11   -1    0    0    0    0  0.00000000000E+00  0.00000000000E+00  0.45593999997E+02  0.45594000000E+02  0.51100000000E-03 0.  1.
         11   -1    0    0    0    0 -0.00000000000E+00 -0.00000000000E+00 -0.45593999997E+02  0.45594000000E+02  0.51100000000E-03 0. -1.
    9900012    2    1    2    0    0  0.42850619521E+02  0.63931232376E+01 -0.12331499077E+02  0.46142317770E+02  0.10000000082E+02 0.  0.
         12    1    1    2    0    0 -0.42850619521E+02 -0.63931232376E+01  0.12331499077E+02  0.45045682230E+02  0.00000000000E+00 0. -1.
         11    1    3    3    0    0  0.52602464846E+01 -0.40192324279E+00 -0.17089423580E+01  0.55454683856E+01  0.51100000000E-03 0. -1.
        -11    1    3    3    0    0  0.28210505204E+02  0.21792149605E+01 -0.10384688499E+02  0.30140061997E+02  0.51100000000E-03 0.  1.
         12    1    3    3    0    0  0.93798678328E+01  0.46158315198E+01 -0.23786821964E+00  0.10456787388E+02  0.00000000000E+00 0. -1.
</event>
<event>
 7    1  0.2227287E-008  0.4614232E+02  0.7816164E-02  0.1320468E+00
        -11   -1    0    0    0    0  0.00000000000E+00  0.00000000000E+00  0.45593999997E+02  0.45594000000E+02  0.51100000000E-03 0. -1.
         11   -1    0    0    0    0 -0.00000000000E+00 -0.00000000000E+00 -0.45593999997E+02  0.45594000000E+02  0.51100000000E-03 0.  1.
    9900012    2    1    2    0    0 -0.37305501617E+02 -0.10426169887E+02 -0.22993654044E+02  0.46142316570E+02  0.99999891380E+01 0.  0.
         12    1    1    2    0    0  0.37305501617E+02  0.10426169887E+02  0.22993654044E+02  0.45045683430E+02  0.00000000000E+00 0. -1.
         11    1    3    3    0    0 -0.67794693882E+01  0.16741157888E+01 -0.45094782618E+01  0.83125966650E+01  0.51100000000E-03 0. -1.
        -11    1    3    3    0    0 -0.10045297186E+02 -0.31121488707E+01 -0.44085093140E+01  0.11403000517E+02  0.51100000000E-03 0.  1.
         12    1    3    3    0    0 -0.20480735043E+02 -0.89881368053E+01 -0.14075666468E+02  0.26426719388E+02  0.00000000000E+00 0. -1.
</event>
<event>
 7    1  0.2227287E-008  0.4614232E+02  0.7816164E-02  0.1320468E+00
        -11   -1    0    0    0    0  0.00000000000E+00  0.00000000000E+00  0.45593999997E+02  0.45594000000E+02  0.51100000000E-03 0. -1.
         11   -1    0    0    0    0 -0.00000000000E+00 -0.00000000000E+00 -0.45593999997E+02  0.45594000000E+02  0.51100000000E-03 0.  1.
    9900012    2    1    2    0    0  0.38776777233E+02 -0.22341512599E+02 -0.51314206735E+01  0.46142321895E+02  0.10000037700E+02 0.  0.
         12    1    1    2    0    0 -0.38776777233E+02  0.22341512599E+02  0.51314206735E+01  0.45045678105E+02  0.00000000000E+00 0. -1.
         11    1    3    3    0    0  0.19242425686E+02 -0.16316000880E+02 -0.38797205081E+01  0.25525184867E+02  0.51100000000E-03 0. -1.
        -11    1    3    3    0    0  0.17207845919E+02 -0.57760928316E+01 -0.49557463245E+00  0.18158160811E+02  0.51100000000E-03 0.  1.
         12    1    3    3    0    0  0.23265056281E+01 -0.24941888780E+00 -0.75612553302E+00  0.24589762180E+01  0.00000000000E+00 0. -1.
</event>
<event>
 7    1  0.2227287E-008  0.4614232E+02  0.7816164E-02  0.1320468E+00
        -11   -1    0    0    0    0  0.00000000000E+00  0.00000000000E+00  0.45593999997E+02  0.45594000000E+02  0.51100000000E-03 0.  1.
         11   -1    0    0    0    0 -0.00000000000E+00 -0.00000000000E+00 -0.45593999997E+02  0.45594000000E+02  0.51100000000E-03 0. -1.
    9900012    2    1    2    0    0  0.38531675430E+02  0.22932819421E+02  0.43022329962E+01  0.46142318444E+02  0.10000006231E+02 0.  0.
         12    1    1    2    0    0 -0.38531675430E+02 -0.22932819421E+02 -0.43022329962E+01  0.45045681556E+02  0.00000000000E+00 0. -1.
         11    1    3    3    0    0  0.18778299674E+02  0.15268393170E+02  0.39451968516E+01  0.24521683203E+02  0.51100000000E-03 0. -1.
        -11    1    3    3    0    0  0.17591386076E+02  0.65157326678E+01  0.16861156331E+01  0.18834930912E+02  0.51100000000E-03 0.  1.
         12    1    3    3    0    0  0.21619896801E+01  0.11486935835E+01 -0.13290794885E+01  0.27857043296E+01  0.00000000000E+00 0. -1.
</event>
<event>
 7    1  0.2227287E-008  0.4614232E+02  0.7816164E-02  0.1320468E+00
        -11   -1    0    0    0    0  0.00000000000E+00  0.00000000000E+00  0.45593999997E+02  0.45594000000E+02  0.51100000000E-03 0.  1.
         11   -1    0    0    0    0 -0.00000000000E+00 -0.00000000000E+00 -0.45593999997E+02  0.45594000000E+02  0.51100000000E-03 0. -1.
    9900012    2    1    2    0    0  0.29614736658E+02 -0.64923803974E+01  0.33315609753E+02  0.46142317812E+02  0.10000000466E+02 0.  0.
         12    1    1    2    0    0 -0.29614736658E+02  0.64923803974E+01 -0.33315609753E+02  0.45045682188E+02  0.00000000000E+00 0. -1.
         11    1    3    3    0    0  0.97794290070E+01  0.61701726945E-02  0.59318904858E+01  0.11437857963E+02  0.51100000000E-03 0. -1.
        -11    1    3    3    0    0  0.83006816219E+01 -0.49028569067E+01  0.13393097650E+02  0.16501950981E+02  0.51100000000E-03 0.  1.
        -12    1    3    3    0    0  0.11534626029E+02 -0.15956936633E+01  0.13990621617E+02  0.18202508869E+02  0.00000000000E+00 0.  1.
</event>
<event>
 7    1  0.2227287E-008  0.4614232E+02  0.7816164E-02  0.1320468E+00
        -11   -1    0    0    0    0  0.00000000000E+00  0.00000000000E+00  0.45593999997E+02  0.45594000000E+02  0.51100000000E-03 0.  1.
         11   -1    0    0    0    0 -0.00000000000E+00 -0.00000000000E+00 -0.45593999997E+02  0.45594000000E+02  0.51100000000E-03 0. -1.
    9900012    2    1    2    0    0  0.37848528223E+02 -0.24236174794E+02 -0.30348418595E+01  0.46142317383E+02  0.99999965539E+01 0.  0.
         12    1    1    2    0    0 -0.37848528223E+02  0.24236174794E+02  0.30348418595E+01  0.45045682617E+02  0.00000000000E+00 0. -1.
         11    1    3    3    0    0  0.22239367561E+01 -0.40391926633E+01 -0.44339199890E+00  0.46322315133E+01  0.51100000000E-03 0. -1.
        -11    1    3    3    0    0  0.22798215594E+01 -0.58820410126E+00 -0.15387767651E+01  0.28127219204E+01  0.51100000000E-03 0.  1.
        -12    1    3    3    0    0  0.33344769908E+02 -0.19608778029E+02 -0.10526730954E+01  0.38697363950E+02  0.00000000000E+00 0.  1.
</event>
<event>
 7    1  0.2227287E-008  0.4614232E+02  0.7816164E-02  0.1320468E+00
        -11   -1    0    0    0    0  0.00000000000E+00  0.00000000000E+00  0.45593999997E+02  0.45594000000E+02  0.51100000000E-03 0. -1.
         11   -1    0    0    0    0 -0.00000000000E+00 -0.00000000000E+00 -0.45593999997E+02  0.45594000000E+02  0.51100000000E-03 0.  1.
    9900012    2    1    2    0    0  0.23204943694E+02  0.15517620621E+02 -0.35353182187E+02  0.46142318161E+02  0.10000003649E+02 0.  0.
         12    1    1    2    0    0 -0.23204943694E+02 -0.15517620621E+02  0.35353182187E+02  0.45045681839E+02  0.00000000000E+00 0. -1.
         11    1    3    3    0    0  0.28695487510E+01  0.16723647573E+00 -0.44751387936E+01  0.53187541357E+01  0.51100000000E-03 0. -1.
        -11    1    3    3    0    0  0.13559324185E+02  0.95588484019E+01 -0.13882052076E+02  0.21631879836E+02  0.51100000000E-03 0.  1.
        -12    1    3    3    0    0  0.67760707573E+01  0.57915357434E+01 -0.16995991317E+02  0.19191684190E+02  0.00000000000E+00 0.  1.
</event>
<event>
 7    1  0.2227287E-008  0.4614232E+02  0.7816164E-02  0.1320468E+00
        -11   -1    0    0    0    0  0.00000000000E+00  0.00000000000E+00  0.45593999997E+02  0.45594000000E+02  0.51100000000E-03 0.  1.
         11   -1    0    0    0    0 -0.00000000000E+00 -0.00000000000E+00 -0.45593999997E+02  0.45594000000E+02  0.51100000000E-03 0. -1.
    9900012    2    1    2    0    0  0.97788361389E+01  0.17956785009E+02  0.40137784104E+02  0.46142317889E+02  0.10000001165E+02 0.  0.
         12    1    1    2    0    0 -0.97788361389E+01 -0.17956785009E+02 -0.40137784104E+02  0.45045682111E+02  0.00000000000E+00 0. -1.
         11    1    3    3    0    0 -0.92142906685E-01  0.26947211754E+01  0.11909371749E+02  0.12210780002E+02  0.51100000000E-03 0. -1.
        -11    1    3    3    0    0  0.65050296156E+00  0.47023830961E+01  0.83888709253E+01  0.96389167726E+01  0.51100000000E-03 0.  1.
        -12    1    3    3    0    0  0.92204760840E+01  0.10559680738E+02  0.19839541429E+02  0.24292621115E+02  0.00000000000E+00 0.  1.
</event>
<event>
 7    1  0.2227287E-008  0.4614232E+02  0.7816164E-02  0.1320468E+00
        -11   -1    0    0    0    0  0.00000000000E+00  0.00000000000E+00  0.45593999997E+02  0.45594000000E+02  0.51100000000E-03 0.  1.
         11   -1    0    0    0    0 -0.00000000000E+00 -0.00000000000E+00 -0.45593999997E+02  0.45594000000E+02  0.51100000000E-03 0. -1.
    9900012    2    1    2    0    0  0.14696507679E+02  0.22270522757E+02  0.36292560741E+02  0.46142317777E+02  0.10000000141E+02 0.  0.
         12    1    1    2    0    0 -0.14696507679E+02 -0.22270522757E+02 -0.36292560741E+02  0.45045682223E+02  0.00000000000E+00 0. -1.
         11    1    3    3    0    0  0.18498406191E+00 -0.36732273304E+00  0.75290878230E+00  0.85791432495E+00  0.51100000000E-03 0. -1.
        -11    1    3    3    0    0  0.11969523983E+01  0.22901069335E+01  0.49732388920E+00  0.26314665346E+01  0.51100000000E-03 0.  1.
        -12    1    3    3    0    0  0.13314571218E+02  0.20347738556E+02  0.35042328070E+02  0.42652936917E+02  0.00000000000E+00 0.  1.
</event>
<event>
 7    1  0.2227287E-008  0.4614232E+02  0.7816164E-02  0.1320468E+00
        -11   -1    0    0    0    0  0.00000000000E+00  0.00000000000E+00  0.45593999997E+02  0.45594000000E+02  0.51100000000E-03 0.  1.
         11   -1    0    0    0    0 -0.00000000000E+00 -0.00000000000E+00 -0.45593999997E+02  0.45594000000E+02  0.51100000000E-03 0. -1.
    9900012    2    1    2    0    0  0.30413528099E+02 -0.22770311188E+02  0.24200076692E+02  0.46142317910E+02  0.10000001360E+02 0.  0.
         12    1    1    2    0    0 -0.30413528099E+02  0.22770311188E+02 -0.24200076692E+02  0.45045682090E+02  0.00000000000E+00 0. -1.
         11    1    3    3    0    0  0.24855048329E+01 -0.29226994282E+01  0.44642725358E+01  0.58863941218E+01  0.51100000000E-03 0. -1.
        -11    1    3    3    0    0  0.24549596745E+01 -0.50763975572E+01  0.30445784066E+01  0.64082834750E+01  0.51100000000E-03 0.  1.
        -12    1    3    3    0    0  0.25473063591E+02 -0.14771214203E+02  0.16691225750E+02  0.33847640313E+02  0.00000000000E+00 0.  1.
</event>
<event>
 7    1  0.2227287E-008  0.4614232E+02  0.7816164E-02  0.1320468E+00
        -11   -1    0    0    0    0  0.00000000000E+00  0.00000000000E+00  0.45593999997E+02  0.45594000000E+02  0.51100000000E-03 0.  1.
         11   -1    0    0    0    0 -0.00000000000E+00 -0.00000000000E+00 -0.45593999997E+02  0.45594000000E+02  0.51100000000E-03 0. -1.
    9900012    2    1    2    0    0  0.36967647445E+01 -0.93711944501E+01  0.43904761787E+02  0.46142318047E+02  0.10000002607E+02 0.  0.
         12    1    1    2    0    0 -0.36967647445E+01  0.93711944501E+01 -0.43904761787E+02  0.45045681953E+02  0.00000000000E+00 0. -1.
         11    1    3    3    0    0  0.91753349770E+00 -0.37074832637E+01  0.16861228829E+02  0.17288387367E+02  0.51100000000E-03 0. -1.
        -11    1    3    3    0    0  0.17046459098E+01 -0.76092579357E+01  0.19927401686E+02  0.21398784129E+02  0.51100000000E-03 0.  1.
         12    1    3    3    0    0  0.10745853370E+01  0.19455467493E+01  0.71161312723E+01  0.74551465502E+01  0.00000000000E+00 0. -1.
</event>
<event>
 7    1  0.2227287E-008  0.4614232E+02  0.7816164E-02  0.1320468E+00
        -11   -1    0    0    0    0  0.00000000000E+00  0.00000000000E+00  0.45593999997E+02  0.45594000000E+02  0.51100000000E-03 0.  1.
         11   -1    0    0    0    0 -0.00000000000E+00 -0.00000000000E+00 -0.45593999997E+02  0.45594000000E+02  0.51100000000E-03 0. -1.
    9900012    2    1    2    0    0 -0.14161682041E+02  0.38567282930E+02  0.18469567943E+02  0.46142317734E+02  0.99999997524E+01 0.  0.
         12    1    1    2    0    0  0.14161682041E+02 -0.38567282930E+02 -0.18469567943E+02  0.45045682266E+02  0.00000000000E+00 0. -1.
         11    1    3    3    0    0 -0.35528422993E+01  0.82142896527E+01  0.69882794763E+01  0.11354879709E+02  0.51100000000E-03 0. -1.
        -11    1    3    3    0    0 -0.47042762467E+01  0.70629184412E+01  0.89996332154E+00  0.85337545168E+01  0.51100000000E-03 0.  1.
        -12    1    3    3    0    0 -0.59045634950E+01  0.23290074836E+02  0.10581325145E+02  0.26253683508E+02  0.00000000000E+00 0.  1.
</event>
<event>
 7    1  0.2227287E-008  0.4614232E+02  0.7816164E-02  0.1320468E+00
        -11   -1    0    0    0    0  0.00000000000E+00  0.00000000000E+00  0.45593999997E+02  0.45594000000E+02  0.51100000000E-03 0. -1.
         11   -1    0    0    0    0 -0.00000000000E+00 -0.00000000000E+00 -0.45593999997E+02  0.45594000000E+02  0.51100000000E-03 0.  1.
    9900012    2    1    2    0    0 -0.15747222392E+02  0.39137360062E+02 -0.15792577400E+02  0.46142318003E+02  0.10000002201E+02 0.  0.
         12    1    1    2    0    0  0.15747222392E+02 -0.39137360062E+02  0.15792577400E+02  0.45045681997E+02  0.00000000000E+00 0. -1.
         11    1    3    3    0    0 -0.12570824150E+02  0.23073475339E+02 -0.62957046422E+01  0.27019377884E+02  0.51100000000E-03 0. -1.
        -11    1    3    3    0    0 -0.10224866159E+01  0.81482225935E+01 -0.33369887665E+01  0.88642261141E+01  0.51100000000E-03 0.  1.
        -12    1    3    3    0    0 -0.21539116256E+01  0.79156621300E+01 -0.61598839911E+01  0.10258714005E+02  0.00000000000E+00 0.  1.
</event>
<event>
 7    1  0.2227287E-008  0.4614232E+02  0.7816164E-02  0.1320468E+00
        -11   -1    0    0    0    0  0.00000000000E+00  0.00000000000E+00  0.45593999997E+02  0.45594000000E+02  0.51100000000E-03 0.  1.
         11   -1    0    0    0    0 -0.00000000000E+00 -0.00000000000E+00 -0.45593999997E+02  0.45594000000E+02  0.51100000000E-03 0. -1.
    9900012    2    1    2    0    0 -0.27358303550E+02  0.14334346240E+02  0.32789683271E+02  0.46142316697E+02  0.99999902944E+01 0.  0.
         12    1    1    2    0    0  0.27358303550E+02 -0.14334346240E+02 -0.32789683271E+02  0.45045683303E+02  0.00000000000E+00 0. -1.
         11    1    3    3    0    0 -0.91487628069E+01  0.73314120744E+01  0.15981073471E+02  0.19820297007E+02  0.51100000000E-03 0. -1.
        -11    1    3    3    0    0 -0.30191686090E+01  0.12082791597E+01  0.59204047001E+01  0.67547397945E+01  0.51100000000E-03 0.  1.
         12    1    3    3    0    0 -0.15190372134E+02  0.57946550062E+01  0.10888205100E+02  0.19567279895E+02  0.00000000000E+00 0. -1.
</event>
<event>
 7    1  0.2227287E-008  0.4614232E+02  0.7816164E-02  0.1320468E+00
        -11   -1    0    0    0    0  0.00000000000E+00  0.00000000000E+00  0.45593999997E+02  0.45594000000E+02  0.51100000000E-03 0.  1.
         11   -1    0    0    0    0 -0.00000000000E+00 -0.00000000000E+00 -0.45593999997E+02  0.45594000000E+02  0.51100000000E-03 0. -1.
    9900012    2    1    2    0    0  0.18696672078E+02 -0.39355670851E+02  0.11431498709E+02  0.46142317214E+02  0.99999950100E+01 0.  0.
         12    1    1    2    0    0 -0.18696672078E+02  0.39355670851E+02 -0.11431498709E+02  0.45045682786E+02  0.00000000000E+00 0. -1.
         11    1    3    3    0    0  0.40883589330E+01 -0.77429273379E+01  0.43368063202E+01  0.97711561161E+01  0.51100000000E-03 0. -1.
        -11    1    3    3    0    0  0.15131366651E+02 -0.26456694098E+02  0.57311278750E+01  0.31012267675E+02  0.51100000000E-03 0.  1.
         12    1    3    3    0    0 -0.52305350577E+00 -0.51560494150E+01  0.13635645134E+01  0.53588934232E+01  0.00000000000E+00 0. -1.
</event>
<event>
 7    1  0.2227287E-008  0.4614232E+02  0.7816164E-02  0.1320468E+00
        -11   -1    0    0    0    0  0.00000000000E+00  0.00000000000E+00  0.45593999997E+02  0.45594000000E+02  0.51100000000E-03 0.  1.
         11   -1    0    0    0    0 -0.00000000000E+00 -0.00000000000E+00 -0.45593999997E+02  0.45594000000E+02  0.51100000000E-03 0. -1.
    9900012    2    1    2    0    0  0.23284162264E+02 -0.20694277685E+02  0.32537795772E+02  0.46142317688E+02  0.99999993357E+01 0.  0.
         12    1    1    2    0    0 -0.23284162264E+02  0.20694277685E+02 -0.32537795772E+02  0.45045682312E+02  0.00000000000E+00 0. -1.
         11    1    3    3    0    0  0.34937484151E+00  0.45058543314E+00  0.77058067399E+00  0.95858481560E+00  0.51100000000E-03 0. -1.
        -11    1    3    3    0    0  0.15003279882E+02 -0.10088913217E+02  0.14355821391E+02  0.23086233673E+02  0.51100000000E-03 0.  1.
        -12    1    3    3    0    0  0.79315075405E+01 -0.11055949902E+02  0.17411393706E+02  0.22097499200E+02  0.00000000000E+00 0.  1.
</event>
<event>
 7    1  0.2227287E-008  0.4614232E+02  0.7816164E-02  0.1320468E+00
        -11   -1    0    0    0    0  0.00000000000E+00  0.00000000000E+00  0.45593999997E+02  0.45594000000E+02  0.51100000000E-03 0.  1.
         11   -1    0    0    0    0 -0.00000000000E+00 -0.00000000000E+00 -0.45593999997E+02  0.45594000000E+02  0.51100000000E-03 0. -1.
    9900012    2    1    2    0    0  0.28477932100E+02 -0.34786457278E+02  0.28325458159E+01  0.46142317160E+02  0.99999945210E+01 0.  0.
         12    1    1    2    0    0 -0.28477932100E+02  0.34786457278E+02 -0.28325458159E+01  0.45045682840E+02  0.00000000000E+00 0. -1.
         11    1    3    3    0    0  0.21809106214E+01 -0.14927524135E+01 -0.37966528786E+00  0.26699863106E+01  0.51100000000E-03 0. -1.
        -11    1    3    3    0    0  0.54493087821E+01 -0.97028975233E+01  0.44016641597E+01  0.11967281821E+02  0.51100000000E-03 0.  1.
        -12    1    3    3    0    0  0.20847712697E+02 -0.23590807342E+02 -0.11894530559E+01  0.31505049029E+02  0.00000000000E+00 0.  1.
</event>
<event>
 7    1  0.2227287E-008  0.4614231E+02  0.7816164E-02  0.1320468E+00
        -11   -1    0    0    0    0  0.00000000000E+00  0.00000000000E+00  0.45593999997E+02  0.45594000000E+02  0.51100000000E-03 0.  1.
         11   -1    0    0    0    0 -0.00000000000E+00 -0.00000000000E+00 -0.45593999997E+02  0.45594000000E+02  0.51100000000E-03 0. -1.
    9900012    2    1    2    0    0 -0.24913380822E+02  0.19736690425E+02  0.31920228107E+02  0.46142307028E+02  0.99999021238E+01 0.  0.
         12    1    1    2    0    0  0.24913380822E+02 -0.19736690425E+02 -0.31920228107E+02  0.45045692972E+02  0.00000000000E+00 0. -1.
         11    1    3    3    0    0 -0.26187172131E+01  0.16419305893E+01  0.15315310465E+01  0.34495222147E+01  0.51100000000E-03 0. -1.
        -11    1    3    3    0    0 -0.20853371060E+02  0.13709955897E+02  0.22759537968E+02  0.33776064662E+02  0.51100000000E-03 0.  1.
        -12    1    3    3    0    0 -0.14412925494E+01  0.43848039392E+01  0.76291590923E+01  0.89167201511E+01  0.00000000000E+00 0.  1.
</event>
<event>
 7    1  0.2227287E-008  0.4614232E+02  0.7816164E-02  0.1320468E+00
        -11   -1    0    0    0    0  0.00000000000E+00  0.00000000000E+00  0.45593999997E+02  0.45594000000E+02  0.51100000000E-03 0.  1.
         11   -1    0    0    0    0 -0.00000000000E+00 -0.00000000000E+00 -0.45593999997E+02  0.45594000000E+02  0.51100000000E-03 0. -1.
    9900012    2    1    2    0    0  0.19936617898E+02  0.34422856011E+02  0.21135559364E+02  0.46142316313E+02  0.99999867984E+01 0.  0.
         12    1    1    2    0    0 -0.19936617898E+02 -0.34422856011E+02 -0.21135559364E+02  0.45045683687E+02  0.00000000000E+00 0. -1.
         11    1    3    3    0    0  0.55933742792E+01  0.12685212931E+02  0.84378683155E+01  0.16229543583E+02  0.51100000000E-03 0. -1.
        -11    1    3    3    0    0  0.88208418303E+01  0.83894377890E+01  0.85757833622E+01  0.14890734621E+02  0.51100000000E-03 0.  1.
         12    1    3    3    0    0  0.55224017883E+01  0.13348205290E+02  0.41219076869E+01  0.15022038110E+02  0.00000000000E+00 0. -1.
</event>
<event>
 7    1  0.2227287E-008  0.4614232E+02  0.7816164E-02  0.1320468E+00
        -11   -1    0    0    0    0  0.00000000000E+00  0.00000000000E+00  0.45593999997E+02  0.45594000000E+02  0.51100000000E-03 0.  1.
         11   -1    0    0    0    0 -0.00000000000E+00 -0.00000000000E+00 -0.45593999997E+02  0.45594000000E+02  0.51100000000E-03 0. -1.
    9900012    2    1    2    0    0  0.15746417614E+02 -0.19317871639E+02  0.37523107953E+02  0.46142318045E+02  0.10000002590E+02 0.  0.
         12    1    1    2    0    0 -0.15746417614E+02  0.19317871639E+02 -0.37523107953E+02  0.45045681955E+02  0.00000000000E+00 0. -1.
         11    1    3    3    0    0  0.13060364822E+01  0.44494722757E+00  0.19375314130E+01  0.23785999171E+01  0.51100000000E-03 0. -1.
        -11    1    3    3    0    0  0.62998018233E-01  0.52364016482E+00  0.13672633317E+01  0.14654613785E+01  0.51100000000E-03 0.  1.
        -12    1    3    3    0    0  0.14377383113E+02 -0.20286459032E+02  0.34218313208E+02  0.42298256749E+02  0.00000000000E+00 0.  1.
</event>
<event>
 7    1  0.2227287E-008  0.4614232E+02  0.7816164E-02  0.1320468E+00
        -11   -1    0    0    0    0  0.00000000000E+00  0.00000000000E+00  0.45593999997E+02  0.45594000000E+02  0.51100000000E-03 0.  1.
         11   -1    0    0    0    0 -0.00000000000E+00 -0.00000000000E+00 -0.45593999997E+02  0.45594000000E+02  0.51100000000E-03 0. -1.
    9900012    2    1    2    0    0  0.23028493770E+02 -0.12716895595E+02  0.36566141977E+02  0.46142315435E+02  0.99999787860E+01 0.  0.
         12    1    1    2    0    0 -0.23028493770E+02  0.12716895595E+02 -0.36566141977E+02  0.45045684565E+02  0.00000000000E+00 0. -1.
         11    1    3    3    0    0  0.25019975425E+01 -0.62715711582E+00  0.45284484170E+01  0.52115413341E+01  0.51100000000E-03 0. -1.
        -11    1    3    3    0    0  0.88702521290E+01 -0.21032532106E+01  0.67265934162E+01  0.11329258853E+02  0.51100000000E-03 0.  1.
        -12    1    3    3    0    0  0.11656244099E+02 -0.99864852688E+01  0.25311100143E+02  0.29601515248E+02  0.00000000000E+00 0.  1.
</event>
<event>
 7    1  0.2227287E-008  0.4614232E+02  0.7816164E-02  0.1320468E+00
        -11   -1    0    0    0    0  0.00000000000E+00  0.00000000000E+00  0.45593999997E+02  0.45594000000E+02  0.51100000000E-03 0. -1.
         11   -1    0    0    0    0 -0.00000000000E+00 -0.00000000000E+00 -0.45593999997E+02  0.45594000000E+02  0.51100000000E-03 0.  1.
    9900012    2    1    2    0    0  0.18976327604E+02 -0.18038314460E+02 -0.36655582224E+02  0.46142317564E+02  0.99999982045E+01 0.  0.
         12    1    1    2    0    0 -0.18976327604E+02  0.18038314460E+02  0.36655582224E+02  0.45045682436E+02  0.00000000000E+00 0. -1.
         11    1    3    3    0    0  0.36589852651E+01 -0.64937107742E+01 -0.10160847640E+02  0.12601558547E+02  0.51100000000E-03 0. -1.
        -11    1    3    3    0    0  0.12001053704E+02 -0.45734765498E+01 -0.16205613993E+02  0.20677618405E+02  0.51100000000E-03 0.  1.
        -12    1    3    3    0    0  0.33162886347E+01 -0.69711271365E+01 -0.10289120591E+02  0.12863140612E+02  0.00000000000E+00 0.  1.
</event>
<event>
 7    1  0.2227287E-008  0.4614232E+02  0.7816164E-02  0.1320468E+00
        -11   -1    0    0    0    0  0.00000000000E+00  0.00000000000E+00  0.45593999997E+02  0.45594000000E+02  0.51100000000E-03 0.  1.
         11   -1    0    0    0    0 -0.00000000000E+00 -0.00000000000E+00 -0.45593999997E+02  0.45594000000E+02  0.51100000000E-03 0. -1.
    9900012    2    1    2    0    0 -0.46766373152E+01  0.27649742749E+01  0.44716858222E+02  0.46142318425E+02  0.10000006056E+02 0.  0.
         12    1    1    2    0    0  0.46766373152E+01 -0.27649742749E+01 -0.44716858222E+02  0.45045681575E+02  0.00000000000E+00 0. -1.
         11    1    3    3    0    0 -0.91209602189E-01  0.49601596734E+01  0.12608091187E+02  0.13549002429E+02  0.51100000000E-03 0. -1.
        -11    1    3    3    0    0  0.23422331362E-01  0.31843001050E+00  0.27948334195E+01  0.28130126877E+01  0.51100000000E-03 0.  1.
        -12    1    3    3    0    0 -0.46088500443E+01 -0.25136154090E+01  0.29313933615E+02  0.29780303308E+02  0.00000000000E+00 0.  1.
</event>
<event>
 7    1  0.2227287E-008  0.4614232E+02  0.7816164E-02  0.1320468E+00
        -11   -1    0    0    0    0  0.00000000000E+00  0.00000000000E+00  0.45593999997E+02  0.45594000000E+02  0.51100000000E-03 0.  1.
         11   -1    0    0    0    0 -0.00000000000E+00 -0.00000000000E+00 -0.45593999997E+02  0.45594000000E+02  0.51100000000E-03 0. -1.
    9900012    2    1    2    0    0 -0.28670461075E+02  0.30436824347E+01  0.34610027543E+02  0.46142319324E+02  0.10000014248E+02 0.  0.
         12    1    1    2    0    0  0.28670461075E+02 -0.30436824347E+01 -0.34610027543E+02  0.45045680676E+02  0.00000000000E+00 0. -1.
         11    1    3    3    0    0 -0.11405491737E+02  0.47826724376E+01  0.19301093723E+02  0.22923599556E+02  0.51100000000E-03 0. -1.
        -11    1    3    3    0    0 -0.61193478260E+01  0.10208946033E+00  0.61410367977E+01  0.86700157604E+01  0.51100000000E-03 0.  1.
         12    1    3    3    0    0 -0.11145621512E+02 -0.18410794633E+01  0.91678970223E+01  0.14548704007E+02  0.00000000000E+00 0. -1.
</event>
<event>
 7    1  0.2227287E-008  0.4614232E+02  0.7816164E-02  0.1320468E+00
        -11   -1    0    0    0    0  0.00000000000E+00  0.00000000000E+00  0.45593999997E+02  0.45594000000E+02  0.51100000000E-03 0. -1.
         11   -1    0    0    0    0 -0.00000000000E+00 -0.00000000000E+00 -0.45593999997E+02  0.45594000000E+02  0.51100000000E-03 0.  1.
    9900012    2    1    2    0    0 -0.20270483437E+02  0.32733531375E+02 -0.23382404516E+02  0.46142318565E+02  0.10000007329E+02 0.  0.
         12    1    1    2    0    0  0.20270483437E+02 -0.32733531375E+02  0.23382404516E+02  0.45045681435E+02  0.00000000000E+00 0. -1.
         11    1    3    3    0    0 -0.12946324163E+02  0.17302875921E+02 -0.11223375062E+02  0.24350789977E+02  0.51100000000E-03 0. -1.
        -11    1    3    3    0    0 -0.19344308545E+01  0.41476964798E+00 -0.23142830017E+01  0.30446613383E+01  0.51100000000E-03 0.  1.
        -12    1    3    3    0    0 -0.53897284196E+01  0.15015885806E+02 -0.98447464514E+01  0.18746867250E+02  0.00000000000E+00 0.  1.
</event>
<event>
 7    1  0.2227287E-008  0.4614232E+02  0.7816164E-02  0.1320468E+00
        -11   -1    0    0    0    0  0.00000000000E+00  0.00000000000E+00  0.45593999997E+02  0.45594000000E+02  0.51100000000E-03 0.  1.
         11   -1    0    0    0    0 -0.00000000000E+00 -0.00000000000E+00 -0.45593999997E+02  0.45594000000E+02  0.51100000000E-03 0. -1.
    9900012    2    1    2    0    0  0.42528702463E+02 -0.81101401922E+00  0.14824474764E+02  0.46142319531E+02  0.10000016137E+02 0.  0.
         12    1    1    2    0    0 -0.42528702463E+02  0.81101401922E+00 -0.14824474764E+02  0.45045680469E+02  0.00000000000E+00 0. -1.
         11    1    3    3    0    0  0.12589644801E+02 -0.17042551810E+01  0.29690449544E+01  0.13046795397E+02  0.51100000000E-03 0. -1.
        -11    1    3    3    0    0  0.22940142220E+02 -0.25803149401E+01  0.89701909964E+01  0.24766357767E+02  0.51100000000E-03 0.  1.
        -12    1    3    3    0    0  0.69989154422E+01  0.34735561019E+01  0.28852388129E+01  0.83291663669E+01  0.00000000000E+00 0.  1.
</event>
<event>
 7    1  0.2227287E-008  0.4614232E+02  0.7816164E-02  0.1320468E+00
        -11   -1    0    0    0    0  0.00000000000E+00  0.00000000000E+00  0.45593999997E+02  0.45594000000E+02  0.51100000000E-03 0. -1.
         11   -1    0    0    0    0 -0.00000000000E+00 -0.00000000000E+00 -0.45593999997E+02  0.45594000000E+02  0.51100000000E-03 0.  1.
    9900012    2    1    2    0    0  0.23219556055E+02 -0.86242883775E+01 -0.37624293443E+02  0.46142316627E+02  0.99999896604E+01 0.  0.
         12    1    1    2    0    0 -0.23219556055E+02  0.86242883775E+01  0.37624293443E+02  0.45045683373E+02  0.00000000000E+00 0. -1.
         11    1    3    3    0    0  0.12757521378E+01 -0.21080222501E+01 -0.56061973199E+01  0.61237855918E+01  0.51100000000E-03 0. -1.
        -11    1    3    3    0    0  0.10147287623E+02 -0.51170727859E+01 -0.20680260743E+02  0.23597141027E+02  0.51100000000E-03 0.  1.
         12    1    3    3    0    0  0.11796516294E+02 -0.13991933416E+01 -0.11337835380E+02  0.16421390008E+02  0.00000000000E+00 0. -1.
</event>
<event>
 7    1  0.2227287E-008  0.4614232E+02  0.7816164E-02  0.1320468E+00
        -11   -1    0    0    0    0  0.00000000000E+00  0.00000000000E+00  0.45593999997E+02  0.45594000000E+02  0.51100000000E-03 0.  1.
         11   -1    0    0    0    0 -0.00000000000E+00 -0.00000000000E+00 -0.45593999997E+02  0.45594000000E+02  0.51100000000E-03 0. -1.
    9900012    2    1    2    0    0  0.11157809615E+02  0.32199545980E+02  0.29458547674E+02  0.46142317546E+02  0.99999980368E+01 0.  0.
         12    1    1    2    0    0 -0.11157809615E+02 -0.32199545980E+02 -0.29458547674E+02  0.45045682454E+02  0.00000000000E+00 0. -1.
         11    1    3    3    0    0 -0.75805886921E+00  0.29224241317E+00  0.51964046776E+00  0.96440932912E+00  0.51100000000E-03 0. -1.
        -11    1    3    3    0    0  0.15854175734E+00  0.81646941787E+00 -0.32395721565E+00  0.89258407886E+00  0.51100000000E-03 0.  1.
        -12    1    3    3    0    0  0.11757326727E+02  0.31090834149E+02  0.29262864421E+02  0.44285324138E+02  0.00000000000E+00 0.  1.
</event>
<event>
 7    1  0.2227287E-008  0.4614232E+02  0.7816164E-02  0.1320468E+00
        -11   -1    0    0    0    0  0.00000000000E+00  0.00000000000E+00  0.45593999997E+02  0.45594000000E+02  0.51100000000E-03 0. -1.
         11   -1    0    0    0    0 -0.00000000000E+00 -0.00000000000E+00 -0.45593999997E+02  0.45594000000E+02  0.51100000000E-03 0.  1.
    9900012    2    1    2    0    0  0.15969174969E+02  0.40679251172E+02 -0.10922334632E+02  0.46142318532E+02  0.10000007027E+02 0.  0.
         12    1    1    2    0    0 -0.15969174969E+02 -0.40679251172E+02  0.10922334632E+02  0.45045681468E+02  0.00000000000E+00 0. -1.
         11    1    3    3    0    0  0.20280346408E+01  0.13746677429E+02 -0.34745217837E+01  0.14323280586E+02  0.51100000000E-03 0. -1.
        -11    1    3    3    0    0  0.49822508760E+01  0.16048349108E+02 -0.33056521241E+01  0.17125993959E+02  0.51100000000E-03 0.  1.
        -12    1    3    3    0    0  0.89588894518E+01  0.10884224636E+02 -0.41421607241E+01  0.14693043987E+02  0.00000000000E+00 0.  1.
</event>
<event>
 7    1  0.2227287E-008  0.4614232E+02  0.7816164E-02  0.1320468E+00
        -11   -1    0    0    0    0  0.00000000000E+00  0.00000000000E+00  0.45593999997E+02  0.45594000000E+02  0.51100000000E-03 0.  1.
         11   -1    0    0    0    0 -0.00000000000E+00 -0.00000000000E+00 -0.45593999997E+02  0.45594000000E+02  0.51100000000E-03 0. -1.
    9900012    2    1    2    0    0  0.11671916186E+02 -0.67591286637E+01  0.42978995897E+02  0.46142317232E+02  0.99999951711E+01 0.  0.
         12    1    1    2    0    0 -0.11671916186E+02  0.67591286637E+01 -0.42978995897E+02  0.45045682768E+02  0.00000000000E+00 0. -1.
         11    1    3    3    0    0  0.62990440219E+01 -0.17990936672E+01  0.25000312830E+02  0.25844348231E+02  0.51100000000E-03 0. -1.
        -11    1    3    3    0    0  0.26079124236E+01 -0.23467186921E+01  0.15166336582E+02  0.15566825669E+02  0.51100000000E-03 0.  1.
         12    1    3    3    0    0  0.27649597405E+01 -0.26133163043E+01  0.28123464851E+01  0.47311433317E+01  0.00000000000E+00 0. -1.
</event>
<event>
 7    1  0.2227287E-008  0.4614232E+02  0.7816164E-02  0.1320468E+00
        -11   -1    0    0    0    0  0.00000000000E+00  0.00000000000E+00  0.45593999997E+02  0.45594000000E+02  0.51100000000E-03 0.  1.
         11   -1    0    0    0    0 -0.00000000000E+00 -0.00000000000E+00 -0.45593999997E+02  0.45594000000E+02  0.51100000000E-03 0. -1.
    9900012    2    1    2    0    0 -0.27457061843E+01  0.14044470597E+02  0.42712147032E+02  0.46142316956E+02  0.99999926584E+01 0.  0.
         12    1    1    2    0    0  0.27457061843E+01 -0.14044470597E+02 -0.42712147032E+02  0.45045683044E+02  0.00000000000E+00 0. -1.
         11    1    3    3    0    0 -0.64901392442E+00  0.52527110026E+01  0.65037188445E+01  0.83851387002E+01  0.51100000000E-03 0. -1.
        -11    1    3    3    0    0 -0.34639236947E+01  0.30206519034E+01  0.12498991652E+02  0.13317203079E+02  0.51100000000E-03 0.  1.
        -12    1    3    3    0    0  0.13672314348E+01  0.57711076907E+01  0.23709436536E+02  0.24439975176E+02  0.00000000000E+00 0.  1.
</event>
<event>
 7    1  0.2227287E-008  0.4614232E+02  0.7816164E-02  0.1320468E+00
        -11   -1    0    0    0    0  0.00000000000E+00  0.00000000000E+00  0.45593999997E+02  0.45594000000E+02  0.51100000000E-03 0. -1.
         11   -1    0    0    0    0 -0.00000000000E+00 -0.00000000000E+00 -0.45593999997E+02  0.45594000000E+02  0.51100000000E-03 0.  1.
    9900012    2    1    2    0    0 -0.42933775227E+02 -0.12119091034E+02  0.62395548394E+01  0.46142317995E+02  0.10000002132E+02 0.  0.
         12    1    1    2    0    0  0.42933775227E+02  0.12119091034E+02 -0.62395548394E+01  0.45045682005E+02  0.00000000000E+00 0. -1.
         11    1    3    3    0    0 -0.12824012747E+02 -0.15058868634E+01  0.32891967907E+01  0.13324481753E+02  0.51100000000E-03 0. -1.
        -11    1    3    3    0    0 -0.23006259023E+02 -0.50759763274E+01  0.87870926361E+00  0.23575954278E+02  0.51100000000E-03 0.  1.
        -12    1    3    3    0    0 -0.71035034565E+01 -0.55372278433E+01  0.20716487850E+01  0.92418819638E+01  0.00000000000E+00 0.  1.
</event>
<event>
 7    1  0.2227287E-008  0.4614232E+02  0.7816164E-02  0.1320468E+00
        -11   -1    0    0    0    0  0.00000000000E+00  0.00000000000E+00  0.45593999997E+02  0.45594000000E+02  0.51100000000E-03 0.  1.
         11   -1    0    0    0    0 -0.00000000000E+00 -0.00000000000E+00 -0.45593999997E+02  0.45594000000E+02  0.51100000000E-03 0. -1.
    9900012    2    1    2    0    0  0.12324270039E+01  0.14852611068E+02  0.42508759210E+02  0.46142317172E+02  0.99999946296E+01 0.  0.
         12    1    1    2    0    0 -0.12324270039E+01 -0.14852611068E+02 -0.42508759210E+02  0.45045682828E+02  0.00000000000E+00 0. -1.
         11    1    3    3    0    0 -0.65598915727E+00  0.74963324969E+01  0.16622390945E+02  0.18246347681E+02  0.51100000000E-03 0. -1.
        -11    1    3    3    0    0  0.10039827076E+01  0.85814323388E+01  0.23801236384E+02  0.25320896823E+02  0.51100000000E-03 0.  1.
         12    1    3    3    0    0  0.88443345356E+00 -0.12251537678E+01  0.20851318812E+01  0.25750726690E+01  0.00000000000E+00 0. -1.
</event>
<event>
 7    1  0.2227287E-008  0.4614232E+02  0.7816164E-02  0.1320468E+00
        -11   -1    0    0    0    0  0.00000000000E+00  0.00000000000E+00  0.45593999997E+02  0.45594000000E+02  0.51100000000E-03 0. -1.
         11   -1    0    0    0    0 -0.00000000000E+00 -0.00000000000E+00 -0.45593999997E+02  0.45594000000E+02  0.51100000000E-03 0.  1.
    9900012    2    1    2    0    0  0.28462858942E+02 -0.32738397574E+02 -0.12131629480E+02  0.46142318201E+02  0.10000004014E+02 0.  0.
         12    1    1    2    0    0 -0.28462858942E+02  0.32738397574E+02  0.12131629480E+02  0.45045681799E+02  0.00000000000E+00 0. -1.
         11    1    3    3    0    0 -0.69596903633E+00 -0.68310768570E+00 -0.69458349015E+00  0.11972700179E+01  0.51100000000E-03 0. -1.
        -11    1    3    3    0    0  0.56667085625E+01 -0.77209383179E+01 -0.15170882929E+01  0.96967020987E+01  0.51100000000E-03 0.  1.
        -12    1    3    3    0    0  0.23492119415E+02 -0.24334351571E+02 -0.99199576970E+01  0.35248346085E+02  0.00000000000E+00 0.  1.
</event>
<event>
 7    1  0.2227287E-008  0.4614232E+02  0.7816164E-02  0.1320468E+00
        -11   -1    0    0    0    0  0.00000000000E+00  0.00000000000E+00  0.45593999997E+02  0.45594000000E+02  0.51100000000E-03 0.  1.
         11   -1    0    0    0    0 -0.00000000000E+00 -0.00000000000E+00 -0.45593999997E+02  0.45594000000E+02  0.51100000000E-03 0. -1.
    9900012    2    1    2    0    0 -0.16238973914E+02  0.22594389781E+02  0.35424607516E+02  0.46142317177E+02  0.99999946695E+01 0.  0.
         12    1    1    2    0    0  0.16238973914E+02 -0.22594389781E+02 -0.35424607516E+02  0.45045682823E+02  0.00000000000E+00 0. -1.
         11    1    3    3    0    0 -0.15917411590E+02  0.19504217592E+02  0.26148342726E+02  0.36297580128E+02  0.51100000000E-03 0. -1.
        -11    1    3    3    0    0 -0.67893014663E+00  0.14819177382E+01  0.40803787291E+01  0.43939182014E+01  0.51100000000E-03 0.  1.
         12    1    3    3    0    0  0.35736782280E+00  0.16082544508E+01  0.51958860611E+01  0.54508188467E+01  0.00000000000E+00 0. -1.
</event>
<event>
 7    1  0.2227287E-008  0.4614232E+02  0.7816164E-02  0.1320468E+00
        -11   -1    0    0    0    0  0.00000000000E+00  0.00000000000E+00  0.45593999997E+02  0.45594000000E+02  0.51100000000E-03 0.  1.
         11   -1    0    0    0    0 -0.00000000000E+00 -0.00000000000E+00 -0.45593999997E+02  0.45594000000E+02  0.51100000000E-03 0. -1.
    9900012    2    1    2    0    0 -0.73424790093E+01 -0.38770924172E+02  0.21725951392E+02  0.46142317376E+02  0.99999964906E+01 0.  0.
         12    1    1    2    0    0  0.73424790093E+01  0.38770924172E+02 -0.21725951392E+02  0.45045682624E+02  0.00000000000E+00 0. -1.
         11    1    3    3    0    0 -0.15235515466E+01 -0.21652093128E+02  0.10061989612E+02  0.23924422278E+02  0.51100000000E-03 0. -1.
        -11    1    3    3    0    0 -0.53885637474E+00 -0.59305902537E+01  0.64897062365E+01  0.88078688823E+01  0.51100000000E-03 0.  1.
         12    1    3    3    0    0 -0.52800710880E+01 -0.11188240790E+02  0.51742555437E+01  0.13410026216E+02  0.00000000000E+00 0. -1.
</event>
<event>
 7    1  0.2227287E-008  0.4614232E+02  0.7816164E-02  0.1320468E+00
        -11   -1    0    0    0    0  0.00000000000E+00  0.00000000000E+00  0.45593999997E+02  0.45594000000E+02  0.51100000000E-03 0.  1.
         11   -1    0    0    0    0 -0.00000000000E+00 -0.00000000000E+00 -0.45593999997E+02  0.45594000000E+02  0.51100000000E-03 0. -1.
    9900012    2    1    2    0    0  0.12443051639E+02  0.22548233149E+02  0.36957558880E+02  0.46142317514E+02  0.99999977491E+01 0.  0.
         12    1    1    2    0    0 -0.12443051639E+02 -0.22548233149E+02 -0.36957558880E+02  0.45045682486E+02  0.00000000000E+00 0. -1.
         11    1    3    3    0    0  0.19747043434E+01  0.67394837854E+01  0.53003371976E+01  0.87985040550E+01  0.51100000000E-03 0. -1.
        -11    1    3    3    0    0  0.91797322831E-01  0.19711116072E+01  0.66603007822E+01  0.69464605726E+01  0.51100000000E-03 0.  1.
        -12    1    3    3    0    0  0.10376549973E+02  0.13837637756E+02  0.24996920900E+02  0.30397352887E+02  0.00000000000E+00 0.  1.
</event>
<event>
 7    1  0.2227287E-008  0.4614232E+02  0.7816164E-02  0.1320468E+00
        -11   -1    0    0    0    0  0.00000000000E+00  0.00000000000E+00  0.45593999997E+02  0.45594000000E+02  0.51100000000E-03 0.  1.
         11   -1    0    0    0    0 -0.00000000000E+00 -0.00000000000E+00 -0.45593999997E+02  0.45594000000E+02  0.51100000000E-03 0. -1.
    9900012    2    1    2    0    0 -0.25827848449E+02 -0.19332753545E+02  0.31436926715E+02  0.46142317894E+02  0.10000001211E+02 0.  0.
         12    1    1    2    0    0  0.25827848449E+02  0.19332753545E+02 -0.31436926715E+02  0.45045682106E+02  0.00000000000E+00 0. -1.
         11    1    3    3    0    0 -0.93366097296E+01 -0.90124679541E+01  0.14532267326E+02  0.19482906707E+02  0.51100000000E-03 0. -1.
        -11    1    3    3    0    0 -0.71759776187E+01 -0.84431838623E+01  0.83666914998E+01  0.13884651073E+02  0.51100000000E-03 0.  1.
        -12    1    3    3    0    0 -0.93152611011E+01 -0.18771017283E+01  0.85379678891E+01  0.12774760113E+02  0.00000000000E+00 0.  1.
</event>
<event>
 7    1  0.2227287E-008  0.4614232E+02  0.7816164E-02  0.1320468E+00
        -11   -1    0    0    0    0  0.00000000000E+00  0.00000000000E+00  0.45593999997E+02  0.45594000000E+02  0.51100000000E-03 0.  1.
         11   -1    0    0    0    0 -0.00000000000E+00 -0.00000000000E+00 -0.45593999997E+02  0.45594000000E+02  0.51100000000E-03 0. -1.
    9900012    2    1    2    0    0  0.20820551116E+02  0.14202296920E+02  0.37335145042E+02  0.46142316057E+02  0.99999844563E+01 0.  0.
         12    1    1    2    0    0 -0.20820551116E+02 -0.14202296920E+02 -0.37335145042E+02  0.45045683943E+02  0.00000000000E+00 0. -1.
         11    1    3    3    0    0  0.35113001120E+01  0.39141852773E+01  0.35313475825E+01  0.63340737974E+01  0.51100000000E-03 0. -1.
        -11    1    3    3    0    0  0.13010125060E+02  0.10072783361E+02  0.23972003644E+02  0.29075441143E+02  0.51100000000E-03 0.  1.
        -12    1    3    3    0    0  0.42991259443E+01  0.21532828235E+00  0.98317938158E+01  0.10732801116E+02  0.00000000000E+00 0.  1.
</event>
<event>
 7    1  0.2227287E-008  0.4614232E+02  0.7816164E-02  0.1320468E+00
        -11   -1    0    0    0    0  0.00000000000E+00  0.00000000000E+00  0.45593999997E+02  0.45594000000E+02  0.51100000000E-03 0.  1.
         11   -1    0    0    0    0 -0.00000000000E+00 -0.00000000000E+00 -0.45593999997E+02  0.45594000000E+02  0.51100000000E-03 0. -1.
    9900012    2    1    2    0    0  0.36733161613E+02  0.23025348114E+02 -0.12231993967E+02  0.46142317696E+02  0.99999994046E+01 0.  0.
         12    1    1    2    0    0 -0.36733161613E+02 -0.23025348114E+02  0.12231993967E+02  0.45045682304E+02  0.00000000000E+00 0. -1.
         11    1    3    3    0    0  0.25991373948E+01 -0.43365911190E+00 -0.10828133007E+01  0.28488700090E+01  0.51100000000E-03 0. -1.
        -11    1    3    3    0    0  0.21236447093E+02  0.12561617997E+02 -0.90394848402E+01  0.26277237645E+02  0.51100000000E-03 0.  1.
         12    1    3    3    0    0  0.12897577125E+02  0.10897389228E+02 -0.21096958263E+01  0.17016210041E+02  0.00000000000E+00 0. -1.
</event>
<event>
 7    1  0.2227287E-008  0.4614232E+02  0.7816164E-02  0.1320468E+00
        -11   -1    0    0    0    0  0.00000000000E+00  0.00000000000E+00  0.45593999997E+02  0.45594000000E+02  0.51100000000E-03 0.  1.
         11   -1    0    0    0    0 -0.00000000000E+00 -0.00000000000E+00 -0.45593999997E+02  0.45594000000E+02  0.51100000000E-03 0. -1.
    9900012    2    1    2    0    0  0.32754423673E+02  0.26743758294E+02  0.15525223908E+02  0.46142318129E+02  0.10000003354E+02 0.  0.
         12    1    1    2    0    0 -0.32754423673E+02 -0.26743758294E+02 -0.15525223908E+02  0.45045681871E+02  0.00000000000E+00 0. -1.
         11    1    3    3    0    0  0.13786014217E+02  0.78702001665E+01  0.96460239706E+01  0.18575252821E+02  0.51100000000E-03 0. -1.
        -11    1    3    3    0    0  0.94816189207E+01  0.72992444393E+01  0.27630290326E+01  0.12280651304E+02  0.51100000000E-03 0.  1.
         12    1    3    3    0    0  0.94867905353E+01  0.11574313688E+02  0.31161709052E+01  0.15286414005E+02  0.00000000000E+00 0. -1.
</event>
<event>
 7    1  0.2227287E-008  0.4614232E+02  0.7816164E-02  0.1320468E+00
        -11   -1    0    0    0    0  0.00000000000E+00  0.00000000000E+00  0.45593999997E+02  0.45594000000E+02  0.51100000000E-03 0. -1.
         11   -1    0    0    0    0 -0.00000000000E+00 -0.00000000000E+00 -0.45593999997E+02  0.45594000000E+02  0.51100000000E-03 0.  1.
    9900012    2    1    2    0    0  0.31797903463E+02  0.57878455446E+01 -0.31376863755E+02  0.46142318744E+02  0.10000008965E+02 0.  0.
         12    1    1    2    0    0 -0.31797903463E+02 -0.57878455446E+01  0.31376863755E+02  0.45045681256E+02  0.00000000000E+00 0. -1.
         11    1    3    3    0    0  0.26967999418E+00 -0.81892428563E+00 -0.17527357135E+01  0.19533169296E+01  0.51100000000E-03 0. -1.
        -11    1    3    3    0    0  0.25677096581E+02  0.55328642916E+01 -0.27058131466E+02  0.37710321595E+02  0.51100000000E-03 0.  1.
         12    1    3    3    0    0  0.58511268881E+01  0.10739055387E+01 -0.25659965756E+01  0.64786802200E+01  0.00000000000E+00 0. -1.
</event>
<event>
 7    1  0.2227287E-008  0.4614232E+02  0.7816164E-02  0.1320468E+00
        -11   -1    0    0    0    0  0.00000000000E+00  0.00000000000E+00  0.45593999997E+02  0.45594000000E+02  0.51100000000E-03 0.  1.
         11   -1    0    0    0    0 -0.00000000000E+00 -0.00000000000E+00 -0.45593999997E+02  0.45594000000E+02  0.51100000000E-03 0. -1.
    9900012    2    1    2    0    0  0.14682751362E+02  0.41620947537E+02  0.90126044242E+01  0.46142317633E+02  0.99999988288E+01 0.  0.
         12    1    1    2    0    0 -0.14682751362E+02 -0.41620947537E+02 -0.90126044242E+01  0.45045682367E+02  0.00000000000E+00 0. -1.
         11    1    3    3    0    0 -0.29109691063E+00  0.32044103312E+01  0.22683139617E+01  0.39367793274E+01  0.51100000000E-03 0. -1.
        -11    1    3    3    0    0  0.48779507016E+01  0.20617703142E+02  0.28931343357E+01  0.21383505616E+02  0.51100000000E-03 0.  1.
        -12    1    3    3    0    0  0.10095897571E+02  0.17798834064E+02  0.38511561267E+01  0.20822032689E+02  0.00000000000E+00 0.  1.
</event>
<event>
 7    1  0.2227287E-008  0.4614232E+02  0.7816164E-02  0.1320468E+00
        -11   -1    0    0    0    0  0.00000000000E+00  0.00000000000E+00  0.45593999997E+02  0.45594000000E+02  0.51100000000E-03 0. -1.
         11   -1    0    0    0    0 -0.00000000000E+00 -0.00000000000E+00 -0.45593999997E+02  0.45594000000E+02  0.51100000000E-03 0.  1.
    9900012    2    1    2    0    0 -0.34342003086E+02 -0.94279831489E+01 -0.27583570312E+02  0.46142318815E+02  0.10000009612E+02 0.  0.
         12    1    1    2    0    0  0.34342003086E+02  0.94279831489E+01  0.27583570312E+02  0.45045681185E+02  0.00000000000E+00 0. -1.
         11    1    3    3    0    0 -0.83828706861E+01 -0.40767399025E+00 -0.93173352872E+01  0.12539994264E+02  0.51100000000E-03 0. -1.
        -11    1    3    3    0    0 -0.23197384528E+02 -0.73150185794E+01 -0.18159966575E+02  0.30354777746E+02  0.51100000000E-03 0.  1.
         12    1    3    3    0    0 -0.27617478720E+01 -0.17052905793E+01 -0.10626845026E+00  0.32475468052E+01  0.00000000000E+00 0. -1.
</event>
<event>
 7    1  0.2227287E-008  0.4614232E+02  0.7816164E-02  0.1320468E+00
        -11   -1    0    0    0    0  0.00000000000E+00  0.00000000000E+00  0.45593999997E+02  0.45594000000E+02  0.51100000000E-03 0.  1.
         11   -1    0    0    0    0 -0.00000000000E+00 -0.00000000000E+00 -0.45593999997E+02  0.45594000000E+02  0.51100000000E-03 0. -1.
    9900012    2    1    2    0    0 -0.63766458123E+01 -0.26298145154E+02  0.36011934619E+02  0.46142317795E+02  0.10000000307E+02 0.  0.
         12    1    1    2    0    0  0.63766458123E+01  0.26298145154E+02 -0.36011934619E+02  0.45045682205E+02  0.00000000000E+00 0. -1.
         11    1    3    3    0    0  0.20444302062E+01 -0.36566200475E+01  0.64186767525E+01  0.76648533289E+01  0.51100000000E-03 0. -1.
        -11    1    3    3    0    0 -0.13607101281E+01 -0.78886795565E+01  0.12295756777E+02  0.14672028904E+02  0.51100000000E-03 0.  1.
        -12    1    3    3    0    0 -0.70603658904E+01 -0.14752845550E+02  0.17297501089E+02  0.23805435561E+02  0.00000000000E+00 0.  1.
</event>
<event>
 7    1  0.2227287E-008  0.4614232E+02  0.7816164E-02  0.1320468E+00
        -11   -1    0    0    0    0  0.00000000000E+00  0.00000000000E+00  0.45593999997E+02  0.45594000000E+02  0.51100000000E-03 0.  1.
         11   -1    0    0    0    0 -0.00000000000E+00 -0.00000000000E+00 -0.45593999997E+02  0.45594000000E+02  0.51100000000E-03 0. -1.
    9900012    2    1    2    0    0 -0.21924687810E+02  0.39339634041E+02 -0.90257454171E+00  0.46142318932E+02  0.10000010680E+02 0.  0.
         12    1    1    2    0    0  0.21924687810E+02 -0.39339634041E+02  0.90257454171E+00  0.45045681068E+02  0.00000000000E+00 0. -1.
         11    1    3    3    0    0 -0.13077313565E+02  0.21508314156E+02 -0.40375666474E+01  0.25493639454E+02  0.51100000000E-03 0.  1.
        -11    1    3    3    0    0 -0.75831338878E+01  0.10953519265E+02  0.11104850951E+01  0.13368495849E+02  0.51100000000E-03 0. -1.
        -12    1    3    3    0    0 -0.12642403575E+01  0.68778006196E+01  0.20245070106E+01  0.72801836296E+01  0.00000000000E+00 0.  1.
</event>
<event>
 7    1  0.2227287E-008  0.4614232E+02  0.7816164E-02  0.1320468E+00
        -11   -1    0    0    0    0  0.00000000000E+00  0.00000000000E+00  0.45593999997E+02  0.45594000000E+02  0.51100000000E-03 0.  1.
         11   -1    0    0    0    0 -0.00000000000E+00 -0.00000000000E+00 -0.45593999997E+02  0.45594000000E+02  0.51100000000E-03 0. -1.
    9900012    2    1    2    0    0  0.42878307784E+02 -0.18218318197E+01  0.13683753707E+02  0.46142318019E+02  0.10000002355E+02 0.  0.
         12    1    1    2    0    0 -0.42878307784E+02  0.18218318197E+01 -0.13683753707E+02  0.45045681981E+02  0.00000000000E+00 0. -1.
         11    1    3    3    0    0  0.63255872427E+01  0.19931407564E+01  0.31495489142E+00  0.66396431293E+01  0.51100000000E-03 0. -1.
        -11    1    3    3    0    0  0.84450375807E+01  0.14052936024E+01  0.36603777383E+01  0.93108471847E+01  0.51100000000E-03 0.  1.
        -12    1    3    3    0    0  0.28107682960E+02 -0.52202661786E+01  0.97084210775E+01  0.30191827705E+02  0.00000000000E+00 0.  1.
</event>
<event>
 7    1  0.2227287E-008  0.4614232E+02  0.7816164E-02  0.1320468E+00
        -11   -1    0    0    0    0  0.00000000000E+00  0.00000000000E+00  0.45593999997E+02  0.45594000000E+02  0.51100000000E-03 0. -1.
         11   -1    0    0    0    0 -0.00000000000E+00 -0.00000000000E+00 -0.45593999997E+02  0.45594000000E+02  0.51100000000E-03 0.  1.
    9900012    2    1    2    0    0  0.23801357364E+02  0.34808238290E+02  0.15842835894E+02  0.46142317472E+02  0.99999973676E+01 0.  0.
         12    1    1    2    0    0 -0.23801357364E+02 -0.34808238290E+02 -0.15842835894E+02  0.45045682528E+02  0.00000000000E+00 0. -1.
         11    1    3    3    0    0  0.17638252787E+01  0.23342919501E+01  0.29870072162E+01  0.41811733870E+01  0.51100000000E-03 0. -1.
        -11    1    3    3    0    0  0.21624307596E+02  0.30212323689E+02  0.13569130383E+02  0.39553969223E+02  0.51100000000E-03 0.  1.
        -12    1    3    3    0    0  0.41322448947E+00  0.22616226513E+01 -0.71330170567E+00  0.24071748626E+01  0.00000000000E+00 0.  1.
</event>
<event>
 7    1  0.2227287E-008  0.4614232E+02  0.7816164E-02  0.1320468E+00
        -11   -1    0    0    0    0  0.00000000000E+00  0.00000000000E+00  0.45593999997E+02  0.45594000000E+02  0.51100000000E-03 0.  1.
         11   -1    0    0    0    0 -0.00000000000E+00 -0.00000000000E+00 -0.45593999997E+02  0.45594000000E+02  0.51100000000E-03 0. -1.
    9900012    2    1    2    0    0 -0.76131788444E+01  0.26167344993E+02  0.35866740859E+02  0.46142317233E+02  0.99999951861E+01 0.  0.
         12    1    1    2    0    0  0.76131788444E+01 -0.26167344993E+02 -0.35866740859E+02  0.45045682767E+02  0.00000000000E+00 0. -1.
         11    1    3    3    0    0 -0.45985262036E+01  0.10000772827E+02  0.12043781769E+02  0.16316083474E+02  0.51100000000E-03 0. -1.
        -11    1    3    3    0    0  0.16628134744E+01  0.10807683402E+01  0.15277021784E+01  0.25033743354E+01  0.51100000000E-03 0.  1.
        -12    1    3    3    0    0 -0.46774661153E+01  0.15085803825E+02  0.22295256912E+02  0.27322859423E+02  0.00000000000E+00 0.  1.
</event>
<event>
 7    1  0.2227287E-008  0.4614231E+02  0.7816164E-02  0.1320468E+00
        -11   -1    0    0    0    0  0.00000000000E+00  0.00000000000E+00  0.45593999997E+02  0.45594000000E+02  0.51100000000E-03 0. -1.
         11   -1    0    0    0    0 -0.00000000000E+00 -0.00000000000E+00 -0.45593999997E+02  0.45594000000E+02  0.51100000000E-03 0.  1.
    9900012    2    1    2    0    0  0.37279376163E+02  0.13484507350E+02 -0.21389953292E+02  0.46142312888E+02  0.99999555618E+01 0.  0.
         12    1    1    2    0    0 -0.37279376163E+02 -0.13484507350E+02  0.21389953292E+02  0.45045687112E+02  0.00000000000E+00 0. -1.
         11    1    3    3    0    0  0.12343387249E+01 -0.11639264965E+01 -0.40579903177E+00  0.17444168344E+01  0.51100000000E-03 0. -1.
        -11    1    3    3    0    0  0.15086248888E+02  0.59106061133E+01 -0.11053728996E+02  0.19614155478E+02  0.51100000000E-03 0.  1.
         12    1    3    3    0    0  0.20958788550E+02  0.87378277333E+01 -0.99304252645E+01  0.24783740576E+02  0.00000000000E+00 0. -1.
</event>
<event>
 7    1  0.2227287E-008  0.4614232E+02  0.7816164E-02  0.1320468E+00
        -11   -1    0    0    0    0  0.00000000000E+00  0.00000000000E+00  0.45593999997E+02  0.45594000000E+02  0.51100000000E-03 0.  1.
         11   -1    0    0    0    0 -0.00000000000E+00 -0.00000000000E+00 -0.45593999997E+02  0.45594000000E+02  0.51100000000E-03 0. -1.
    9900012    2    1    2    0    0 -0.25619650115E+02 -0.36831871305E+02  0.40199817591E+01  0.46142317974E+02  0.10000001942E+02 0.  0.
         12    1    1    2    0    0  0.25619650115E+02  0.36831871305E+02 -0.40199817591E+01  0.45045682026E+02  0.00000000000E+00 0. -1.
         11    1    3    3    0    0 -0.29635931886E+01 -0.12823582030E+01  0.18265362943E+01  0.37099275254E+01  0.51100000000E-03 0. -1.
        -11    1    3    3    0    0 -0.80577110623E+01 -0.94464433635E+01  0.15976486020E+01  0.12518565457E+02  0.51100000000E-03 0.  1.
        -12    1    3    3    0    0 -0.14598345864E+02 -0.26103069738E+02  0.59579686285E+00  0.29913824992E+02  0.00000000000E+00 0.  1.
</event>
<event>
 7    1  0.2227287E-008  0.4614232E+02  0.7816164E-02  0.1320468E+00
        -11   -1    0    0    0    0  0.00000000000E+00  0.00000000000E+00  0.45593999997E+02  0.45594000000E+02  0.51100000000E-03 0.  1.
         11   -1    0    0    0    0 -0.00000000000E+00 -0.00000000000E+00 -0.45593999997E+02  0.45594000000E+02  0.51100000000E-03 0. -1.
    9900012    2    1    2    0    0  0.41065404674E+02  0.10222556370E+02 -0.15435199017E+02  0.46142317760E+02  0.99999999863E+01 0.  0.
         12    1    1    2    0    0 -0.41065404674E+02 -0.10222556370E+02  0.15435199017E+02  0.45045682240E+02  0.00000000000E+00 0. -1.
         11    1    3    3    0    0  0.35118229713E+01 -0.10204426172E+01 -0.16825259839E+01  0.40255555722E+01  0.51100000000E-03 0. -1.
        -11    1    3    3    0    0  0.19119225943E+02  0.22069762492E+01 -0.58101400448E+01  0.20104061092E+02  0.51100000000E-03 0.  1.
         12    1    3    3    0    0  0.18434355760E+02  0.90360227381E+01 -0.79425329885E+01  0.22012701095E+02  0.00000000000E+00 0. -1.
</event>
<event>
 7    1  0.2227287E-008  0.4614232E+02  0.7816164E-02  0.1320468E+00
        -11   -1    0    0    0    0  0.00000000000E+00  0.00000000000E+00  0.45593999997E+02  0.45594000000E+02  0.51100000000E-03 0. -1.
         11   -1    0    0    0    0 -0.00000000000E+00 -0.00000000000E+00 -0.45593999997E+02  0.45594000000E+02  0.51100000000E-03 0.  1.
    9900012    2    1    2    0    0 -0.12522483837E+02  0.32412960840E+02 -0.28665326150E+02  0.46142317019E+02  0.99999932356E+01 0.  0.
         12    1    1    2    0    0  0.12522483837E+02 -0.32412960840E+02  0.28665326150E+02  0.45045682981E+02  0.00000000000E+00 0. -1.
         11    1    3    3    0    0 -0.25836477826E+01  0.33687972850E+01 -0.50424119505E+01  0.65916575724E+01  0.51100000000E-03 0.  1.
        -11    1    3    3    0    0 -0.42481936716E+01  0.20122173389E+02 -0.19012747570E+02  0.28007741462E+02  0.51100000000E-03 0. -1.
         12    1    3    3    0    0 -0.56906423827E+01  0.89219901663E+01 -0.46101666301E+01  0.11542917985E+02  0.00000000000E+00 0. -1.
</event>
<event>
 7    1  0.2227287E-008  0.4614232E+02  0.7816164E-02  0.1320468E+00
        -11   -1    0    0    0    0  0.00000000000E+00  0.00000000000E+00  0.45593999997E+02  0.45594000000E+02  0.51100000000E-03 0. -1.
         11   -1    0    0    0    0 -0.00000000000E+00 -0.00000000000E+00 -0.45593999997E+02  0.45594000000E+02  0.51100000000E-03 0.  1.
    9900012    2    1    2    0    0 -0.11535932540E+02 -0.38208010209E+02 -0.20885013579E+02  0.46142316790E+02  0.99999911402E+01 0.  0.
         12    1    1    2    0    0  0.11535932540E+02  0.38208010209E+02  0.20885013579E+02  0.45045683210E+02  0.00000000000E+00 0. -1.
         11    1    3    3    0    0  0.45255164452E+00 -0.34300821614E+00  0.35308253411E+00  0.66867418397E+00  0.51100000000E-03 0. -1.
        -11    1    3    3    0    0 -0.76645960104E+01 -0.29076963187E+02 -0.13361157188E+02  0.32904959229E+02  0.51100000000E-03 0.  1.
        -12    1    3    3    0    0 -0.43238881746E+01 -0.87880388056E+01 -0.78769389244E+01  0.12568683376E+02  0.00000000000E+00 0.  1.
</event>
<event>
 7    1  0.2227287E-008  0.4614232E+02  0.7816164E-02  0.1320468E+00
        -11   -1    0    0    0    0  0.00000000000E+00  0.00000000000E+00  0.45593999997E+02  0.45594000000E+02  0.51100000000E-03 0.  1.
         11   -1    0    0    0    0 -0.00000000000E+00 -0.00000000000E+00 -0.45593999997E+02  0.45594000000E+02  0.51100000000E-03 0. -1.
    9900012    2    1    2    0    0 -0.63538312141E+01 -0.83159963988E+00  0.44587562696E+02  0.46142317896E+02  0.10000001231E+02 0.  0.
         12    1    1    2    0    0  0.63538312141E+01  0.83159963988E+00 -0.44587562696E+02  0.45045682104E+02  0.00000000000E+00 0. -1.
         11    1    3    3    0    0 -0.89436602792E+00  0.77109848522E+00  0.32790723472E+02  0.32811979970E+02  0.51100000000E-03 0. -1.
        -11    1    3    3    0    0 -0.17315977227E+01 -0.70676252339E+00  0.66773680472E+01  0.69343484363E+01  0.51100000000E-03 0.  1.
         12    1    3    3    0    0 -0.37278674635E+01 -0.89593560171E+00  0.51194711767E+01  0.63959894900E+01  0.00000000000E+00 0. -1.
</event>
<event>
 7    1  0.2227287E-008  0.4614232E+02  0.7816164E-02  0.1320468E+00
        -11   -1    0    0    0    0  0.00000000000E+00  0.00000000000E+00  0.45593999997E+02  0.45594000000E+02  0.51100000000E-03 0.  1.
         11   -1    0    0    0    0 -0.00000000000E+00 -0.00000000000E+00 -0.45593999997E+02  0.45594000000E+02  0.51100000000E-03 0. -1.
    9900012    2    1    2    0    0  0.23801856235E+02  0.16675126782E+02  0.34416933854E+02  0.46142317084E+02  0.99999938293E+01 0.  0.
         12    1    1    2    0    0 -0.23801856235E+02 -0.16675126782E+02 -0.34416933854E+02  0.45045682916E+02  0.00000000000E+00 0. -1.
         11    1    3    3    0    0  0.65206244819E+01  0.50389844217E+01  0.16061892633E+02  0.18052542836E+02  0.51100000000E-03 0. -1.
        -11    1    3    3    0    0  0.86985759624E+01  0.63246014297E+01  0.12218104954E+02  0.16277220154E+02  0.51100000000E-03 0.  1.
         12    1    3    3    0    0  0.85826557910E+01  0.53115409309E+01  0.61369362666E+01  0.11812554094E+02  0.00000000000E+00 0. -1.
</event>
<event>
 7    1  0.2227287E-008  0.4614232E+02  0.7816164E-02  0.1320468E+00
        -11   -1    0    0    0    0  0.00000000000E+00  0.00000000000E+00  0.45593999997E+02  0.45594000000E+02  0.51100000000E-03 0.  1.
         11   -1    0    0    0    0 -0.00000000000E+00 -0.00000000000E+00 -0.45593999997E+02  0.45594000000E+02  0.51100000000E-03 0. -1.
    9900012    2    1    2    0    0  0.11296259495E+01 -0.44281249796E+02  0.81858684006E+01  0.46142316746E+02  0.99999907476E+01 0.  0.
         12    1    1    2    0    0 -0.11296259495E+01  0.44281249796E+02 -0.81858684006E+01  0.45045683254E+02  0.00000000000E+00 0. -1.
         11    1    3    3    0    0 -0.35104575276E+01 -0.13297079953E+02  0.16212379998E+01  0.13847890101E+02  0.51100000000E-03 0. -1.
        -11    1    3    3    0    0  0.37587884470E+00 -0.34385967242E-01  0.57436813699E-01  0.38179385710E+00  0.51100000000E-03 0.  1.
        -12    1    3    3    0    0  0.42642046324E+01 -0.30949783876E+02  0.65071935871E+01  0.31912632788E+02  0.00000000000E+00 0.  1.
</event>
<event>
 7    1  0.2227287E-008  0.4614232E+02  0.7816164E-02  0.1320468E+00
        -11   -1    0    0    0    0  0.00000000000E+00  0.00000000000E+00  0.45593999997E+02  0.45594000000E+02  0.51100000000E-03 0.  1.
         11   -1    0    0    0    0 -0.00000000000E+00 -0.00000000000E+00 -0.45593999997E+02  0.45594000000E+02  0.51100000000E-03 0. -1.
    9900012    2    1    2    0    0  0.19529010823E+02 -0.27684953739E+02  0.29686270396E+02  0.46142316774E+02  0.99999909991E+01 0.  0.
         12    1    1    2    0    0 -0.19529010823E+02  0.27684953739E+02 -0.29686270396E+02  0.45045683226E+02  0.00000000000E+00 0. -1.
         11    1    3    3    0    0  0.42465905404E+01 -0.10981311395E+01  0.41985366797E+01  0.60718311677E+01  0.51100000000E-03 0. -1.
        -11    1    3    3    0    0  0.33938894886E+01 -0.56244360291E+01  0.34765670703E+01  0.74323135942E+01  0.51100000000E-03 0.  1.
        -12    1    3    3    0    0  0.11888530794E+02 -0.20962386570E+02  0.22011166646E+02  0.32638172012E+02  0.00000000000E+00 0.  1.
</event>
<event>
 7    1  0.2227287E-008  0.4614232E+02  0.7816164E-02  0.1320468E+00
        -11   -1    0    0    0    0  0.00000000000E+00  0.00000000000E+00  0.45593999997E+02  0.45594000000E+02  0.51100000000E-03 0.  1.
         11   -1    0    0    0    0 -0.00000000000E+00 -0.00000000000E+00 -0.45593999997E+02  0.45594000000E+02  0.51100000000E-03 0. -1.
    9900012    2    1    2    0    0  0.29622476263E+02 -0.24373664681E+02  0.23612424520E+02  0.46142320722E+02  0.10000027001E+02 0.  0.
         12    1    1    2    0    0 -0.29622476263E+02  0.24373664681E+02 -0.23612424520E+02  0.45045679278E+02  0.00000000000E+00 0. -1.
         11    1    3    3    0    0  0.88987961048E+01 -0.11787683546E+02  0.12411733773E+02  0.19292205447E+02  0.51100000000E-03 0.  1.
        -11    1    3    3    0    0  0.31419999972E+00  0.14244938181E+00  0.10215850818E+00  0.35979172881E+00  0.51100000000E-03 0. -1.
        -12    1    3    3    0    0  0.20409480158E+02 -0.12728430517E+02  0.11098532239E+02  0.26490323547E+02  0.00000000000E+00 0.  1.
</event>
<event>
 7    1  0.2227287E-008  0.4614232E+02  0.7816164E-02  0.1320468E+00
        -11   -1    0    0    0    0  0.00000000000E+00  0.00000000000E+00  0.45593999997E+02  0.45594000000E+02  0.51100000000E-03 0.  1.
         11   -1    0    0    0    0 -0.00000000000E+00 -0.00000000000E+00 -0.45593999997E+02  0.45594000000E+02  0.51100000000E-03 0. -1.
    9900012    2    1    2    0    0  0.25156456724E+02 -0.37028823753E+02 -0.50132223042E+01  0.46142317617E+02  0.99999986878E+01 0.  0.
         12    1    1    2    0    0 -0.25156456724E+02  0.37028823753E+02  0.50132223042E+01  0.45045682383E+02  0.00000000000E+00 0. -1.
         11    1    3    3    0    0  0.83571094986E+01 -0.18092788247E+02 -0.59420629097E+01  0.20796595337E+02  0.51100000000E-03 0. -1.
        -11    1    3    3    0    0  0.74080259032E+01 -0.83253534285E+01  0.83925412169E+00  0.11175629970E+02  0.51100000000E-03 0.  1.
        -12    1    3    3    0    0  0.93913213227E+01 -0.10610682077E+02  0.89586483854E-01  0.14170092310E+02  0.00000000000E+00 0.  1.
</event>
<event>
 7    1  0.2227287E-008  0.4614232E+02  0.7816164E-02  0.1320468E+00
        -11   -1    0    0    0    0  0.00000000000E+00  0.00000000000E+00  0.45593999997E+02  0.45594000000E+02  0.51100000000E-03 0. -1.
         11   -1    0    0    0    0 -0.00000000000E+00 -0.00000000000E+00 -0.45593999997E+02  0.45594000000E+02  0.51100000000E-03 0.  1.
    9900012    2    1    2    0    0 -0.35044780650E+02  0.20469230394E+02 -0.19544498479E+02  0.46142318026E+02  0.10000002415E+02 0.  0.
         12    1    1    2    0    0  0.35044780650E+02 -0.20469230394E+02  0.19544498479E+02  0.45045681974E+02  0.00000000000E+00 0. -1.
         11    1    3    3    0    0 -0.17464383738E+02  0.80273950560E+01 -0.73107820536E+01  0.20564321171E+02  0.51100000000E-03 0. -1.
        -11    1    3    3    0    0 -0.14148018023E+02  0.64356238412E+01 -0.83123359357E+01  0.17626077192E+02  0.51100000000E-03 0.  1.
        -12    1    3    3    0    0 -0.34323788887E+01  0.60062114969E+01 -0.39213804898E+01  0.79519196630E+01  0.00000000000E+00 0.  1.
</event>
<event>
 7    1  0.2227287E-008  0.4614232E+02  0.7816164E-02  0.1320468E+00
        -11   -1    0    0    0    0  0.00000000000E+00  0.00000000000E+00  0.45593999997E+02  0.45594000000E+02  0.51100000000E-03 0.  1.
         11   -1    0    0    0    0 -0.00000000000E+00 -0.00000000000E+00 -0.45593999997E+02  0.45594000000E+02  0.51100000000E-03 0. -1.
    9900012    2    1    2    0    0  0.42356896191E+02  0.12805452646E+02  0.84277577090E+01  0.46142319048E+02  0.10000011737E+02 0.  0.
         12    1    1    2    0    0 -0.42356896191E+02 -0.12805452646E+02 -0.84277577090E+01  0.45045680952E+02  0.00000000000E+00 0. -1.
         11    1    3    3    0    0  0.26691859168E+02  0.47533144503E+01  0.64322166287E+01  0.27864363534E+02  0.51100000000E-03 0. -1.
        -11    1    3    3    0    0  0.48523232707E+00  0.69636677025E-01 -0.76291924965E+00  0.90683279640E+00  0.51100000000E-03 0.  1.
        -12    1    3    3    0    0  0.15179804696E+02  0.79825015184E+01  0.27584603300E+01  0.17371122718E+02  0.00000000000E+00 0.  1.
</event>
<event>
 7    1  0.2227287E-008  0.4614230E+02  0.7816164E-02  0.1320468E+00
        -11   -1    0    0    0    0  0.00000000000E+00  0.00000000000E+00  0.45593999997E+02  0.45594000000E+02  0.51100000000E-03 0.  1.
         11   -1    0    0    0    0 -0.00000000000E+00 -0.00000000000E+00 -0.45593999997E+02  0.45594000000E+02  0.51100000000E-03 0. -1.
    9900012    2    1    2    0    0 -0.25245837101E+02  0.23944068120E+02  0.28608459546E+02  0.46142304904E+02  0.99998827580E+01 0.  0.
         12    1    1    2    0    0  0.25245837101E+02 -0.23944068120E+02 -0.28608459546E+02  0.45045695096E+02  0.00000000000E+00 0. -1.
         11    1    3    3    0    0 -0.11826145601E+01  0.15282598944E+01  0.54453143739E+01  0.57780277253E+01  0.51100000000E-03 0. -1.
        -11    1    3    3    0    0 -0.18846851328E+02  0.15600328110E+02  0.17541136046E+02  0.30104243823E+02  0.51100000000E-03 0.  1.
         12    1    3    3    0    0 -0.52163712133E+01  0.68154801160E+01  0.56220091257E+01  0.10260033355E+02  0.00000000000E+00 0. -1.
</event>
<event>
 7    1  0.2227287E-008  0.4614232E+02  0.7816164E-02  0.1320468E+00
        -11   -1    0    0    0    0  0.00000000000E+00  0.00000000000E+00  0.45593999997E+02  0.45594000000E+02  0.51100000000E-03 0. -1.
         11   -1    0    0    0    0 -0.00000000000E+00 -0.00000000000E+00 -0.45593999997E+02  0.45594000000E+02  0.51100000000E-03 0.  1.
    9900012    2    1    2    0    0  0.34763955690E+02 -0.22030171705E+02 -0.18309895966E+02  0.46142319065E+02  0.10000011894E+02 0.  0.
         12    1    1    2    0    0 -0.34763955690E+02  0.22030171705E+02  0.18309895966E+02  0.45045680935E+02  0.00000000000E+00 0. -1.
         11    1    3    3    0    0  0.19633482249E+01 -0.35176613276E+01 -0.73203585720E+00  0.40944540814E+01  0.51100000000E-03 0. -1.
        -11    1    3    3    0    0  0.21681439412E+02 -0.87207079111E+01 -0.11265975904E+02  0.25943357045E+02  0.51100000000E-03 0.  1.
         12    1    3    3    0    0  0.11119168053E+02 -0.97918024661E+01 -0.63118842049E+01  0.16104507939E+02  0.00000000000E+00 0. -1.
</event>
<event>
 7    1  0.2227287E-008  0.4614232E+02  0.7816164E-02  0.1320468E+00
        -11   -1    0    0    0    0  0.00000000000E+00  0.00000000000E+00  0.45593999997E+02  0.45594000000E+02  0.51100000000E-03 0. -1.
         11   -1    0    0    0    0 -0.00000000000E+00 -0.00000000000E+00 -0.45593999997E+02  0.45594000000E+02  0.51100000000E-03 0.  1.
    9900012    2    1    2    0    0 -0.96467274774E+01  0.43953438710E+02 -0.20370135999E+01  0.46142317079E+02  0.99999937765E+01 0.  0.
         12    1    1    2    0    0  0.96467274774E+01 -0.43953438710E+02  0.20370135999E+01  0.45045682921E+02  0.00000000000E+00 0. -1.
         11    1    3    3    0    0 -0.65019194915E+00  0.46925541355E+01 -0.17262468031E+01  0.50420970014E+01  0.51100000000E-03 0. -1.
        -11    1    3    3    0    0 -0.84504331293E+01  0.33065796150E+02  0.26124098152E+01  0.34228370987E+02  0.51100000000E-03 0.  1.
        -12    1    3    3    0    0 -0.54610239901E+00  0.61950884241E+01 -0.29231766120E+01  0.68718490901E+01  0.00000000000E+00 0.  1.
</event>
<event>
 7    1  0.2227287E-008  0.4614232E+02  0.7816164E-02  0.1320468E+00
        -11   -1    0    0    0    0  0.00000000000E+00  0.00000000000E+00  0.45593999997E+02  0.45594000000E+02  0.51100000000E-03 0.  1.
         11   -1    0    0    0    0 -0.00000000000E+00 -0.00000000000E+00 -0.45593999997E+02  0.45594000000E+02  0.51100000000E-03 0. -1.
    9900012    2    1    2    0    0  0.24784636751E+01  0.12343644769E+02  0.43250493136E+02  0.46142317578E+02  0.99999983310E+01 0.  0.
         12    1    1    2    0    0 -0.24784636751E+01 -0.12343644769E+02 -0.43250493136E+02  0.45045682422E+02  0.00000000000E+00 0. -1.
         11    1    3    3    0    0  0.19743796710E+01  0.36492473178E+01  0.92479614768E+01  0.10136072849E+02  0.51100000000E-03 0. -1.
        -11    1    3    3    0    0  0.29447710297E+01  0.22529617521E+01  0.20664608939E+02  0.20994608259E+02  0.51100000000E-03 0.  1.
        -12    1    3    3    0    0 -0.24406870255E+01  0.64414356990E+01  0.13337922720E+02  0.15011636470E+02  0.00000000000E+00 0.  1.
</event>
<event>
 7    1  0.2227287E-008  0.4614232E+02  0.7816164E-02  0.1320468E+00
        -11   -1    0    0    0    0  0.00000000000E+00  0.00000000000E+00  0.45593999997E+02  0.45594000000E+02  0.51100000000E-03 0. -1.
         11   -1    0    0    0    0 -0.00000000000E+00 -0.00000000000E+00 -0.45593999997E+02  0.45594000000E+02  0.51100000000E-03 0.  1.
    9900012    2    1    2    0    0  0.30563851902E+02 -0.30317666076E+02  0.13259093216E+02  0.46142317939E+02  0.10000001623E+02 0.  0.
         12    1    1    2    0    0 -0.30563851902E+02  0.30317666076E+02 -0.13259093216E+02  0.45045682061E+02  0.00000000000E+00 0. -1.
         11    1    3    3    0    0  0.24415636304E+02 -0.19412919275E+02  0.87068823402E+01  0.32385097364E+02  0.51100000000E-03 0.  1.
        -11    1    3    3    0    0  0.16020794845E+00  0.11098214660E+00 -0.26213002453E+00  0.32664358940E+00  0.51100000000E-03 0. -1.
        -12    1    3    3    0    0  0.59880076496E+01 -0.11015728948E+02  0.48143409001E+01  0.13430576986E+02  0.00000000000E+00 0.  1.
</event>
<event>
 7    1  0.2227287E-008  0.4614232E+02  0.7816164E-02  0.1320468E+00
        -11   -1    0    0    0    0  0.00000000000E+00  0.00000000000E+00  0.45593999997E+02  0.45594000000E+02  0.51100000000E-03 0.  1.
         11   -1    0    0    0    0 -0.00000000000E+00 -0.00000000000E+00 -0.45593999997E+02  0.45594000000E+02  0.51100000000E-03 0. -1.
    9900012    2    1    2    0    0  0.40625635874E+02 -0.15665202542E+02  0.11544382503E+02  0.46142316209E+02  0.99999858472E+01 0.  0.
         12    1    1    2    0    0 -0.40625635874E+02  0.15665202542E+02 -0.11544382503E+02  0.45045683791E+02  0.00000000000E+00 0. -1.
         11    1    3    3    0    0 -0.24761886725E+00 -0.54847267053E+00  0.35174698626E+00  0.69703915041E+00  0.51100000000E-03 0. -1.
        -11    1    3    3    0    0  0.12723009373E+02 -0.16950368405E+01  0.39449421275E+01  0.13427981459E+02  0.51100000000E-03 0.  1.
         12    1    3    3    0    0  0.28150245367E+02 -0.13421693031E+02  0.72476933894E+01  0.32017295600E+02  0.00000000000E+00 0. -1.
</event>
<event>
 7    1  0.2227287E-008  0.4614232E+02  0.7816164E-02  0.1320468E+00
        -11   -1    0    0    0    0  0.00000000000E+00  0.00000000000E+00  0.45593999997E+02  0.45594000000E+02  0.51100000000E-03 0.  1.
         11   -1    0    0    0    0 -0.00000000000E+00 -0.00000000000E+00 -0.45593999997E+02  0.45594000000E+02  0.51100000000E-03 0. -1.
    9900012    2    1    2    0    0  0.39541655195E+02 -0.15366851680E+02  0.15146968963E+02  0.46142319909E+02  0.10000019582E+02 0.  0.
         12    1    1    2    0    0 -0.39541655195E+02  0.15366851680E+02 -0.15146968963E+02  0.45045680091E+02  0.00000000000E+00 0. -1.
         11    1    3    3    0    0  0.75947602976E+01 -0.35038755390E+01  0.30910618253E+01  0.89169608746E+01  0.51100000000E-03 0. -1.
        -11    1    3    3    0    0  0.25521559287E+02 -0.98123536982E+01  0.56439677328E+01  0.27919288056E+02  0.51100000000E-03 0.  1.
         12    1    3    3    0    0  0.64253356107E+01 -0.20506224432E+01  0.64119394044E+01  0.93060709776E+01  0.00000000000E+00 0. -1.
</event>
<event>
 7    1  0.2227287E-008  0.4614232E+02  0.7816164E-02  0.1320468E+00
        -11   -1    0    0    0    0  0.00000000000E+00  0.00000000000E+00  0.45593999997E+02  0.45594000000E+02  0.51100000000E-03 0.  1.
         11   -1    0    0    0    0 -0.00000000000E+00 -0.00000000000E+00 -0.45593999997E+02  0.45594000000E+02  0.51100000000E-03 0. -1.
    9900012    2    1    2    0    0 -0.20123581325E+02 -0.61946341332E+01  0.39821872105E+02  0.46142317462E+02  0.99999972713E+01 0.  0.
         12    1    1    2    0    0  0.20123581325E+02  0.61946341332E+01 -0.39821872105E+02  0.45045682538E+02  0.00000000000E+00 0. -1.
         11    1    3    3    0    0 -0.19904083391E+00 -0.10094390198E+01  0.86029405327E+01  0.86642466758E+01  0.51100000000E-03 0. -1.
        -11    1    3    3    0    0 -0.36349428757E+01 -0.14070450562E+01  0.44525822205E+01  0.59176071339E+01  0.51100000000E-03 0.  1.
         12    1    3    3    0    0 -0.16289597615E+02 -0.37781500572E+01  0.26766349352E+02  0.31560463652E+02  0.00000000000E+00 0. -1.
</event>
<event>
 7    1  0.2227287E-008  0.4614232E+02  0.7816164E-02  0.1320468E+00
        -11   -1    0    0    0    0  0.00000000000E+00  0.00000000000E+00  0.45593999997E+02  0.45594000000E+02  0.51100000000E-03 0.  1.
         11   -1    0    0    0    0 -0.00000000000E+00 -0.00000000000E+00 -0.45593999997E+02  0.45594000000E+02  0.51100000000E-03 0. -1.
    9900012    2    1    2    0    0  0.18146893398E+01 -0.26850442867E+02  0.36123040937E+02  0.46142318008E+02  0.10000002253E+02 0.  0.
         12    1    1    2    0    0 -0.18146893398E+01  0.26850442867E+02 -0.36123040937E+02  0.45045681992E+02  0.00000000000E+00 0. -1.
         11    1    3    3    0    0  0.43816730674E+01 -0.61806296497E+01  0.72469809425E+01  0.10484177353E+02  0.51100000000E-03 0. -1.
        -11    1    3    3    0    0 -0.78483405650E+00 -0.48371968981E+01  0.82415823532E+01  0.95884366960E+01  0.51100000000E-03 0.  1.
        -12    1    3    3    0    0 -0.17821496711E+01 -0.15832616319E+02  0.20634477642E+02  0.26069703959E+02  0.00000000000E+00 0.  1.
</event>
<event>
 7    1  0.2227287E-008  0.4614232E+02  0.7816164E-02  0.1320468E+00
        -11   -1    0    0    0    0  0.00000000000E+00  0.00000000000E+00  0.45593999997E+02  0.45594000000E+02  0.51100000000E-03 0. -1.
         11   -1    0    0    0    0 -0.00000000000E+00 -0.00000000000E+00 -0.45593999997E+02  0.45594000000E+02  0.51100000000E-03 0.  1.
    9900012    2    1    2    0    0 -0.45032798794E+02  0.99600896742E+00 -0.41037932403E+00  0.46142318605E+02  0.10000007698E+02 0.  0.
         12    1    1    2    0    0  0.45032798794E+02 -0.99600896742E+00  0.41037932403E+00  0.45045681395E+02  0.00000000000E+00 0. -1.
         11    1    3    3    0    0 -0.57947708778E+01 -0.14395685924E+01 -0.58597142194E+00  0.59995908216E+01  0.51100000000E-03 0. -1.
        -11    1    3    3    0    0 -0.38390185471E+02  0.30495257487E+01 -0.10569974474E+01  0.38525617342E+02  0.51100000000E-03 0.  1.
        -12    1    3    3    0    0 -0.84784244608E+00 -0.61394818888E+00  0.12325895453E+01  0.16171104412E+01  0.00000000000E+00 0.  1.
</event>
<event>
 7    1  0.2227287E-008  0.4614232E+02  0.7816164E-02  0.1320468E+00
        -11   -1    0    0    0    0  0.00000000000E+00  0.00000000000E+00  0.45593999997E+02  0.45594000000E+02  0.51100000000E-03 0. -1.
         11   -1    0    0    0    0 -0.00000000000E+00 -0.00000000000E+00 -0.45593999997E+02  0.45594000000E+02  0.51100000000E-03 0.  1.
    9900012    2    1    2    0    0 -0.15182129478E+02 -0.38349326134E+02 -0.18109268340E+02  0.46142317963E+02  0.10000001839E+02 0.  0.
         12    1    1    2    0    0  0.15182129478E+02  0.38349326134E+02  0.18109268340E+02  0.45045682037E+02  0.00000000000E+00 0. -1.
         11    1    3    3    0    0 -0.43474766957E+01 -0.97686278091E+01 -0.11425630069E+01  0.10753236414E+02  0.51100000000E-03 0. -1.
        -11    1    3    3    0    0 -0.95839733768E+01 -0.22828327621E+02 -0.11290249421E+02  0.27211299490E+02  0.51100000000E-03 0.  1.
        -12    1    3    3    0    0 -0.12506794059E+01 -0.57523707032E+01 -0.56764559117E+01  0.81777820588E+01  0.00000000000E+00 0.  1.
</event>
<event>
 7    1  0.2227287E-008  0.4614232E+02  0.7816164E-02  0.1320468E+00
        -11   -1    0    0    0    0  0.00000000000E+00  0.00000000000E+00  0.45593999997E+02  0.45594000000E+02  0.51100000000E-03 0.  1.
         11   -1    0    0    0    0 -0.00000000000E+00 -0.00000000000E+00 -0.45593999997E+02  0.45594000000E+02  0.51100000000E-03 0. -1.
    9900012    2    1    2    0    0 -0.57059633301E+01 -0.44150565611E+01  0.44464173613E+02  0.46142317887E+02  0.10000001149E+02 0.  0.
         12    1    1    2    0    0  0.57059633301E+01  0.44150565611E+01 -0.44464173613E+02  0.45045682113E+02  0.00000000000E+00 0. -1.
         11    1    3    3    0    0 -0.37042112115E+01 -0.30626491090E+01  0.26992839195E+02  0.27417409949E+02  0.51100000000E-03 0.  1.
        -11    1    3    3    0    0 -0.26036069228E+00 -0.20857441393E+01  0.13608614278E+01  0.25040088641E+01  0.51100000000E-03 0. -1.
         12    1    3    3    0    0 -0.17413914263E+01  0.73333668731E+00  0.16110472990E+02  0.16220899074E+02  0.00000000000E+00 0. -1.
</event>
<event>
 7    1  0.2227287E-008  0.4614232E+02  0.7816164E-02  0.1320468E+00
        -11   -1    0    0    0    0  0.00000000000E+00  0.00000000000E+00  0.45593999997E+02  0.45594000000E+02  0.51100000000E-03 0.  1.
         11   -1    0    0    0    0 -0.00000000000E+00 -0.00000000000E+00 -0.45593999997E+02  0.45594000000E+02  0.51100000000E-03 0. -1.
    9900012    2    1    2    0    0  0.39821164788E+02  0.11242653126E+02  0.17804240997E+02  0.46142318611E+02  0.10000007746E+02 0.  0.
         12    1    1    2    0    0 -0.39821164788E+02 -0.11242653126E+02 -0.17804240997E+02  0.45045681389E+02  0.00000000000E+00 0. -1.
         11    1    3    3    0    0  0.12750445330E+02  0.30837443385E+01  0.31668866115E+01  0.13494906681E+02  0.51100000000E-03 0. -1.
        -11    1    3    3    0    0  0.17415486855E+02  0.86903249840E+01  0.10661777617E+02  0.22192215594E+02  0.51100000000E-03 0.  1.
        -12    1    3    3    0    0  0.96552326022E+01 -0.53141619666E+00  0.39755767687E+01  0.10455196336E+02  0.00000000000E+00 0.  1.
</event>
<event>
 7    1  0.2227287E-008  0.4614232E+02  0.7816164E-02  0.1320468E+00
        -11   -1    0    0    0    0  0.00000000000E+00  0.00000000000E+00  0.45593999997E+02  0.45594000000E+02  0.51100000000E-03 0.  1.
         11   -1    0    0    0    0 -0.00000000000E+00 -0.00000000000E+00 -0.45593999997E+02  0.45594000000E+02  0.51100000000E-03 0. -1.
    9900012    2    1    2    0    0  0.36856963125E+02 -0.16817493128E+02  0.19693900365E+02  0.46142317437E+02  0.99999970489E+01 0.  0.
         12    1    1    2    0    0 -0.36856963125E+02  0.16817493128E+02 -0.19693900365E+02  0.45045682563E+02  0.00000000000E+00 0. -1.
         11    1    3    3    0    0  0.89367562217E+00 -0.27112151232E+01  0.89681600435E+00  0.29922604780E+01  0.51100000000E-03 0. -1.
        -11    1    3    3    0    0  0.47159767584E+01 -0.28331900225E+01  0.39018853317E+01  0.67447840508E+01  0.51100000000E-03 0.  1.
        -12    1    3    3    0    0  0.31247310745E+02 -0.11273087983E+02  0.14895199029E+02  0.36405272909E+02  0.00000000000E+00 0.  1.
</event>
<event>
 7    1  0.2227287E-008  0.4614232E+02  0.7816164E-02  0.1320468E+00
        -11   -1    0    0    0    0  0.00000000000E+00  0.00000000000E+00  0.45593999997E+02  0.45594000000E+02  0.51100000000E-03 0.  1.
         11   -1    0    0    0    0 -0.00000000000E+00 -0.00000000000E+00 -0.45593999997E+02  0.45594000000E+02  0.51100000000E-03 0. -1.
    9900012    2    1    2    0    0  0.10407108466E+02 -0.17963253780E+02  0.39976581938E+02  0.46142317672E+02  0.99999991834E+01 0.  0.
         12    1    1    2    0    0 -0.10407108466E+02  0.17963253780E+02 -0.39976581938E+02  0.45045682328E+02  0.00000000000E+00 0. -1.
         11    1    3    3    0    0  0.14230723572E+00 -0.62717518087E+01  0.12029654209E+02  0.13567155293E+02  0.51100000000E-03 0. -1.
        -11    1    3    3    0    0  0.55837253622E+01 -0.10291746320E+02  0.21553301521E+02  0.24528408794E+02  0.51100000000E-03 0.  1.
         12    1    3    3    0    0  0.46810758678E+01 -0.13997556513E+01  0.63936262079E+01  0.80467535845E+01  0.00000000000E+00 0. -1.
</event>
<event>
 7    1  0.2227287E-008  0.4614232E+02  0.7816164E-02  0.1320468E+00
        -11   -1    0    0    0    0  0.00000000000E+00  0.00000000000E+00  0.45593999997E+02  0.45594000000E+02  0.51100000000E-03 0.  1.
         11   -1    0    0    0    0 -0.00000000000E+00 -0.00000000000E+00 -0.45593999997E+02  0.45594000000E+02  0.51100000000E-03 0. -1.
    9900012    2    1    2    0    0  0.10739065265E+02  0.35398720823E+02  0.25704406699E+02  0.46142317827E+02  0.10000000604E+02 0.  0.
         12    1    1    2    0    0 -0.10739065265E+02 -0.35398720823E+02 -0.25704406699E+02  0.45045682173E+02  0.00000000000E+00 0. -1.
         11    1    3    3    0    0  0.35208210662E+01  0.69500751724E+01  0.18522714442E+01  0.80081605657E+01  0.51100000000E-03 0. -1.
        -11    1    3    3    0    0  0.25042867369E+01  0.65390633978E+01  0.33594249881E+01  0.77663722994E+01  0.51100000000E-03 0.  1.
        -12    1    3    3    0    0  0.47139574616E+01  0.21909582252E+02  0.20492710267E+02  0.30367784962E+02  0.00000000000E+00 0.  1.
</event>
<event>
 7    1  0.2227287E-008  0.4614232E+02  0.7816164E-02  0.1320468E+00
        -11   -1    0    0    0    0  0.00000000000E+00  0.00000000000E+00  0.45593999997E+02  0.45594000000E+02  0.51100000000E-03 0. -1.
         11   -1    0    0    0    0 -0.00000000000E+00 -0.00000000000E+00 -0.45593999997E+02  0.45594000000E+02  0.51100000000E-03 0.  1.
    9900012    2    1    2    0    0  0.21074985869E+02  0.13162834419E+02 -0.37572575435E+02  0.46142315810E+02  0.99999822103E+01 0.  0.
         12    1    1    2    0    0 -0.21074985869E+02 -0.13162834419E+02  0.37572575435E+02  0.45045684190E+02  0.00000000000E+00 0. -1.
         11    1    3    3    0    0  0.63482989177E+01  0.80925419091E+00 -0.76738023453E+01  0.99921486273E+01  0.51100000000E-03 0. -1.
        -11    1    3    3    0    0  0.48938537287E+01  0.22117731631E+01 -0.13365650764E+02  0.14404248174E+02  0.51100000000E-03 0.  1.
         12    1    3    3    0    0  0.98328332223E+01  0.10141807065E+02 -0.16533122325E+02  0.21745919009E+02  0.00000000000E+00 0. -1.
</event>
<event>
 7    1  0.2227287E-008  0.4614232E+02  0.7816164E-02  0.1320468E+00
        -11   -1    0    0    0    0  0.00000000000E+00  0.00000000000E+00  0.45593999997E+02  0.45594000000E+02  0.51100000000E-03 0.  1.
         11   -1    0    0    0    0 -0.00000000000E+00 -0.00000000000E+00 -0.45593999997E+02  0.45594000000E+02  0.51100000000E-03 0. -1.
    9900012    2    1    2    0    0  0.35110013218E+02  0.24380599224E+02  0.14212209321E+02  0.46142317183E+02  0.99999947266E+01 0.  0.
         12    1    1    2    0    0 -0.35110013218E+02 -0.24380599224E+02 -0.14212209321E+02  0.45045682817E+02  0.00000000000E+00 0. -1.
         11    1    3    3    0    0  0.83609477984E+01  0.97097096077E+01  0.58791574593E+01  0.14097815485E+02  0.51100000000E-03 0. -1.
        -11    1    3    3    0    0  0.60227446564E+00  0.11660700242E+01  0.11667023688E+01  0.17560320361E+01  0.51100000000E-03 0.  1.
        -12    1    3    3    0    0  0.26146790954E+02  0.13504819592E+02  0.71663494933E+01  0.30288469662E+02  0.00000000000E+00 0.  1.
</event>
<event>
 7    1  0.2227287E-008  0.4614232E+02  0.7816164E-02  0.1320468E+00
        -11   -1    0    0    0    0  0.00000000000E+00  0.00000000000E+00  0.45593999997E+02  0.45594000000E+02  0.51100000000E-03 0. -1.
         11   -1    0    0    0    0 -0.00000000000E+00 -0.00000000000E+00 -0.45593999997E+02  0.45594000000E+02  0.51100000000E-03 0.  1.
    9900012    2    1    2    0    0  0.14482703618E+02  0.17308970993E+02 -0.38984152300E+02  0.46142319725E+02  0.10000017904E+02 0.  0.
         12    1    1    2    0    0 -0.14482703618E+02 -0.17308970993E+02  0.38984152300E+02  0.45045680275E+02  0.00000000000E+00 0. -1.
         11    1    3    3    0    0  0.23771455407E+01  0.85648465356E+00 -0.15006866742E+01  0.29387833603E+01  0.51100000000E-03 0. -1.
        -11    1    3    3    0    0  0.88850726886E+01  0.15143176029E+02 -0.27448440834E+02  0.32583388427E+02  0.51100000000E-03 0.  1.
         12    1    3    3    0    0  0.32204853885E+01  0.13093103100E+01 -0.10035024792E+02  0.10620147937E+02  0.00000000000E+00 0. -1.
</event>
<event>
 7    1  0.2227287E-008  0.4614232E+02  0.7816164E-02  0.1320468E+00
        -11   -1    0    0    0    0  0.00000000000E+00  0.00000000000E+00  0.45593999997E+02  0.45594000000E+02  0.51100000000E-03 0.  1.
         11   -1    0    0    0    0 -0.00000000000E+00 -0.00000000000E+00 -0.45593999997E+02  0.45594000000E+02  0.51100000000E-03 0. -1.
    9900012    2    1    2    0    0  0.32341901426E+02  0.17809764187E+02  0.25805565539E+02  0.46142317621E+02  0.99999987208E+01 0.  0.
         12    1    1    2    0    0 -0.32341901426E+02 -0.17809764187E+02 -0.25805565539E+02  0.45045682379E+02  0.00000000000E+00 0. -1.
         11    1    3    3    0    0  0.86159420221E+01  0.32481953327E+01  0.10772878139E+02  0.14171807701E+02  0.51100000000E-03 0. -1.
        -11    1    3    3    0    0  0.17851468305E+02  0.84958581661E+01  0.10373187356E+02  0.22326162742E+02  0.51100000000E-03 0.  1.
        -12    1    3    3    0    0  0.58744910989E+01  0.60657106886E+01  0.46595000436E+01  0.96443471778E+01  0.00000000000E+00 0.  1.
</event>
<event>
 7    1  0.2227287E-008  0.4614232E+02  0.7816164E-02  0.1320468E+00
        -11   -1    0    0    0    0  0.00000000000E+00  0.00000000000E+00  0.45593999997E+02  0.45594000000E+02  0.51100000000E-03 0.  1.
         11   -1    0    0    0    0 -0.00000000000E+00 -0.00000000000E+00 -0.45593999997E+02  0.45594000000E+02  0.51100000000E-03 0. -1.
    9900012    2    1    2    0    0  0.15052938163E+02  0.83951323833E+01  0.41617836103E+02  0.46142317888E+02  0.10000001155E+02 0.  0.
         12    1    1    2    0    0 -0.15052938163E+02 -0.83951323833E+01 -0.41617836103E+02  0.45045682112E+02  0.00000000000E+00 0. -1.
         11    1    3    3    0    0  0.50290563435E+01  0.87684287779E+00  0.13908632802E+02  0.14815880933E+02  0.51100000000E-03 0. -1.
        -11    1    3    3    0    0  0.54906629585E+01  0.57119708232E+01  0.23768074850E+02  0.25053849459E+02  0.51100000000E-03 0.  1.
         12    1    3    3    0    0  0.45332188607E+01  0.18063186824E+01  0.39411284515E+01  0.62725874958E+01  0.00000000000E+00 0. -1.
</event>
<event>
 7    1  0.2227287E-008  0.4614232E+02  0.7816164E-02  0.1320468E+00
        -11   -1    0    0    0    0  0.00000000000E+00  0.00000000000E+00  0.45593999997E+02  0.45594000000E+02  0.51100000000E-03 0. -1.
         11   -1    0    0    0    0 -0.00000000000E+00 -0.00000000000E+00 -0.45593999997E+02  0.45594000000E+02  0.51100000000E-03 0.  1.
    9900012    2    1    2    0    0 -0.19577784095E+02 -0.64569666678E+01 -0.40051609665E+02  0.46142317794E+02  0.10000000304E+02 0.  0.
         12    1    1    2    0    0  0.19577784095E+02  0.64569666678E+01  0.40051609665E+02  0.45045682206E+02  0.00000000000E+00 0. -1.
         11    1    3    3    0    0 -0.57501378454E+01  0.64223505682E+00 -0.15352769400E+02  0.16406830273E+02  0.51100000000E-03 0. -1.
        -11    1    3    3    0    0 -0.37813832759E-01  0.64091104661E+00 -0.44274823054E+00  0.77988660226E+00  0.51100000000E-03 0.  1.
        -12    1    3    3    0    0 -0.13789832416E+02 -0.77401127712E+01 -0.24256092035E+02  0.28955600919E+02  0.00000000000E+00 0.  1.
</event>
<event>
 7    1  0.2227287E-008  0.4614232E+02  0.7816164E-02  0.1320468E+00
        -11   -1    0    0    0    0  0.00000000000E+00  0.00000000000E+00  0.45593999997E+02  0.45594000000E+02  0.51100000000E-03 0.  1.
         11   -1    0    0    0    0 -0.00000000000E+00 -0.00000000000E+00 -0.45593999997E+02  0.45594000000E+02  0.51100000000E-03 0. -1.
    9900012    2    1    2    0    0 -0.71257533899E+01  0.31577162980E+02  0.31324428926E+02  0.46142318401E+02  0.10000005832E+02 0.  0.
         12    1    1    2    0    0  0.71257533899E+01 -0.31577162980E+02 -0.31324428926E+02  0.45045681599E+02  0.00000000000E+00 0. -1.
         11    1    3    3    0    0 -0.11754881032E+00  0.10529846890E+02  0.13301774609E+02  0.16965515060E+02  0.51100000000E-03 0. -1.
        -11    1    3    3    0    0 -0.41088149046E+01  0.17033470128E+02  0.11385689678E+02  0.20896300970E+02  0.51100000000E-03 0.  1.
         12    1    3    3    0    0 -0.28993896750E+01  0.40138459618E+01  0.66369646389E+01  0.82805023707E+01  0.00000000000E+00 0. -1.
</event>
<event>
 7    1  0.2227287E-008  0.4614233E+02  0.7816164E-02  0.1320468E+00
        -11   -1    0    0    0    0  0.00000000000E+00  0.00000000000E+00  0.45593999997E+02  0.45594000000E+02  0.51100000000E-03 0. -1.
         11   -1    0    0    0    0 -0.00000000000E+00 -0.00000000000E+00 -0.45593999997E+02  0.45594000000E+02  0.51100000000E-03 0.  1.
    9900012    2    1    2    0    0  0.28025959108E+02 -0.26831399653E+02  0.22885232915E+02  0.46142331209E+02  0.10000122628E+02 0.  0.
         12    1    1    2    0    0 -0.28025959108E+02  0.26831399653E+02 -0.22885232915E+02  0.45045668791E+02  0.00000000000E+00 0. -1.
         11    1    3    3    0    0  0.87446431673E+00 -0.19507229518E+01  0.12557091178E+01  0.24792768150E+01  0.51100000000E-03 0. -1.
        -11    1    3    3    0    0  0.22596701955E+02 -0.23924694808E+02  0.20812285453E+02  0.38937811789E+02  0.51100000000E-03 0.  1.
         12    1    3    3    0    0  0.45547928364E+01 -0.95598189285E+00  0.81723834425E+00  0.47252426047E+01  0.00000000000E+00 0. -1.
</event>
<event>
 7    1  0.2227287E-008  0.4614232E+02  0.7816164E-02  0.1320468E+00
        -11   -1    0    0    0    0  0.00000000000E+00  0.00000000000E+00  0.45593999997E+02  0.45594000000E+02  0.51100000000E-03 0.  1.
         11   -1    0    0    0    0 -0.00000000000E+00 -0.00000000000E+00 -0.45593999997E+02  0.45594000000E+02  0.51100000000E-03 0. -1.
    9900012    2    1    2    0    0  0.18942163231E+02 -0.68403734141E+01  0.40292894054E+02  0.46142316882E+02  0.99999919813E+01 0.  0.
         12    1    1    2    0    0 -0.18942163231E+02  0.68403734141E+01 -0.40292894054E+02  0.45045683118E+02  0.00000000000E+00 0. -1.
         11    1    3    3    0    0  0.37222581891E+01 -0.22014735118E+01  0.83452063201E+01  0.93991574322E+01  0.51100000000E-03 0. -1.
        -11    1    3    3    0    0  0.58796282216E+01 -0.51511295067E+01  0.87648787681E+01  0.11744243837E+02  0.51100000000E-03 0.  1.
         12    1    3    3    0    0  0.93402768202E+01  0.51222960443E+00  0.23182808966E+02  0.24998915613E+02  0.00000000000E+00 0. -1.
</event>
<event>
 7    1  0.2227287E-008  0.4614232E+02  0.7816164E-02  0.1320468E+00
        -11   -1    0    0    0    0  0.00000000000E+00  0.00000000000E+00  0.45593999997E+02  0.45594000000E+02  0.51100000000E-03 0.  1.
         11   -1    0    0    0    0 -0.00000000000E+00 -0.00000000000E+00 -0.45593999997E+02  0.45594000000E+02  0.51100000000E-03 0. -1.
    9900012    2    1    2    0    0  0.67469637130E+01 -0.40674501211E+02  0.18143232840E+02  0.46142318010E+02  0.10000002267E+02 0.  0.
         12    1    1    2    0    0 -0.67469637130E+01  0.40674501211E+02 -0.18143232840E+02  0.45045681990E+02  0.00000000000E+00 0. -1.
         11    1    3    3    0    0  0.68156201795E+00 -0.85728486275E+01  0.53910800916E+01  0.10149975625E+02  0.51100000000E-03 0. -1.
        -11    1    3    3    0    0  0.80197171501E+01 -0.23569976811E+02  0.90909586934E+01  0.26504814662E+02  0.51100000000E-03 0.  1.
         12    1    3    3    0    0 -0.19543154550E+01 -0.85316757719E+01  0.36611940548E+01  0.94875277223E+01  0.00000000000E+00 0. -1.
</event>
<event>
 7    1  0.2227287E-008  0.4614232E+02  0.7816164E-02  0.1320468E+00
        -11   -1    0    0    0    0  0.00000000000E+00  0.00000000000E+00  0.45593999997E+02  0.45594000000E+02  0.51100000000E-03 0. -1.
         11   -1    0    0    0    0 -0.00000000000E+00 -0.00000000000E+00 -0.45593999997E+02  0.45594000000E+02  0.51100000000E-03 0.  1.
    9900012    2    1    2    0    0 -0.34828987085E+02 -0.24799740694E+01 -0.28458828474E+02  0.46142317289E+02  0.99999956979E+01 0.  0.
         12    1    1    2    0    0  0.34828987085E+02  0.24799740694E+01  0.28458828474E+02  0.45045682711E+02  0.00000000000E+00 0. -1.
         11    1    3    3    0    0  0.11344530816E+00 -0.14704339548E+00  0.27880413187E+00  0.33499791517E+00  0.51100000000E-03 0. -1.
        -11    1    3    3    0    0 -0.18862667002E+02  0.21329659372E+01 -0.15378746234E+02  0.24430628034E+02  0.51100000000E-03 0.  1.
         12    1    3    3    0    0 -0.16079765391E+02 -0.44658966112E+01 -0.13358886372E+02  0.21376691341E+02  0.00000000000E+00 0. -1.
</event>
<event>
 7    1  0.2227287E-008  0.4614232E+02  0.7816164E-02  0.1320468E+00
        -11   -1    0    0    0    0  0.00000000000E+00  0.00000000000E+00  0.45593999997E+02  0.45594000000E+02  0.51100000000E-03 0.  1.
         11   -1    0    0    0    0 -0.00000000000E+00 -0.00000000000E+00 -0.45593999997E+02  0.45594000000E+02  0.51100000000E-03 0. -1.
    9900012    2    1    2    0    0 -0.27671887189E+02  0.12637667821E+02  0.33221519617E+02  0.46142319250E+02  0.10000013576E+02 0.  0.
         12    1    1    2    0    0  0.27671887189E+02 -0.12637667821E+02 -0.33221519617E+02  0.45045680750E+02  0.00000000000E+00 0. -1.
         11    1    3    3    0    0 -0.86108376810E+01  0.51715218986E+01  0.10603240261E+02  0.14605473927E+02  0.51100000000E-03 0. -1.
        -11    1    3    3    0    0 -0.16187402674E+02  0.60951819921E+01  0.13693604970E+02  0.22061234466E+02  0.51100000000E-03 0.  1.
         12    1    3    3    0    0 -0.28736468346E+01  0.13709639304E+01  0.89246743855E+01  0.94756108571E+01  0.00000000000E+00 0. -1.
</event>
<event>
 7    1  0.2227287E-008  0.4614232E+02  0.7816164E-02  0.1320468E+00
        -11   -1    0    0    0    0  0.00000000000E+00  0.00000000000E+00  0.45593999997E+02  0.45594000000E+02  0.51100000000E-03 0. -1.
         11   -1    0    0    0    0 -0.00000000000E+00 -0.00000000000E+00 -0.45593999997E+02  0.45594000000E+02  0.51100000000E-03 0.  1.
    9900012    2    1    2    0    0 -0.18008575249E+01 -0.45005151179E+02  0.63786810583E+00  0.46142316565E+02  0.99999890901E+01 0.  0.
         12    1    1    2    0    0  0.18008575249E+01  0.45005151179E+02 -0.63786810583E+00  0.45045683435E+02  0.00000000000E+00 0. -1.
         11    1    3    3    0    0  0.23346995332E+01 -0.34335009414E+01 -0.28451408938E+00  0.41618144063E+01  0.51100000000E-03 0. -1.
        -11    1    3    3    0    0 -0.30624167970E+01 -0.12255539536E+02  0.47735762798E+00  0.12641381116E+02  0.51100000000E-03 0.  1.
        -12    1    3    3    0    0 -0.10731402611E+01 -0.29316110701E+02  0.44502456723E+00  0.29339121042E+02  0.00000000000E+00 0.  1.
</event>
<event>
 7    1  0.2227287E-008  0.4614232E+02  0.7816164E-02  0.1320468E+00
        -11   -1    0    0    0    0  0.00000000000E+00  0.00000000000E+00  0.45593999997E+02  0.45594000000E+02  0.51100000000E-03 0. -1.
         11   -1    0    0    0    0 -0.00000000000E+00 -0.00000000000E+00 -0.45593999997E+02  0.45594000000E+02  0.51100000000E-03 0.  1.
    9900012    2    1    2    0    0  0.11057811708E+02 -0.43019201675E+02  0.74957687676E+01  0.46142318055E+02  0.10000002676E+02 0.  0.
         12    1    1    2    0    0 -0.11057811708E+02  0.43019201675E+02 -0.74957687676E+01  0.45045681945E+02  0.00000000000E+00 0. -1.
         11    1    3    3    0    0  0.94009389056E+00 -0.59393098971E+01  0.43276027333E+01  0.74085979953E+01  0.51100000000E-03 0. -1.
        -11    1    3    3    0    0  0.53864344421E+01 -0.15257142996E+02  0.26667908394E+01  0.16398349369E+02  0.51100000000E-03 0.  1.
         12    1    3    3    0    0  0.47312833749E+01 -0.21822748782E+02  0.50137519488E+00  0.22335370690E+02  0.00000000000E+00 0. -1.
</event>
<event>
 7    1  0.2227287E-008  0.4614232E+02  0.7816164E-02  0.1320468E+00
        -11   -1    0    0    0    0  0.00000000000E+00  0.00000000000E+00  0.45593999997E+02  0.45594000000E+02  0.51100000000E-03 0.  1.
         11   -1    0    0    0    0 -0.00000000000E+00 -0.00000000000E+00 -0.45593999997E+02  0.45594000000E+02  0.51100000000E-03 0. -1.
    9900012    2    1    2    0    0 -0.29673670971E+01 -0.32221970438E+02  0.31337724376E+02  0.46142316351E+02  0.99999871370E+01 0.  0.
         12    1    1    2    0    0  0.29673670971E+01  0.32221970438E+02 -0.31337724376E+02  0.45045683649E+02  0.00000000000E+00 0. -1.
         11    1    3    3    0    0  0.24750030527E+01 -0.35939390437E+01  0.28608159602E+01  0.52178833046E+01  0.51100000000E-03 0. -1.
        -11    1    3    3    0    0 -0.35721066695E+01 -0.13124834081E+02  0.15486243476E+02  0.20611767342E+02  0.51100000000E-03 0.  1.
         12    1    3    3    0    0 -0.18702634803E+01 -0.15503197313E+02  0.12990664940E+02  0.20312665704E+02  0.00000000000E+00 0. -1.
</event>
<event>
 7    1  0.2227287E-008  0.4614232E+02  0.7816164E-02  0.1320468E+00
        -11   -1    0    0    0    0  0.00000000000E+00  0.00000000000E+00  0.45593999997E+02  0.45594000000E+02  0.51100000000E-03 0.  1.
         11   -1    0    0    0    0 -0.00000000000E+00 -0.00000000000E+00 -0.45593999997E+02  0.45594000000E+02  0.51100000000E-03 0. -1.
    9900012    2    1    2    0    0  0.11967632034E+02  0.37431394720E+02  0.22017719563E+02  0.46142317610E+02  0.99999986231E+01 0.  0.
         12    1    1    2    0    0 -0.11967632034E+02 -0.37431394720E+02 -0.22017719563E+02  0.45045682390E+02  0.00000000000E+00 0. -1.
         11    1    3    3    0    0 -0.12896231239E+00  0.82502861422E+01  0.52895445756E+01  0.98011802751E+01  0.51100000000E-03 0. -1.
        -11    1    3    3    0    0  0.44813004196E+01  0.18867512089E+02  0.11048798513E+02  0.22319072891E+02  0.51100000000E-03 0.  1.
         12    1    3    3    0    0  0.76152939266E+01  0.10313596489E+02  0.56793764750E+01  0.14022064444E+02  0.00000000000E+00 0. -1.
</event>
<event>
 7    1  0.2227287E-008  0.4614233E+02  0.7816164E-02  0.1320468E+00
        -11   -1    0    0    0    0  0.00000000000E+00  0.00000000000E+00  0.45593999997E+02  0.45594000000E+02  0.51100000000E-03 0.  1.
         11   -1    0    0    0    0 -0.00000000000E+00 -0.00000000000E+00 -0.45593999997E+02  0.45594000000E+02  0.51100000000E-03 0. -1.
    9900012    2    1    2    0    0  0.15181287896E+02  0.57133574690E+01  0.42023788091E+02  0.46142326276E+02  0.10000077645E+02 0.  0.
         12    1    1    2    0    0 -0.15181287896E+02 -0.57133574690E+01 -0.42023788091E+02  0.45045673724E+02  0.00000000000E+00 0. -1.
         11    1    3    3    0    0  0.41896937030E+01 -0.68186057024E+00  0.42500808054E+01  0.60068006689E+01  0.51100000000E-03 0. -1.
        -11    1    3    3    0    0  0.43907060059E+00 -0.60695669660E+00  0.10528868027E+01  0.12921881845E+01  0.51100000000E-03 0.  1.
        -12    1    3    3    0    0  0.10552523592E+02  0.70021747359E+01  0.36720820483E+02  0.38843337423E+02  0.00000000000E+00 0.  1.
</event>
<event>
 7    1  0.2227287E-008  0.4614232E+02  0.7816164E-02  0.1320468E+00
        -11   -1    0    0    0    0  0.00000000000E+00  0.00000000000E+00  0.45593999997E+02  0.45594000000E+02  0.51100000000E-03 0.  1.
         11   -1    0    0    0    0 -0.00000000000E+00 -0.00000000000E+00 -0.45593999997E+02  0.45594000000E+02  0.51100000000E-03 0. -1.
    9900012    2    1    2    0    0  0.27181319239E+02  0.26440435771E+02  0.24314456381E+02  0.46142317094E+02  0.99999939176E+01 0.  0.
         12    1    1    2    0    0 -0.27181319239E+02 -0.26440435771E+02 -0.24314456381E+02  0.45045682906E+02  0.00000000000E+00 0. -1.
         11    1    3    3    0    0  0.10147855996E+02  0.10803452747E+02  0.10554006131E+02  0.18195620853E+02  0.51100000000E-03 0. -1.
        -11    1    3    3    0    0  0.15628421291E+02  0.12065499899E+02  0.13833849200E+02  0.24108073830E+02  0.51100000000E-03 0.  1.
         12    1    3    3    0    0  0.14050419530E+01  0.35714831256E+01 -0.73398950221E-01  0.38386224107E+01  0.00000000000E+00 0. -1.
</event>
<event>
 7    1  0.2227287E-008  0.4614232E+02  0.7816164E-02  0.1320468E+00
        -11   -1    0    0    0    0  0.00000000000E+00  0.00000000000E+00  0.45593999997E+02  0.45594000000E+02  0.51100000000E-03 0.  1.
         11   -1    0    0    0    0 -0.00000000000E+00 -0.00000000000E+00 -0.45593999997E+02  0.45594000000E+02  0.51100000000E-03 0. -1.
    9900012    2    1    2    0    0 -0.86273419985E+01  0.43729100934E+02  0.65152285004E+01  0.46142317623E+02  0.99999987367E+01 0.  0.
         12    1    1    2    0    0  0.86273419985E+01 -0.43729100934E+02 -0.65152285004E+01  0.45045682377E+02  0.00000000000E+00 0. -1.
         11    1    3    3    0    0 -0.76624751046E+01  0.42343561820E+02  0.45267320366E+01  0.43268719134E+02  0.51100000000E-03 0.  1.
        -11    1    3    3    0    0 -0.16786990929E+00 -0.16590179767E+00  0.10241686713E-01  0.23623900225E+00  0.51100000000E-03 0. -1.
        -12    1    3    3    0    0 -0.79699698454E+00  0.15514409114E+01  0.19782547771E+01  0.26373594859E+01  0.00000000000E+00 0.  1.
</event>
<event>
 7    1  0.2227287E-008  0.4614232E+02  0.7816164E-02  0.1320468E+00
        -11   -1    0    0    0    0  0.00000000000E+00  0.00000000000E+00  0.45593999997E+02  0.45594000000E+02  0.51100000000E-03 0.  1.
         11   -1    0    0    0    0 -0.00000000000E+00 -0.00000000000E+00 -0.45593999997E+02  0.45594000000E+02  0.51100000000E-03 0. -1.
    9900012    2    1    2    0    0 -0.26629662915E+02 -0.19825446926E+01  0.36277322578E+02  0.46142316923E+02  0.99999923581E+01 0.  0.
         12    1    1    2    0    0  0.26629662915E+02  0.19825446926E+01 -0.36277322578E+02  0.45045683077E+02  0.00000000000E+00 0. -1.
         11    1    3    3    0    0 -0.58006590333E+01 -0.14557631630E+01  0.37251715626E+01  0.70458352975E+01  0.51100000000E-03 0. -1.
        -11    1    3    3    0    0 -0.13119455791E+02  0.19884893689E+01  0.17088279316E+02  0.21635237472E+02  0.51100000000E-03 0.  1.
        -12    1    3    3    0    0 -0.77095480910E+01 -0.25152708985E+01  0.15463871699E+02  0.17461244154E+02  0.00000000000E+00 0.  1.
</event>
<event>
 7    1  0.2227287E-008  0.4614232E+02  0.7816164E-02  0.1320468E+00
        -11   -1    0    0    0    0  0.00000000000E+00  0.00000000000E+00  0.45593999997E+02  0.45594000000E+02  0.51100000000E-03 0.  1.
         11   -1    0    0    0    0 -0.00000000000E+00 -0.00000000000E+00 -0.45593999997E+02  0.45594000000E+02  0.51100000000E-03 0. -1.
    9900012    2    1    2    0    0  0.25632817545E+02 -0.36847694850E+02 -0.37841134427E+01  0.46142318014E+02  0.10000002310E+02 0.  0.
         12    1    1    2    0    0 -0.25632817545E+02  0.36847694850E+02  0.37841134427E+01  0.45045681986E+02  0.00000000000E+00 0. -1.
         11    1    3    3    0    0  0.51837552935E+01 -0.80312793022E+01 -0.34192961969E+01  0.10152061511E+02  0.51100000000E-03 0. -1.
        -11    1    3    3    0    0 -0.52951216739E+00 -0.85600507639E+00 -0.23912301291E+00  0.10345568629E+01  0.51100000000E-03 0.  1.
        -12    1    3    3    0    0  0.20978574418E+02 -0.27960410471E+02 -0.12569423286E+00  0.34955699641E+02  0.00000000000E+00 0.  1.
</event>
<event>
 7    1  0.2227287E-008  0.4614232E+02  0.7816164E-02  0.1320468E+00
        -11   -1    0    0    0    0  0.00000000000E+00  0.00000000000E+00  0.45593999997E+02  0.45594000000E+02  0.51100000000E-03 0.  1.
         11   -1    0    0    0    0 -0.00000000000E+00 -0.00000000000E+00 -0.45593999997E+02  0.45594000000E+02  0.51100000000E-03 0. -1.
    9900012    2    1    2    0    0 -0.21785106218E+02  0.26364735197E+02  0.29315924925E+02  0.46142316864E+02  0.99999918220E+01 0.  0.
         12    1    1    2    0    0  0.21785106218E+02 -0.26364735197E+02 -0.29315924925E+02  0.45045683136E+02  0.00000000000E+00 0. -1.
         11    1    3    3    0    0 -0.67217931235E+01  0.96353304679E+01  0.11347606737E+02  0.16333715895E+02  0.51100000000E-03 0. -1.
        -11    1    3    3    0    0 -0.14647895919E+02  0.15948759436E+02  0.14100116996E+02  0.25840609163E+02  0.51100000000E-03 0.  1.
         12    1    3    3    0    0 -0.41541717565E+00  0.78064529350E+00  0.38682011927E+01  0.39679918059E+01  0.00000000000E+00 0. -1.
</event>
<event>
 7    1  0.2227287E-008  0.4614232E+02  0.7816164E-02  0.1320468E+00
        -11   -1    0    0    0    0  0.00000000000E+00  0.00000000000E+00  0.45593999997E+02  0.45594000000E+02  0.51100000000E-03 0.  1.
         11   -1    0    0    0    0 -0.00000000000E+00 -0.00000000000E+00 -0.45593999997E+02  0.45594000000E+02  0.51100000000E-03 0. -1.
    9900012    2    1    2    0    0 -0.30394030956E+02  0.30805462969E+02  0.12503589774E+02  0.46142318478E+02  0.10000006539E+02 0.  0.
         12    1    1    2    0    0  0.30394030956E+02 -0.30805462969E+02 -0.12503589774E+02  0.45045681522E+02  0.00000000000E+00 0. -1.
         11    1    3    3    0    0 -0.15852215142E+02  0.94161247328E+01  0.66487040693E+01  0.19600035611E+02  0.51100000000E-03 0. -1.
        -11    1    3    3    0    0 -0.27189091004E+01  0.47540539204E+01  0.14088653150E+01  0.56549444835E+01  0.51100000000E-03 0.  1.
         12    1    3    3    0    0 -0.11822906714E+02  0.16635284316E+02  0.44460203902E+01  0.20887338383E+02  0.00000000000E+00 0. -1.
</event>
<event>
 7    1  0.2227287E-008  0.4614232E+02  0.7816164E-02  0.1320468E+00
        -11   -1    0    0    0    0  0.00000000000E+00  0.00000000000E+00  0.45593999997E+02  0.45594000000E+02  0.51100000000E-03 0.  1.
         11   -1    0    0    0    0 -0.00000000000E+00 -0.00000000000E+00 -0.45593999997E+02  0.45594000000E+02  0.51100000000E-03 0. -1.
    9900012    2    1    2    0    0 -0.35831583433E+02 -0.25969578491E+02  0.84138043864E+01  0.46142317826E+02  0.10000000587E+02 0.  0.
         12    1    1    2    0    0  0.35831583433E+02  0.25969578491E+02 -0.84138043864E+01  0.45045682174E+02  0.00000000000E+00 0. -1.
         11    1    3    3    0    0 -0.18655498431E+02 -0.11606589882E+02  0.69100052701E+01  0.23032340817E+02  0.51100000000E-03 0. -1.
        -11    1    3    3    0    0 -0.94572644796E+01 -0.11168725913E+02  0.18366430761E+01  0.14749696539E+02  0.51100000000E-03 0.  1.
         12    1    3    3    0    0 -0.77188205225E+01 -0.31942626962E+01 -0.33284395983E+00  0.83602804697E+01  0.00000000000E+00 0. -1.
</event>
<event>
 7    1  0.2227287E-008  0.4614232E+02  0.7816164E-02  0.1320468E+00
        -11   -1    0    0    0    0  0.00000000000E+00  0.00000000000E+00  0.45593999997E+02  0.45594000000E+02  0.51100000000E-03 0.  1.
         11   -1    0    0    0    0 -0.00000000000E+00 -0.00000000000E+00 -0.45593999997E+02  0.45594000000E+02  0.51100000000E-03 0. -1.
    9900012    2    1    2    0    0  0.11637129527E+02 -0.41336563130E+02  0.13600709718E+02  0.46142317189E+02  0.99999947869E+01 0.  0.
         12    1    1    2    0    0 -0.11637129527E+02  0.41336563130E+02 -0.13600709718E+02  0.45045682811E+02  0.00000000000E+00 0. -1.
         11    1    3    3    0    0  0.22547235721E+00 -0.13309109516E+02  0.48075848387E+01  0.14152600684E+02  0.51100000000E-03 0. -1.
        -11    1    3    3    0    0  0.84081976593E+01 -0.22335305841E+02  0.45901249541E+01  0.24302940609E+02  0.51100000000E-03 0.  1.
         12    1    3    3    0    0  0.30034595105E+01 -0.56921477731E+01  0.42029999254E+01  0.76867758960E+01  0.00000000000E+00 0. -1.
</event>
<event>
 7    1  0.2227287E-008  0.4614232E+02  0.7816164E-02  0.1320468E+00
        -11   -1    0    0    0    0  0.00000000000E+00  0.00000000000E+00  0.45593999997E+02  0.45594000000E+02  0.51100000000E-03 0. -1.
         11   -1    0    0    0    0 -0.00000000000E+00 -0.00000000000E+00 -0.45593999997E+02  0.45594000000E+02  0.51100000000E-03 0.  1.
    9900012    2    1    2    0    0 -0.37884330931E+02  0.97141963384E+01 -0.22350063832E+02  0.46142317700E+02  0.99999994412E+01 0.  0.
         12    1    1    2    0    0  0.37884330931E+02 -0.97141963384E+01  0.22350063832E+02  0.45045682300E+02  0.00000000000E+00 0. -1.
         11    1    3    3    0    0 -0.48887596623E+01  0.25233626851E+01 -0.14421363681E+01  0.56874500298E+01  0.51100000000E-03 0. -1.
        -11    1    3    3    0    0 -0.16212255881E+02  0.29571612621E+01 -0.14647665823E+02  0.22048495590E+02  0.51100000000E-03 0.  1.
        -12    1    3    3    0    0 -0.16783315388E+02  0.42336723913E+01 -0.62602616410E+01  0.18406372080E+02  0.00000000000E+00 0.  1.
</event>
<event>
 7    1  0.2227287E-008  0.4614232E+02  0.7816164E-02  0.1320468E+00
        -11   -1    0    0    0    0  0.00000000000E+00  0.00000000000E+00  0.45593999997E+02  0.45594000000E+02  0.51100000000E-03 0. -1.
         11   -1    0    0    0    0 -0.00000000000E+00 -0.00000000000E+00 -0.45593999997E+02  0.45594000000E+02  0.51100000000E-03 0.  1.
    9900012    2    1    2    0    0  0.44186879314E+02  0.73587203100E+01  0.47415611852E+01  0.46142317959E+02  0.10000001803E+02 0.  0.
         12    1    1    2    0    0 -0.44186879314E+02 -0.73587203100E+01 -0.47415611852E+01  0.45045682041E+02  0.00000000000E+00 0. -1.
         11    1    3    3    0    0  0.56543395397E+01  0.47998913941E+00 -0.17515284405E+01  0.59388380465E+01  0.51100000000E-03 0. -1.
        -11    1    3    3    0    0  0.24597589667E+01  0.11157865386E+01 -0.10582934692E+01  0.29009272831E+01  0.51100000000E-03 0.  1.
        -12    1    3    3    0    0  0.36072780807E+02  0.57629446320E+01  0.75513830948E+01  0.37302552629E+02  0.00000000000E+00 0.  1.
</event>
<event>
 7    1  0.2227287E-008  0.4614232E+02  0.7816164E-02  0.1320468E+00
        -11   -1    0    0    0    0  0.00000000000E+00  0.00000000000E+00  0.45593999997E+02  0.45594000000E+02  0.51100000000E-03 0.  1.
         11   -1    0    0    0    0 -0.00000000000E+00 -0.00000000000E+00 -0.45593999997E+02  0.45594000000E+02  0.51100000000E-03 0. -1.
    9900012    2    1    2    0    0  0.41361865594E+02  0.53474963972E+01  0.17020967523E+02  0.46142323420E+02  0.10000051601E+02 0.  0.
         12    1    1    2    0    0 -0.41361865594E+02 -0.53474963972E+01 -0.17020967523E+02  0.45045676580E+02  0.00000000000E+00 0. -1.
         11    1    3    3    0    0 -0.34896138945E+00  0.20307537640E-02  0.29216651737E+00  0.45512603779E+00  0.51100000000E-03 0. -1.
        -11    1    3    3    0    0  0.19866067915E+02  0.23695761525E+00  0.55839117861E+01  0.20637269064E+02  0.51100000000E-03 0.  1.
         12    1    3    3    0    0  0.21844759069E+02  0.51085080282E+01  0.11144889219E+02  0.25049928318E+02  0.00000000000E+00 0. -1.
</event>
<event>
 7    1  0.2227287E-008  0.4614232E+02  0.7816164E-02  0.1320468E+00
        -11   -1    0    0    0    0  0.00000000000E+00  0.00000000000E+00  0.45593999997E+02  0.45594000000E+02  0.51100000000E-03 0.  1.
         11   -1    0    0    0    0 -0.00000000000E+00 -0.00000000000E+00 -0.45593999997E+02  0.45594000000E+02  0.51100000000E-03 0. -1.
    9900012    2    1    2    0    0 -0.85177064208E+01  0.21628591582E+02  0.38584533247E+02  0.46142317606E+02  0.99999985821E+01 0.  0.
         12    1    1    2    0    0  0.85177064208E+01 -0.21628591582E+02 -0.38584533247E+02  0.45045682394E+02  0.00000000000E+00 0. -1.
         11    1    3    3    0    0 -0.33043429909E+01  0.26968229838E+01  0.39726874126E+01  0.58287033161E+01  0.51100000000E-03 0. -1.
        -11    1    3    3    0    0 -0.29628822794E+01  0.13841720951E+02  0.29657888183E+02  0.32862778975E+02  0.51100000000E-03 0.  1.
        -12    1    3    3    0    0 -0.22504811504E+01  0.50900476474E+01  0.49539576518E+01  0.74508353140E+01  0.00000000000E+00 0.  1.
</event>
<event>
 7    1  0.2227287E-008  0.4614232E+02  0.7816164E-02  0.1320468E+00
        -11   -1    0    0    0    0  0.00000000000E+00  0.00000000000E+00  0.45593999997E+02  0.45594000000E+02  0.51100000000E-03 0.  1.
         11   -1    0    0    0    0 -0.00000000000E+00 -0.00000000000E+00 -0.45593999997E+02  0.45594000000E+02  0.51100000000E-03 0. -1.
    9900012    2    1    2    0    0 -0.20819442226E+02  0.28312139038E+02  0.28179551870E+02  0.46142317242E+02  0.99999952656E+01 0.  0.
         12    1    1    2    0    0  0.20819442226E+02 -0.28312139038E+02 -0.28179551870E+02  0.45045682758E+02  0.00000000000E+00 0. -1.
         11    1    3    3    0    0 -0.11924795848E+02  0.17794534348E+02  0.19972137965E+02  0.29287070591E+02  0.51100000000E-03 0. -1.
        -11    1    3    3    0    0 -0.75458868550E+01  0.94738787883E+01  0.88838357535E+01  0.15020563428E+02  0.51100000000E-03 0.  1.
         12    1    3    3    0    0 -0.13487595235E+01  0.10437259023E+01 -0.67642184858E+00  0.18346832229E+01  0.00000000000E+00 0. -1.
</event>
<event>
 7    1  0.2227287E-008  0.4614232E+02  0.7816164E-02  0.1320468E+00
        -11   -1    0    0    0    0  0.00000000000E+00  0.00000000000E+00  0.45593999997E+02  0.45594000000E+02  0.51100000000E-03 0.  1.
         11   -1    0    0    0    0 -0.00000000000E+00 -0.00000000000E+00 -0.45593999997E+02  0.45594000000E+02  0.51100000000E-03 0. -1.
    9900012    2    1    2    0    0  0.27266544215E+02 -0.24517582647E+02  0.26163661843E+02  0.46142317707E+02  0.99999995031E+01 0.  0.
         12    1    1    2    0    0 -0.27266544215E+02  0.24517582647E+02 -0.26163661843E+02  0.45045682293E+02  0.00000000000E+00 0. -1.
         11    1    3    3    0    0  0.18720325659E+01 -0.63769152107E+01  0.52410093292E+01  0.84639076426E+01  0.51100000000E-03 0. -1.
        -11    1    3    3    0    0  0.17889407329E+02 -0.12332468190E+02  0.13034904409E+02  0.25338299063E+02  0.51100000000E-03 0.  1.
         12    1    3    3    0    0  0.75051043201E+01 -0.58081992463E+01  0.78877481048E+01  0.12340111001E+02  0.00000000000E+00 0. -1.
</event>
<event>
 7    1  0.2227287E-008  0.4614232E+02  0.7816164E-02  0.1320468E+00
        -11   -1    0    0    0    0  0.00000000000E+00  0.00000000000E+00  0.45593999997E+02  0.45594000000E+02  0.51100000000E-03 0. -1.
         11   -1    0    0    0    0 -0.00000000000E+00 -0.00000000000E+00 -0.45593999997E+02  0.45594000000E+02  0.51100000000E-03 0.  1.
    9900012    2    1    2    0    0  0.20950022647E+02 -0.25645820730E+01 -0.39794887054E+02  0.46142316902E+02  0.99999921661E+01 0.  0.
         12    1    1    2    0    0 -0.20950022647E+02  0.25645820730E+01  0.39794887054E+02  0.45045683098E+02  0.00000000000E+00 0. -1.
         11    1    3    3    0    0 -0.20576977002E+00 -0.16006189526E+01 -0.14488179674E+01  0.21687314249E+01  0.51100000000E-03 0. -1.
        -11    1    3    3    0    0  0.13171269557E+02  0.84725251799E-01 -0.27214994663E+02  0.30234838429E+02  0.51100000000E-03 0.  1.
        -12    1    3    3    0    0  0.79845228600E+01 -0.10486883722E+01 -0.11131074424E+02  0.13738747048E+02  0.00000000000E+00 0.  1.
</event>
<event>
 7    1  0.2227287E-008  0.4614232E+02  0.7816164E-02  0.1320468E+00
        -11   -1    0    0    0    0  0.00000000000E+00  0.00000000000E+00  0.45593999997E+02  0.45594000000E+02  0.51100000000E-03 0. -1.
         11   -1    0    0    0    0 -0.00000000000E+00 -0.00000000000E+00 -0.45593999997E+02  0.45594000000E+02  0.51100000000E-03 0.  1.
    9900012    2    1    2    0    0 -0.12978467549E+02 -0.43103745620E+02 -0.16552549155E+01  0.46142319017E+02  0.10000011453E+02 0.  0.
         12    1    1    2    0    0  0.12978467549E+02  0.43103745620E+02  0.16552549155E+01  0.45045680983E+02  0.00000000000E+00 0. -1.
         11    1    3    3    0    0 -0.40930496492E+01 -0.23970416706E+02  0.11260799010E+01  0.24343417769E+02  0.51100000000E-03 0. -1.
        -11    1    3    3    0    0 -0.43180364877E+01 -0.12061481479E+02  0.35252562247E+00  0.12815968522E+02  0.51100000000E-03 0.  1.
         12    1    3    3    0    0 -0.45673814121E+01 -0.70718474351E+01 -0.31338604390E+01  0.89829327260E+01  0.00000000000E+00 0. -1.
</event>
<event>
 7    1  0.2227287E-008  0.4614232E+02  0.7816164E-02  0.1320468E+00
        -11   -1    0    0    0    0  0.00000000000E+00  0.00000000000E+00  0.45593999997E+02  0.45594000000E+02  0.51100000000E-03 0. -1.
         11   -1    0    0    0    0 -0.00000000000E+00 -0.00000000000E+00 -0.45593999997E+02  0.45594000000E+02  0.51100000000E-03 0.  1.
    9900012    2    1    2    0    0 -0.45996484808E+01 -0.36815847579E+02 -0.25545059142E+02  0.46142318235E+02  0.10000004323E+02 0.  0.
         12    1    1    2    0    0  0.45996484808E+01  0.36815847579E+02  0.25545059142E+02  0.45045681765E+02  0.00000000000E+00 0. -1.
         11    1    3    3    0    0 -0.31447498017E+00 -0.94321606475E+01 -0.38748646872E+01  0.10201917741E+02  0.51100000000E-03 0. -1.
        -11    1    3    3    0    0  0.20761322899E+01 -0.74118214682E+01 -0.63403042912E+01  0.99722054495E+01  0.51100000000E-03 0.  1.
         12    1    3    3    0    0 -0.63613057905E+01 -0.19971865463E+02 -0.15329890163E+02  0.25968195044E+02  0.00000000000E+00 0. -1.
</event>
<event>
 7    1  0.2227287E-008  0.4614232E+02  0.7816164E-02  0.1320468E+00
        -11   -1    0    0    0    0  0.00000000000E+00  0.00000000000E+00  0.45593999997E+02  0.45594000000E+02  0.51100000000E-03 0. -1.
         11   -1    0    0    0    0 -0.00000000000E+00 -0.00000000000E+00 -0.45593999997E+02  0.45594000000E+02  0.51100000000E-03 0.  1.
    9900012    2    1    2    0    0 -0.16699339148E+02  0.40036430967E+02 -0.12137949304E+02  0.46142317123E+02  0.99999941794E+01 0.  0.
         12    1    1    2    0    0  0.16699339148E+02 -0.40036430967E+02  0.12137949304E+02  0.45045682877E+02  0.00000000000E+00 0. -1.
         11    1    3    3    0    0 -0.97105032040E+00  0.91999589149E+01 -0.23434739215E+00  0.92540316469E+01  0.51100000000E-03 0. -1.
        -11    1    3    3    0    0 -0.64819566202E+01  0.81513942417E+01 -0.37850049834E+01  0.11080940966E+02  0.51100000000E-03 0.  1.
        -12    1    3    3    0    0 -0.92463322078E+01  0.22685077811E+02 -0.81185969281E+01  0.25807344510E+02  0.00000000000E+00 0.  1.
</event>
<event>
 7    1  0.2227287E-008  0.4614232E+02  0.7816164E-02  0.1320468E+00
        -11   -1    0    0    0    0  0.00000000000E+00  0.00000000000E+00  0.45593999997E+02  0.45594000000E+02  0.51100000000E-03 0.  1.
         11   -1    0    0    0    0 -0.00000000000E+00 -0.00000000000E+00 -0.45593999997E+02  0.45594000000E+02  0.51100000000E-03 0. -1.
    9900012    2    1    2    0    0  0.12293861537E+02  0.25020186043E+01  0.43263316042E+02  0.46142316039E+02  0.99999842924E+01 0.  0.
         12    1    1    2    0    0 -0.12293861537E+02 -0.25020186043E+01 -0.43263316042E+02  0.45045683961E+02  0.00000000000E+00 0. -1.
         11    1    3    3    0    0 -0.75260002970E+00  0.21061008426E+01  0.36069904837E+01  0.42441074650E+01  0.51100000000E-03 0. -1.
        -11    1    3    3    0    0  0.97431808710E+01  0.10855318503E+01  0.33144899839E+02  0.34564321756E+02  0.51100000000E-03 0.  1.
         12    1    3    3    0    0  0.33032806958E+01 -0.68961408856E+00  0.65114257196E+01  0.73338868172E+01  0.00000000000E+00 0. -1.
</event>
<event>
 7    1  0.2227287E-008  0.4614232E+02  0.7816164E-02  0.1320468E+00
        -11   -1    0    0    0    0  0.00000000000E+00  0.00000000000E+00  0.45593999997E+02  0.45594000000E+02  0.51100000000E-03 0.  1.
         11   -1    0    0    0    0 -0.00000000000E+00 -0.00000000000E+00 -0.45593999997E+02  0.45594000000E+02  0.51100000000E-03 0. -1.
    9900012    2    1    2    0    0  0.25368580696E+01  0.25995980258E+02  0.36699959072E+02  0.46142316141E+02  0.99999852261E+01 0.  0.
         12    1    1    2    0    0 -0.25368580696E+01 -0.25995980258E+02 -0.36699959072E+02  0.45045683859E+02  0.00000000000E+00 0. -1.
         11    1    3    3    0    0  0.31892432574E+01  0.43716305242E+01  0.57768101253E+01  0.79154255401E+01  0.51100000000E-03 0. -1.
        -11    1    3    3    0    0  0.19791865111E+01  0.58228602256E+01  0.11579675784E+02  0.13111512956E+02  0.51100000000E-03 0.  1.
         12    1    3    3    0    0 -0.26315716990E+01  0.15801489508E+02  0.19343473163E+02  0.25115377645E+02  0.00000000000E+00 0. -1.
</event>
<event>
 7    1  0.2227287E-008  0.4614232E+02  0.7816164E-02  0.1320468E+00
        -11   -1    0    0    0    0  0.00000000000E+00  0.00000000000E+00  0.45593999997E+02  0.45594000000E+02  0.51100000000E-03 0. -1.
         11   -1    0    0    0    0 -0.00000000000E+00 -0.00000000000E+00 -0.45593999997E+02  0.45594000000E+02  0.51100000000E-03 0.  1.
    9900012    2    1    2    0    0  0.26051572230E+02  0.35622171756E+02  0.90271837828E+01  0.46142316707E+02  0.99999903921E+01 0.  0.
         12    1    1    2    0    0 -0.26051572230E+02 -0.35622171756E+02 -0.90271837828E+01  0.45045683293E+02  0.00000000000E+00 0. -1.
         11    1    3    3    0    0  0.14510631741E+01  0.14334067270E+01  0.21076515157E+01  0.29329906841E+01  0.51100000000E-03 0. -1.
        -11    1    3    3    0    0  0.16172844333E+02  0.20038623904E+02  0.71954847548E+01  0.26737283761E+02  0.51100000000E-03 0.  1.
         12    1    3    3    0    0  0.84276647232E+01  0.14150141124E+02 -0.27595248772E+00  0.16472042263E+02  0.00000000000E+00 0. -1.
</event>
<event>
 7    1  0.2227287E-008  0.4614232E+02  0.7816164E-02  0.1320468E+00
        -11   -1    0    0    0    0  0.00000000000E+00  0.00000000000E+00  0.45593999997E+02  0.45594000000E+02  0.51100000000E-03 0. -1.
         11   -1    0    0    0    0 -0.00000000000E+00 -0.00000000000E+00 -0.45593999997E+02  0.45594000000E+02  0.51100000000E-03 0.  1.
    9900012    2    1    2    0    0  0.41968278616E+02 -0.16337550778E+02 -0.92817639286E+00  0.46142317778E+02  0.10000000154E+02 0.  0.
         12    1    1    2    0    0 -0.41968278616E+02  0.16337550778E+02  0.92817639286E+00  0.45045682222E+02  0.00000000000E+00 0. -1.
         11    1    3    3    0    0  0.10465214339E+02 -0.47687748083E+01  0.78921170427E+00  0.11527566079E+02  0.51100000000E-03 0. -1.
        -11    1    3    3    0    0  0.38392379755E+01 -0.54549519832E+00 -0.28524887162E+01  0.48139386557E+01  0.51100000000E-03 0.  1.
        -12    1    3    3    0    0  0.27663826302E+02 -0.11023280772E+02  0.11351006191E+01  0.29800813043E+02  0.00000000000E+00 0.  1.
</event>
<event>
 7    1  0.2227287E-008  0.4614231E+02  0.7816164E-02  0.1320468E+00
        -11   -1    0    0    0    0  0.00000000000E+00  0.00000000000E+00  0.45593999997E+02  0.45594000000E+02  0.51100000000E-03 0. -1.
         11   -1    0    0    0    0 -0.00000000000E+00 -0.00000000000E+00 -0.45593999997E+02  0.45594000000E+02  0.51100000000E-03 0.  1.
    9900012    2    1    2    0    0 -0.17916339339E+02 -0.35656814842E+02 -0.20897618982E+02  0.46142310539E+02  0.99999341402E+01 0.  0.
         12    1    1    2    0    0  0.17916339339E+02  0.35656814842E+02  0.20897618982E+02  0.45045689461E+02  0.00000000000E+00 0. -1.
         11    1    3    3    0    0 -0.66188010514E+01 -0.86764253326E+01 -0.46716130723E+01  0.11870671964E+02  0.51100000000E-03 0. -1.
        -11    1    3    3    0    0 -0.15031239863E+01 -0.24642009445E+01 -0.45869490063E+01  0.54195728117E+01  0.51100000000E-03 0.  1.
        -12    1    3    3    0    0 -0.97944143008E+01 -0.24516188564E+02 -0.11639056903E+02  0.28852065763E+02  0.00000000000E+00 0.  1.
</event>
<event>
 7    1  0.2227287E-008  0.4614232E+02  0.7816164E-02  0.1320468E+00
        -11   -1    0    0    0    0  0.00000000000E+00  0.00000000000E+00  0.45593999997E+02  0.45594000000E+02  0.51100000000E-03 0.  1.
         11   -1    0    0    0    0 -0.00000000000E+00 -0.00000000000E+00 -0.45593999997E+02  0.45594000000E+02  0.51100000000E-03 0. -1.
    9900012    2    1    2    0    0 -0.13901159193E+02  0.35689717733E+01  0.42698169863E+02  0.46142317676E+02  0.99999992218E+01 0.  0.
         12    1    1    2    0    0  0.13901159193E+02 -0.35689717733E+01 -0.42698169863E+02  0.45045682324E+02  0.00000000000E+00 0. -1.
         11    1    3    3    0    0 -0.44342163201E+00  0.33151978983E-02  0.21811269737E+00  0.49417319246E+00  0.51100000000E-03 0. -1.
        -11    1    3    3    0    0 -0.10595296892E+02  0.66260527146E+01  0.32805043704E+02  0.35104640483E+02  0.51100000000E-03 0.  1.
        -12    1    3    3    0    0 -0.28624406699E+01 -0.30603961392E+01  0.96750134617E+01  0.10543504000E+02  0.00000000000E+00 0.  1.
</event>
<event>
 7    1  0.2227287E-008  0.4614232E+02  0.7816164E-02  0.1320468E+00
        -11   -1    0    0    0    0  0.00000000000E+00  0.00000000000E+00  0.45593999997E+02  0.45594000000E+02  0.51100000000E-03 0.  1.
         11   -1    0    0    0    0 -0.00000000000E+00 -0.00000000000E+00 -0.45593999997E+02  0.45594000000E+02  0.51100000000E-03 0. -1.
    9900012    2    1    2    0    0 -0.29849676353E+02  0.16373529480E+02  0.29496063810E+02  0.46142318450E+02  0.10000006282E+02 0.  0.
         12    1    1    2    0    0  0.29849676353E+02 -0.16373529480E+02 -0.29496063810E+02  0.45045681550E+02  0.00000000000E+00 0. -1.
         11    1    3    3    0    0 -0.29103693613E+01 -0.63634544356E+00  0.20826107446E+01  0.36348938248E+01  0.51100000000E-03 0. -1.
        -11    1    3    3    0    0 -0.78843296633E+01  0.18513352003E+01  0.77590794711E+01  0.11215766169E+02  0.51100000000E-03 0.  1.
         12    1    3    3    0    0 -0.19054977328E+02  0.15158539724E+02  0.19654373595E+02  0.31291658456E+02  0.00000000000E+00 0. -1.
</event>
<event>
 7    1  0.2227287E-008  0.4614232E+02  0.7816164E-02  0.1320468E+00
        -11   -1    0    0    0    0  0.00000000000E+00  0.00000000000E+00  0.45593999997E+02  0.45594000000E+02  0.51100000000E-03 0. -1.
         11   -1    0    0    0    0 -0.00000000000E+00 -0.00000000000E+00 -0.45593999997E+02  0.45594000000E+02  0.51100000000E-03 0.  1.
    9900012    2    1    2    0    0  0.18892879352E+02  0.38404515971E+02  0.14045135866E+02  0.46142316759E+02  0.99999908633E+01 0.  0.
         12    1    1    2    0    0 -0.18892879352E+02 -0.38404515971E+02 -0.14045135866E+02  0.45045683241E+02  0.00000000000E+00 0. -1.
         11    1    3    3    0    0  0.77692781658E+01  0.72764100006E+01  0.22593781431E+01  0.10881756088E+02  0.51100000000E-03 0. -1.
        -11    1    3    3    0    0  0.44767547765E+01  0.86833429754E+01  0.25551535728E+01  0.10098048752E+02  0.51100000000E-03 0.  1.
         12    1    3    3    0    0  0.66468464095E+01  0.22444762995E+02  0.92306041503E+01  0.25162511919E+02  0.00000000000E+00 0. -1.
</event>
<event>
 7    1  0.2227287E-008  0.4614232E+02  0.7816164E-02  0.1320468E+00
        -11   -1    0    0    0    0  0.00000000000E+00  0.00000000000E+00  0.45593999997E+02  0.45594000000E+02  0.51100000000E-03 0. -1.
         11   -1    0    0    0    0 -0.00000000000E+00 -0.00000000000E+00 -0.45593999997E+02  0.45594000000E+02  0.51100000000E-03 0.  1.
    9900012    2    1    2    0    0 -0.27531801664E+02  0.29711846988E+02 -0.19705823645E+02  0.46142318300E+02  0.10000004912E+02 0.  0.
         12    1    1    2    0    0  0.27531801664E+02 -0.29711846988E+02  0.19705823645E+02  0.45045681700E+02  0.00000000000E+00 0. -1.
         11    1    3    3    0    0 -0.61610158150E+01  0.46277484374E+01 -0.68325033599E+01  0.10298411232E+02  0.51100000000E-03 0. -1.
        -11    1    3    3    0    0 -0.72394605190E+01  0.56944865388E+01 -0.55714186572E+01  0.10764649166E+02  0.51100000000E-03 0.  1.
         12    1    3    3    0    0 -0.14131325330E+02  0.19389612012E+02 -0.73019016278E+01  0.25079257902E+02  0.00000000000E+00 0. -1.
</event>
<event>
 7    1  0.2227287E-008  0.4614232E+02  0.7816164E-02  0.1320468E+00
        -11   -1    0    0    0    0  0.00000000000E+00  0.00000000000E+00  0.45593999997E+02  0.45594000000E+02  0.51100000000E-03 0. -1.
         11   -1    0    0    0    0 -0.00000000000E+00 -0.00000000000E+00 -0.45593999997E+02  0.45594000000E+02  0.51100000000E-03 0.  1.
    9900012    2    1    2    0    0 -0.53481214779E+00  0.44642201827E+02  0.59917654256E+01  0.46142318066E+02  0.10000002776E+02 0.  0.
         12    1    1    2    0    0  0.53481214779E+00 -0.44642201827E+02 -0.59917654256E+01  0.45045681934E+02  0.00000000000E+00 0. -1.
         11    1    3    3    0    0  0.55201474613E+00  0.23087620467E+01  0.10439311089E+01  0.25932402298E+01  0.51100000000E-03 0. -1.
        -11    1    3    3    0    0 -0.23904961240E+01  0.26583522249E+02  0.70498178549E+01  0.27606123577E+02  0.51100000000E-03 0.  1.
        -12    1    3    3    0    0  0.13036692301E+01  0.15749917532E+02 -0.21019835382E+01  0.15942954259E+02  0.00000000000E+00 0.  1.
</event>
<event>
 7    1  0.2227287E-008  0.4614232E+02  0.7816164E-02  0.1320468E+00
        -11   -1    0    0    0    0  0.00000000000E+00  0.00000000000E+00  0.45593999997E+02  0.45594000000E+02  0.51100000000E-03 0.  1.
         11   -1    0    0    0    0 -0.00000000000E+00 -0.00000000000E+00 -0.45593999997E+02  0.45594000000E+02  0.51100000000E-03 0. -1.
    9900012    2    1    2    0    0 -0.32050706005E+02  0.26923059880E+02  0.16643757927E+02  0.46142316670E+02  0.99999900502E+01 0.  0.
         12    1    1    2    0    0  0.32050706005E+02 -0.26923059880E+02 -0.16643757927E+02  0.45045683330E+02  0.00000000000E+00 0. -1.
         11    1    3    3    0    0 -0.14291708084E+02  0.72074046998E+01  0.70585589692E+01  0.17493509009E+02  0.51100000000E-03 0. -1.
        -11    1    3    3    0    0 -0.19394466880E+01  0.72441486231E+00  0.17756834801E+01  0.27275047994E+01  0.51100000000E-03 0.  1.
        -12    1    3    3    0    0 -0.15819551233E+02  0.18991240318E+02  0.78095154773E+01  0.25921302861E+02  0.00000000000E+00 0.  1.
</event>
<event>
 7    1  0.2227287E-008  0.4614232E+02  0.7816164E-02  0.1320468E+00
        -11   -1    0    0    0    0  0.00000000000E+00  0.00000000000E+00  0.45593999997E+02  0.45594000000E+02  0.51100000000E-03 0. -1.
         11   -1    0    0    0    0 -0.00000000000E+00 -0.00000000000E+00 -0.45593999997E+02  0.45594000000E+02  0.51100000000E-03 0.  1.
    9900012    2    1    2    0    0  0.32989005602E+02 -0.23263263105E+02  0.19991488527E+02  0.46142317472E+02  0.99999973682E+01 0.  0.
         12    1    1    2    0    0 -0.32989005602E+02  0.23263263105E+02 -0.19991488527E+02  0.45045682528E+02  0.00000000000E+00 0. -1.
         11    1    3    3    0    0  0.11742243492E+02 -0.10111195428E+02  0.64668161406E+01  0.16790957878E+02  0.51100000000E-03 0. -1.
        -11    1    3    3    0    0  0.16084897915E+02 -0.73127266674E+01  0.64021587566E+01  0.18793284685E+02  0.51100000000E-03 0.  1.
         12    1    3    3    0    0  0.51618641943E+01 -0.58393410094E+01  0.71225136295E+01  0.10558074909E+02  0.00000000000E+00 0. -1.
</event>
<event>
 7    1  0.2227287E-008  0.4614232E+02  0.7816164E-02  0.1320468E+00
        -11   -1    0    0    0    0  0.00000000000E+00  0.00000000000E+00  0.45593999997E+02  0.45594000000E+02  0.51100000000E-03 0. -1.
         11   -1    0    0    0    0 -0.00000000000E+00 -0.00000000000E+00 -0.45593999997E+02  0.45594000000E+02  0.51100000000E-03 0.  1.
    9900012    2    1    2    0    0  0.43696307524E+02 -0.10922718337E+02  0.66369027756E+00  0.46142317056E+02  0.99999935674E+01 0.  0.
         12    1    1    2    0    0 -0.43696307524E+02  0.10922718337E+02 -0.66369027756E+00  0.45045682944E+02  0.00000000000E+00 0. -1.
         11    1    3    3    0    0  0.17722800472E+02 -0.66915987156E+01  0.26032391608E+01  0.19122029295E+02  0.51100000000E-03 0. -1.
        -11    1    3    3    0    0  0.77531417943E+01 -0.28447056857E+01  0.15881098128E+01  0.84098544078E+01  0.51100000000E-03 0.  1.
        -12    1    3    3    0    0  0.18220365258E+02 -0.13864139359E+01 -0.35276586960E+01  0.18610433353E+02  0.00000000000E+00 0.  1.
</event>
<event>
 7    1  0.2248095E-008  0.4614232E+02  0.7816164E-02  0.1320468E+00
        -11   -1    0    0    0    0  0.00000000000E+00  0.00000000000E+00  0.45593999997E+02  0.45594000000E+02  0.51100000000E-03 0.  1.
         11   -1    0    0    0    0 -0.00000000000E+00 -0.00000000000E+00 -0.45593999997E+02  0.45594000000E+02  0.51100000000E-03 0. -1.
    9900012    2    1    2    0    0  0.52488268385E+01  0.41910446169E+02  0.15654962352E+02  0.46142317327E+02  0.99999960377E+01 0.  0.
         12    1    1    2    0    0 -0.52488268385E+01 -0.41910446169E+02 -0.15654962352E+02  0.45045682673E+02  0.00000000000E+00 0. -1.
         11    1    3    3    0    0  0.17380165879E+01  0.12719368906E+02  0.66041548010E+01  0.14436686183E+02  0.51100000000E-03 0. -1.
        -11    1    3    3    0    0  0.44536377831E+01  0.24390578841E+02  0.99780417212E+01  0.26726326768E+02  0.51100000000E-03 0.  1.
         12    1    3    3    0    0 -0.94282753258E+00  0.48004984223E+01 -0.92723417052E+00  0.49793043756E+01  0.00000000000E+00 0. -1.
</event>
<event>
 7    1  0.2227287E-008  0.4614232E+02  0.7816164E-02  0.1320468E+00
        -11   -1    0    0    0    0  0.00000000000E+00  0.00000000000E+00  0.45593999997E+02  0.45594000000E+02  0.51100000000E-03 0.  1.
         11   -1    0    0    0    0 -0.00000000000E+00 -0.00000000000E+00 -0.45593999997E+02  0.45594000000E+02  0.51100000000E-03 0. -1.
    9900012    2    1    2    0    0 -0.22048871621E+02  0.28143979186E+02  0.27402141149E+02  0.46142316037E+02  0.99999842756E+01 0.  0.
         12    1    1    2    0    0  0.22048871621E+02 -0.28143979186E+02 -0.27402141149E+02  0.45045683963E+02  0.00000000000E+00 0. -1.
         11    1    3    3    0    0 -0.34849253771E+01  0.52192476376E+01  0.10689223911E+01  0.63661484530E+01  0.51100000000E-03 0. -1.
        -11    1    3    3    0    0 -0.18180511246E+02  0.22247565020E+02  0.24406774462E+02  0.37698485094E+02  0.51100000000E-03 0.  1.
        -12    1    3    3    0    0 -0.38343499844E+00  0.67716652873E+00  0.19264442954E+01  0.20776824899E+01  0.00000000000E+00 0.  1.
</event>
<event>
 7    1  0.2227287E-008  0.4614232E+02  0.7816164E-02  0.1320468E+00
        -11   -1    0    0    0    0  0.00000000000E+00  0.00000000000E+00  0.45593999997E+02  0.45594000000E+02  0.51100000000E-03 0.  1.
         11   -1    0    0    0    0 -0.00000000000E+00 -0.00000000000E+00 -0.45593999997E+02  0.45594000000E+02  0.51100000000E-03 0. -1.
    9900012    2    1    2    0    0  0.41308882402E+02  0.12777587154E+02 -0.12626283607E+02  0.46142317226E+02  0.99999951223E+01 0.  0.
         12    1    1    2    0    0 -0.41308882402E+02 -0.12777587154E+02  0.12626283607E+02  0.45045682774E+02  0.00000000000E+00 0. -1.
         11    1    3    3    0    0  0.13909105072E+02  0.79181614242E+01 -0.68411308844E+01  0.17405790884E+02  0.51100000000E-03 0. -1.
        -11    1    3    3    0    0  0.25397605680E+02  0.45223444734E+01 -0.64659400316E+01  0.26595081398E+02  0.51100000000E-03 0.  1.
         12    1    3    3    0    0  0.20021716499E+01  0.33708125662E+00  0.68078730859E+00  0.21414449442E+01  0.00000000000E+00 0. -1.
</event>
<event>
 7    1  0.2227287E-008  0.4614232E+02  0.7816164E-02  0.1320468E+00
        -11   -1    0    0    0    0  0.00000000000E+00  0.00000000000E+00  0.45593999997E+02  0.45594000000E+02  0.51100000000E-03 0.  1.
         11   -1    0    0    0    0 -0.00000000000E+00 -0.00000000000E+00 -0.45593999997E+02  0.45594000000E+02  0.51100000000E-03 0. -1.
    9900012    2    1    2    0    0  0.21383720313E+02  0.46915108289E+01  0.39368005026E+02  0.46142316655E+02  0.99999899114E+01 0.  0.
         12    1    1    2    0    0 -0.21383720313E+02 -0.46915108289E+01 -0.39368005026E+02  0.45045683345E+02  0.00000000000E+00 0. -1.
         11    1    3    3    0    0 -0.74419265633E+00 -0.40808838534E+00  0.49081606910E+00  0.98043842988E+00  0.51100000000E-03 0. -1.
        -11    1    3    3    0    0  0.13746789620E+02  0.33840311691E+01  0.27466354401E+02  0.30900267251E+02  0.51100000000E-03 0.  1.
         12    1    3    3    0    0  0.83811233490E+01  0.17155680451E+01  0.11410834556E+02  0.14261610974E+02  0.00000000000E+00 0. -1.
</event>
<event>
 7    1  0.2227287E-008  0.4614232E+02  0.7816164E-02  0.1320468E+00
        -11   -1    0    0    0    0  0.00000000000E+00  0.00000000000E+00  0.45593999997E+02  0.45594000000E+02  0.51100000000E-03 0. -1.
         11   -1    0    0    0    0 -0.00000000000E+00 -0.00000000000E+00 -0.45593999997E+02  0.45594000000E+02  0.51100000000E-03 0.  1.
    9900012    2    1    2    0    0  0.30752949879E+02 -0.34441392694E+01 -0.32733890271E+02  0.46142316591E+02  0.99999893287E+01 0.  0.
         12    1    1    2    0    0 -0.30752949879E+02  0.34441392694E+01  0.32733890271E+02  0.45045683409E+02  0.00000000000E+00 0. -1.
         11    1    3    3    0    0  0.48798704511E+01 -0.36392445096E-01 -0.92070519566E+01  0.10420377442E+02  0.51100000000E-03 0. -1.
        -11    1    3    3    0    0  0.22457009022E+01  0.85520006006E+00 -0.44477233305E+01  0.50553716748E+01  0.51100000000E-03 0.  1.
        -12    1    3    3    0    0  0.23627378525E+02 -0.42629468844E+01 -0.19079114984E+02  0.30666567475E+02  0.00000000000E+00 0.  1.
</event>
<event>
 7    1  0.2227287E-008  0.4614232E+02  0.7816164E-02  0.1320468E+00
        -11   -1    0    0    0    0  0.00000000000E+00  0.00000000000E+00  0.45593999997E+02  0.45594000000E+02  0.51100000000E-03 0.  1.
         11   -1    0    0    0    0 -0.00000000000E+00 -0.00000000000E+00 -0.45593999997E+02  0.45594000000E+02  0.51100000000E-03 0. -1.
    9900012    2    1    2    0    0  0.18092583282E+01 -0.99857063703E+01  0.43887648385E+02  0.46142318429E+02  0.10000006092E+02 0.  0.
         12    1    1    2    0    0 -0.18092583282E+01  0.99857063703E+01 -0.43887648385E+02  0.45045681571E+02  0.00000000000E+00 0. -1.
         11    1    3    3    0    0 -0.14015603813E+01 -0.26550000900E+01  0.13141378073E+02  0.13479956042E+02  0.51100000000E-03 0. -1.
        -11    1    3    3    0    0  0.23461158347E+01  0.93511925678E+00  0.99835592010E+01  0.10298065940E+02  0.51100000000E-03 0.  1.
        -12    1    3    3    0    0  0.86470287477E+00 -0.82658255371E+01  0.20762711111E+02  0.22364296447E+02  0.00000000000E+00 0.  1.
</event>
<event>
 7    1  0.2227287E-008  0.4614232E+02  0.7816164E-02  0.1320468E+00
        -11   -1    0    0    0    0  0.00000000000E+00  0.00000000000E+00  0.45593999997E+02  0.45594000000E+02  0.51100000000E-03 0. -1.
         11   -1    0    0    0    0 -0.00000000000E+00 -0.00000000000E+00 -0.45593999997E+02  0.45594000000E+02  0.51100000000E-03 0.  1.
    9900012    2    1    2    0    0 -0.26864006587E+02  0.36124630885E+02 -0.15651457825E+01  0.46142317767E+02  0.10000000052E+02 0.  0.
         12    1    1    2    0    0  0.26864006587E+02 -0.36124630885E+02  0.15651457825E+01  0.45045682233E+02  0.00000000000E+00 0. -1.
         11    1    3    3    0    0 -0.11572880568E+01  0.25839305001E+01  0.13251230490E+01  0.31260140486E+01  0.51100000000E-03 0.  1.
        -11    1    3    3    0    0 -0.16317400321E+02  0.16416032844E+02  0.71184012309E+00  0.23157081081E+02  0.51100000000E-03 0. -1.
         12    1    3    3    0    0 -0.93893182098E+01  0.17124667541E+02 -0.36021089546E+01  0.19859222638E+02  0.00000000000E+00 0. -1.
</event>
<event>
 7    1  0.2227287E-008  0.4614232E+02  0.7816164E-02  0.1320468E+00
        -11   -1    0    0    0    0  0.00000000000E+00  0.00000000000E+00  0.45593999997E+02  0.45594000000E+02  0.51100000000E-03 0.  1.
         11   -1    0    0    0    0 -0.00000000000E+00 -0.00000000000E+00 -0.45593999997E+02  0.45594000000E+02  0.51100000000E-03 0. -1.
    9900012    2    1    2    0    0  0.71353344006E+01 -0.42892149380E+02 -0.11767078417E+02  0.46142316412E+02  0.99999876978E+01 0.  0.
         12    1    1    2    0    0 -0.71353344006E+01  0.42892149380E+02  0.11767078417E+02  0.45045683588E+02  0.00000000000E+00 0. -1.
         11    1    3    3    0    0  0.35547821942E+01 -0.25872974398E+02 -0.28307157190E+01  0.26268997552E+02  0.51100000000E-03 0. -1.
        -11    1    3    3    0    0  0.32031093483E+01 -0.11516171140E+02 -0.44202147256E+01  0.12744426456E+02  0.51100000000E-03 0.  1.
         12    1    3    3    0    0  0.37744285808E+00 -0.55030038427E+01 -0.45161479721E+01  0.71288924041E+01  0.00000000000E+00 0. -1.
</event>
<event>
 7    1  0.2227287E-008  0.4614232E+02  0.7816164E-02  0.1320468E+00
        -11   -1    0    0    0    0  0.00000000000E+00  0.00000000000E+00  0.45593999997E+02  0.45594000000E+02  0.51100000000E-03 0.  1.
         11   -1    0    0    0    0 -0.00000000000E+00 -0.00000000000E+00 -0.45593999997E+02  0.45594000000E+02  0.51100000000E-03 0. -1.
    9900012    2    1    2    0    0  0.33682085112E+02  0.17490295339E+01  0.29859194575E+02  0.46142318048E+02  0.10000002620E+02 0.  0.
         12    1    1    2    0    0 -0.33682085112E+02 -0.17490295339E+01 -0.29859194575E+02  0.45045681952E+02  0.00000000000E+00 0. -1.
         11    1    3    3    0    0  0.59182938119E+01  0.26104277525E+00  0.12572882562E+01  0.60559985961E+01  0.51100000000E-03 0. -1.
        -11    1    3    3    0    0  0.12485423892E+02  0.79571015818E+00  0.15715002484E+02  0.20086818258E+02  0.51100000000E-03 0.  1.
        -12    1    3    3    0    0  0.15278367408E+02  0.69227660048E+00  0.12886903836E+02  0.19999501194E+02  0.00000000000E+00 0.  1.
</event>
<event>
 7    1  0.2227287E-008  0.4614232E+02  0.7816164E-02  0.1320468E+00
        -11   -1    0    0    0    0  0.00000000000E+00  0.00000000000E+00  0.45593999997E+02  0.45594000000E+02  0.51100000000E-03 0.  1.
         11   -1    0    0    0    0 -0.00000000000E+00 -0.00000000000E+00 -0.45593999997E+02  0.45594000000E+02  0.51100000000E-03 0. -1.
    9900012    2    1    2    0    0 -0.15829099628E+02 -0.37258421342E+02  0.19757611012E+02  0.46142317090E+02  0.99999938800E+01 0.  0.
         12    1    1    2    0    0  0.15829099628E+02  0.37258421342E+02 -0.19757611012E+02  0.45045682910E+02  0.00000000000E+00 0. -1.
         11    1    3    3    0    0  0.55027907489E+00 -0.26646795740E+01 -0.13716078688E+00  0.27243600413E+01  0.51100000000E-03 0. -1.
        -11    1    3    3    0    0 -0.10486484851E+02 -0.17655414174E+02  0.88898732052E+01  0.22376547099E+02  0.51100000000E-03 0.  1.
        -12    1    3    3    0    0 -0.58928938522E+01 -0.16938327593E+02  0.11004898594E+02  0.21041409950E+02  0.00000000000E+00 0.  1.
</event>
<event>
 7    1  0.2227287E-008  0.4614232E+02  0.7816164E-02  0.1320468E+00
        -11   -1    0    0    0    0  0.00000000000E+00  0.00000000000E+00  0.45593999997E+02  0.45594000000E+02  0.51100000000E-03 0.  1.
         11   -1    0    0    0    0 -0.00000000000E+00 -0.00000000000E+00 -0.45593999997E+02  0.45594000000E+02  0.51100000000E-03 0. -1.
    9900012    2    1    2    0    0 -0.38039759681E+02 -0.11046630351E+02  0.21449057611E+02  0.46142318397E+02  0.10000005802E+02 0.  0.
         12    1    1    2    0    0  0.38039759681E+02  0.11046630351E+02 -0.21449057611E+02  0.45045681603E+02  0.00000000000E+00 0. -1.
         11    1    3    3    0    0 -0.27729899940E+02 -0.49439989243E+01  0.16577194472E+02  0.32683235043E+02  0.51100000000E-03 0.  1.
        -11    1    3    3    0    0 -0.94063878072E+01 -0.53681550060E+01  0.29719155991E+01  0.11230739171E+02  0.51100000000E-03 0. -1.
         12    1    3    3    0    0 -0.90347193367E+00 -0.73447642055E+00  0.18999475390E+01  0.22283441831E+01  0.00000000000E+00 0. -1.
</event>
<event>
 7    1  0.2227287E-008  0.4614232E+02  0.7816164E-02  0.1320468E+00
        -11   -1    0    0    0    0  0.00000000000E+00  0.00000000000E+00  0.45593999997E+02  0.45594000000E+02  0.51100000000E-03 0.  1.
         11   -1    0    0    0    0 -0.00000000000E+00 -0.00000000000E+00 -0.45593999997E+02  0.45594000000E+02  0.51100000000E-03 0. -1.
    9900012    2    1    2    0    0  0.18682082309E+02 -0.62282153368E+01  0.40512992866E+02  0.46142318113E+02  0.10000003208E+02 0.  0.
         12    1    1    2    0    0 -0.18682082309E+02  0.62282153368E+01 -0.40512992866E+02  0.45045681887E+02  0.00000000000E+00 0. -1.
         11    1    3    3    0    0  0.13072987516E+02 -0.16338966836E+01  0.19742687384E+02  0.23734917872E+02  0.51100000000E-03 0. -1.
        -11    1    3    3    0    0  0.17372321629E+00  0.75797291805E+00  0.20519608588E+01  0.21943669537E+01  0.51100000000E-03 0.  1.
        -12    1    3    3    0    0  0.54353715769E+01 -0.53522915713E+01  0.18718344623E+02  0.20213033287E+02  0.00000000000E+00 0.  1.
</event>
<event>
 7    1  0.2227287E-008  0.4614232E+02  0.7816164E-02  0.1320468E+00
        -11   -1    0    0    0    0  0.00000000000E+00  0.00000000000E+00  0.45593999997E+02  0.45594000000E+02  0.51100000000E-03 0.  1.
         11   -1    0    0    0    0 -0.00000000000E+00 -0.00000000000E+00 -0.45593999997E+02  0.45594000000E+02  0.51100000000E-03 0. -1.
    9900012    2    1    2    0    0 -0.16896719785E+02 -0.16724885736E+02  0.38260846748E+02  0.46142319450E+02  0.10000015397E+02 0.  0.
         12    1    1    2    0    0  0.16896719785E+02  0.16724885736E+02 -0.38260846748E+02  0.45045680550E+02  0.00000000000E+00 0. -1.
         11    1    3    3    0    0 -0.28128400272E+01 -0.15020535198E+00  0.90353500234E+01  0.94642580783E+01  0.51100000000E-03 0. -1.
        -11    1    3    3    0    0 -0.35751045287E+01 -0.67544923957E+01  0.12132553450E+02  0.14338876992E+02  0.51100000000E-03 0.  1.
        -12    1    3    3    0    0 -0.10508775229E+02 -0.98201879879E+01  0.17092943275E+02  0.22339184380E+02  0.00000000000E+00 0.  1.
</event>
<event>
 7    1  0.2227287E-008  0.4614232E+02  0.7816164E-02  0.1320468E+00
        -11   -1    0    0    0    0  0.00000000000E+00  0.00000000000E+00  0.45593999997E+02  0.45594000000E+02  0.51100000000E-03 0.  1.
         11   -1    0    0    0    0 -0.00000000000E+00 -0.00000000000E+00 -0.45593999997E+02  0.45594000000E+02  0.51100000000E-03 0. -1.
    9900012    2    1    2    0    0  0.19611460803E+02 -0.33574840297E+01  0.40413258608E+02  0.46142316909E+02  0.99999922278E+01 0.  0.
         12    1    1    2    0    0 -0.19611460803E+02  0.33574840297E+01 -0.40413258608E+02  0.45045683091E+02  0.00000000000E+00 0. -1.
         11    1    3    3    0    0  0.34424721304E+01 -0.31235858710E+01  0.11236426983E+02  0.12159962774E+02  0.51100000000E-03 0. -1.
        -11    1    3    3    0    0  0.11917346418E+02  0.18656904187E+01  0.16433396244E+02  0.20385300065E+02  0.51100000000E-03 0.  1.
        -12    1    3    3    0    0  0.42516422549E+01 -0.20995885774E+01  0.12743435381E+02  0.13597054070E+02  0.00000000000E+00 0.  1.
</event>
<event>
 7    1  0.2227287E-008  0.4614231E+02  0.7816164E-02  0.1320468E+00
        -11   -1    0    0    0    0  0.00000000000E+00  0.00000000000E+00  0.45593999997E+02  0.45594000000E+02  0.51100000000E-03 0. -1.
         11   -1    0    0    0    0 -0.00000000000E+00 -0.00000000000E+00 -0.45593999997E+02  0.45594000000E+02  0.51100000000E-03 0.  1.
    9900012    2    1    2    0    0  0.29312965533E+02  0.62907170550E+01 -0.33619796177E+02  0.46142314697E+02  0.99999720628E+01 0.  0.
         12    1    1    2    0    0 -0.29312965533E+02 -0.62907170550E+01  0.33619796177E+02  0.45045685303E+02  0.00000000000E+00 0. -1.
         11    1    3    3    0    0  0.47967847924E+00  0.17278216105E+01 -0.13045198307E+01  0.22174830802E+01  0.51100000000E-03 0. -1.
        -11    1    3    3    0    0  0.42554868315E+01  0.28742891912E+00 -0.21378626364E+01  0.47709789844E+01  0.51100000000E-03 0.  1.
        -12    1    3    3    0    0  0.24577800222E+02  0.42754665253E+01 -0.30177413710E+02  0.39153852633E+02  0.00000000000E+00 0.  1.
</event>
<event>
 7    1  0.2227287E-008  0.4614232E+02  0.7816164E-02  0.1320468E+00
        -11   -1    0    0    0    0  0.00000000000E+00  0.00000000000E+00  0.45593999997E+02  0.45594000000E+02  0.51100000000E-03 0.  1.
         11   -1    0    0    0    0 -0.00000000000E+00 -0.00000000000E+00 -0.45593999997E+02  0.45594000000E+02  0.51100000000E-03 0. -1.
    9900012    2    1    2    0    0  0.19007433510E+02 -0.31372523220E+02  0.26145667512E+02  0.46142315729E+02  0.99999814652E+01 0.  0.
         12    1    1    2    0    0 -0.19007433510E+02  0.31372523220E+02 -0.26145667512E+02  0.45045684271E+02  0.00000000000E+00 0. -1.
         11    1    3    3    0    0  0.18416946885E+01 -0.17431932877E+01  0.17555557650E+00  0.25419248977E+01  0.51100000000E-03 0. -1.
        -11    1    3    3    0    0  0.27772188084E+01 -0.38864990362E+01  0.83078857751E+00  0.48485079138E+01  0.51100000000E-03 0.  1.
        -12    1    3    3    0    0  0.14388520013E+02 -0.25742830897E+02  0.25139323358E+02  0.38751882917E+02  0.00000000000E+00 0.  1.
</event>
<event>
 7    1  0.2227287E-008  0.4614232E+02  0.7816164E-02  0.1320468E+00
        -11   -1    0    0    0    0  0.00000000000E+00  0.00000000000E+00  0.45593999997E+02  0.45594000000E+02  0.51100000000E-03 0.  1.
         11   -1    0    0    0    0 -0.00000000000E+00 -0.00000000000E+00 -0.45593999997E+02  0.45594000000E+02  0.51100000000E-03 0. -1.
    9900012    2    1    2    0    0  0.97914143012E+01 -0.25026464294E+02  0.36151317078E+02  0.46142318347E+02  0.10000005344E+02 0.  0.
         12    1    1    2    0    0 -0.97914143012E+01  0.25026464294E+02 -0.36151317078E+02  0.45045681653E+02  0.00000000000E+00 0. -1.
         11    1    3    3    0    0  0.31623699294E+01 -0.18322067914E+02  0.19354935054E+02  0.26838633859E+02  0.51100000000E-03 0. -1.
        -11    1    3    3    0    0  0.22904011760E+01 -0.26363488524E+01  0.74089629974E+01  0.81907878605E+01  0.51100000000E-03 0.  1.
         12    1    3    3    0    0  0.43386431959E+01 -0.40680475271E+01  0.93874190267E+01  0.11112896627E+02  0.00000000000E+00 0. -1.
</event>
<event>
 7    1  0.2227287E-008  0.4614232E+02  0.7816164E-02  0.1320468E+00
        -11   -1    0    0    0    0  0.00000000000E+00  0.00000000000E+00  0.45593999997E+02  0.45594000000E+02  0.51100000000E-03 0.  1.
         11   -1    0    0    0    0 -0.00000000000E+00 -0.00000000000E+00 -0.45593999997E+02  0.45594000000E+02  0.51100000000E-03 0. -1.
    9900012    2    1    2    0    0 -0.10793787986E+02 -0.28585620957E+02  0.33097884114E+02  0.46142317439E+02  0.99999970614E+01 0.  0.
         12    1    1    2    0    0  0.10793787986E+02  0.28585620957E+02 -0.33097884114E+02  0.45045682561E+02  0.00000000000E+00 0. -1.
         11    1    3    3    0    0 -0.37241781890E+01 -0.25469672727E+01  0.41893583236E+01  0.61568879230E+01  0.51100000000E-03 0. -1.
        -11    1    3    3    0    0  0.21612436114E+00 -0.31193348617E-01 -0.18614959711E+00  0.28694023437E+00  0.51100000000E-03 0.  1.
         12    1    3    3    0    0 -0.72857341584E+01 -0.26007460336E+02  0.29094675387E+02  0.39698489281E+02  0.00000000000E+00 0. -1.
</event>
<event>
 7    1  0.2227287E-008  0.4614232E+02  0.7816164E-02  0.1320468E+00
        -11   -1    0    0    0    0  0.00000000000E+00  0.00000000000E+00  0.45593999997E+02  0.45594000000E+02  0.51100000000E-03 0. -1.
         11   -1    0    0    0    0 -0.00000000000E+00 -0.00000000000E+00 -0.45593999997E+02  0.45594000000E+02  0.51100000000E-03 0.  1.
    9900012    2    1    2    0    0  0.38944399700E+02 -0.18659227173E+02  0.12817195762E+02  0.46142317256E+02  0.99999953959E+01 0.  0.
         12    1    1    2    0    0 -0.38944399700E+02  0.18659227173E+02 -0.12817195762E+02  0.45045682744E+02  0.00000000000E+00 0. -1.
         11    1    3    3    0    0  0.17656242462E+01 -0.54590953591E+00 -0.12218825482E+01  0.22155007161E+01  0.51100000000E-03 0. -1.
        -11    1    3    3    0    0  0.21192979546E+02 -0.12883201368E+02  0.85616471253E+01  0.26237779275E+02  0.51100000000E-03 0.  1.
         12    1    3    3    0    0  0.15985795907E+02 -0.52301162689E+01  0.54774311851E+01  0.17689037265E+02  0.00000000000E+00 0. -1.
</event>
<event>
 7    1  0.2227287E-008  0.4614232E+02  0.7816164E-02  0.1320468E+00
        -11   -1    0    0    0    0  0.00000000000E+00  0.00000000000E+00  0.45593999997E+02  0.45594000000E+02  0.51100000000E-03 0.  1.
         11   -1    0    0    0    0 -0.00000000000E+00 -0.00000000000E+00 -0.45593999997E+02  0.45594000000E+02  0.51100000000E-03 0. -1.
    9900012    2    1    2    0    0 -0.31460457236E+02  0.15826240135E+02  0.28087066216E+02  0.46142317244E+02  0.99999952872E+01 0.  0.
         12    1    1    2    0    0  0.31460457236E+02 -0.15826240135E+02 -0.28087066216E+02  0.45045682756E+02  0.00000000000E+00 0. -1.
         11    1    3    3    0    0 -0.63842839649E+01  0.71068037161E+01  0.90471702024E+01  0.13157394489E+02  0.51100000000E-03 0. -1.
        -11    1    3    3    0    0 -0.14206780904E+02  0.52563033722E+01  0.13554017623E+02  0.20326651046E+02  0.51100000000E-03 0.  1.
        -12    1    3    3    0    0 -0.10869392368E+02  0.34631330464E+01  0.54858783907E+01  0.12658271709E+02  0.00000000000E+00 0.  1.
</event>
<event>
 7    1  0.2227287E-008  0.4614232E+02  0.7816164E-02  0.1320468E+00
        -11   -1    0    0    0    0  0.00000000000E+00  0.00000000000E+00  0.45593999997E+02  0.45594000000E+02  0.51100000000E-03 0. -1.
         11   -1    0    0    0    0 -0.00000000000E+00 -0.00000000000E+00 -0.45593999997E+02  0.45594000000E+02  0.51100000000E-03 0.  1.
    9900012    2    1    2    0    0 -0.23005067064E+02  0.32686668156E+02 -0.20771669328E+02  0.46142316162E+02  0.99999854170E+01 0.  0.
         12    1    1    2    0    0  0.23005067064E+02 -0.32686668156E+02  0.20771669328E+02  0.45045683838E+02  0.00000000000E+00 0. -1.
         11    1    3    3    0    0 -0.12298334749E+02  0.11406877274E+02 -0.11394735192E+02  0.20278211882E+02  0.51100000000E-03 0. -1.
        -11    1    3    3    0    0 -0.31298706487E+01  0.59904053139E+01 -0.92493097778E+00  0.68217698347E+01  0.51100000000E-03 0.  1.
         12    1    3    3    0    0 -0.75768616658E+01  0.15289385568E+02 -0.84520031585E+01  0.19042334445E+02  0.00000000000E+00 0. -1.
</event>
<event>
 7    1  0.2227287E-008  0.4614232E+02  0.7816164E-02  0.1320468E+00
        -11   -1    0    0    0    0  0.00000000000E+00  0.00000000000E+00  0.45593999997E+02  0.45594000000E+02  0.51100000000E-03 0.  1.
         11   -1    0    0    0    0 -0.00000000000E+00 -0.00000000000E+00 -0.45593999997E+02  0.45594000000E+02  0.51100000000E-03 0. -1.
    9900012    2    1    2    0    0 -0.13475596282E+02 -0.20651721634E+02  0.37696525639E+02  0.46142319332E+02  0.10000014323E+02 0.  0.
         12    1    1    2    0    0  0.13475596282E+02  0.20651721634E+02 -0.37696525639E+02  0.45045680668E+02  0.00000000000E+00 0. -1.
         11    1    3    3    0    0 -0.11354530832E+02 -0.16056000351E+02  0.27646605140E+02  0.33927205805E+02  0.51100000000E-03 0. -1.
        -11    1    3    3    0    0 -0.97556124733E+00 -0.53994323860E+01  0.73275020932E+01  0.91541180364E+01  0.51100000000E-03 0.  1.
         12    1    3    3    0    0 -0.11455042033E+01  0.80371110341E+00  0.27224184060E+01  0.30609954909E+01  0.00000000000E+00 0. -1.
</event>
<event>
 7    1  0.2227287E-008  0.4614232E+02  0.7816164E-02  0.1320468E+00
        -11   -1    0    0    0    0  0.00000000000E+00  0.00000000000E+00  0.45593999997E+02  0.45594000000E+02  0.51100000000E-03 0. -1.
         11   -1    0    0    0    0 -0.00000000000E+00 -0.00000000000E+00 -0.45593999997E+02  0.45594000000E+02  0.51100000000E-03 0.  1.
    9900012    2    1    2    0    0 -0.73753235008E+01  0.40126799888E+02 -0.19093402650E+02  0.46142317735E+02  0.99999997637E+01 0.  0.
         12    1    1    2    0    0  0.73753235008E+01 -0.40126799888E+02  0.19093402650E+02  0.45045682265E+02  0.00000000000E+00 0. -1.
         11    1    3    3    0    0  0.27644851617E-01  0.34197831370E+01  0.52976760023E+00  0.34606841683E+01  0.51100000000E-03 0. -1.
        -11    1    3    3    0    0 -0.46093817710E+00  0.42603734332E+01 -0.45090614949E+01  0.62205210087E+01  0.51100000000E-03 0.  1.
        -12    1    3    3    0    0 -0.69420301753E+01  0.32446643317E+02 -0.15114108755E+02  0.36461112558E+02  0.00000000000E+00 0.  1.
</event>
<event>
 7    1  0.2227287E-008  0.4614232E+02  0.7816164E-02  0.1320468E+00
        -11   -1    0    0    0    0  0.00000000000E+00  0.00000000000E+00  0.45593999997E+02  0.45594000000E+02  0.51100000000E-03 0.  1.
         11   -1    0    0    0    0 -0.00000000000E+00 -0.00000000000E+00 -0.45593999997E+02  0.45594000000E+02  0.51100000000E-03 0. -1.
    9900012    2    1    2    0    0  0.42259206170E+01  0.31513519593E+02  0.31908510500E+02  0.46142319136E+02  0.10000012540E+02 0.  0.
         12    1    1    2    0    0 -0.42259206170E+01 -0.31513519593E+02 -0.31908510500E+02  0.45045680864E+02  0.00000000000E+00 0. -1.
         11    1    3    3    0    0  0.53849405078E+00  0.18850634767E+02  0.17096545220E+02  0.25454435089E+02  0.51100000000E-03 0. -1.
        -11    1    3    3    0    0  0.41766793839E+01  0.90892808264E+01  0.73927255152E+01  0.12438330572E+02  0.51100000000E-03 0.  1.
        -12    1    3    3    0    0 -0.48925281766E+00  0.35736039990E+01  0.74192397645E+01  0.82495534754E+01  0.00000000000E+00 0.  1.
</event>
<event>
 7    1  0.2227287E-008  0.4614232E+02  0.7816164E-02  0.1320468E+00
        -11   -1    0    0    0    0  0.00000000000E+00  0.00000000000E+00  0.45593999997E+02  0.45594000000E+02  0.51100000000E-03 0. -1.
         11   -1    0    0    0    0 -0.00000000000E+00 -0.00000000000E+00 -0.45593999997E+02  0.45594000000E+02  0.51100000000E-03 0.  1.
    9900012    2    1    2    0    0  0.46542638989E+01 -0.20849181405E+02 -0.39658075658E+02  0.46142317603E+02  0.99999985622E+01 0.  0.
         12    1    1    2    0    0 -0.46542638989E+01  0.20849181405E+02  0.39658075658E+02  0.45045682397E+02  0.00000000000E+00 0. -1.
         11    1    3    3    0    0  0.40352596197E+01 -0.62635230631E+01 -0.18541391827E+02  0.19982448612E+02  0.51100000000E-03 0. -1.
        -11    1    3    3    0    0  0.21123511079E+01 -0.13311134673E+02 -0.18420345191E+02  0.22824492342E+02  0.51100000000E-03 0.  1.
         12    1    3    3    0    0 -0.14933468286E+01 -0.12745236686E+01 -0.26963386397E+01  0.33353766493E+01  0.00000000000E+00 0. -1.
</event>
<event>
 7    1  0.2227287E-008  0.4614232E+02  0.7816164E-02  0.1320468E+00
        -11   -1    0    0    0    0  0.00000000000E+00  0.00000000000E+00  0.45593999997E+02  0.45594000000E+02  0.51100000000E-03 0.  1.
         11   -1    0    0    0    0 -0.00000000000E+00 -0.00000000000E+00 -0.45593999997E+02  0.45594000000E+02  0.51100000000E-03 0. -1.
    9900012    2    1    2    0    0 -0.18166807976E+02  0.71188450631E+01  0.40600524925E+02  0.46142317729E+02  0.99999997099E+01 0.  0.
         12    1    1    2    0    0  0.18166807976E+02 -0.71188450631E+01 -0.40600524925E+02  0.45045682271E+02  0.00000000000E+00 0. -1.
         11    1    3    3    0    0  0.55106648549E+00 -0.34632306206E+00  0.49787426653E-01  0.65275798250E+00  0.51100000000E-03 0. -1.
        -11    1    3    3    0    0 -0.14538314673E+02  0.38657147015E+01  0.28153645279E+02  0.31920746959E+02  0.51100000000E-03 0.  1.
        -12    1    3    3    0    0 -0.41795597890E+01  0.35994534237E+01  0.12397092219E+02  0.13568812787E+02  0.00000000000E+00 0.  1.
</event>
<event>
 7    1  0.2227287E-008  0.4614232E+02  0.7816164E-02  0.1320468E+00
        -11   -1    0    0    0    0  0.00000000000E+00  0.00000000000E+00  0.45593999997E+02  0.45594000000E+02  0.51100000000E-03 0.  1.
         11   -1    0    0    0    0 -0.00000000000E+00 -0.00000000000E+00 -0.45593999997E+02  0.45594000000E+02  0.51100000000E-03 0. -1.
    9900012    2    1    2    0    0  0.18725432509E+02  0.15144936215E+02  0.38067082641E+02  0.46142315452E+02  0.99999789473E+01 0.  0.
         12    1    1    2    0    0 -0.18725432509E+02 -0.15144936215E+02 -0.38067082641E+02  0.45045684548E+02  0.00000000000E+00 0. -1.
         11    1    3    3    0    0  0.29218282036E+01  0.32222400520E+01  0.59187641589E+01  0.73451807625E+01  0.51100000000E-03 0.  1.
        -11    1    3    3    0    0  0.10377635062E+02  0.23173806620E+01  0.14418242168E+02  0.17915112896E+02  0.51100000000E-03 0. -1.
         12    1    3    3    0    0  0.54259692433E+01  0.96053155005E+01  0.17730076315E+02  0.20882021794E+02  0.00000000000E+00 0. -1.
</event>
<event>
 7    1  0.2227287E-008  0.4614232E+02  0.7816164E-02  0.1320468E+00
        -11   -1    0    0    0    0  0.00000000000E+00  0.00000000000E+00  0.45593999997E+02  0.45594000000E+02  0.51100000000E-03 0. -1.
         11   -1    0    0    0    0 -0.00000000000E+00 -0.00000000000E+00 -0.45593999997E+02  0.45594000000E+02  0.51100000000E-03 0.  1.
    9900012    2    1    2    0    0 -0.11713303454E+02 -0.29805945121E+02 -0.31678347512E+02  0.46142317150E+02  0.99999944296E+01 0.  0.
         12    1    1    2    0    0  0.11713303454E+02  0.29805945121E+02  0.31678347512E+02  0.45045682850E+02  0.00000000000E+00 0. -1.
         11    1    3    3    0    0  0.27795477924E+00 -0.57811231920E+01 -0.34664552726E+01  0.67464773503E+01  0.51100000000E-03 0. -1.
        -11    1    3    3    0    0 -0.65673705000E+01 -0.14074460053E+02 -0.20365532381E+02  0.25612022382E+02  0.51100000000E-03 0.  1.
        -12    1    3    3    0    0 -0.54238877329E+01 -0.99503618752E+01 -0.78463598583E+01  0.13783817418E+02  0.00000000000E+00 0.  1.
</event>
<event>
 7    1  0.2227287E-008  0.4614232E+02  0.7816164E-02  0.1320468E+00
        -11   -1    0    0    0    0  0.00000000000E+00  0.00000000000E+00  0.45593999997E+02  0.45594000000E+02  0.51100000000E-03 0. -1.
         11   -1    0    0    0    0 -0.00000000000E+00 -0.00000000000E+00 -0.45593999997E+02  0.45594000000E+02  0.51100000000E-03 0.  1.
    9900012    2    1    2    0    0 -0.34484133664E+02  0.24460371962E+02 -0.15545039334E+02  0.46142317421E+02  0.99999969018E+01 0.  0.
         12    1    1    2    0    0  0.34484133664E+02 -0.24460371962E+02  0.15545039334E+02  0.45045682579E+02  0.00000000000E+00 0. -1.
         11    1    3    3    0    0 -0.63063845396E+01  0.42965254821E+01 -0.39990428252E+01  0.86152748626E+01  0.51100000000E-03 0. -1.
        -11    1    3    3    0    0 -0.14458863213E+02  0.56212662927E+01 -0.70263236645E+01  0.17030166900E+02  0.51100000000E-03 0.  1.
         12    1    3    3    0    0 -0.13718885912E+02  0.14542580187E+02 -0.45196728444E+01  0.20496875659E+02  0.00000000000E+00 0. -1.
</event>
<event>
 7    1  0.2227287E-008  0.4614231E+02  0.7816164E-02  0.1320468E+00
        -11   -1    0    0    0    0  0.00000000000E+00  0.00000000000E+00  0.45593999997E+02  0.45594000000E+02  0.51100000000E-03 0.  1.
         11   -1    0    0    0    0 -0.00000000000E+00 -0.00000000000E+00 -0.45593999997E+02  0.45594000000E+02  0.51100000000E-03 0. -1.
    9900012    2    1    2    0    0 -0.16353667281E+02  0.13583377744E+02  0.39713517144E+02  0.46142311767E+02  0.99999453395E+01 0.  0.
         12    1    1    2    0    0  0.16353667281E+02 -0.13583377744E+02 -0.39713517144E+02  0.45045688233E+02  0.00000000000E+00 0. -1.
         11    1    3    3    0    0 -0.12415138262E+00  0.30341612682E+00  0.36710797684E+01  0.36856887876E+01  0.51100000000E-03 0. -1.
        -11    1    3    3    0    0 -0.23927508100E+01 -0.94419208787E+00  0.35544532504E+01  0.43875839944E+01  0.51100000000E-03 0.  1.
        -12    1    3    3    0    0 -0.13836765088E+02  0.14224153705E+02  0.32487984125E+02  0.38069038985E+02  0.00000000000E+00 0.  1.
</event>
<event>
 7    1  0.2227287E-008  0.4614232E+02  0.7816164E-02  0.1320468E+00
        -11   -1    0    0    0    0  0.00000000000E+00  0.00000000000E+00  0.45593999997E+02  0.45594000000E+02  0.51100000000E-03 0.  1.
         11   -1    0    0    0    0 -0.00000000000E+00 -0.00000000000E+00 -0.45593999997E+02  0.45594000000E+02  0.51100000000E-03 0. -1.
    9900012    2    1    2    0    0  0.21509912065E+02  0.35469586617E+02  0.17559768782E+02  0.46142319058E+02  0.10000011830E+02 0.  0.
         12    1    1    2    0    0 -0.21509912065E+02 -0.35469586617E+02 -0.17559768782E+02  0.45045680942E+02  0.00000000000E+00 0. -1.
         11    1    3    3    0    0  0.12930275709E+02  0.15847869626E+02  0.65728696758E+01  0.21483705863E+02  0.51100000000E-03 0. -1.
        -11    1    3    3    0    0  0.39930240742E+01  0.37758606884E+01  0.36967840944E+01  0.66232603827E+01  0.51100000000E-03 0.  1.
        -12    1    3    3    0    0  0.45866122822E+01  0.15845856303E+02  0.72901150116E+01  0.18035352813E+02  0.00000000000E+00 0.  1.
</event>
<event>
 7    1  0.2227287E-008  0.4614232E+02  0.7816164E-02  0.1320468E+00
        -11   -1    0    0    0    0  0.00000000000E+00  0.00000000000E+00  0.45593999997E+02  0.45594000000E+02  0.51100000000E-03 0.  1.
         11   -1    0    0    0    0 -0.00000000000E+00 -0.00000000000E+00 -0.45593999997E+02  0.45594000000E+02  0.51100000000E-03 0. -1.
    9900012    2    1    2    0    0 -0.31822055783E+02  0.29692784217E+01  0.31743561301E+02  0.46142317270E+02  0.99999955205E+01 0.  0.
         12    1    1    2    0    0  0.31822055783E+02 -0.29692784217E+01 -0.31743561301E+02  0.45045682730E+02  0.00000000000E+00 0. -1.
         11    1    3    3    0    0 -0.15432763783E+02  0.16988544807E+01  0.10220034068E+02  0.18587775583E+02  0.51100000000E-03 0. -1.
        -11    1    3    3    0    0 -0.12034452005E+02 -0.90194345166E+00  0.12989701484E+02  0.17730591698E+02  0.51100000000E-03 0.  1.
        -12    1    3    3    0    0 -0.43548399942E+01  0.21723673927E+01  0.85338257489E+01  0.98239499885E+01  0.00000000000E+00 0.  1.
</event>
<event>
 7    1  0.2227287E-008  0.4614232E+02  0.7816164E-02  0.1320468E+00
        -11   -1    0    0    0    0  0.00000000000E+00  0.00000000000E+00  0.45593999997E+02  0.45594000000E+02  0.51100000000E-03 0.  1.
         11   -1    0    0    0    0 -0.00000000000E+00 -0.00000000000E+00 -0.45593999997E+02  0.45594000000E+02  0.51100000000E-03 0. -1.
    9900012    2    1    2    0    0 -0.56207020143E+01  0.35420574296E+02  0.27256269755E+02  0.46142316349E+02  0.99999871260E+01 0.  0.
         12    1    1    2    0    0  0.56207020143E+01 -0.35420574296E+02 -0.27256269755E+02  0.45045683651E+02  0.00000000000E+00 0. -1.
         11    1    3    3    0    0 -0.33915853696E+01  0.29697674621E+01  0.26032338339E+01  0.52056888837E+01  0.51100000000E-03 0. -1.
        -11    1    3    3    0    0 -0.16546975601E+01  0.26401188496E+02  0.21512979871E+02  0.34096467283E+02  0.51100000000E-03 0.  1.
        -12    1    3    3    0    0 -0.57441908454E+00  0.60496183380E+01  0.31400560501E+01  0.68401601822E+01  0.00000000000E+00 0.  1.
</event>
<event>
 7    1  0.2227287E-008  0.4614232E+02  0.7816164E-02  0.1320468E+00
        -11   -1    0    0    0    0  0.00000000000E+00  0.00000000000E+00  0.45593999997E+02  0.45594000000E+02  0.51100000000E-03 0.  1.
         11   -1    0    0    0    0 -0.00000000000E+00 -0.00000000000E+00 -0.45593999997E+02  0.45594000000E+02  0.51100000000E-03 0. -1.
    9900012    2    1    2    0    0  0.19492155922E+02 -0.13006540595E+02  0.38470758917E+02  0.46142317272E+02  0.99999955421E+01 0.  0.
         12    1    1    2    0    0 -0.19492155922E+02  0.13006540595E+02 -0.38470758917E+02  0.45045682728E+02  0.00000000000E+00 0. -1.
         11    1    3    3    0    0  0.10162357851E+02 -0.79734737990E+01  0.23486386826E+02  0.26804107296E+02  0.51100000000E-03 0. -1.
        -11    1    3    3    0    0  0.95588001818E+01 -0.46846481351E+01  0.10911062908E+02  0.15243617782E+02  0.51100000000E-03 0.  1.
         12    1    3    3    0    0 -0.22900211091E+00 -0.34841866138E+00  0.40733091837E+01  0.40945921942E+01  0.00000000000E+00 0. -1.
</event>
<event>
 7    1  0.2227287E-008  0.4614232E+02  0.7816164E-02  0.1320468E+00
        -11   -1    0    0    0    0  0.00000000000E+00  0.00000000000E+00  0.45593999997E+02  0.45594000000E+02  0.51100000000E-03 0.  1.
         11   -1    0    0    0    0 -0.00000000000E+00 -0.00000000000E+00 -0.45593999997E+02  0.45594000000E+02  0.51100000000E-03 0. -1.
    9900012    2    1    2    0    0 -0.18022416282E+02  0.13013440435E+02  0.39178516387E+02  0.46142320220E+02  0.10000022418E+02 0.  0.
         12    1    1    2    0    0  0.18022416282E+02 -0.13013440435E+02 -0.39178516387E+02  0.45045679780E+02  0.00000000000E+00 0. -1.
         11    1    3    3    0    0 -0.34433680929E+01  0.61381345353E+01  0.10390815116E+02  0.12550000734E+02  0.51100000000E-03 0.  1.
        -11    1    3    3    0    0 -0.97284345589E+01  0.23031207167E+01  0.21530626547E+02  0.23738464226E+02  0.51100000000E-03 0. -1.
        -12    1    3    3    0    0 -0.48506136298E+01  0.45721851828E+01  0.72570747237E+01  0.98538552596E+01  0.00000000000E+00 0.  1.
</event>
<event>
 7    1  0.2227287E-008  0.4614232E+02  0.7816164E-02  0.1320468E+00
        -11   -1    0    0    0    0  0.00000000000E+00  0.00000000000E+00  0.45593999997E+02  0.45594000000E+02  0.51100000000E-03 0.  1.
         11   -1    0    0    0    0 -0.00000000000E+00 -0.00000000000E+00 -0.45593999997E+02  0.45594000000E+02  0.51100000000E-03 0. -1.
    9900012    2    1    2    0    0 -0.32721846836E+02  0.20495888453E+02  0.23201564792E+02  0.46142319712E+02  0.10000017787E+02 0.  0.
         12    1    1    2    0    0  0.32721846836E+02 -0.20495888453E+02 -0.23201564792E+02  0.45045680288E+02  0.00000000000E+00 0. -1.
         11    1    3    3    0    0 -0.13835258746E+02  0.87604011228E+01  0.15224522581E+02  0.22359452150E+02  0.51100000000E-03 0. -1.
        -11    1    3    3    0    0 -0.90481922288E+01  0.43015942136E+01  0.44089851811E+01  0.10945896308E+02  0.51100000000E-03 0.  1.
        -12    1    3    3    0    0 -0.98383958617E+01  0.74338931168E+01  0.35680570298E+01  0.12836971254E+02  0.00000000000E+00 0.  1.
</event>
<event>
 7    1  0.2227287E-008  0.4614232E+02  0.7816164E-02  0.1320468E+00
        -11   -1    0    0    0    0  0.00000000000E+00  0.00000000000E+00  0.45593999997E+02  0.45594000000E+02  0.51100000000E-03 0.  1.
         11   -1    0    0    0    0 -0.00000000000E+00 -0.00000000000E+00 -0.45593999997E+02  0.45594000000E+02  0.51100000000E-03 0. -1.
    9900012    2    1    2    0    0  0.41512808241E+01 -0.26297934705E+01  0.44776831424E+02  0.46142316760E+02  0.99999908677E+01 0.  0.
         12    1    1    2    0    0 -0.41512808241E+01  0.26297934705E+01 -0.44776831424E+02  0.45045683240E+02  0.00000000000E+00 0. -1.
         11    1    3    3    0    0 -0.33055425633E+00  0.13872255871E+01  0.34761447031E+01  0.37572920041E+01  0.51100000000E-03 0. -1.
        -11    1    3    3    0    0  0.61013127477E+01 -0.47458130679E+01  0.32450005950E+02  0.33357932270E+02  0.51100000000E-03 0.  1.
        -12    1    3    3    0    0 -0.16194776673E+01  0.72879401031E+00  0.88506807712E+01  0.90270924853E+01  0.00000000000E+00 0.  1.
</event>
<event>
 7    1  0.2227287E-008  0.4614232E+02  0.7816164E-02  0.1320468E+00
        -11   -1    0    0    0    0  0.00000000000E+00  0.00000000000E+00  0.45593999997E+02  0.45594000000E+02  0.51100000000E-03 0.  1.
         11   -1    0    0    0    0 -0.00000000000E+00 -0.00000000000E+00 -0.45593999997E+02  0.45594000000E+02  0.51100000000E-03 0. -1.
    9900012    2    1    2    0    0 -0.30639087379E+02 -0.30135123317E+02  0.13499413392E+02  0.46142317691E+02  0.99999993612E+01 0.  0.
         12    1    1    2    0    0  0.30639087379E+02  0.30135123317E+02 -0.13499413392E+02  0.45045682309E+02  0.00000000000E+00 0. -1.
         11    1    3    3    0    0 -0.12920563212E+02 -0.16461432637E+02  0.10100334863E+02  0.23236533364E+02  0.51100000000E-03 0. -1.
        -11    1    3    3    0    0 -0.15891615503E+02 -0.13428128886E+02  0.32336641745E+01  0.21055039134E+02  0.51100000000E-03 0.  1.
         12    1    3    3    0    0 -0.18269086638E+01 -0.24556179391E+00  0.16541435504E+00  0.18507451930E+01  0.00000000000E+00 0. -1.
</event>
<event>
 7    1  0.2227287E-008  0.4614232E+02  0.7816164E-02  0.1320468E+00
        -11   -1    0    0    0    0  0.00000000000E+00  0.00000000000E+00  0.45593999997E+02  0.45594000000E+02  0.51100000000E-03 0.  1.
         11   -1    0    0    0    0 -0.00000000000E+00 -0.00000000000E+00 -0.45593999997E+02  0.45594000000E+02  0.51100000000E-03 0. -1.
    9900012    2    1    2    0    0 -0.93582689743E+01 -0.33358486995E+02  0.28787979221E+02  0.46142316517E+02  0.99999886548E+01 0.  0.
         12    1    1    2    0    0  0.93582689743E+01  0.33358486995E+02 -0.28787979221E+02  0.45045683483E+02  0.00000000000E+00 0. -1.
         11    1    3    3    0    0 -0.31490444429E-01 -0.90295850881E+00 -0.43491072229E+00  0.10027329227E+01  0.51100000000E-03 0. -1.
        -11    1    3    3    0    0 -0.59904438217E+01 -0.15403801568E+02  0.10420707326E+02  0.19538517379E+02  0.51100000000E-03 0.  1.
        -12    1    3    3    0    0 -0.33363347082E+01 -0.17051726918E+02  0.18802182617E+02  0.25601066215E+02  0.00000000000E+00 0.  1.
</event>
<event>
 7    1  0.2227287E-008  0.4614232E+02  0.7816164E-02  0.1320468E+00
        -11   -1    0    0    0    0  0.00000000000E+00  0.00000000000E+00  0.45593999997E+02  0.45594000000E+02  0.51100000000E-03 0.  1.
         11   -1    0    0    0    0 -0.00000000000E+00 -0.00000000000E+00 -0.45593999997E+02  0.45594000000E+02  0.51100000000E-03 0. -1.
    9900012    2    1    2    0    0  0.36466659937E+02  0.26426784961E+02  0.95982283651E+00  0.46142317518E+02  0.99999977866E+01 0.  0.
         12    1    1    2    0    0 -0.36466659937E+02 -0.26426784961E+02 -0.95982283651E+00  0.45045682482E+02  0.00000000000E+00 0. -1.
         11    1    3    3    0    0  0.65162419761E+00  0.14803451118E+01  0.11230543595E+01  0.19690828069E+01  0.51100000000E-03 0. -1.
        -11    1    3    3    0    0  0.18512501657E+01  0.18811602618E+01 -0.16113504163E+01  0.30923035963E+01  0.51100000000E-03 0.  1.
         12    1    3    3    0    0  0.33963785574E+02  0.23065279588E+02  0.14481188933E+01  0.41080931115E+02  0.00000000000E+00 0. -1.
</event>
<event>
 7    1  0.2227287E-008  0.4614232E+02  0.7816164E-02  0.1320468E+00
        -11   -1    0    0    0    0  0.00000000000E+00  0.00000000000E+00  0.45593999997E+02  0.45594000000E+02  0.51100000000E-03 0.  1.
         11   -1    0    0    0    0 -0.00000000000E+00 -0.00000000000E+00 -0.45593999997E+02  0.45594000000E+02  0.51100000000E-03 0. -1.
    9900012    2    1    2    0    0 -0.19147050724E+02  0.29506547771E+02  0.28140141457E+02  0.46142317921E+02  0.10000001456E+02 0.  0.
         12    1    1    2    0    0  0.19147050724E+02 -0.29506547771E+02 -0.28140141457E+02  0.45045682079E+02  0.00000000000E+00 0. -1.
         11    1    3    3    0    0  0.30671523525E+00  0.15520366748E+00 -0.29886105229E+00  0.45550038818E+00  0.51100000000E-03 0. -1.
        -11    1    3    3    0    0 -0.75719026473E+01  0.16656279952E+02  0.16024727820E+02  0.24321950446E+02  0.51100000000E-03 0.  1.
        -12    1    3    3    0    0 -0.11881863312E+02  0.12695064152E+02  0.12414274689E+02  0.21364867087E+02  0.00000000000E+00 0.  1.
</event>
<event>
 7    1  0.2227287E-008  0.4614232E+02  0.7816164E-02  0.1320468E+00
        -11   -1    0    0    0    0  0.00000000000E+00  0.00000000000E+00  0.45593999997E+02  0.45594000000E+02  0.51100000000E-03 0.  1.
         11   -1    0    0    0    0 -0.00000000000E+00 -0.00000000000E+00 -0.45593999997E+02  0.45594000000E+02  0.51100000000E-03 0. -1.
    9900012    2    1    2    0    0 -0.40801432785E+02  0.15354791669E+02  0.11339614564E+02  0.46142318709E+02  0.10000008644E+02 0.  0.
         12    1    1    2    0    0  0.40801432785E+02 -0.15354791669E+02 -0.11339614564E+02  0.45045681291E+02  0.00000000000E+00 0. -1.
         11    1    3    3    0    0 -0.19166557955E+02  0.78541060642E+01  0.19827546074E+01  0.20808057141E+02  0.51100000000E-03 0. -1.
        -11    1    3    3    0    0 -0.45325184357E+01  0.20981370311E+01 -0.22529292797E+00  0.49996659424E+01  0.51100000000E-03 0.  1.
         12    1    3    3    0    0 -0.17102356395E+02  0.54025485736E+01  0.95821528848E+01  0.20334595625E+02  0.00000000000E+00 0. -1.
</event>
<event>
 7    1  0.2227287E-008  0.4614232E+02  0.7816164E-02  0.1320468E+00
        -11   -1    0    0    0    0  0.00000000000E+00  0.00000000000E+00  0.45593999997E+02  0.45594000000E+02  0.51100000000E-03 0.  1.
         11   -1    0    0    0    0 -0.00000000000E+00 -0.00000000000E+00 -0.45593999997E+02  0.45594000000E+02  0.51100000000E-03 0. -1.
    9900012    2    1    2    0    0 -0.85887907225E+01  0.13305029514E+02  0.42170160243E+02  0.46142317062E+02  0.99999936236E+01 0.  0.
         12    1    1    2    0    0  0.85887907225E+01 -0.13305029514E+02 -0.42170160243E+02  0.45045682938E+02  0.00000000000E+00 0. -1.
         11    1    3    3    0    0 -0.49778129557E+01  0.33997973263E+01  0.86199453428E+01  0.10518588387E+02  0.51100000000E-03 0. -1.
        -11    1    3    3    0    0 -0.46352968482E+01  0.44743554153E+01  0.17440443079E+02  0.18592334128E+02  0.51100000000E-03 0.  1.
        -12    1    3    3    0    0  0.10243190813E+01  0.54308767726E+01  0.16109771821E+02  0.17031394547E+02  0.00000000000E+00 0.  1.
</event>
<event>
 7    1  0.2227287E-008  0.4614232E+02  0.7816164E-02  0.1320468E+00
        -11   -1    0    0    0    0  0.00000000000E+00  0.00000000000E+00  0.45593999997E+02  0.45594000000E+02  0.51100000000E-03 0.  1.
         11   -1    0    0    0    0 -0.00000000000E+00 -0.00000000000E+00 -0.45593999997E+02  0.45594000000E+02  0.51100000000E-03 0. -1.
    9900012    2    1    2    0    0  0.11694586643E+02 -0.42367762241E+02  0.98652337116E+01  0.46142317963E+02  0.10000001838E+02 0.  0.
         12    1    1    2    0    0 -0.11694586643E+02  0.42367762241E+02 -0.98652337116E+01  0.45045682037E+02  0.00000000000E+00 0. -1.
         11    1    3    3    0    0  0.81137831534E+00 -0.32115061874E+01 -0.14470214586E+01  0.36146892155E+01  0.51100000000E-03 0. -1.
        -11    1    3    3    0    0  0.36475510800E+01 -0.87419056121E+01  0.46938451881E+01  0.10571552654E+02  0.51100000000E-03 0.  1.
         12    1    3    3    0    0  0.72356572476E+01 -0.30414350441E+02  0.66184099821E+01  0.31956076093E+02  0.00000000000E+00 0. -1.
</event>
<event>
 7    1  0.2227287E-008  0.4614232E+02  0.7816164E-02  0.1320468E+00
        -11   -1    0    0    0    0  0.00000000000E+00  0.00000000000E+00  0.45593999997E+02  0.45594000000E+02  0.51100000000E-03 0. -1.
         11   -1    0    0    0    0 -0.00000000000E+00 -0.00000000000E+00 -0.45593999997E+02  0.45594000000E+02  0.51100000000E-03 0.  1.
    9900012    2    1    2    0    0 -0.76702258504E+01  0.43096149211E+02 -0.10630283816E+02  0.46142319015E+02  0.10000011433E+02 0.  0.
         12    1    1    2    0    0  0.76702258504E+01 -0.43096149211E+02  0.10630283816E+02  0.45045680985E+02  0.00000000000E+00 0. -1.
         11    1    3    3    0    0 -0.25231426818E+01  0.18880626830E+02 -0.58328998491E+01  0.19921522015E+02  0.51100000000E-03 0. -1.
        -11    1    3    3    0    0 -0.63338101202E+01  0.23343817692E+02 -0.50948197404E+01  0.24718579319E+02  0.51100000000E-03 0.  1.
         12    1    3    3    0    0  0.11867269516E+01  0.87170468894E+00  0.29743577391E+00  0.15022176813E+01  0.00000000000E+00 0. -1.
</event>
<event>
 7    1  0.2227287E-008  0.4614232E+02  0.7816164E-02  0.1320468E+00
        -11   -1    0    0    0    0  0.00000000000E+00  0.00000000000E+00  0.45593999997E+02  0.45594000000E+02  0.51100000000E-03 0.  1.
         11   -1    0    0    0    0 -0.00000000000E+00 -0.00000000000E+00 -0.45593999997E+02  0.45594000000E+02  0.51100000000E-03 0. -1.
    9900012    2    1    2    0    0  0.29953325038E+02  0.27283281391E+02  0.19685889523E+02  0.46142319068E+02  0.10000011921E+02 0.  0.
         12    1    1    2    0    0 -0.29953325038E+02 -0.27283281391E+02 -0.19685889523E+02  0.45045680932E+02  0.00000000000E+00 0. -1.
         11    1    3    3    0    0  0.10154570825E+02  0.58996218617E+01  0.89862680121E+01  0.14787625225E+02  0.51100000000E-03 0. -1.
        -11    1    3    3    0    0  0.95184479431E+01  0.13404904989E+02  0.65271978543E+01  0.17688884677E+02  0.51100000000E-03 0.  1.
        -12    1    3    3    0    0  0.10280306270E+02  0.79787545400E+01  0.41724236566E+01  0.13665809167E+02  0.00000000000E+00 0.  1.
</event>
<event>
 7    1  0.2227287E-008  0.4614232E+02  0.7816164E-02  0.1320468E+00
        -11   -1    0    0    0    0  0.00000000000E+00  0.00000000000E+00  0.45593999997E+02  0.45594000000E+02  0.51100000000E-03 0. -1.
         11   -1    0    0    0    0 -0.00000000000E+00 -0.00000000000E+00 -0.45593999997E+02  0.45594000000E+02  0.51100000000E-03 0.  1.
    9900012    2    1    2    0    0  0.24373838846E+02  0.31859243626E+02 -0.20494344969E+02  0.46142316520E+02  0.99999886803E+01 0.  0.
         12    1    1    2    0    0 -0.24373838846E+02 -0.31859243626E+02  0.20494344969E+02  0.45045683480E+02  0.00000000000E+00 0. -1.
         11    1    3    3    0    0  0.24298285334E+01  0.97473509761E+00  0.91879391943E-01  0.26196597672E+01  0.51100000000E-03 0. -1.
        -11    1    3    3    0    0  0.72572280018E+01  0.10030465435E+02 -0.99657337816E+01  0.15893188641E+02  0.51100000000E-03 0.  1.
        -12    1    3    3    0    0  0.14686782311E+02  0.20854043093E+02 -0.10620490579E+02  0.27629468111E+02  0.00000000000E+00 0.  1.
</event>
<event>
 7    1  0.2227287E-008  0.4614232E+02  0.7816164E-02  0.1320468E+00
        -11   -1    0    0    0    0  0.00000000000E+00  0.00000000000E+00  0.45593999997E+02  0.45594000000E+02  0.51100000000E-03 0.  1.
         11   -1    0    0    0    0 -0.00000000000E+00 -0.00000000000E+00 -0.45593999997E+02  0.45594000000E+02  0.51100000000E-03 0. -1.
    9900012    2    1    2    0    0 -0.17509021632E+02  0.40847639861E+02  0.73496706524E+01  0.46142321190E+02  0.10000031271E+02 0.  0.
         12    1    1    2    0    0  0.17509021632E+02 -0.40847639861E+02 -0.73496706524E+01  0.45045678810E+02  0.00000000000E+00 0. -1.
         11    1    3    3    0    0 -0.27405269263E+00  0.78050577900E+01  0.17067159260E+01  0.79941798514E+01  0.51100000000E-03 0. -1.
        -11    1    3    3    0    0 -0.89956496768E+01  0.20397981799E+02  0.58735986957E+01  0.23054252026E+02  0.51100000000E-03 0.  1.
        -12    1    3    3    0    0 -0.82393192628E+01  0.12644600272E+02 -0.23064396919E+00  0.15093889313E+02  0.00000000000E+00 0.  1.
</event>
<event>
 7    1  0.2227287E-008  0.4614232E+02  0.7816164E-02  0.1320468E+00
        -11   -1    0    0    0    0  0.00000000000E+00  0.00000000000E+00  0.45593999997E+02  0.45594000000E+02  0.51100000000E-03 0. -1.
         11   -1    0    0    0    0 -0.00000000000E+00 -0.00000000000E+00 -0.45593999997E+02  0.45594000000E+02  0.51100000000E-03 0.  1.
    9900012    2    1    2    0    0  0.67183529388E+01  0.42328359886E+02 -0.13866767368E+02  0.46142317032E+02  0.99999933504E+01 0.  0.
         12    1    1    2    0    0 -0.67183529388E+01 -0.42328359886E+02  0.13866767368E+02  0.45045682968E+02  0.00000000000E+00 0. -1.
         11    1    3    3    0    0  0.95303088821E+00  0.93633841456E+01 -0.34016371057E+01  0.10007615390E+02  0.51100000000E-03 0. -1.
        -11    1    3    3    0    0  0.69545646987E+01  0.18569609435E+02 -0.84336057474E+01  0.21548133814E+02  0.51100000000E-03 0.  1.
         12    1    3    3    0    0 -0.11892426481E+01  0.14395366305E+02 -0.20315245146E+01  0.14586567828E+02  0.00000000000E+00 0. -1.
</event>
<event>
 7    1  0.2227287E-008  0.4614232E+02  0.7816164E-02  0.1320468E+00
        -11   -1    0    0    0    0  0.00000000000E+00  0.00000000000E+00  0.45593999997E+02  0.45594000000E+02  0.51100000000E-03 0. -1.
         11   -1    0    0    0    0 -0.00000000000E+00 -0.00000000000E+00 -0.45593999997E+02  0.45594000000E+02  0.51100000000E-03 0.  1.
    9900012    2    1    2    0    0 -0.43205498525E+02  0.10883709872E+02  0.66289715944E+01  0.46142317546E+02  0.99999980375E+01 0.  0.
         12    1    1    2    0    0  0.43205498525E+02 -0.10883709872E+02 -0.66289715944E+01  0.45045682454E+02  0.00000000000E+00 0. -1.
         11    1    3    3    0    0 -0.27704337004E+02  0.10592475217E+02  0.50211283274E+01  0.30082263047E+02  0.51100000000E-03 0. -1.
        -11    1    3    3    0    0 -0.92015149689E+01  0.18627135911E+01  0.18242304225E+01  0.95637543120E+01  0.51100000000E-03 0.  1.
         12    1    3    3    0    0 -0.62996465518E+01 -0.15714789359E+01 -0.21638715547E+00  0.64963001873E+01  0.00000000000E+00 0. -1.
</event>
<event>
 7    1  0.2227287E-008  0.4614232E+02  0.7816164E-02  0.1320468E+00
        -11   -1    0    0    0    0  0.00000000000E+00  0.00000000000E+00  0.45593999997E+02  0.45594000000E+02  0.51100000000E-03 0.  1.
         11   -1    0    0    0    0 -0.00000000000E+00 -0.00000000000E+00 -0.45593999997E+02  0.45594000000E+02  0.51100000000E-03 0. -1.
    9900012    2    1    2    0    0 -0.24532778367E+02 -0.12465147772E+02  0.35663377076E+02  0.46142316657E+02  0.99999899308E+01 0.  0.
         12    1    1    2    0    0  0.24532778367E+02  0.12465147772E+02 -0.35663377076E+02  0.45045683343E+02  0.00000000000E+00 0. -1.
         11    1    3    3    0    0 -0.51112934732E+00 -0.20419336411E+01  0.14070712809E+01  0.25319154913E+01  0.51100000000E-03 0. -1.
        -11    1    3    3    0    0 -0.57332813694E+01 -0.57047432246E+01  0.96529072360E+01  0.12593380360E+02  0.51100000000E-03 0.  1.
         12    1    3    3    0    0 -0.18288367650E+02 -0.47184709059E+01  0.24603398560E+02  0.31017020806E+02  0.00000000000E+00 0. -1.
</event>
<event>
 7    1  0.2227287E-008  0.4614232E+02  0.7816164E-02  0.1320468E+00
        -11   -1    0    0    0    0  0.00000000000E+00  0.00000000000E+00  0.45593999997E+02  0.45594000000E+02  0.51100000000E-03 0. -1.
         11   -1    0    0    0    0 -0.00000000000E+00 -0.00000000000E+00 -0.45593999997E+02  0.45594000000E+02  0.51100000000E-03 0.  1.
    9900012    2    1    2    0    0 -0.15321586666E+02  0.21935508867E+02 -0.36238043881E+02  0.46142318836E+02  0.10000009798E+02 0.  0.
         12    1    1    2    0    0  0.15321586666E+02 -0.21935508867E+02  0.36238043881E+02  0.45045681164E+02  0.00000000000E+00 0. -1.
         11    1    3    3    0    0 -0.35149311794E+01  0.75659139805E+01 -0.85458411938E+01  0.11942746649E+02  0.51100000000E-03 0. -1.
        -11    1    3    3    0    0 -0.12610540065E+02  0.14531285772E+02 -0.26747492312E+02  0.32948631719E+02  0.51100000000E-03 0.  1.
         12    1    3    3    0    0  0.80388457878E+00 -0.16169088564E+00 -0.94471037554E+00  0.12509404671E+01  0.00000000000E+00 0. -1.
</event>
<event>
 7    1  0.2227287E-008  0.4614231E+02  0.7816164E-02  0.1320468E+00
        -11   -1    0    0    0    0  0.00000000000E+00  0.00000000000E+00  0.45593999997E+02  0.45594000000E+02  0.51100000000E-03 0.  1.
         11   -1    0    0    0    0 -0.00000000000E+00 -0.00000000000E+00 -0.45593999997E+02  0.45594000000E+02  0.51100000000E-03 0. -1.
    9900012    2    1    2    0    0  0.18682435526E+02  0.28835646125E+02  0.29130497022E+02  0.46142314953E+02  0.99999743898E+01 0.  0.
         12    1    1    2    0    0 -0.18682435526E+02 -0.28835646125E+02 -0.29130497022E+02  0.45045685047E+02  0.00000000000E+00 0. -1.
         11    1    3    3    0    0  0.29821834599E+01  0.53774011713E+01  0.85397930449E+01  0.10523208971E+02  0.51100000000E-03 0. -1.
        -11    1    3    3    0    0  0.10375079595E+02  0.15672651751E+02  0.17532018653E+02  0.25703034214E+02  0.51100000000E-03 0.  1.
        -12    1    3    3    0    0  0.53251724713E+01  0.77855932033E+01  0.30586853235E+01  0.99160717668E+01  0.00000000000E+00 0.  1.
</event>
<event>
 7    1  0.2227287E-008  0.4614231E+02  0.7816164E-02  0.1320468E+00
        -11   -1    0    0    0    0  0.00000000000E+00  0.00000000000E+00  0.45593999997E+02  0.45594000000E+02  0.51100000000E-03 0.  1.
         11   -1    0    0    0    0 -0.00000000000E+00 -0.00000000000E+00 -0.45593999997E+02  0.45594000000E+02  0.51100000000E-03 0. -1.
    9900012    2    1    2    0    0 -0.39391892871E+02  0.76121415446E+01  0.20480429645E+02  0.46142312956E+02  0.99999561823E+01 0.  0.
         12    1    1    2    0    0  0.39391892871E+02 -0.76121415446E+01 -0.20480429645E+02  0.45045687044E+02  0.00000000000E+00 0. -1.
         11    1    3    3    0    0 -0.26956392380E+02  0.77816261843E+00  0.13558784809E+02  0.30184321641E+02  0.51100000000E-03 0. -1.
        -11    1    3    3    0    0 -0.40749373909E+01  0.17317087734E+01  0.32727140822E+01  0.55058684820E+01  0.51100000000E-03 0.  1.
         12    1    3    3    0    0 -0.83605631000E+01  0.51022701528E+01  0.36489307539E+01  0.10452122833E+02  0.00000000000E+00 0. -1.
</event>
<event>
 7    1  0.2227287E-008  0.4614232E+02  0.7816164E-02  0.1320468E+00
        -11   -1    0    0    0    0  0.00000000000E+00  0.00000000000E+00  0.45593999997E+02  0.45594000000E+02  0.51100000000E-03 0.  1.
         11   -1    0    0    0    0 -0.00000000000E+00 -0.00000000000E+00 -0.45593999997E+02  0.45594000000E+02  0.51100000000E-03 0. -1.
    9900012    2    1    2    0    0  0.44266832705E+02 -0.48014208500E+01  0.68196399941E+01  0.46142316416E+02  0.99999877342E+01 0.  0.
         12    1    1    2    0    0 -0.44266832705E+02  0.48014208500E+01 -0.68196399941E+01  0.45045683584E+02  0.00000000000E+00 0. -1.
         11    1    3    3    0    0  0.44178881181E+01 -0.17935485633E+01  0.78512476289E+00  0.48322844523E+01  0.51100000000E-03 0. -1.
        -11    1    3    3    0    0  0.38144235001E+02 -0.43604341540E+01  0.68254300024E+01  0.38994647643E+02  0.51100000000E-03 0.  1.
         12    1    3    3    0    0  0.17047095853E+01  0.13525618674E+01 -0.79091477118E+00  0.23153843203E+01  0.00000000000E+00 0. -1.
</event>
<event>
 7    1  0.2227287E-008  0.4614232E+02  0.7816164E-02  0.1320468E+00
        -11   -1    0    0    0    0  0.00000000000E+00  0.00000000000E+00  0.45593999997E+02  0.45594000000E+02  0.51100000000E-03 0.  1.
         11   -1    0    0    0    0 -0.00000000000E+00 -0.00000000000E+00 -0.45593999997E+02  0.45594000000E+02  0.51100000000E-03 0. -1.
    9900012    2    1    2    0    0 -0.27485063179E+02 -0.19063929846E+02  0.30170372194E+02  0.46142317883E+02  0.10000001107E+02 0.  0.
         12    1    1    2    0    0  0.27485063179E+02  0.19063929846E+02 -0.30170372194E+02  0.45045682117E+02  0.00000000000E+00 0. -1.
         11    1    3    3    0    0 -0.29236317444E+01 -0.60239149711E+01  0.78564104785E+01  0.10322710885E+02  0.51100000000E-03 0. -1.
        -11    1    3    3    0    0 -0.22033704641E+02 -0.12791963365E+02  0.20151454513E+02  0.32483835767E+02  0.51100000000E-03 0.  1.
         12    1    3    3    0    0 -0.25277267945E+01 -0.24805150988E+00  0.21625072022E+01  0.33357712299E+01  0.00000000000E+00 0. -1.
</event>
<event>
 7    1  0.2227287E-008  0.4614232E+02  0.7816164E-02  0.1320468E+00
        -11   -1    0    0    0    0  0.00000000000E+00  0.00000000000E+00  0.45593999997E+02  0.45594000000E+02  0.51100000000E-03 0.  1.
         11   -1    0    0    0    0 -0.00000000000E+00 -0.00000000000E+00 -0.45593999997E+02  0.45594000000E+02  0.51100000000E-03 0. -1.
    9900012    2    1    2    0    0  0.39928307425E+01  0.41099030091E+02 -0.18001119529E+02  0.46142320118E+02  0.10000021489E+02 0.  0.
         12    1    1    2    0    0 -0.39928307425E+01 -0.41099030091E+02  0.18001119529E+02  0.45045679882E+02  0.00000000000E+00 0. -1.
         11    1    3    3    0    0 -0.45383136681E+00  0.14241786558E+02 -0.47921616704E+01  0.15033271800E+02  0.51100000000E-03 0. -1.
        -11    1    3    3    0    0 -0.51700415361E+00  0.40914572946E+01  0.36976216632E+00  0.41405362465E+01  0.51100000000E-03 0.  1.
        -12    1    3    3    0    0  0.49636662629E+01  0.22765786239E+02 -0.13578720025E+02  0.26968512071E+02  0.00000000000E+00 0.  1.
</event>
<event>
 7    1  0.2227287E-008  0.4614232E+02  0.7816164E-02  0.1320468E+00
        -11   -1    0    0    0    0  0.00000000000E+00  0.00000000000E+00  0.45593999997E+02  0.45594000000E+02  0.51100000000E-03 0.  1.
         11   -1    0    0    0    0 -0.00000000000E+00 -0.00000000000E+00 -0.45593999997E+02  0.45594000000E+02  0.51100000000E-03 0. -1.
    9900012    2    1    2    0    0  0.44717952845E+02  0.19147672096E+01  0.50746235429E+01  0.46142318251E+02  0.10000004468E+02 0.  0.
         12    1    1    2    0    0 -0.44717952845E+02 -0.19147672096E+01 -0.50746235429E+01  0.45045681749E+02  0.00000000000E+00 0. -1.
         11    1    3    3    0    0  0.75843012427E+00 -0.25424071422E+00 -0.23547415883E-01  0.80025579416E+00  0.51100000000E-03 0. -1.
        -11    1    3    3    0    0  0.10996081134E+02 -0.26185989902E+01  0.40794450429E+01  0.12017184907E+02  0.51100000000E-03 0.  1.
        -12    1    3    3    0    0  0.32963441587E+02  0.47876069140E+01  0.10187259159E+01  0.33324877550E+02  0.00000000000E+00 0.  1.
</event>
<event>
 7    1  0.2227287E-008  0.4614232E+02  0.7816164E-02  0.1320468E+00
        -11   -1    0    0    0    0  0.00000000000E+00  0.00000000000E+00  0.45593999997E+02  0.45594000000E+02  0.51100000000E-03 0. -1.
         11   -1    0    0    0    0 -0.00000000000E+00 -0.00000000000E+00 -0.45593999997E+02  0.45594000000E+02  0.51100000000E-03 0.  1.
    9900012    2    1    2    0    0 -0.75087828022E+01  0.25247451034E+02 -0.36541728442E+02  0.46142317406E+02  0.99999967598E+01 0.  0.
         12    1    1    2    0    0  0.75087828022E+01 -0.25247451034E+02  0.36541728442E+02  0.45045682594E+02  0.00000000000E+00 0. -1.
         11    1    3    3    0    0 -0.62233268029E+00  0.33121648062E+01 -0.12206057722E+01  0.35843566202E+01  0.51100000000E-03 0. -1.
        -11    1    3    3    0    0  0.10743523826E+01  0.29794466851E+01 -0.52155270602E+01  0.61018897374E+01  0.51100000000E-03 0.  1.
        -12    1    3    3    0    0 -0.79608025045E+01  0.18955839543E+02 -0.30105595609E+02  0.36456071048E+02  0.00000000000E+00 0.  1.
</event>
<event>
 7    1  0.2227287E-008  0.4614232E+02  0.7816164E-02  0.1320468E+00
        -11   -1    0    0    0    0  0.00000000000E+00  0.00000000000E+00  0.45593999997E+02  0.45594000000E+02  0.51100000000E-03 0. -1.
         11   -1    0    0    0    0 -0.00000000000E+00 -0.00000000000E+00 -0.45593999997E+02  0.45594000000E+02  0.51100000000E-03 0.  1.
    9900012    2    1    2    0    0 -0.17140103771E+02 -0.41656461451E+02 -0.26370123320E+00  0.46142317896E+02  0.10000001230E+02 0.  0.
         12    1    1    2    0    0  0.17140103771E+02  0.41656461451E+02  0.26370123320E+00  0.45045682104E+02  0.00000000000E+00 0. -1.
         11    1    3    3    0    0 -0.11432783955E+02 -0.28978074641E+02 -0.19754920605E+01  0.31214418592E+02  0.51100000000E-03 0.  1.
        -11    1    3    3    0    0 -0.61797463411E+01 -0.12518752712E+02  0.23081996178E+01  0.14150484799E+02  0.51100000000E-03 0. -1.
         12    1    3    3    0    0  0.47242652557E+00 -0.15963409692E+00 -0.59640879057E+00  0.77741450491E+00  0.00000000000E+00 0. -1.
</event>
<event>
 7    1  0.2227287E-008  0.4614231E+02  0.7816164E-02  0.1320468E+00
        -11   -1    0    0    0    0  0.00000000000E+00  0.00000000000E+00  0.45593999997E+02  0.45594000000E+02  0.51100000000E-03 0.  1.
         11   -1    0    0    0    0 -0.00000000000E+00 -0.00000000000E+00 -0.45593999997E+02  0.45594000000E+02  0.51100000000E-03 0. -1.
    9900012    2    1    2    0    0 -0.17178617258E+02  0.69132907207E+00  0.41635698120E+02  0.46142310032E+02  0.99999295201E+01 0.  0.
         12    1    1    2    0    0  0.17178617258E+02 -0.69132907207E+00 -0.41635698120E+02  0.45045689968E+02  0.00000000000E+00 0. -1.
         11    1    3    3    0    0 -0.38782401183E+01 -0.25819021829E+01  0.13275768512E+02  0.14069576935E+02  0.51100000000E-03 0.  1.
        -11    1    3    3    0    0 -0.74736094733E+01  0.45224541468E+01  0.13701164481E+02  0.16248979613E+02  0.51100000000E-03 0. -1.
         12    1    3    3    0    0 -0.58267676664E+01 -0.12492228918E+01  0.14658765127E+02  0.15823753484E+02  0.00000000000E+00 0. -1.
</event>
<event>
 7    1  0.2227287E-008  0.4614232E+02  0.7816164E-02  0.1320468E+00
        -11   -1    0    0    0    0  0.00000000000E+00  0.00000000000E+00  0.45593999997E+02  0.45594000000E+02  0.51100000000E-03 0.  1.
         11   -1    0    0    0    0 -0.00000000000E+00 -0.00000000000E+00 -0.45593999997E+02  0.45594000000E+02  0.51100000000E-03 0. -1.
    9900012    2    1    2    0    0 -0.32755919398E+02  0.30866058623E+02  0.18573354126E+01  0.46142317350E+02  0.99999962556E+01 0.  0.
         12    1    1    2    0    0  0.32755919398E+02 -0.30866058623E+02 -0.18573354126E+01  0.45045682650E+02  0.00000000000E+00 0. -1.
         11    1    3    3    0    0 -0.14855289499E+01  0.54039843208E+00 -0.40826843060E+00  0.16326389984E+01  0.51100000000E-03 0. -1.
        -11    1    3    3    0    0 -0.14440854376E+02  0.14144425802E+02  0.54780335947E+01  0.20943063499E+02  0.51100000000E-03 0.  1.
        -12    1    3    3    0    0 -0.16829536072E+02  0.16181234389E+02 -0.32124297515E+01  0.23566614853E+02  0.00000000000E+00 0.  1.
</event>
<event>
 7    1  0.2227287E-008  0.4614232E+02  0.7816164E-02  0.1320468E+00
        -11   -1    0    0    0    0  0.00000000000E+00  0.00000000000E+00  0.45593999997E+02  0.45594000000E+02  0.51100000000E-03 0.  1.
         11   -1    0    0    0    0 -0.00000000000E+00 -0.00000000000E+00 -0.45593999997E+02  0.45594000000E+02  0.51100000000E-03 0. -1.
    9900012    2    1    2    0    0 -0.46714005733E+01  0.25103670285E+02  0.37109261815E+02  0.46142316993E+02  0.99999929971E+01 0.  0.
         12    1    1    2    0    0  0.46714005733E+01 -0.25103670285E+02 -0.37109261815E+02  0.45045683007E+02  0.00000000000E+00 0. -1.
         11    1    3    3    0    0  0.81718065339E+00  0.33283785288E+00  0.28230972480E-01  0.88281510267E+00  0.51100000000E-03 0. -1.
        -11    1    3    3    0    0 -0.44383342013E+01  0.11807120618E+02  0.14664573136E+02  0.19343128322E+02  0.51100000000E-03 0.  1.
        -12    1    3    3    0    0 -0.10502470254E+01  0.12963711814E+02  0.22416457707E+02  0.25916373568E+02  0.00000000000E+00 0.  1.
</event>
<event>
 7    1  0.2227287E-008  0.4614232E+02  0.7816164E-02  0.1320468E+00
        -11   -1    0    0    0    0  0.00000000000E+00  0.00000000000E+00  0.45593999997E+02  0.45594000000E+02  0.51100000000E-03 0.  1.
         11   -1    0    0    0    0 -0.00000000000E+00 -0.00000000000E+00 -0.45593999997E+02  0.45594000000E+02  0.51100000000E-03 0. -1.
    9900012    2    1    2    0    0  0.28044206784E+01 -0.19042350434E+02  0.40726375348E+02  0.46142317250E+02  0.99999953389E+01 0.  0.
         12    1    1    2    0    0 -0.28044206784E+01  0.19042350434E+02 -0.40726375348E+02  0.45045682750E+02  0.00000000000E+00 0. -1.
         11    1    3    3    0    0 -0.22208820010E+01 -0.38388020746E+01  0.42149824862E+01  0.61183981442E+01  0.51100000000E-03 0. -1.
        -11    1    3    3    0    0  0.35737396452E+01 -0.78005533354E+01  0.15768114507E+02  0.17951425647E+02  0.51100000000E-03 0.  1.
         12    1    3    3    0    0  0.14515630341E+01 -0.74029950240E+01  0.20743278355E+02  0.22072493459E+02  0.00000000000E+00 0. -1.
</event>
<event>
 7    1  0.2227287E-008  0.4614232E+02  0.7816164E-02  0.1320468E+00
        -11   -1    0    0    0    0  0.00000000000E+00  0.00000000000E+00  0.45593999997E+02  0.45594000000E+02  0.51100000000E-03 0. -1.
         11   -1    0    0    0    0 -0.00000000000E+00 -0.00000000000E+00 -0.45593999997E+02  0.45594000000E+02  0.51100000000E-03 0.  1.
    9900012    2    1    2    0    0  0.44885079863E+02 -0.90350856087E+00 -0.36914357687E+01  0.46142318519E+02  0.10000006911E+02 0.  0.
         12    1    1    2    0    0 -0.44885079863E+02  0.90350856087E+00  0.36914357687E+01  0.45045681481E+02  0.00000000000E+00 0. -1.
         11    1    3    3    0    0 -0.13225932964E+00  0.13749131881E-02  0.11979051963E+00  0.17845013415E+00  0.51100000000E-03 0. -1.
        -11    1    3    3    0    0  0.30757218577E+02  0.33105210101E+01 -0.24645344756E+01  0.31032885370E+02  0.51100000000E-03 0.  1.
        -12    1    3    3    0    0  0.14260120616E+02 -0.42154044841E+01 -0.13466918127E+01  0.14930983014E+02  0.00000000000E+00 0.  1.
</event>
<event>
 7    1  0.2227287E-008  0.4614231E+02  0.7816164E-02  0.1320468E+00
        -11   -1    0    0    0    0  0.00000000000E+00  0.00000000000E+00  0.45593999997E+02  0.45594000000E+02  0.51100000000E-03 0. -1.
         11   -1    0    0    0    0 -0.00000000000E+00 -0.00000000000E+00 -0.45593999997E+02  0.45594000000E+02  0.51100000000E-03 0.  1.
    9900012    2    1    2    0    0  0.27756696405E+02 -0.33546689507E+02 -0.11545526324E+02  0.46142314854E+02  0.99999734884E+01 0.  0.
         12    1    1    2    0    0 -0.27756696405E+02  0.33546689507E+02  0.11545526324E+02  0.45045685146E+02  0.00000000000E+00 0. -1.
         11    1    3    3    0    0  0.89349600990E+01 -0.12262166041E+02 -0.19628710424E+01  0.15298597680E+02  0.51100000000E-03 0. -1.
        -11    1    3    3    0    0  0.13230199440E+02 -0.10836262847E+02 -0.80269633425E+01  0.18891662459E+02  0.51100000000E-03 0.  1.
         12    1    3    3    0    0  0.55915368662E+01 -0.10448260619E+02 -0.15556919389E+01  0.11952054715E+02  0.00000000000E+00 0. -1.
</event>
<event>
 7    1  0.2227287E-008  0.4614232E+02  0.7816164E-02  0.1320468E+00
        -11   -1    0    0    0    0  0.00000000000E+00  0.00000000000E+00  0.45593999997E+02  0.45594000000E+02  0.51100000000E-03 0.  1.
         11   -1    0    0    0    0 -0.00000000000E+00 -0.00000000000E+00 -0.45593999997E+02  0.45594000000E+02  0.51100000000E-03 0. -1.
    9900012    2    1    2    0    0  0.28868250372E+02  0.32757039934E+02  0.11077629373E+02  0.46142318550E+02  0.10000007194E+02 0.  0.
         12    1    1    2    0    0 -0.28868250372E+02 -0.32757039934E+02 -0.11077629373E+02  0.45045681450E+02  0.00000000000E+00 0. -1.
         11    1    3    3    0    0  0.15078110100E-01  0.17926110299E+01 -0.69549314926E-01  0.17940231387E+01  0.51100000000E-03 0. -1.
        -11    1    3    3    0    0  0.77914003558E+01  0.12830093827E+02  0.23309256774E+01  0.15190472076E+02  0.51100000000E-03 0.  1.
        -12    1    3    3    0    0  0.21061771906E+02  0.18134335077E+02  0.88162530108E+01  0.29157823335E+02  0.00000000000E+00 0.  1.
</event>
<event>
 7    1  0.2227287E-008  0.4614232E+02  0.7816164E-02  0.1320468E+00
        -11   -1    0    0    0    0  0.00000000000E+00  0.00000000000E+00  0.45593999997E+02  0.45594000000E+02  0.51100000000E-03 0.  1.
         11   -1    0    0    0    0 -0.00000000000E+00 -0.00000000000E+00 -0.45593999997E+02  0.45594000000E+02  0.51100000000E-03 0. -1.
    9900012    2    1    2    0    0 -0.33614754173E+02 -0.21471477480E+02  0.20931728957E+02  0.46142319626E+02  0.10000017004E+02 0.  0.
         12    1    1    2    0    0  0.33614754173E+02  0.21471477480E+02 -0.20931728957E+02  0.45045680374E+02  0.00000000000E+00 0. -1.
         11    1    3    3    0    0 -0.14923991586E+02 -0.10989486887E+02  0.10820419031E+02  0.21461030151E+02  0.51100000000E-03 0. -1.
        -11    1    3    3    0    0 -0.11111477317E+02 -0.69623408509E+01  0.97075624102E+01  0.16314897686E+02  0.51100000000E-03 0.  1.
         12    1    3    3    0    0 -0.75792852698E+01 -0.35196497417E+01  0.40374751587E+00  0.83663917887E+01  0.00000000000E+00 0. -1.
</event>
<event>
 7    1  0.2227287E-008  0.4614232E+02  0.7816164E-02  0.1320468E+00
        -11   -1    0    0    0    0  0.00000000000E+00  0.00000000000E+00  0.45593999997E+02  0.45594000000E+02  0.51100000000E-03 0.  1.
         11   -1    0    0    0    0 -0.00000000000E+00 -0.00000000000E+00 -0.45593999997E+02  0.45594000000E+02  0.51100000000E-03 0. -1.
    9900012    2    1    2    0    0 -0.23869371757E+02 -0.14333568337E+02  0.35410666530E+02  0.46142318815E+02  0.10000009611E+02 0.  0.
         12    1    1    2    0    0  0.23869371757E+02  0.14333568337E+02 -0.35410666530E+02  0.45045681185E+02  0.00000000000E+00 0. -1.
         11    1    3    3    0    0 -0.55312701875E+01 -0.68642831452E+00  0.10857198956E+02  0.12204298552E+02  0.51100000000E-03 0. -1.
        -11    1    3    3    0    0 -0.26161369950E+00 -0.17180845390E+00  0.20822920729E+01  0.21056828846E+01  0.51100000000E-03 0.  1.
         12    1    3    3    0    0 -0.18076487870E+02 -0.13475331568E+02  0.22471175501E+02  0.31832337379E+02  0.00000000000E+00 0. -1.
</event>
<event>
 7    1  0.2227287E-008  0.4614232E+02  0.7816164E-02  0.1320468E+00
        -11   -1    0    0    0    0  0.00000000000E+00  0.00000000000E+00  0.45593999997E+02  0.45594000000E+02  0.51100000000E-03 0. -1.
         11   -1    0    0    0    0 -0.00000000000E+00 -0.00000000000E+00 -0.45593999997E+02  0.45594000000E+02  0.51100000000E-03 0.  1.
    9900012    2    1    2    0    0  0.17549272587E+01  0.39224885835E+02 -0.22078089774E+02  0.46142317781E+02  0.10000000183E+02 0.  0.
         12    1    1    2    0    0 -0.17549272587E+01 -0.39224885835E+02  0.22078089774E+02  0.45045682219E+02  0.00000000000E+00 0. -1.
         11    1    3    3    0    0  0.16867326668E+01  0.63115365512E+01 -0.26828237316E+01  0.70624432148E+01  0.51100000000E-03 0. -1.
        -11    1    3    3    0    0 -0.31589597777E+01  0.25721353747E+02 -0.13385484548E+02  0.29167417820E+02  0.51100000000E-03 0.  1.
        -12    1    3    3    0    0  0.32271543695E+01  0.71919955376E+01 -0.60097814947E+01  0.99124567465E+01  0.00000000000E+00 0.  1.
</event>
<event>
 7    1  0.2227287E-008  0.4614232E+02  0.7816164E-02  0.1320468E+00
        -11   -1    0    0    0    0  0.00000000000E+00  0.00000000000E+00  0.45593999997E+02  0.45594000000E+02  0.51100000000E-03 0.  1.
         11   -1    0    0    0    0 -0.00000000000E+00 -0.00000000000E+00 -0.45593999997E+02  0.45594000000E+02  0.51100000000E-03 0. -1.
    9900012    2    1    2    0    0 -0.28532849843E+02  0.68286765827E+01  0.34181260001E+02  0.46142324522E+02  0.10000061653E+02 0.  0.
         12    1    1    2    0    0  0.28532849843E+02 -0.68286765827E+01 -0.34181260001E+02  0.45045675478E+02  0.00000000000E+00 0. -1.
         11    1    3    3    0    0 -0.45048606585E+01  0.30885207682E+01  0.57144216282E+01  0.79048937307E+01  0.51100000000E-03 0. -1.
        -11    1    3    3    0    0 -0.56967462653E+01  0.29178930765E+01  0.11916394309E+02  0.13526546921E+02  0.51100000000E-03 0.  1.
        -12    1    3    3    0    0 -0.18331242919E+02  0.82226273799E+00  0.16550444063E+02  0.24710883871E+02  0.00000000000E+00 0.  1.
</event>
<event>
 7    1  0.2227287E-008  0.4614231E+02  0.7816164E-02  0.1320468E+00
        -11   -1    0    0    0    0  0.00000000000E+00  0.00000000000E+00  0.45593999997E+02  0.45594000000E+02  0.51100000000E-03 0. -1.
         11   -1    0    0    0    0 -0.00000000000E+00 -0.00000000000E+00 -0.45593999997E+02  0.45594000000E+02  0.51100000000E-03 0.  1.
    9900012    2    1    2    0    0 -0.25683838916E+02  0.18784304368E+02 -0.31884238412E+02  0.46142308406E+02  0.99999146952E+01 0.  0.
         12    1    1    2    0    0  0.25683838916E+02 -0.18784304368E+02  0.31884238412E+02  0.45045691594E+02  0.00000000000E+00 0. -1.
         11    1    3    3    0    0 -0.11281129521E+02  0.64771969639E+01 -0.13147654008E+02  0.18495371582E+02  0.51100000000E-03 0. -1.
        -11    1    3    3    0    0 -0.14471653235E+02  0.11085829131E+02 -0.19067441322E+02  0.26379758788E+02  0.51100000000E-03 0.  1.
         12    1    3    3    0    0  0.68943840260E-01  0.12212782740E+01  0.33085691856E+00  0.12671780366E+01  0.00000000000E+00 0. -1.
</event>
<event>
 7    1  0.2227287E-008  0.4614232E+02  0.7816164E-02  0.1320468E+00
        -11   -1    0    0    0    0  0.00000000000E+00  0.00000000000E+00  0.45593999997E+02  0.45594000000E+02  0.51100000000E-03 0.  1.
         11   -1    0    0    0    0 -0.00000000000E+00 -0.00000000000E+00 -0.45593999997E+02  0.45594000000E+02  0.51100000000E-03 0. -1.
    9900012    2    1    2    0    0 -0.17950237909E+02 -0.32437775259E+01  0.41187136958E+02  0.46142318915E+02  0.10000010519E+02 0.  0.
         12    1    1    2    0    0  0.17950237909E+02  0.32437775259E+01 -0.41187136958E+02  0.45045681085E+02  0.00000000000E+00 0. -1.
         11    1    3    3    0    0  0.28964173624E-01 -0.12181867904E+01  0.64053394581E+01  0.65202140927E+01  0.51100000000E-03 0. -1.
        -11    1    3    3    0    0 -0.10434205537E+02 -0.27451484502E+01  0.25144189794E+02  0.27361263966E+02  0.51100000000E-03 0.  1.
         12    1    3    3    0    0 -0.75449965460E+01  0.71955771471E+00  0.96376077063E+01  0.12260840856E+02  0.00000000000E+00 0. -1.
</event>
<event>
 7    1  0.2227287E-008  0.4614232E+02  0.7816164E-02  0.1320468E+00
        -11   -1    0    0    0    0  0.00000000000E+00  0.00000000000E+00  0.45593999997E+02  0.45594000000E+02  0.51100000000E-03 0.  1.
         11   -1    0    0    0    0 -0.00000000000E+00 -0.00000000000E+00 -0.45593999997E+02  0.45594000000E+02  0.51100000000E-03 0. -1.
    9900012    2    1    2    0    0 -0.42510852700E+02  0.60232541879E+01  0.13625763340E+02  0.46142316357E+02  0.99999871928E+01 0.  0.
         12    1    1    2    0    0  0.42510852700E+02 -0.60232541879E+01 -0.13625763340E+02  0.45045683643E+02  0.00000000000E+00 0. -1.
         11    1    3    3    0    0 -0.17985112679E+02  0.63479159384E+01  0.32844738585E+01  0.19353244783E+02  0.51100000000E-03 0. -1.
        -11    1    3    3    0    0 -0.19611059786E+01 -0.78521733006E+00  0.52073807319E+00  0.21757001900E+01  0.51100000000E-03 0.  1.
        -12    1    3    3    0    0 -0.22564634043E+02  0.46055557952E+00  0.98205514079E+01  0.24613371384E+02  0.00000000000E+00 0.  1.
</event>
<event>
 7    1  0.2227287E-008  0.4614232E+02  0.7816164E-02  0.1320468E+00
        -11   -1    0    0    0    0  0.00000000000E+00  0.00000000000E+00  0.45593999997E+02  0.45594000000E+02  0.51100000000E-03 0.  1.
         11   -1    0    0    0    0 -0.00000000000E+00 -0.00000000000E+00 -0.45593999997E+02  0.45594000000E+02  0.51100000000E-03 0. -1.
    9900012    2    1    2    0    0  0.12462837670E+02  0.96250146276E+01  0.42203676144E+02  0.46142317527E+02  0.99999978633E+01 0.  0.
         12    1    1    2    0    0 -0.12462837670E+02 -0.96250146276E+01 -0.42203676144E+02  0.45045682473E+02  0.00000000000E+00 0. -1.
         11    1    3    3    0    0  0.38633624925E+01  0.47489315200E+01  0.17380311930E+02  0.18426968372E+02  0.51100000000E-03 0. -1.
        -11    1    3    3    0    0  0.56996953697E+01  0.36910485835E+01  0.75260096559E+01  0.10136626093E+02  0.51100000000E-03 0.  1.
         12    1    3    3    0    0  0.28997798082E+01  0.11850345240E+01  0.17297354558E+02  0.17578723062E+02  0.00000000000E+00 0. -1.
</event>
<event>
 7    1  0.2227287E-008  0.4614232E+02  0.7816164E-02  0.1320468E+00
        -11   -1    0    0    0    0  0.00000000000E+00  0.00000000000E+00  0.45593999997E+02  0.45594000000E+02  0.51100000000E-03 0. -1.
         11   -1    0    0    0    0 -0.00000000000E+00 -0.00000000000E+00 -0.45593999997E+02  0.45594000000E+02  0.51100000000E-03 0.  1.
    9900012    2    1    2    0    0 -0.19679514536E+01 -0.44557401014E+02 -0.63149546823E+01  0.46142317957E+02  0.10000001788E+02 0.  0.
         12    1    1    2    0    0  0.19679514536E+01  0.44557401014E+02  0.63149546823E+01  0.45045682043E+02  0.00000000000E+00 0. -1.
         11    1    3    3    0    0 -0.11535385949E+01 -0.89084369641E+01  0.68647852881E+00  0.90090040218E+01  0.51100000000E-03 0. -1.
        -11    1    3    3    0    0 -0.98682395116E+00 -0.53953454111E+01  0.15393570275E+01  0.56967704829E+01  0.51100000000E-03 0.  1.
        -12    1    3    3    0    0  0.17241109242E+00 -0.30253618639E+02 -0.85407902386E+01  0.31436543452E+02  0.00000000000E+00 0.  1.
</event>
<event>
 7    1  0.2227287E-008  0.4614232E+02  0.7816164E-02  0.1320468E+00
        -11   -1    0    0    0    0  0.00000000000E+00  0.00000000000E+00  0.45593999997E+02  0.45594000000E+02  0.51100000000E-03 0.  1.
         11   -1    0    0    0    0 -0.00000000000E+00 -0.00000000000E+00 -0.45593999997E+02  0.45594000000E+02  0.51100000000E-03 0. -1.
    9900012    2    1    2    0    0 -0.95764073486E+01  0.41913870908E+02  0.13439989134E+02  0.46142318075E+02  0.10000002858E+02 0.  0.
         12    1    1    2    0    0  0.95764073486E+01 -0.41913870908E+02 -0.13439989134E+02  0.45045681925E+02  0.00000000000E+00 0. -1.
         11    1    3    3    0    0 -0.53638329321E+01  0.27168650582E+02  0.11579307726E+02  0.30016439593E+02  0.51100000000E-03 0. -1.
        -11    1    3    3    0    0 -0.22885144580E+01  0.39096508730E+01  0.23628115270E+01  0.51093587608E+01  0.51100000000E-03 0.  1.
        -12    1    3    3    0    0 -0.19240599584E+01  0.10835569453E+02 -0.50213011917E+00  0.11016519720E+02  0.00000000000E+00 0.  1.
</event>
<event>
 7    1  0.2227287E-008  0.4614232E+02  0.7816164E-02  0.1320468E+00
        -11   -1    0    0    0    0  0.00000000000E+00  0.00000000000E+00  0.45593999997E+02  0.45594000000E+02  0.51100000000E-03 0.  1.
         11   -1    0    0    0    0 -0.00000000000E+00 -0.00000000000E+00 -0.45593999997E+02  0.45594000000E+02  0.51100000000E-03 0. -1.
    9900012    2    1    2    0    0  0.13913023738E+02  0.12267412113E+02  0.41049383023E+02  0.46142317898E+02  0.10000001249E+02 0.  0.
         12    1    1    2    0    0 -0.13913023738E+02 -0.12267412113E+02 -0.41049383023E+02  0.45045682102E+02  0.00000000000E+00 0. -1.
         11    1    3    3    0    0  0.77698008069E+01  0.33357297630E+01  0.15824028672E+02  0.17941482138E+02  0.51100000000E-03 0. -1.
        -11    1    3    3    0    0  0.72341418898E+01  0.59212717458E+01  0.17555579234E+02  0.19889510564E+02  0.51100000000E-03 0.  1.
         12    1    3    3    0    0 -0.10909189584E+01  0.30104106038E+01  0.76697751172E+01  0.83113251967E+01  0.00000000000E+00 0. -1.
</event>
<event>
 7    1  0.2227287E-008  0.4614232E+02  0.7816164E-02  0.1320468E+00
        -11   -1    0    0    0    0  0.00000000000E+00  0.00000000000E+00  0.45593999997E+02  0.45594000000E+02  0.51100000000E-03 0.  1.
         11   -1    0    0    0    0 -0.00000000000E+00 -0.00000000000E+00 -0.45593999997E+02  0.45594000000E+02  0.51100000000E-03 0. -1.
    9900012    2    1    2    0    0  0.41949903026E+02 -0.17288149689E+01  0.16319628577E+02  0.46142318276E+02  0.10000004692E+02 0.  0.
         12    1    1    2    0    0 -0.41949903026E+02  0.17288149689E+01 -0.16319628577E+02  0.45045681724E+02  0.00000000000E+00 0. -1.
         11    1    3    3    0    0  0.52445916158E+01  0.21283728688E+00  0.42090576664E+01  0.67280909348E+01  0.51100000000E-03 0. -1.
        -11    1    3    3    0    0  0.20755677403E+02  0.20782888099E+01  0.87801388995E+01  0.22632018650E+02  0.51100000000E-03 0.  1.
        -12    1    3    3    0    0  0.15949634008E+02 -0.40199410657E+01  0.33304320110E+01  0.16782208690E+02  0.00000000000E+00 0.  1.
</event>
<event>
 7    1  0.2227287E-008  0.4614232E+02  0.7816164E-02  0.1320468E+00
        -11   -1    0    0    0    0  0.00000000000E+00  0.00000000000E+00  0.45593999997E+02  0.45594000000E+02  0.51100000000E-03 0. -1.
         11   -1    0    0    0    0 -0.00000000000E+00 -0.00000000000E+00 -0.45593999997E+02  0.45594000000E+02  0.51100000000E-03 0.  1.
    9900012    2    1    2    0    0  0.30159246751E+02 -0.24909215994E+02 -0.22339746503E+02  0.46142317856E+02  0.10000000865E+02 0.  0.
         12    1    1    2    0    0 -0.30159246751E+02  0.24909215994E+02  0.22339746503E+02  0.45045682144E+02  0.00000000000E+00 0. -1.
         11    1    3    3    0    0  0.73957492965E+01 -0.63997877064E+01 -0.39638431092E+01  0.10553030029E+02  0.51100000000E-03 0. -1.
        -11    1    3    3    0    0  0.16764845638E+02 -0.15103706174E+02 -0.98470156188E+01  0.24620026529E+02  0.51100000000E-03 0.  1.
        -12    1    3    3    0    0  0.59986518166E+01 -0.34057221133E+01 -0.85288877753E+01  0.10969261298E+02  0.00000000000E+00 0.  1.
</event>
<event>
 7    1  0.2227287E-008  0.4614232E+02  0.7816164E-02  0.1320468E+00
        -11   -1    0    0    0    0  0.00000000000E+00  0.00000000000E+00  0.45593999997E+02  0.45594000000E+02  0.51100000000E-03 0.  1.
         11   -1    0    0    0    0 -0.00000000000E+00 -0.00000000000E+00 -0.45593999997E+02  0.45594000000E+02  0.51100000000E-03 0. -1.
    9900012    2    1    2    0    0  0.10021768971E+02 -0.43905769986E+02 -0.98034441294E+00  0.46142316893E+02  0.99999920879E+01 0.  0.
         12    1    1    2    0    0 -0.10021768971E+02  0.43905769986E+02  0.98034441294E+00  0.45045683107E+02  0.00000000000E+00 0. -1.
         11    1    3    3    0    0  0.29262917198E+01 -0.17411844086E+02  0.98152118289E+00  0.17683293862E+02  0.51100000000E-03 0.  1.
        -11    1    3    3    0    0  0.60426811330E+01 -0.20317916501E+02  0.15902432535E+01  0.21257012962E+02  0.51100000000E-03 0. -1.
         12    1    3    3    0    0  0.10527961182E+01 -0.61760093991E+01 -0.35521088493E+01  0.72020100696E+01  0.00000000000E+00 0. -1.
</event>
<event>
 7    1  0.2227287E-008  0.4614232E+02  0.7816164E-02  0.1320468E+00
        -11   -1    0    0    0    0  0.00000000000E+00  0.00000000000E+00  0.45593999997E+02  0.45594000000E+02  0.51100000000E-03 0.  1.
         11   -1    0    0    0    0 -0.00000000000E+00 -0.00000000000E+00 -0.45593999997E+02  0.45594000000E+02  0.51100000000E-03 0. -1.
    9900012    2    1    2    0    0  0.16629028974E+01 -0.30432271844E+02  0.33169639836E+02  0.46142318492E+02  0.10000006669E+02 0.  0.
         12    1    1    2    0    0 -0.16629028974E+01  0.30432271844E+02 -0.33169639836E+02  0.45045681508E+02  0.00000000000E+00 0. -1.
         11    1    3    3    0    0  0.29956678469E+00 -0.56388895545E+01  0.30978514890E+01  0.64407685702E+01  0.51100000000E-03 0. -1.
        -11    1    3    3    0    0  0.24752032566E+01 -0.40583097798E+01  0.31518296017E+01  0.57035549905E+01  0.51100000000E-03 0.  1.
         12    1    3    3    0    0 -0.11118671439E+01 -0.20735072510E+02  0.26919958745E+02  0.33997994932E+02  0.00000000000E+00 0. -1.
</event>
<event>
 7    1  0.2227287E-008  0.4614232E+02  0.7816164E-02  0.1320468E+00
        -11   -1    0    0    0    0  0.00000000000E+00  0.00000000000E+00  0.45593999997E+02  0.45594000000E+02  0.51100000000E-03 0.  1.
         11   -1    0    0    0    0 -0.00000000000E+00 -0.00000000000E+00 -0.45593999997E+02  0.45594000000E+02  0.51100000000E-03 0. -1.
    9900012    2    1    2    0    0  0.17308563737E+02  0.22708643973E+02  0.34840270242E+02  0.46142319627E+02  0.10000017016E+02 0.  0.
         12    1    1    2    0    0 -0.17308563737E+02 -0.22708643973E+02 -0.34840270242E+02  0.45045680373E+02  0.00000000000E+00 0. -1.
         11    1    3    3    0    0  0.37623313620E+01  0.77299276582E+01  0.13847559377E+02  0.16299135555E+02  0.51100000000E-03 0. -1.
        -11    1    3    3    0    0  0.88723611709E+01  0.12078615390E+02  0.18487190606E+02  0.23798906681E+02  0.51100000000E-03 0.  1.
         12    1    3    3    0    0  0.46738712041E+01  0.29001009246E+01  0.25055202596E+01  0.60442773908E+01  0.00000000000E+00 0. -1.
</event>
<event>
 7    1  0.2227287E-008  0.4614232E+02  0.7816164E-02  0.1320468E+00
        -11   -1    0    0    0    0  0.00000000000E+00  0.00000000000E+00  0.45593999997E+02  0.45594000000E+02  0.51100000000E-03 0.  1.
         11   -1    0    0    0    0 -0.00000000000E+00 -0.00000000000E+00 -0.45593999997E+02  0.45594000000E+02  0.51100000000E-03 0. -1.
    9900012    2    1    2    0    0 -0.28528425003E+02 -0.32290198143E+02  0.13137168889E+02  0.46142321676E+02  0.10000035701E+02 0.  0.
         12    1    1    2    0    0  0.28528425003E+02  0.32290198143E+02 -0.13137168889E+02  0.45045678324E+02  0.00000000000E+00 0. -1.
         11    1    3    3    0    0 -0.75172420057E+00 -0.14053717625E+00 -0.65559466773E+00  0.10072956870E+01  0.51100000000E-03 0. -1.
        -11    1    3    3    0    0 -0.10658200969E+02 -0.11265710969E+02  0.18847604464E+01  0.15622605856E+02  0.51100000000E-03 0.  1.
        -12    1    3    3    0    0 -0.17118499833E+02 -0.20883949998E+02  0.11908003110E+02  0.29512420133E+02  0.00000000000E+00 0.  1.
</event>
<event>
 7    1  0.2227287E-008  0.4614232E+02  0.7816164E-02  0.1320468E+00
        -11   -1    0    0    0    0  0.00000000000E+00  0.00000000000E+00  0.45593999997E+02  0.45594000000E+02  0.51100000000E-03 0.  1.
         11   -1    0    0    0    0 -0.00000000000E+00 -0.00000000000E+00 -0.45593999997E+02  0.45594000000E+02  0.51100000000E-03 0. -1.
    9900012    2    1    2    0    0  0.27596263423E+02  0.23280996437E+02  0.26936127522E+02  0.46142317456E+02  0.99999972141E+01 0.  0.
         12    1    1    2    0    0 -0.27596263423E+02 -0.23280996437E+02 -0.26936127522E+02  0.45045682544E+02  0.00000000000E+00 0. -1.
         11    1    3    3    0    0  0.86924249730E+01  0.64544090687E+01  0.74384196983E+01  0.13135742697E+02  0.51100000000E-03 0. -1.
        -11    1    3    3    0    0  0.18890049451E+02  0.13292682366E+02  0.16910723283E+02  0.28626944213E+02  0.51100000000E-03 0.  1.
         12    1    3    3    0    0  0.13788999002E-01  0.35339050027E+01  0.25869845403E+01  0.43796305456E+01  0.00000000000E+00 0. -1.
</event>
<event>
 7    1  0.2227287E-008  0.4614232E+02  0.7816164E-02  0.1320468E+00
        -11   -1    0    0    0    0  0.00000000000E+00  0.00000000000E+00  0.45593999997E+02  0.45594000000E+02  0.51100000000E-03 0.  1.
         11   -1    0    0    0    0 -0.00000000000E+00 -0.00000000000E+00 -0.45593999997E+02  0.45594000000E+02  0.51100000000E-03 0. -1.
    9900012    2    1    2    0    0  0.20529638242E+01  0.14765554446E+02  0.42507376700E+02  0.46142319492E+02  0.10000015781E+02 0.  0.
         12    1    1    2    0    0 -0.20529638242E+01 -0.14765554446E+02 -0.42507376700E+02  0.45045680508E+02  0.00000000000E+00 0. -1.
         11    1    3    3    0    0  0.20843420477E+01 -0.26845215172E+00  0.29715239237E+01  0.36395745658E+01  0.51100000000E-03 0. -1.
        -11    1    3    3    0    0 -0.30524184199E+00  0.14182550656E+01  0.83201195496E+01  0.84456503358E+01  0.51100000000E-03 0.  1.
         12    1    3    3    0    0  0.27386361853E+00  0.13615751532E+02  0.31215733226E+02  0.34057094590E+02  0.00000000000E+00 0. -1.
</event>
<event>
 7    1  0.2227287E-008  0.4614232E+02  0.7816164E-02  0.1320468E+00
        -11   -1    0    0    0    0  0.00000000000E+00  0.00000000000E+00  0.45593999997E+02  0.45594000000E+02  0.51100000000E-03 0. -1.
         11   -1    0    0    0    0 -0.00000000000E+00 -0.00000000000E+00 -0.45593999997E+02  0.45594000000E+02  0.51100000000E-03 0.  1.
    9900012    2    1    2    0    0  0.42383293409E+02 -0.14378515506E+02 -0.51017879841E+01  0.46142317533E+02  0.99999979163E+01 0.  0.
         12    1    1    2    0    0 -0.42383293409E+02  0.14378515506E+02  0.51017879841E+01  0.45045682467E+02  0.00000000000E+00 0. -1.
         11    1    3    3    0    0  0.10316397339E+02 -0.38846653300E+01  0.13385662715E+01  0.11104523345E+02  0.51100000000E-03 0. -1.
        -11    1    3    3    0    0  0.26112760199E+02 -0.92621177035E+01 -0.25596938774E+01  0.27824721069E+02  0.51100000000E-03 0.  1.
         12    1    3    3    0    0  0.59541358701E+01 -0.12317324722E+01 -0.38806603782E+01  0.72130731186E+01  0.00000000000E+00 0. -1.
</event>
<event>
 7    1  0.2227287E-008  0.4614232E+02  0.7816164E-02  0.1320468E+00
        -11   -1    0    0    0    0  0.00000000000E+00  0.00000000000E+00  0.45593999997E+02  0.45594000000E+02  0.51100000000E-03 0. -1.
         11   -1    0    0    0    0 -0.00000000000E+00 -0.00000000000E+00 -0.45593999997E+02  0.45594000000E+02  0.51100000000E-03 0.  1.
    9900012    2    1    2    0    0 -0.37392852167E+02  0.65298378190E+01  0.24253853127E+02  0.46142316892E+02  0.99999920761E+01 0.  0.
         12    1    1    2    0    0  0.37392852167E+02 -0.65298378190E+01 -0.24253853127E+02  0.45045683108E+02  0.00000000000E+00 0. -1.
         11    1    3    3    0    0 -0.26913362105E+02  0.57089581362E+01  0.20281636920E+02  0.34179907243E+02  0.51100000000E-03 0. -1.
        -11    1    3    3    0    0 -0.73035346589E+01 -0.13201279112E+01  0.30402039725E+01  0.80204237214E+01  0.51100000000E-03 0.  1.
         12    1    3    3    0    0 -0.31759554038E+01  0.21410075941E+01  0.93201223503E+00  0.39419859273E+01  0.00000000000E+00 0. -1.
</event>
<event>
 7    1  0.2227287E-008  0.4614232E+02  0.7816164E-02  0.1320468E+00
        -11   -1    0    0    0    0  0.00000000000E+00  0.00000000000E+00  0.45593999997E+02  0.45594000000E+02  0.51100000000E-03 0.  1.
         11   -1    0    0    0    0 -0.00000000000E+00 -0.00000000000E+00 -0.45593999997E+02  0.45594000000E+02  0.51100000000E-03 0. -1.
    9900012    2    1    2    0    0  0.26261756751E+02  0.27652910732E+02  0.23973947008E+02  0.46142317912E+02  0.10000001374E+02 0.  0.
         12    1    1    2    0    0 -0.26261756751E+02 -0.27652910732E+02 -0.23973947008E+02  0.45045682088E+02  0.00000000000E+00 0. -1.
         11    1    3    3    0    0  0.75463436943E+00 -0.40125023827E+00  0.64615975729E+00  0.10714464421E+01  0.51100000000E-03 0. -1.
        -11    1    3    3    0    0  0.24646576477E+02  0.26711811631E+02  0.23755470557E+02  0.43420006844E+02  0.51100000000E-03 0.  1.
        -12    1    3    3    0    0  0.86054590463E+00  0.13423493395E+01 -0.42768330586E+00  0.16508646260E+01  0.00000000000E+00 0.  1.
</event>
<event>
 7    1  0.2227287E-008  0.4614232E+02  0.7816164E-02  0.1320468E+00
        -11   -1    0    0    0    0  0.00000000000E+00  0.00000000000E+00  0.45593999997E+02  0.45594000000E+02  0.51100000000E-03 0.  1.
         11   -1    0    0    0    0 -0.00000000000E+00 -0.00000000000E+00 -0.45593999997E+02  0.45594000000E+02  0.51100000000E-03 0. -1.
    9900012    2    1    2    0    0 -0.30474164170E+02 -0.94063473476E+01  0.31811309639E+02  0.46142317929E+02  0.10000001531E+02 0.  0.
         12    1    1    2    0    0  0.30474164170E+02  0.94063473476E+01 -0.31811309639E+02  0.45045682071E+02  0.00000000000E+00 0. -1.
         11    1    3    3    0    0 -0.19967667905E+01  0.60811910857E+00  0.14825695266E+01  0.25602537234E+01  0.51100000000E-03 0. -1.
        -11    1    3    3    0    0 -0.55421187879E+01 -0.45702022059E+01  0.39212689165E+01  0.81840197360E+01  0.51100000000E-03 0.  1.
        -12    1    3    3    0    0 -0.22935278592E+02 -0.54442642502E+01  0.26407471196E+02  0.35398044470E+02  0.00000000000E+00 0.  1.
</event>
<event>
 7    1  0.2227287E-008  0.4614232E+02  0.7816164E-02  0.1320468E+00
        -11   -1    0    0    0    0  0.00000000000E+00  0.00000000000E+00  0.45593999997E+02  0.45594000000E+02  0.51100000000E-03 0. -1.
         11   -1    0    0    0    0 -0.00000000000E+00 -0.00000000000E+00 -0.45593999997E+02  0.45594000000E+02  0.51100000000E-03 0.  1.
    9900012    2    1    2    0    0  0.12677920521E+02 -0.34293296802E+02 -0.26312614694E+02  0.46142316896E+02  0.99999921143E+01 0.  0.
         12    1    1    2    0    0 -0.12677920521E+02  0.34293296802E+02  0.26312614694E+02  0.45045683104E+02  0.00000000000E+00 0. -1.
         11    1    3    3    0    0  0.12663385219E+01 -0.28981607429E+00 -0.13055655523E+01  0.18417677056E+01  0.51100000000E-03 0. -1.
        -11    1    3    3    0    0  0.53416608345E+01 -0.91346196597E+01 -0.10352953980E+02  0.14803995176E+02  0.51100000000E-03 0.  1.
        -12    1    3    3    0    0  0.60699211646E+01 -0.24868861068E+02 -0.14654095161E+02  0.29496554015E+02  0.00000000000E+00 0.  1.
</event>
<event>
 7    1  0.2227287E-008  0.4614232E+02  0.7816164E-02  0.1320468E+00
        -11   -1    0    0    0    0  0.00000000000E+00  0.00000000000E+00  0.45593999997E+02  0.45594000000E+02  0.51100000000E-03 0.  1.
         11   -1    0    0    0    0 -0.00000000000E+00 -0.00000000000E+00 -0.45593999997E+02  0.45594000000E+02  0.51100000000E-03 0. -1.
    9900012    2    1    2    0    0 -0.34767812508E+01  0.24750929255E+02  0.37475551241E+02  0.46142318213E+02  0.10000004119E+02 0.  0.
         12    1    1    2    0    0  0.34767812508E+01 -0.24750929255E+02 -0.37475551241E+02  0.45045681787E+02  0.00000000000E+00 0. -1.
         11    1    3    3    0    0 -0.49630013368E+01  0.12852886493E+02  0.23581266384E+02  0.27311246731E+02  0.51100000000E-03 0. -1.
        -11    1    3    3    0    0 -0.10430043361E+01  0.54436809471E+01  0.79954774916E+01  0.97287810582E+01  0.51100000000E-03 0.  1.
         12    1    3    3    0    0  0.25292244222E+01  0.64543618156E+01  0.58988073648E+01  0.91022904234E+01  0.00000000000E+00 0. -1.
</event>
<event>
 7    1  0.2227287E-008  0.4614232E+02  0.7816164E-02  0.1320468E+00
        -11   -1    0    0    0    0  0.00000000000E+00  0.00000000000E+00  0.45593999997E+02  0.45594000000E+02  0.51100000000E-03 0. -1.
         11   -1    0    0    0    0 -0.00000000000E+00 -0.00000000000E+00 -0.45593999997E+02  0.45594000000E+02  0.51100000000E-03 0.  1.
    9900012    2    1    2    0    0  0.38531680129E+02 -0.22016464644E+02  0.77264750365E+01  0.46142317571E+02  0.99999982693E+01 0.  0.
         12    1    1    2    0    0 -0.38531680129E+02  0.22016464644E+02 -0.77264750365E+01  0.45045682429E+02  0.00000000000E+00 0. -1.
         11    1    3    3    0    0  0.38144558883E+01 -0.14611311320E+00  0.11256549114E+01  0.39797640642E+01  0.51100000000E-03 0. -1.
        -11    1    3    3    0    0  0.11417574275E+02 -0.45397254304E+01 -0.39527061528E+00  0.12293345697E+02  0.51100000000E-03 0.  1.
        -12    1    3    3    0    0  0.23299649966E+02 -0.17330626100E+02  0.69960907404E+01  0.29869207810E+02  0.00000000000E+00 0.  1.
</event>
<event>
 7    1  0.2227287E-008  0.4614232E+02  0.7816164E-02  0.1320468E+00
        -11   -1    0    0    0    0  0.00000000000E+00  0.00000000000E+00  0.45593999997E+02  0.45594000000E+02  0.51100000000E-03 0. -1.
         11   -1    0    0    0    0 -0.00000000000E+00 -0.00000000000E+00 -0.45593999997E+02  0.45594000000E+02  0.51100000000E-03 0.  1.
    9900012    2    1    2    0    0  0.42306601284E+02 -0.15165058150E+02 -0.30473190080E+01  0.46142315922E+02  0.99999832301E+01 0.  0.
         12    1    1    2    0    0 -0.42306601284E+02  0.15165058150E+02  0.30473190080E+01  0.45045684078E+02  0.00000000000E+00 0. -1.
         11    1    3    3    0    0  0.24736982862E+02 -0.10196785043E+02 -0.97605217081E+00  0.26773969157E+02  0.51100000000E-03 0. -1.
        -11    1    3    3    0    0  0.16851275701E+02 -0.59259442943E+01 -0.12300012581E+01  0.17905172769E+02  0.51100000000E-03 0.  1.
         12    1    3    3    0    0  0.71834272162E+00  0.95767118736E+00 -0.84126557916E+00  0.14631739963E+01  0.00000000000E+00 0. -1.
</event>
<event>
 7    1  0.2227287E-008  0.4614232E+02  0.7816164E-02  0.1320468E+00
        -11   -1    0    0    0    0  0.00000000000E+00  0.00000000000E+00  0.45593999997E+02  0.45594000000E+02  0.51100000000E-03 0.  1.
         11   -1    0    0    0    0 -0.00000000000E+00 -0.00000000000E+00 -0.45593999997E+02  0.45594000000E+02  0.51100000000E-03 0. -1.
    9900012    2    1    2    0    0  0.16583603444E+01 -0.16818685389E+02  0.41755180987E+02  0.46142317893E+02  0.10000001201E+02 0.  0.
         12    1    1    2    0    0 -0.16583603444E+01  0.16818685389E+02 -0.41755180987E+02  0.45045682107E+02  0.00000000000E+00 0. -1.
         11    1    3    3    0    0 -0.92133854212E+00 -0.32538760124E+01  0.12980596282E+02  0.13413890335E+02  0.51100000000E-03 0. -1.
        -11    1    3    3    0    0  0.50743194175E+01 -0.10075682242E+02  0.20025759589E+02  0.22984758811E+02  0.51100000000E-03 0.  1.
         12    1    3    3    0    0 -0.24946205309E+01 -0.34891271345E+01  0.87488251151E+01  0.97436687469E+01  0.00000000000E+00 0. -1.
</event>
<event>
 7    1  0.2227287E-008  0.4614232E+02  0.7816164E-02  0.1320468E+00
        -11   -1    0    0    0    0  0.00000000000E+00  0.00000000000E+00  0.45593999997E+02  0.45594000000E+02  0.51100000000E-03 0.  1.
         11   -1    0    0    0    0 -0.00000000000E+00 -0.00000000000E+00 -0.45593999997E+02  0.45594000000E+02  0.51100000000E-03 0. -1.
    9900012    2    1    2    0    0 -0.11499133886E+02 -0.29518472330E+02  0.32024103436E+02  0.46142317746E+02  0.99999998668E+01 0.  0.
         12    1    1    2    0    0  0.11499133886E+02  0.29518472330E+02 -0.32024103436E+02  0.45045682254E+02  0.00000000000E+00 0. -1.
         11    1    3    3    0    0 -0.63846408853E+00 -0.25070288426E+01  0.58211139742E+01  0.63701018965E+01  0.51100000000E-03 0. -1.
        -11    1    3    3    0    0 -0.90746680583E+01 -0.13347601482E+02  0.14186724964E+02  0.21488862956E+02  0.51100000000E-03 0.  1.
         12    1    3    3    0    0 -0.17860017389E+01 -0.13663842005E+02  0.12016264498E+02  0.18283352894E+02  0.00000000000E+00 0. -1.
</event>
<event>
 7    1  0.2227287E-008  0.4614232E+02  0.7816164E-02  0.1320468E+00
        -11   -1    0    0    0    0  0.00000000000E+00  0.00000000000E+00  0.45593999997E+02  0.45594000000E+02  0.51100000000E-03 0.  1.
         11   -1    0    0    0    0 -0.00000000000E+00 -0.00000000000E+00 -0.45593999997E+02  0.45594000000E+02  0.51100000000E-03 0. -1.
    9900012    2    1    2    0    0 -0.22166648306E+02 -0.13816547522E+02  0.36699540725E+02  0.46142316833E+02  0.99999915394E+01 0.  0.
         12    1    1    2    0    0  0.22166648306E+02  0.13816547522E+02 -0.36699540725E+02  0.45045683167E+02  0.00000000000E+00 0. -1.
         11    1    3    3    0    0 -0.17086773684E+02 -0.12578217807E+02  0.30258448382E+02  0.36955961588E+02  0.51100000000E-03 0.  1.
        -11    1    3    3    0    0 -0.23603984421E+01 -0.25971334076E+01  0.34025312811E+01  0.48881286933E+01  0.51100000000E-03 0. -1.
        -12    1    3    3    0    0 -0.27194761795E+01  0.13588036929E+01  0.30385610621E+01  0.42982265523E+01  0.00000000000E+00 0.  1.
</event>
<event>
 7    1  0.2227287E-008  0.4614231E+02  0.7816164E-02  0.1320468E+00
        -11   -1    0    0    0    0  0.00000000000E+00  0.00000000000E+00  0.45593999997E+02  0.45594000000E+02  0.51100000000E-03 0.  1.
         11   -1    0    0    0    0 -0.00000000000E+00 -0.00000000000E+00 -0.45593999997E+02  0.45594000000E+02  0.51100000000E-03 0. -1.
    9900012    2    1    2    0    0 -0.98271155242E+01 -0.34290747875E+02  0.27507943847E+02  0.46142305821E+02  0.99998911234E+01 0.  0.
         12    1    1    2    0    0  0.98271155242E+01  0.34290747875E+02 -0.27507943847E+02  0.45045694179E+02  0.00000000000E+00 0. -1.
         11    1    3    3    0    0 -0.70258143139E+01 -0.14413886770E+02  0.91535308086E+01  0.18463729989E+02  0.51100000000E-03 0. -1.
        -11    1    3    3    0    0 -0.42418767696E+01 -0.16655172629E+02  0.15357633072E+02  0.23048756749E+02  0.51100000000E-03 0.  1.
        -12    1    3    3    0    0  0.14405755593E+01 -0.32216884771E+01  0.29967799655E+01  0.46298190836E+01  0.00000000000E+00 0.  1.
</event>
<event>
 7    1  0.2227287E-008  0.4614232E+02  0.7816164E-02  0.1320468E+00
        -11   -1    0    0    0    0  0.00000000000E+00  0.00000000000E+00  0.45593999997E+02  0.45594000000E+02  0.51100000000E-03 0. -1.
         11   -1    0    0    0    0 -0.00000000000E+00 -0.00000000000E+00 -0.45593999997E+02  0.45594000000E+02  0.51100000000E-03 0.  1.
    9900012    2    1    2    0    0  0.25788972353E+02 -0.94305393229E+01 -0.35708640666E+02  0.46142321127E+02  0.10000030691E+02 0.  0.
         12    1    1    2    0    0 -0.25788972353E+02  0.94305393229E+01  0.35708640666E+02  0.45045678873E+02  0.00000000000E+00 0. -1.
         11    1    3    3    0    0  0.15486011869E+02 -0.25435833629E+01 -0.23662954406E+02  0.28394044999E+02  0.51100000000E-03 0. -1.
        -11    1    3    3    0    0  0.66160061210E+01 -0.43320843893E+01 -0.10178471651E+02  0.12889522006E+02  0.51100000000E-03 0.  1.
        -12    1    3    3    0    0  0.36869543630E+01 -0.25548715706E+01 -0.18672146098E+01  0.48587541218E+01  0.00000000000E+00 0.  1.
</event>
<event>
 7    1  0.2227287E-008  0.4614232E+02  0.7816164E-02  0.1320468E+00
        -11   -1    0    0    0    0  0.00000000000E+00  0.00000000000E+00  0.45593999997E+02  0.45594000000E+02  0.51100000000E-03 0.  1.
         11   -1    0    0    0    0 -0.00000000000E+00 -0.00000000000E+00 -0.45593999997E+02  0.45594000000E+02  0.51100000000E-03 0. -1.
    9900012    2    1    2    0    0  0.15022412706E+02 -0.14854471566E+02  0.39784234454E+02  0.46142317409E+02  0.99999967885E+01 0.  0.
         12    1    1    2    0    0 -0.15022412706E+02  0.14854471566E+02 -0.39784234454E+02  0.45045682591E+02  0.00000000000E+00 0. -1.
         11    1    3    3    0    0  0.82983148129E+01 -0.75908678545E+01  0.14763246720E+02  0.18559007449E+02  0.51100000000E-03 0. -1.
        -11    1    3    3    0    0  0.76726616364E+01 -0.67561552722E+01  0.24055737871E+02  0.26137978029E+02  0.51100000000E-03 0.  1.
        -12    1    3    3    0    0 -0.94856374314E+00 -0.50744843970E+00  0.96524986269E+00  0.14453319311E+01  0.00000000000E+00 0.  1.
</event>
<event>
 7    1  0.2227287E-008  0.4614232E+02  0.7816164E-02  0.1320468E+00
        -11   -1    0    0    0    0  0.00000000000E+00  0.00000000000E+00  0.45593999997E+02  0.45594000000E+02  0.51100000000E-03 0. -1.
         11   -1    0    0    0    0 -0.00000000000E+00 -0.00000000000E+00 -0.45593999997E+02  0.45594000000E+02  0.51100000000E-03 0.  1.
    9900012    2    1    2    0    0 -0.34287975038E+02 -0.18991323406E+02 -0.22198592355E+02  0.46142322078E+02  0.10000039365E+02 0.  0.
         12    1    1    2    0    0  0.34287975038E+02  0.18991323406E+02  0.22198592355E+02  0.45045677922E+02  0.00000000000E+00 0. -1.
         11    1    3    3    0    0 -0.39279107740E+01 -0.44558917038E+00 -0.55053891036E+01  0.67776354431E+01  0.51100000000E-03 0. -1.
        -11    1    3    3    0    0 -0.10472343367E+02 -0.60002828332E+01 -0.45354105105E+01  0.12893537855E+02  0.51100000000E-03 0.  1.
         12    1    3    3    0    0 -0.19887720897E+02 -0.12545451402E+02 -0.12157792741E+02  0.26471148779E+02  0.00000000000E+00 0. -1.
</event>
<event>
 7    1  0.2227287E-008  0.4614232E+02  0.7816164E-02  0.1320468E+00
        -11   -1    0    0    0    0  0.00000000000E+00  0.00000000000E+00  0.45593999997E+02  0.45594000000E+02  0.51100000000E-03 0.  1.
         11   -1    0    0    0    0 -0.00000000000E+00 -0.00000000000E+00 -0.45593999997E+02  0.45594000000E+02  0.51100000000E-03 0. -1.
    9900012    2    1    2    0    0 -0.12493264505E+02  0.10874272290E+02  0.41890121513E+02  0.46142315010E+02  0.99999749157E+01 0.  0.
         12    1    1    2    0    0  0.12493264505E+02 -0.10874272290E+02 -0.41890121513E+02  0.45045684990E+02  0.00000000000E+00 0. -1.
         11    1    3    3    0    0 -0.74608511029E+01  0.38130203122E+00  0.19697899194E+02  0.21066962841E+02  0.51100000000E-03 0. -1.
        -11    1    3    3    0    0 -0.12632277109E+00  0.62972839242E+00  0.95242982407E+00  0.11487550312E+01  0.51100000000E-03 0.  1.
         12    1    3    3    0    0 -0.49060906314E+01  0.98632418666E+01  0.21239792494E+02  0.23926597138E+02  0.00000000000E+00 0. -1.
</event>
<event>
 7    1  0.2227287E-008  0.4614232E+02  0.7816164E-02  0.1320468E+00
        -11   -1    0    0    0    0  0.00000000000E+00  0.00000000000E+00  0.45593999997E+02  0.45594000000E+02  0.51100000000E-03 0. -1.
         11   -1    0    0    0    0 -0.00000000000E+00 -0.00000000000E+00 -0.45593999997E+02  0.45594000000E+02  0.51100000000E-03 0.  1.
    9900012    2    1    2    0    0  0.22373519551E+02  0.37467599556E+02 -0.11167725443E+02  0.46142317796E+02  0.10000000322E+02 0.  0.
         12    1    1    2    0    0 -0.22373519551E+02 -0.37467599556E+02  0.11167725443E+02  0.45045682204E+02  0.00000000000E+00 0. -1.
         11    1    3    3    0    0  0.13269290298E+02  0.16739265612E+02 -0.16857241669E+01  0.21427056364E+02  0.51100000000E-03 0.  1.
        -11    1    3    3    0    0 -0.16560072054E+00  0.74553325618E-01 -0.11705791781E+00  0.21606622653E+00  0.51100000000E-03 0. -1.
        -12    1    3    3    0    0  0.92698299740E+01  0.20653780619E+02 -0.93649433588E+01  0.24499195205E+02  0.00000000000E+00 0.  1.
</event>
<event>
 7    1  0.2227287E-008  0.4614232E+02  0.7816164E-02  0.1320468E+00
        -11   -1    0    0    0    0  0.00000000000E+00  0.00000000000E+00  0.45593999997E+02  0.45594000000E+02  0.51100000000E-03 0. -1.
         11   -1    0    0    0    0 -0.00000000000E+00 -0.00000000000E+00 -0.45593999997E+02  0.45594000000E+02  0.51100000000E-03 0.  1.
    9900012    2    1    2    0    0 -0.27648044260E+02 -0.33014210609E+02 -0.13219724895E+02  0.46142316745E+02  0.99999907369E+01 0.  0.
         12    1    1    2    0    0  0.27648044260E+02  0.33014210609E+02  0.13219724895E+02  0.45045683255E+02  0.00000000000E+00 0. -1.
         11    1    3    3    0    0 -0.19408891241E+01 -0.34980574703E+01 -0.13864566968E+01  0.42338775479E+01  0.51100000000E-03 0.  1.
        -11    1    3    3    0    0 -0.19500934998E+02 -0.21974112203E+02 -0.45612737857E+01  0.29731352000E+02  0.51100000000E-03 0. -1.
         12    1    3    3    0    0 -0.62062201383E+01 -0.75420409355E+01 -0.72719944128E+01  0.12177087198E+02  0.00000000000E+00 0. -1.
</event>
<event>
 7    1  0.2227287E-008  0.4614232E+02  0.7816164E-02  0.1320468E+00
        -11   -1    0    0    0    0  0.00000000000E+00  0.00000000000E+00  0.45593999997E+02  0.45594000000E+02  0.51100000000E-03 0.  1.
         11   -1    0    0    0    0 -0.00000000000E+00 -0.00000000000E+00 -0.45593999997E+02  0.45594000000E+02  0.51100000000E-03 0. -1.
    9900012    2    1    2    0    0 -0.44999100019E+02 -0.17906797453E+00  0.20400983230E+01  0.46142322415E+02  0.10000042442E+02 0.  0.
         12    1    1    2    0    0  0.44999100019E+02  0.17906797453E+00 -0.20400983230E+01  0.45045677585E+02  0.00000000000E+00 0. -1.
         11    1    3    3    0    0 -0.23729900144E+02 -0.39051665474E+01  0.39244265499E+01  0.24367183067E+02  0.51100000000E-03 0. -1.
        -11    1    3    3    0    0 -0.16359064856E+02  0.33469640032E+01 -0.71378033207E+00  0.16713188015E+02  0.51100000000E-03 0.  1.
         12    1    3    3    0    0 -0.49101350192E+01  0.37913456967E+00 -0.11705478948E+01  0.50619513335E+01  0.00000000000E+00 0. -1.
</event>
<event>
 7    1  0.2227287E-008  0.4614232E+02  0.7816164E-02  0.1320468E+00
        -11   -1    0    0    0    0  0.00000000000E+00  0.00000000000E+00  0.45593999997E+02  0.45594000000E+02  0.51100000000E-03 0. -1.
         11   -1    0    0    0    0 -0.00000000000E+00 -0.00000000000E+00 -0.45593999997E+02  0.45594000000E+02  0.51100000000E-03 0.  1.
    9900012    2    1    2    0    0 -0.22872354539E+02  0.23927191109E+02 -0.30552549569E+02  0.46142319167E+02  0.10000012817E+02 0.  0.
         12    1    1    2    0    0  0.22872354539E+02 -0.23927191109E+02  0.30552549569E+02  0.45045680833E+02  0.00000000000E+00 0. -1.
         11    1    3    3    0    0 -0.12393771242E+01  0.40748456306E+01 -0.25468672241E+01  0.49625553385E+01  0.51100000000E-03 0. -1.
        -11    1    3    3    0    0 -0.36841484219E+01  0.55551736324E+01 -0.32207774699E+01  0.74031284909E+01  0.51100000000E-03 0.  1.
        -12    1    3    3    0    0 -0.17948828993E+02  0.14297171846E+02 -0.24784904875E+02  0.33776635337E+02  0.00000000000E+00 0.  1.
</event>
<event>
 7    1  0.2227287E-008  0.4614232E+02  0.7816164E-02  0.1320468E+00
        -11   -1    0    0    0    0  0.00000000000E+00  0.00000000000E+00  0.45593999997E+02  0.45594000000E+02  0.51100000000E-03 0. -1.
         11   -1    0    0    0    0 -0.00000000000E+00 -0.00000000000E+00 -0.45593999997E+02  0.45594000000E+02  0.51100000000E-03 0.  1.
    9900012    2    1    2    0    0 -0.34230222307E+01  0.39086449032E+02 -0.22127945932E+02  0.46142316852E+02  0.99999917089E+01 0.  0.
         12    1    1    2    0    0  0.34230222307E+01 -0.39086449032E+02  0.22127945932E+02  0.45045683148E+02  0.00000000000E+00 0. -1.
         11    1    3    3    0    0 -0.17052576443E+01  0.54181894463E+01 -0.37788714263E+01  0.68223566330E+01  0.51100000000E-03 0. -1.
        -11    1    3    3    0    0 -0.24814892940E+01  0.33800495738E+02 -0.18359478990E+02  0.38544802117E+02  0.51100000000E-03 0.  1.
         12    1    3    3    0    0  0.76372470758E+00 -0.13223615227E+00  0.10404484105E-01  0.77515810144E+00  0.00000000000E+00 0. -1.
</event>
<event>
 7    1  0.2227287E-008  0.4614232E+02  0.7816164E-02  0.1320468E+00
        -11   -1    0    0    0    0  0.00000000000E+00  0.00000000000E+00  0.45593999997E+02  0.45594000000E+02  0.51100000000E-03 0.  1.
         11   -1    0    0    0    0 -0.00000000000E+00 -0.00000000000E+00 -0.45593999997E+02  0.45594000000E+02  0.51100000000E-03 0. -1.
    9900012    2    1    2    0    0 -0.23623199752E+02  0.13761613490E+02  0.35800501535E+02  0.46142317826E+02  0.10000000588E+02 0.  0.
         12    1    1    2    0    0  0.23623199752E+02 -0.13761613490E+02 -0.35800501535E+02  0.45045682174E+02  0.00000000000E+00 0. -1.
         11    1    3    3    0    0 -0.45201682455E+00  0.57852085629E+00  0.55410564794E+01  0.55894823338E+01  0.51100000000E-03 0. -1.
        -11    1    3    3    0    0 -0.73412828610E+01  0.49962864014E+01  0.73469847745E+01  0.11525428295E+02  0.51100000000E-03 0.  1.
         12    1    3    3    0    0 -0.15829900066E+02  0.81868062327E+01  0.22912460281E+02  0.29027407196E+02  0.00000000000E+00 0. -1.
</event>
<event>
 7    1  0.2227287E-008  0.4614232E+02  0.7816164E-02  0.1320468E+00
        -11   -1    0    0    0    0  0.00000000000E+00  0.00000000000E+00  0.45593999997E+02  0.45594000000E+02  0.51100000000E-03 0.  1.
         11   -1    0    0    0    0 -0.00000000000E+00 -0.00000000000E+00 -0.45593999997E+02  0.45594000000E+02  0.51100000000E-03 0. -1.
    9900012    2    1    2    0    0 -0.26956121370E+02  0.35872525739E+02  0.39551115721E+01  0.46142317745E+02  0.99999998570E+01 0.  0.
         12    1    1    2    0    0  0.26956121370E+02 -0.35872525739E+02 -0.39551115721E+01  0.45045682255E+02  0.00000000000E+00 0. -1.
         11    1    3    3    0    0 -0.77194656828E+00  0.89052670782E+00 -0.55315473906E+00  0.13018908357E+01  0.51100000000E-03 0. -1.
        -11    1    3    3    0    0 -0.25596102601E+02  0.35280243574E+02  0.36244891081E+01  0.43737775167E+02  0.51100000000E-03 0.  1.
        -12    1    3    3    0    0 -0.58807220160E+00 -0.29824454287E+00  0.88377720306E+00  0.11026517430E+01  0.00000000000E+00 0.  1.
</event>
<event>
 7    1  0.2227287E-008  0.4614232E+02  0.7816164E-02  0.1320468E+00
        -11   -1    0    0    0    0  0.00000000000E+00  0.00000000000E+00  0.45593999997E+02  0.45594000000E+02  0.51100000000E-03 0. -1.
         11   -1    0    0    0    0 -0.00000000000E+00 -0.00000000000E+00 -0.45593999997E+02  0.45594000000E+02  0.51100000000E-03 0.  1.
    9900012    2    1    2    0    0  0.32899069373E+02 -0.30038817799E+02  0.66658906485E+01  0.46142318315E+02  0.10000005050E+02 0.  0.
         12    1    1    2    0    0 -0.32899069373E+02  0.30038817799E+02 -0.66658906485E+01  0.45045681685E+02  0.00000000000E+00 0. -1.
         11    1    3    3    0    0  0.29227442147E+01 -0.37662964532E+01  0.32081915890E+01  0.57462958722E+01  0.51100000000E-03 0. -1.
        -11    1    3    3    0    0  0.82315616542E+01 -0.71488963890E+01 -0.15382776614E+01  0.11010523388E+02  0.51100000000E-03 0.  1.
        -12    1    3    3    0    0  0.21744763504E+02 -0.19123624957E+02  0.49959767208E+01  0.29385499055E+02  0.00000000000E+00 0.  1.
</event>
<event>
 7    1  0.2227287E-008  0.4614232E+02  0.7816164E-02  0.1320468E+00
        -11   -1    0    0    0    0  0.00000000000E+00  0.00000000000E+00  0.45593999997E+02  0.45594000000E+02  0.51100000000E-03 0.  1.
         11   -1    0    0    0    0 -0.00000000000E+00 -0.00000000000E+00 -0.45593999997E+02  0.45594000000E+02  0.51100000000E-03 0. -1.
    9900012    2    1    2    0    0  0.32056522381E+02 -0.18894097849E+02  0.25387121065E+02  0.46142317892E+02  0.10000001189E+02 0.  0.
         12    1    1    2    0    0 -0.32056522381E+02  0.18894097849E+02 -0.25387121065E+02  0.45045682108E+02  0.00000000000E+00 0. -1.
         11    1    3    3    0    0  0.50589960038E+01 -0.36530067746E+01  0.41018070746E+01  0.74674440473E+01  0.51100000000E-03 0.  1.
        -11    1    3    3    0    0  0.47313700724E+01 -0.69473122906E+01  0.70936633874E+01  0.10998684982E+02  0.51100000000E-03 0. -1.
         12    1    3    3    0    0  0.22266156304E+02 -0.82937787833E+01  0.14191650603E+02  0.27676188862E+02  0.00000000000E+00 0. -1.
</event>
<event>
 7    1  0.2227287E-008  0.4614232E+02  0.7816164E-02  0.1320468E+00
        -11   -1    0    0    0    0  0.00000000000E+00  0.00000000000E+00  0.45593999997E+02  0.45594000000E+02  0.51100000000E-03 0.  1.
         11   -1    0    0    0    0 -0.00000000000E+00 -0.00000000000E+00 -0.45593999997E+02  0.45594000000E+02  0.51100000000E-03 0. -1.
    9900012    2    1    2    0    0  0.17673634369E+02 -0.28008700811E+02  0.30533076788E+02  0.46142318175E+02  0.10000003777E+02 0.  0.
         12    1    1    2    0    0 -0.17673634369E+02  0.28008700811E+02 -0.30533076788E+02  0.45045681825E+02  0.00000000000E+00 0. -1.
         11    1    3    3    0    0  0.17751722213E+01 -0.78627549636E+01  0.45046798964E+01  0.92339749438E+01  0.51100000000E-03 0. -1.
        -11    1    3    3    0    0  0.31106508372E+01 -0.74681956493E+01  0.93484735245E+01  0.12363011461E+02  0.51100000000E-03 0.  1.
        -12    1    3    3    0    0  0.12787811311E+02 -0.12677750198E+02  0.16679923367E+02  0.24545331770E+02  0.00000000000E+00 0.  1.
</event>
<event>
 7    1  0.2227287E-008  0.4614232E+02  0.7816164E-02  0.1320468E+00
        -11   -1    0    0    0    0  0.00000000000E+00  0.00000000000E+00  0.45593999997E+02  0.45594000000E+02  0.51100000000E-03 0.  1.
         11   -1    0    0    0    0 -0.00000000000E+00 -0.00000000000E+00 -0.45593999997E+02  0.45594000000E+02  0.51100000000E-03 0. -1.
    9900012    2    1    2    0    0  0.19179072687E+02  0.10727370023E+02  0.39321753024E+02  0.46142316993E+02  0.99999929922E+01 0.  0.
         12    1    1    2    0    0 -0.19179072687E+02 -0.10727370023E+02 -0.39321753024E+02  0.45045683007E+02  0.00000000000E+00 0. -1.
         11    1    3    3    0    0  0.15105624223E+02  0.73232273607E+01  0.32796809695E+02  0.36843456252E+02  0.51100000000E-03 0.  1.
        -11    1    3    3    0    0  0.47653036353E+01  0.29371669346E+01  0.47657928226E+01  0.73517242758E+01  0.51100000000E-03 0. -1.
        -12    1    3    3    0    0 -0.69185517201E+00  0.46697572809E+00  0.17591505060E+01  0.19471364648E+01  0.00000000000E+00 0.  1.
</event>
<event>
 7    1  0.2227287E-008  0.4614232E+02  0.7816164E-02  0.1320468E+00
        -11   -1    0    0    0    0  0.00000000000E+00  0.00000000000E+00  0.45593999997E+02  0.45594000000E+02  0.51100000000E-03 0.  1.
         11   -1    0    0    0    0 -0.00000000000E+00 -0.00000000000E+00 -0.45593999997E+02  0.45594000000E+02  0.51100000000E-03 0. -1.
    9900012    2    1    2    0    0  0.58159747089E+01  0.15826831159E+01  0.44640596203E+02  0.46142320107E+02  0.10000021395E+02 0.  0.
         12    1    1    2    0    0 -0.58159747089E+01 -0.15826831159E+01 -0.44640596203E+02  0.45045679893E+02  0.00000000000E+00 0. -1.
         11    1    3    3    0    0 -0.24612961746E+01  0.20734720510E+00  0.82203632838E+01  0.85834343070E+01  0.51100000000E-03 0. -1.
        -11    1    3    3    0    0  0.29138318642E+01  0.11725140722E+01  0.20947679267E+02  0.21181842987E+02  0.51100000000E-03 0.  1.
        -12    1    3    3    0    0  0.53634390193E+01  0.20282183867E+00  0.15472553652E+02  0.16377042814E+02  0.00000000000E+00 0.  1.
</event>
<event>
 7    1  0.2227287E-008  0.4614232E+02  0.7816164E-02  0.1320468E+00
        -11   -1    0    0    0    0  0.00000000000E+00  0.00000000000E+00  0.45593999997E+02  0.45594000000E+02  0.51100000000E-03 0. -1.
         11   -1    0    0    0    0 -0.00000000000E+00 -0.00000000000E+00 -0.45593999997E+02  0.45594000000E+02  0.51100000000E-03 0.  1.
    9900012    2    1    2    0    0 -0.33499770751E+02  0.23796455954E+02 -0.18455539247E+02  0.46142324456E+02  0.10000061046E+02 0.  0.
         12    1    1    2    0    0  0.33499770751E+02 -0.23796455954E+02  0.18455539247E+02  0.45045675544E+02  0.00000000000E+00 0. -1.
         11    1    3    3    0    0  0.17192495172E+00 -0.11956951245E+00  0.34777385913E+00  0.40595809580E+00  0.51100000000E-03 0. -1.
        -11    1    3    3    0    0 -0.84994353777E+01  0.69408134412E+01 -0.24206625047E+01  0.11237210516E+02  0.51100000000E-03 0.  1.
         12    1    3    3    0    0 -0.25172260325E+02  0.16975212025E+02 -0.16382650602E+02  0.34499155843E+02  0.00000000000E+00 0. -1.
</event>
<event>
 7    1  0.2227287E-008  0.4614231E+02  0.7816164E-02  0.1320468E+00
        -11   -1    0    0    0    0  0.00000000000E+00  0.00000000000E+00  0.45593999997E+02  0.45594000000E+02  0.51100000000E-03 0.  1.
         11   -1    0    0    0    0 -0.00000000000E+00 -0.00000000000E+00 -0.45593999997E+02  0.45594000000E+02  0.51100000000E-03 0. -1.
    9900012    2    1    2    0    0 -0.10254551867E+02 -0.96675110593E+01  0.42784311965E+02  0.46142312588E+02  0.99999528261E+01 0.  0.
         12    1    1    2    0    0  0.10254551867E+02  0.96675110593E+01 -0.42784311965E+02  0.45045687412E+02  0.00000000000E+00 0. -1.
         11    1    3    3    0    0 -0.62866590781E+01 -0.27675060574E+01  0.14398933741E+02  0.15953384133E+02  0.51100000000E-03 0. -1.
        -11    1    3    3    0    0  0.15666091042E+01 -0.19826696317E+01  0.11114498446E+02  0.11398127869E+02  0.51100000000E-03 0.  1.
        -12    1    3    3    0    0 -0.55345018933E+01 -0.49173353702E+01  0.17270879778E+02  0.18790800586E+02  0.00000000000E+00 0.  1.
</event>
<event>
 7    1  0.2227287E-008  0.4614232E+02  0.7816164E-02  0.1320468E+00
        -11   -1    0    0    0    0  0.00000000000E+00  0.00000000000E+00  0.45593999997E+02  0.45594000000E+02  0.51100000000E-03 0.  1.
         11   -1    0    0    0    0 -0.00000000000E+00 -0.00000000000E+00 -0.45593999997E+02  0.45594000000E+02  0.51100000000E-03 0. -1.
    9900012    2    1    2    0    0  0.91388861654E+01 -0.41916479258E+02  0.13733281819E+02  0.46142317596E+02  0.99999984934E+01 0.  0.
         12    1    1    2    0    0 -0.91388861654E+01  0.41916479258E+02 -0.13733281819E+02  0.45045682404E+02  0.00000000000E+00 0. -1.
         11    1    3    3    0    0  0.51738928335E+01 -0.22989117413E+02  0.30509832489E+01  0.23760833014E+02  0.51100000000E-03 0. -1.
        -11    1    3    3    0    0  0.10913863648E+01 -0.34470235256E+01  0.36497718795E+01  0.51375023520E+01  0.51100000000E-03 0.  1.
        -12    1    3    3    0    0  0.28736069670E+01 -0.15480338319E+02  0.70325266905E+01  0.17243982230E+02  0.00000000000E+00 0.  1.
</event>
<event>
 7    1  0.2227287E-008  0.4614232E+02  0.7816164E-02  0.1320468E+00
        -11   -1    0    0    0    0  0.00000000000E+00  0.00000000000E+00  0.45593999997E+02  0.45594000000E+02  0.51100000000E-03 0.  1.
         11   -1    0    0    0    0 -0.00000000000E+00 -0.00000000000E+00 -0.45593999997E+02  0.45594000000E+02  0.51100000000E-03 0. -1.
    9900012    2    1    2    0    0 -0.41452471536E+02 -0.10368422383E+02  0.14258399282E+02  0.46142317308E+02  0.99999958645E+01 0.  0.
         12    1    1    2    0    0  0.41452471536E+02  0.10368422383E+02 -0.14258399282E+02  0.45045682692E+02  0.00000000000E+00 0. -1.
         11    1    3    3    0    0 -0.21606932449E+02 -0.29744336502E+01  0.89617055754E+01  0.23580054124E+02  0.51100000000E-03 0.  1.
        -11    1    3    3    0    0 -0.11484055775E+02 -0.56052996634E+01  0.57208047257E+01  0.14001090255E+02  0.51100000000E-03 0. -1.
        -12    1    3    3    0    0 -0.83614833113E+01 -0.17886890698E+01 -0.42411101928E+00  0.85611729284E+01  0.00000000000E+00 0.  1.
</event>
<event>
 7    1  0.2227287E-008  0.4614232E+02  0.7816164E-02  0.1320468E+00
        -11   -1    0    0    0    0  0.00000000000E+00  0.00000000000E+00  0.45593999997E+02  0.45594000000E+02  0.51100000000E-03 0.  1.
         11   -1    0    0    0    0 -0.00000000000E+00 -0.00000000000E+00 -0.45593999997E+02  0.45594000000E+02  0.51100000000E-03 0. -1.
    9900012    2    1    2    0    0 -0.30633887907E+02  0.43734285544E-01  0.33025391594E+02  0.46142317733E+02  0.99999997417E+01 0.  0.
         12    1    1    2    0    0  0.30633887907E+02 -0.43734285544E-01 -0.33025391594E+02  0.45045682267E+02  0.00000000000E+00 0. -1.
         11    1    3    3    0    0 -0.62806760340E+01 -0.26589251491E+01  0.69216676425E+01  0.97173174079E+01  0.51100000000E-03 0. -1.
        -11    1    3    3    0    0 -0.15396329635E+02  0.12873309572E+01  0.20831846608E+02  0.25935882876E+02  0.51100000000E-03 0.  1.
        -12    1    3    3    0    0 -0.89568822378E+01  0.14153284774E+01  0.52718773437E+01  0.10489117449E+02  0.00000000000E+00 0.  1.
</event>
<event>
 7    1  0.2227287E-008  0.4614232E+02  0.7816164E-02  0.1320468E+00
        -11   -1    0    0    0    0  0.00000000000E+00  0.00000000000E+00  0.45593999997E+02  0.45594000000E+02  0.51100000000E-03 0.  1.
         11   -1    0    0    0    0 -0.00000000000E+00 -0.00000000000E+00 -0.45593999997E+02  0.45594000000E+02  0.51100000000E-03 0. -1.
    9900012    2    1    2    0    0  0.18760627611E+02 -0.21052186137E+02  0.35127736026E+02  0.46142317323E+02  0.99999960091E+01 0.  0.
         12    1    1    2    0    0 -0.18760627611E+02  0.21052186137E+02 -0.35127736026E+02  0.45045682677E+02  0.00000000000E+00 0. -1.
         11    1    3    3    0    0  0.10588156449E+02 -0.98437609153E+01  0.23070661236E+02  0.27226165651E+02  0.51100000000E-03 0. -1.
        -11    1    3    3    0    0  0.13816192802E+01 -0.55760729029E+01  0.44451498824E+01  0.72636642675E+01  0.51100000000E-03 0.  1.
         12    1    3    3    0    0  0.67908518812E+01 -0.56323523187E+01  0.76119249077E+01  0.11652487405E+02  0.00000000000E+00 0. -1.
</event>
<event>
 7    1  0.2227287E-008  0.4614232E+02  0.7816164E-02  0.1320468E+00
        -11   -1    0    0    0    0  0.00000000000E+00  0.00000000000E+00  0.45593999997E+02  0.45594000000E+02  0.51100000000E-03 0.  1.
         11   -1    0    0    0    0 -0.00000000000E+00 -0.00000000000E+00 -0.45593999997E+02  0.45594000000E+02  0.51100000000E-03 0. -1.
    9900012    2    1    2    0    0 -0.36277855560E+02  0.14543316660E+02  0.22394701408E+02  0.46142317469E+02  0.99999973331E+01 0.  0.
         12    1    1    2    0    0  0.36277855560E+02 -0.14543316660E+02 -0.22394701408E+02  0.45045682531E+02  0.00000000000E+00 0. -1.
         11    1    3    3    0    0 -0.10096539313E+02  0.63997724761E+00  0.64853399443E+01  0.12017042541E+02  0.51100000000E-03 0. -1.
        -11    1    3    3    0    0 -0.18547561629E+02  0.10883819389E+02  0.14110906155E+02  0.25721338217E+02  0.51100000000E-03 0.  1.
         12    1    3    3    0    0 -0.76337546181E+01  0.30195200242E+01  0.17984553091E+01  0.84039367111E+01  0.00000000000E+00 0. -1.
</event>
<event>
 7    1  0.2227287E-008  0.4614232E+02  0.7816164E-02  0.1320468E+00
        -11   -1    0    0    0    0  0.00000000000E+00  0.00000000000E+00  0.45593999997E+02  0.45594000000E+02  0.51100000000E-03 0.  1.
         11   -1    0    0    0    0 -0.00000000000E+00 -0.00000000000E+00 -0.45593999997E+02  0.45594000000E+02  0.51100000000E-03 0. -1.
    9900012    2    1    2    0    0  0.23614918783E+02 -0.20997511617E+02  0.32102237212E+02  0.46142317440E+02  0.99999970757E+01 0.  0.
         12    1    1    2    0    0 -0.23614918783E+02  0.20997511617E+02 -0.32102237212E+02  0.45045682560E+02  0.00000000000E+00 0. -1.
         11    1    3    3    0    0  0.15154334253E+02 -0.88608495556E+01  0.19946005358E+02  0.26570879389E+02  0.51100000000E-03 0.  1.
        -11    1    3    3    0    0  0.22291730210E+01 -0.14205197147E+01  0.80490851183E+00  0.27631443304E+01  0.51100000000E-03 0. -1.
        -12    1    3    3    0    0  0.62314115090E+01 -0.10716142347E+02  0.11351323342E+02  0.16808293721E+02  0.00000000000E+00 0.  1.
</event>
<event>
 7    1  0.2227287E-008  0.4614232E+02  0.7816164E-02  0.1320468E+00
        -11   -1    0    0    0    0  0.00000000000E+00  0.00000000000E+00  0.45593999997E+02  0.45594000000E+02  0.51100000000E-03 0.  1.
         11   -1    0    0    0    0 -0.00000000000E+00 -0.00000000000E+00 -0.45593999997E+02  0.45594000000E+02  0.51100000000E-03 0. -1.
    9900012    2    1    2    0    0 -0.24228267401E+02  0.17746148762E+02  0.33573481934E+02  0.46142318450E+02  0.10000006285E+02 0.  0.
         12    1    1    2    0    0  0.24228267401E+02 -0.17746148762E+02 -0.33573481934E+02  0.45045681550E+02  0.00000000000E+00 0. -1.
         11    1    3    3    0    0 -0.80394093852E+01  0.22288801133E+01  0.76782288885E+01  0.11338218950E+02  0.51100000000E-03 0. -1.
        -11    1    3    3    0    0 -0.60106885601E+01  0.39989581324E+01  0.12405048119E+02  0.14352883411E+02  0.51100000000E-03 0.  1.
        -12    1    3    3    0    0 -0.10178169455E+02  0.11518310516E+02  0.13490204927E+02  0.20451216090E+02  0.00000000000E+00 0.  1.
</event>
<event>
 7    1  0.2227287E-008  0.4614232E+02  0.7816164E-02  0.1320468E+00
        -11   -1    0    0    0    0  0.00000000000E+00  0.00000000000E+00  0.45593999997E+02  0.45594000000E+02  0.51100000000E-03 0. -1.
         11   -1    0    0    0    0 -0.00000000000E+00 -0.00000000000E+00 -0.45593999997E+02  0.45594000000E+02  0.51100000000E-03 0.  1.
    9900012    2    1    2    0    0 -0.36978763629E+02  0.19085038001E+02 -0.17246621952E+02  0.46142316481E+02  0.99999883237E+01 0.  0.
         12    1    1    2    0    0  0.36978763629E+02 -0.19085038001E+02  0.17246621952E+02  0.45045683519E+02  0.00000000000E+00 0. -1.
         11    1    3    3    0    0 -0.22558478882E+01 -0.36792988220E-01 -0.24549280621E+01  0.33341978750E+01  0.51100000000E-03 0. -1.
        -11    1    3    3    0    0 -0.44659305598E-01  0.24788620646E+00 -0.93033646872E+00  0.96382998038E+00  0.51100000000E-03 0.  1.
        -12    1    3    3    0    0 -0.34678256435E+02  0.18873944782E+02 -0.13861357421E+02  0.41844288625E+02  0.00000000000E+00 0.  1.
</event>
<event>
 7    1  0.2227287E-008  0.4614232E+02  0.7816164E-02  0.1320468E+00
        -11   -1    0    0    0    0  0.00000000000E+00  0.00000000000E+00  0.45593999997E+02  0.45594000000E+02  0.51100000000E-03 0. -1.
         11   -1    0    0    0    0 -0.00000000000E+00 -0.00000000000E+00 -0.45593999997E+02  0.45594000000E+02  0.51100000000E-03 0.  1.
    9900012    2    1    2    0    0  0.20256937197E+02  0.37058053537E+01 -0.40062913512E+02  0.46142317222E+02  0.99999950813E+01 0.  0.
         12    1    1    2    0    0 -0.20256937197E+02 -0.37058053537E+01  0.40062913512E+02  0.45045682778E+02  0.00000000000E+00 0. -1.
         11    1    3    3    0    0  0.23705172355E+01 -0.12414015782E+01 -0.41002025543E+01  0.48961302158E+01  0.51100000000E-03 0. -1.
        -11    1    3    3    0    0  0.15260624736E+02  0.93759052468E+00 -0.25395338018E+02  0.29642687743E+02  0.51100000000E-03 0.  1.
         12    1    3    3    0    0  0.26257952248E+01  0.40096164072E+01 -0.10567372940E+02  0.11603499263E+02  0.00000000000E+00 0. -1.
</event>
<event>
 7    1  0.2227287E-008  0.4614232E+02  0.7816164E-02  0.1320468E+00
        -11   -1    0    0    0    0  0.00000000000E+00  0.00000000000E+00  0.45593999997E+02  0.45594000000E+02  0.51100000000E-03 0. -1.
         11   -1    0    0    0    0 -0.00000000000E+00 -0.00000000000E+00 -0.45593999997E+02  0.45594000000E+02  0.51100000000E-03 0.  1.
    9900012    2    1    2    0    0 -0.32750040510E+02  0.27178003728E+02 -0.14761589027E+02  0.46142317069E+02  0.99999936930E+01 0.  0.
         12    1    1    2    0    0  0.32750040510E+02 -0.27178003728E+02  0.14761589027E+02  0.45045682931E+02  0.00000000000E+00 0. -1.
         11    1    3    3    0    0 -0.35481794098E+01  0.44395456989E+01 -0.61615763717E+00  0.57165368565E+01  0.51100000000E-03 0. -1.
        -11    1    3    3    0    0 -0.16529977019E+02  0.16798263798E+02 -0.63580039713E+01  0.24409957428E+02  0.51100000000E-03 0.  1.
         12    1    3    3    0    0 -0.12671884081E+02  0.59401942312E+01 -0.77874274187E+01  0.16015822785E+02  0.00000000000E+00 0. -1.
</event>
<event>
 7    1  0.2227287E-008  0.4614232E+02  0.7816164E-02  0.1320468E+00
        -11   -1    0    0    0    0  0.00000000000E+00  0.00000000000E+00  0.45593999997E+02  0.45594000000E+02  0.51100000000E-03 0. -1.
         11   -1    0    0    0    0 -0.00000000000E+00 -0.00000000000E+00 -0.45593999997E+02  0.45594000000E+02  0.51100000000E-03 0.  1.
    9900012    2    1    2    0    0  0.29405915648E+02 -0.21665055392E+02  0.26363438869E+02  0.46142318639E+02  0.10000008006E+02 0.  0.
         12    1    1    2    0    0 -0.29405915648E+02  0.21665055392E+02 -0.26363438869E+02  0.45045681361E+02  0.00000000000E+00 0. -1.
         11    1    3    3    0    0  0.38913033634E+01 -0.41298095664E+01  0.82407328414E+01  0.10005360910E+02  0.51100000000E-03 0.  1.
        -11    1    3    3    0    0  0.86658684428E+01 -0.39327576379E+01  0.42680297176E+01  0.10429762051E+02  0.51100000000E-03 0. -1.
        -12    1    3    3    0    0  0.16848743842E+02 -0.13602488188E+02  0.13854676310E+02  0.25707195678E+02  0.00000000000E+00 0.  1.
</event>
<event>
 7    1  0.2227287E-008  0.4614231E+02  0.7816164E-02  0.1320468E+00
        -11   -1    0    0    0    0  0.00000000000E+00  0.00000000000E+00  0.45593999997E+02  0.45594000000E+02  0.51100000000E-03 0. -1.
         11   -1    0    0    0    0 -0.00000000000E+00 -0.00000000000E+00 -0.45593999997E+02  0.45594000000E+02  0.51100000000E-03 0.  1.
    9900012    2    1    2    0    0 -0.53826343229E+01  0.28574376834E+02  0.34404160300E+02  0.46142311975E+02  0.99999472363E+01 0.  0.
         12    1    1    2    0    0  0.53826343229E+01 -0.28574376834E+02 -0.34404160300E+02  0.45045688025E+02  0.00000000000E+00 0. -1.
         11    1    3    3    0    0 -0.22961784493E+01  0.66307641678E+01  0.72893731743E+01  0.10118025027E+02  0.51100000000E-03 0.  1.
        -11    1    3    3    0    0  0.12516903546E+01 -0.66157124706E-01  0.10509506694E+01  0.16357270798E+01  0.51100000000E-03 0. -1.
         12    1    3    3    0    0 -0.43381462282E+01  0.22009769791E+02  0.26063836456E+02  0.34388559868E+02  0.00000000000E+00 0. -1.
</event>
<event>
 7    1  0.2227287E-008  0.4614232E+02  0.7816164E-02  0.1320468E+00
        -11   -1    0    0    0    0  0.00000000000E+00  0.00000000000E+00  0.45593999997E+02  0.45594000000E+02  0.51100000000E-03 0.  1.
         11   -1    0    0    0    0 -0.00000000000E+00 -0.00000000000E+00 -0.45593999997E+02  0.45594000000E+02  0.51100000000E-03 0. -1.
    9900012    2    1    2    0    0 -0.26755518853E+02  0.27886686120E+02  0.23142784654E+02  0.46142317262E+02  0.99999954489E+01 0.  0.
         12    1    1    2    0    0  0.26755518853E+02 -0.27886686120E+02 -0.23142784654E+02  0.45045682738E+02  0.00000000000E+00 0. -1.
         11    1    3    3    0    0 -0.40737281513E+01  0.15033410623E+01  0.10630705880E+01  0.44705049755E+01  0.51100000000E-03 0. -1.
        -11    1    3    3    0    0 -0.77666611367E+00  0.25379706646E+01  0.35094159098E+00  0.26772496349E+01  0.51100000000E-03 0.  1.
        -12    1    3    3    0    0 -0.21905124588E+02  0.23845374393E+02  0.21728772475E+02  0.38994562652E+02  0.00000000000E+00 0.  1.
</event>
<event>
 7    1  0.2227287E-008  0.4614232E+02  0.7816164E-02  0.1320468E+00
        -11   -1    0    0    0    0  0.00000000000E+00  0.00000000000E+00  0.45593999997E+02  0.45594000000E+02  0.51100000000E-03 0. -1.
         11   -1    0    0    0    0 -0.00000000000E+00 -0.00000000000E+00 -0.45593999997E+02  0.45594000000E+02  0.51100000000E-03 0.  1.
    9900012    2    1    2    0    0 -0.28561253975E+02 -0.29979746223E+02  0.17736491048E+02  0.46142317333E+02  0.99999960940E+01 0.  0.
         12    1    1    2    0    0  0.28561253975E+02  0.29979746223E+02 -0.17736491048E+02  0.45045682667E+02  0.00000000000E+00 0. -1.
         11    1    3    3    0    0 -0.98136994976E+01 -0.15498184943E+02  0.99082810752E+01  0.20848896098E+02  0.51100000000E-03 0. -1.
        -11    1    3    3    0    0 -0.36666366082E+01 -0.48191899864E+01  0.29174984426E+01  0.67216525918E+01  0.51100000000E-03 0.  1.
         12    1    3    3    0    0 -0.15080917870E+02 -0.96623712938E+01  0.49107115300E+01  0.18571768643E+02  0.00000000000E+00 0. -1.
</event>
<event>
 7    1  0.2227287E-008  0.4614232E+02  0.7816164E-02  0.1320468E+00
        -11   -1    0    0    0    0  0.00000000000E+00  0.00000000000E+00  0.45593999997E+02  0.45594000000E+02  0.51100000000E-03 0.  1.
         11   -1    0    0    0    0 -0.00000000000E+00 -0.00000000000E+00 -0.45593999997E+02  0.45594000000E+02  0.51100000000E-03 0. -1.
    9900012    2    1    2    0    0 -0.26409972652E+01 -0.48657100435E+01  0.44704177303E+02  0.46142317974E+02  0.10000001946E+02 0.  0.
         12    1    1    2    0    0  0.26409972652E+01  0.48657100435E+01 -0.44704177303E+02  0.45045682026E+02  0.00000000000E+00 0. -1.
         11    1    3    3    0    0  0.11056840450E+01 -0.34987106275E+00  0.81315105319E+01  0.82137939322E+01  0.51100000000E-03 0.  1.
        -11    1    3    3    0    0  0.71753243743E+00 -0.13848255324E+01  0.81934937846E+00  0.17617968722E+01  0.51100000000E-03 0. -1.
        -12    1    3    3    0    0 -0.44642137476E+01 -0.31310134483E+01  0.35753317393E+02  0.36166727170E+02  0.00000000000E+00 0.  1.
</event>
<event>
 7    1  0.2227287E-008  0.4614232E+02  0.7816164E-02  0.1320468E+00
        -11   -1    0    0    0    0  0.00000000000E+00  0.00000000000E+00  0.45593999997E+02  0.45594000000E+02  0.51100000000E-03 0. -1.
         11   -1    0    0    0    0 -0.00000000000E+00 -0.00000000000E+00 -0.45593999997E+02  0.45594000000E+02  0.51100000000E-03 0.  1.
    9900012    2    1    2    0    0  0.10326055544E+02 -0.41437848487E+02 -0.14331462112E+02  0.46142317448E+02  0.99999971459E+01 0.  0.
         12    1    1    2    0    0 -0.10326055544E+02  0.41437848487E+02  0.14331462112E+02  0.45045682552E+02  0.00000000000E+00 0. -1.
         11    1    3    3    0    0  0.55081742908E+00 -0.11346020819E+01  0.91062135982E+00  0.15556198914E+01  0.51100000000E-03 0. -1.
        -11    1    3    3    0    0  0.58549966695E+01 -0.15618282657E+02 -0.83858176210E+01  0.18669056660E+02  0.51100000000E-03 0.  1.
         12    1    3    3    0    0  0.39202414456E+01 -0.24684963748E+02 -0.68562658507E+01  0.25917640896E+02  0.00000000000E+00 0. -1.
</event>
<event>
 7    1  0.2227287E-008  0.4614232E+02  0.7816164E-02  0.1320468E+00
        -11   -1    0    0    0    0  0.00000000000E+00  0.00000000000E+00  0.45593999997E+02  0.45594000000E+02  0.51100000000E-03 0.  1.
         11   -1    0    0    0    0 -0.00000000000E+00 -0.00000000000E+00 -0.45593999997E+02  0.45594000000E+02  0.51100000000E-03 0. -1.
    9900012    2    1    2    0    0  0.23159004918E+02 -0.37726706384E+02  0.83348566277E+01  0.46142315208E+02  0.99999767218E+01 0.  0.
         12    1    1    2    0    0 -0.23159004918E+02  0.37726706384E+02 -0.83348566277E+01  0.45045684792E+02  0.00000000000E+00 0. -1.
         11    1    3    3    0    0  0.38282583906E+01 -0.11791343207E+02  0.24881511140E+01  0.12644454640E+02  0.51100000000E-03 0. -1.
        -11    1    3    3    0    0  0.88606511722E+01 -0.94172547991E+01 -0.49092623865E+00  0.12939738636E+02  0.51100000000E-03 0.  1.
        -12    1    3    3    0    0  0.10470095355E+02 -0.16518108378E+02  0.63376317523E+01  0.20558121932E+02  0.00000000000E+00 0.  1.
</event>
<event>
 7    1  0.2227287E-008  0.4614232E+02  0.7816164E-02  0.1320468E+00
        -11   -1    0    0    0    0  0.00000000000E+00  0.00000000000E+00  0.45593999997E+02  0.45594000000E+02  0.51100000000E-03 0. -1.
         11   -1    0    0    0    0 -0.00000000000E+00 -0.00000000000E+00 -0.45593999997E+02  0.45594000000E+02  0.51100000000E-03 0.  1.
    9900012    2    1    2    0    0 -0.35900014139E+02 -0.98636013362E+01 -0.25357678741E+02  0.46142317436E+02  0.99999970379E+01 0.  0.
         12    1    1    2    0    0  0.35900014139E+02  0.98636013362E+01  0.25357678741E+02  0.45045682564E+02  0.00000000000E+00 0. -1.
         11    1    3    3    0    0 -0.26191891300E+02 -0.65120757031E+01 -0.14189715154E+02  0.30492135318E+02  0.51100000000E-03 0.  1.
        -11    1    3    3    0    0 -0.30330577373E+01 -0.10383633896E+01 -0.63065059874E+01  0.70745781356E+01  0.51100000000E-03 0. -1.
         12    1    3    3    0    0 -0.66750651019E+01 -0.23131622435E+01 -0.48614575992E+01  0.85756039827E+01  0.00000000000E+00 0. -1.
</event>
<event>
 7    1  0.2227287E-008  0.4614231E+02  0.7816164E-02  0.1320468E+00
        -11   -1    0    0    0    0  0.00000000000E+00  0.00000000000E+00  0.45593999997E+02  0.45594000000E+02  0.51100000000E-03 0.  1.
         11   -1    0    0    0    0 -0.00000000000E+00 -0.00000000000E+00 -0.45593999997E+02  0.45594000000E+02  0.51100000000E-03 0. -1.
    9900012    2    1    2    0    0  0.40372278516E+02 -0.17317773212E+02  0.99643363339E+01  0.46142310526E+02  0.99999340229E+01 0.  0.
         12    1    1    2    0    0 -0.40372278516E+02  0.17317773212E+02 -0.99643363339E+01  0.45045689474E+02  0.00000000000E+00 0. -1.
         11    1    3    3    0    0  0.13021853885E+02 -0.81498506233E+01  0.60635452128E+01  0.16515305768E+02  0.51100000000E-03 0. -1.
        -11    1    3    3    0    0  0.10783007867E+02 -0.61212065094E+01  0.30919938794E+00  0.12403146065E+02  0.51100000000E-03 0.  1.
        -12    1    3    3    0    0  0.16567416764E+02 -0.30467160795E+01  0.35915917332E+01  0.17223858693E+02  0.00000000000E+00 0.  1.
</event>
<event>
 7    1  0.2227287E-008  0.4614232E+02  0.7816164E-02  0.1320468E+00
        -11   -1    0    0    0    0  0.00000000000E+00  0.00000000000E+00  0.45593999997E+02  0.45594000000E+02  0.51100000000E-03 0. -1.
         11   -1    0    0    0    0 -0.00000000000E+00 -0.00000000000E+00 -0.45593999997E+02  0.45594000000E+02  0.51100000000E-03 0.  1.
    9900012    2    1    2    0    0 -0.40832341216E+02 -0.18392690009E+02  0.48520452083E+01  0.46142317880E+02  0.10000001081E+02 0.  0.
         12    1    1    2    0    0  0.40832341216E+02  0.18392690009E+02 -0.48520452083E+01  0.45045682120E+02  0.00000000000E+00 0. -1.
         11    1    3    3    0    0 -0.89510768291E+01 -0.12022454365E+01 -0.12928948832E+01  0.91235271649E+01  0.51100000000E-03 0. -1.
        -11    1    3    3    0    0 -0.94402211802E+01 -0.28756469550E+01  0.11357571464E+01  0.99336330663E+01  0.51100000000E-03 0.  1.
         12    1    3    3    0    0 -0.22441043207E+02 -0.14314797618E+02  0.50091829450E+01  0.27085157648E+02  0.00000000000E+00 0. -1.
</event>
<event>
 7    1  0.2227287E-008  0.4614232E+02  0.7816164E-02  0.1320468E+00
        -11   -1    0    0    0    0  0.00000000000E+00  0.00000000000E+00  0.45593999997E+02  0.45594000000E+02  0.51100000000E-03 0.  1.
         11   -1    0    0    0    0 -0.00000000000E+00 -0.00000000000E+00 -0.45593999997E+02  0.45594000000E+02  0.51100000000E-03 0. -1.
    9900012    2    1    2    0    0 -0.41852673505E+02 -0.15392192724E+02 -0.63677006487E+01  0.46142317766E+02  0.10000000047E+02 0.  0.
         12    1    1    2    0    0  0.41852673505E+02  0.15392192724E+02  0.63677006487E+01  0.45045682234E+02  0.00000000000E+00 0. -1.
         11    1    3    3    0    0 -0.36561419291E+02 -0.11576729193E+02 -0.38166966221E+01  0.38539917135E+02  0.51100000000E-03 0. -1.
        -11    1    3    3    0    0 -0.56589195393E+01 -0.36006822740E+01 -0.22271181425E+01  0.70674138603E+01  0.51100000000E-03 0.  1.
         12    1    3    3    0    0  0.36766532536E+00 -0.21478125677E+00 -0.32388588404E+00  0.53498677143E+00  0.00000000000E+00 0. -1.
</event>
<event>
 7    1  0.2227287E-008  0.4614232E+02  0.7816164E-02  0.1320468E+00
        -11   -1    0    0    0    0  0.00000000000E+00  0.00000000000E+00  0.45593999997E+02  0.45594000000E+02  0.51100000000E-03 0.  1.
         11   -1    0    0    0    0 -0.00000000000E+00 -0.00000000000E+00 -0.45593999997E+02  0.45594000000E+02  0.51100000000E-03 0. -1.
    9900012    2    1    2    0    0 -0.35838669132E+01 -0.44890641592E+02  0.10486683407E+01  0.46142317522E+02  0.99999978223E+01 0.  0.
         12    1    1    2    0    0  0.35838669132E+01  0.44890641592E+02 -0.10486683407E+01  0.45045682478E+02  0.00000000000E+00 0. -1.
         11    1    3    3    0    0 -0.21126672196E+01 -0.39092036833E+01 -0.19127004601E+00  0.44476758773E+01  0.51100000000E-03 0. -1.
        -11    1    3    3    0    0 -0.17563017461E+01 -0.85589894493E+01 -0.24167189842E+01  0.90653972404E+01  0.51100000000E-03 0.  1.
         12    1    3    3    0    0  0.28510205252E+00 -0.32422448459E+02  0.36566573709E+01  0.32629244405E+02  0.00000000000E+00 0. -1.
</event>
<event>
 7    1  0.2227287E-008  0.4614232E+02  0.7816164E-02  0.1320468E+00
        -11   -1    0    0    0    0  0.00000000000E+00  0.00000000000E+00  0.45593999997E+02  0.45594000000E+02  0.51100000000E-03 0. -1.
         11   -1    0    0    0    0 -0.00000000000E+00 -0.00000000000E+00 -0.45593999997E+02  0.45594000000E+02  0.51100000000E-03 0.  1.
    9900012    2    1    2    0    0  0.36527761990E+02  0.17737374115E+02 -0.19499275667E+02  0.46142316655E+02  0.99999899178E+01 0.  0.
         12    1    1    2    0    0 -0.36527761990E+02 -0.17737374115E+02  0.19499275667E+02  0.45045683345E+02  0.00000000000E+00 0. -1.
         11    1    3    3    0    0  0.10970202759E+02  0.78025775445E+01 -0.45041974779E+01  0.14195540148E+02  0.51100000000E-03 0. -1.
        -11    1    3    3    0    0  0.19983196868E+02  0.10291264488E+02 -0.10665463260E+02  0.24879517452E+02  0.51100000000E-03 0.  1.
         12    1    3    3    0    0  0.55743623620E+01 -0.35646791795E+00 -0.43296149291E+01  0.70672590552E+01  0.00000000000E+00 0. -1.
</event>
<event>
 7    1  0.2227287E-008  0.4614232E+02  0.7816164E-02  0.1320468E+00
        -11   -1    0    0    0    0  0.00000000000E+00  0.00000000000E+00  0.45593999997E+02  0.45594000000E+02  0.51100000000E-03 0.  1.
         11   -1    0    0    0    0 -0.00000000000E+00 -0.00000000000E+00 -0.45593999997E+02  0.45594000000E+02  0.51100000000E-03 0. -1.
    9900012    2    1    2    0    0  0.12182013383E+02 -0.14620211398E+02  0.40828440070E+02  0.46142317078E+02  0.99999937693E+01 0.  0.
         12    1    1    2    0    0 -0.12182013383E+02  0.14620211398E+02 -0.40828440070E+02  0.45045682922E+02  0.00000000000E+00 0. -1.
         11    1    3    3    0    0  0.40079860912E+00 -0.92088678779E+00  0.71070101513E+00  0.12303528742E+01  0.51100000000E-03 0.  1.
        -11    1    3    3    0    0  0.13131876615E+02 -0.12876394609E+02  0.34759714302E+02  0.39325379339E+02  0.51100000000E-03 0. -1.
         12    1    3    3    0    0 -0.13506618412E+01 -0.82293000173E+00  0.53580247529E+01  0.55865848646E+01  0.00000000000E+00 0. -1.
</event>
<event>
 7    1  0.2227287E-008  0.4614232E+02  0.7816164E-02  0.1320468E+00
        -11   -1    0    0    0    0  0.00000000000E+00  0.00000000000E+00  0.45593999997E+02  0.45594000000E+02  0.51100000000E-03 0.  1.
         11   -1    0    0    0    0 -0.00000000000E+00 -0.00000000000E+00 -0.45593999997E+02  0.45594000000E+02  0.51100000000E-03 0. -1.
    9900012    2    1    2    0    0  0.19223010373E+02  0.27880164544E+02  0.29703294906E+02  0.46142318397E+02  0.10000005796E+02 0.  0.
         12    1    1    2    0    0 -0.19223010373E+02 -0.27880164544E+02 -0.29703294906E+02  0.45045681603E+02  0.00000000000E+00 0. -1.
         11    1    3    3    0    0  0.51276726385E+01  0.67106833576E+01  0.65609648754E+01  0.10694510656E+02  0.51100000000E-03 0. -1.
        -11    1    3    3    0    0  0.90121335278E+01  0.18560987956E+02  0.20722836423E+02  0.29243200480E+02  0.51100000000E-03 0.  1.
         12    1    3    3    0    0  0.50832042068E+01  0.26084932304E+01  0.24194936074E+01  0.62046072605E+01  0.00000000000E+00 0. -1.
</event>
<event>
 7    1  0.2227287E-008  0.4614232E+02  0.7816164E-02  0.1320468E+00
        -11   -1    0    0    0    0  0.00000000000E+00  0.00000000000E+00  0.45593999997E+02  0.45594000000E+02  0.51100000000E-03 0.  1.
         11   -1    0    0    0    0 -0.00000000000E+00 -0.00000000000E+00 -0.45593999997E+02  0.45594000000E+02  0.51100000000E-03 0. -1.
    9900012    2    1    2    0    0  0.32913082543E+02  0.23705461547E+02 -0.19593202319E+02  0.46142317779E+02  0.10000000166E+02 0.  0.
         12    1    1    2    0    0 -0.32913082543E+02 -0.23705461547E+02  0.19593202319E+02  0.45045682221E+02  0.00000000000E+00 0. -1.
         11    1    3    3    0    0  0.19682973469E+02  0.16758615268E+02 -0.16174023472E+02  0.30493764376E+02  0.51100000000E-03 0.  1.
        -11    1    3    3    0    0  0.17921081377E+01  0.37379135032E-01 -0.10494282503E+01  0.20771010305E+01  0.51100000000E-03 0. -1.
        -12    1    3    3    0    0  0.11438000935E+02  0.69094671445E+01 -0.23697505969E+01  0.13571452373E+02  0.00000000000E+00 0.  1.
</event>
<event>
 7    1  0.2227287E-008  0.4614232E+02  0.7816164E-02  0.1320468E+00
        -11   -1    0    0    0    0  0.00000000000E+00  0.00000000000E+00  0.45593999997E+02  0.45594000000E+02  0.51100000000E-03 0. -1.
         11   -1    0    0    0    0 -0.00000000000E+00 -0.00000000000E+00 -0.45593999997E+02  0.45594000000E+02  0.51100000000E-03 0.  1.
    9900012    2    1    2    0    0  0.14350581273E+02  0.27729795451E+02 -0.32468952300E+02  0.46142316499E+02  0.99999884940E+01 0.  0.
         12    1    1    2    0    0 -0.14350581273E+02 -0.27729795451E+02  0.32468952300E+02  0.45045683501E+02  0.00000000000E+00 0. -1.
         11    1    3    3    0    0  0.56783900051E+01  0.84520205445E+01 -0.13553768823E+02  0.16952445661E+02  0.51100000000E-03 0. -1.
        -11    1    3    3    0    0  0.84753799918E+01  0.18188413076E+02 -0.19463136741E+02  0.27954679900E+02  0.51100000000E-03 0.  1.
         12    1    3    3    0    0  0.19681127598E+00  0.10893618301E+01  0.54795326396E+00  0.12351909386E+01  0.00000000000E+00 0. -1.
</event>
<event>
 7    1  0.2227287E-008  0.4614232E+02  0.7816164E-02  0.1320468E+00
        -11   -1    0    0    0    0  0.00000000000E+00  0.00000000000E+00  0.45593999997E+02  0.45594000000E+02  0.51100000000E-03 0.  1.
         11   -1    0    0    0    0 -0.00000000000E+00 -0.00000000000E+00 -0.45593999997E+02  0.45594000000E+02  0.51100000000E-03 0. -1.
    9900012    2    1    2    0    0  0.44615162064E+02 -0.49069373914E+01  0.38108550150E+01  0.46142319446E+02  0.10000015367E+02 0.  0.
         12    1    1    2    0    0 -0.44615162064E+02  0.49069373914E+01 -0.38108550150E+01  0.45045680554E+02  0.00000000000E+00 0. -1.
         11    1    3    3    0    0  0.14201125403E+02 -0.32185320084E+01  0.18679751730E+01  0.14680607702E+02  0.51100000000E-03 0.  1.
        -11    1    3    3    0    0  0.48677186490E+01  0.23941456450E+01 -0.64168169319E+00  0.54624512695E+01  0.51100000000E-03 0. -1.
         12    1    3    3    0    0  0.25546318013E+02 -0.40825510279E+01  0.25845615352E+01  0.25999260475E+02  0.00000000000E+00 0. -1.
</event>
<event>
 7    1  0.2227287E-008  0.4614232E+02  0.7816164E-02  0.1320468E+00
        -11   -1    0    0    0    0  0.00000000000E+00  0.00000000000E+00  0.45593999997E+02  0.45594000000E+02  0.51100000000E-03 0. -1.
         11   -1    0    0    0    0 -0.00000000000E+00 -0.00000000000E+00 -0.45593999997E+02  0.45594000000E+02  0.51100000000E-03 0.  1.
    9900012    2    1    2    0    0  0.38606236547E+02  0.19566653383E+02  0.12482711693E+02  0.46142317453E+02  0.99999971888E+01 0.  0.
         12    1    1    2    0    0 -0.38606236547E+02 -0.19566653383E+02 -0.12482711693E+02  0.45045682547E+02  0.00000000000E+00 0. -1.
         11    1    3    3    0    0  0.53508802868E+01 -0.17299035728E+00  0.10488627484E+01  0.54554522116E+01  0.51100000000E-03 0. -1.
        -11    1    3    3    0    0  0.20236932304E+02  0.95032251444E+01  0.49279063960E+01  0.22893863347E+02  0.51100000000E-03 0.  1.
        -12    1    3    3    0    0  0.13018423956E+02  0.10236418596E+02  0.65059425487E+01  0.17793001895E+02  0.00000000000E+00 0.  1.
</event>
<event>
 7    1  0.2227287E-008  0.4614232E+02  0.7816164E-02  0.1320468E+00
        -11   -1    0    0    0    0  0.00000000000E+00  0.00000000000E+00  0.45593999997E+02  0.45594000000E+02  0.51100000000E-03 0.  1.
         11   -1    0    0    0    0 -0.00000000000E+00 -0.00000000000E+00 -0.45593999997E+02  0.45594000000E+02  0.51100000000E-03 0. -1.
    9900012    2    1    2    0    0  0.26687322694E+02 -0.14601222599E+02  0.33222049294E+02  0.46142318151E+02  0.10000003558E+02 0.  0.
         12    1    1    2    0    0 -0.26687322694E+02  0.14601222599E+02 -0.33222049294E+02  0.45045681849E+02  0.00000000000E+00 0. -1.
         11    1    3    3    0    0  0.40204608273E+01 -0.16335554548E+01  0.22490552582E+01  0.48878275853E+01  0.51100000000E-03 0. -1.
        -11    1    3    3    0    0  0.95096836944E+01 -0.60850647411E+01  0.77635502665E+01  0.13701635299E+02  0.51100000000E-03 0.  1.
        -12    1    3    3    0    0  0.13157178172E+02 -0.68826024030E+01  0.23209443769E+02  0.27552855267E+02  0.00000000000E+00 0.  1.
</event>
<event>
 7    1  0.2227287E-008  0.4614232E+02  0.7816164E-02  0.1320468E+00
        -11   -1    0    0    0    0  0.00000000000E+00  0.00000000000E+00  0.45593999997E+02  0.45594000000E+02  0.51100000000E-03 0. -1.
         11   -1    0    0    0    0 -0.00000000000E+00 -0.00000000000E+00 -0.45593999997E+02  0.45594000000E+02  0.51100000000E-03 0.  1.
    9900012    2    1    2    0    0  0.11817536287E+01 -0.43051025552E+02 -0.13203256340E+02  0.46142319623E+02  0.10000016975E+02 0.  0.
         12    1    1    2    0    0 -0.11817536287E+01  0.43051025552E+02  0.13203256340E+02  0.45045680377E+02  0.00000000000E+00 0. -1.
         11    1    3    3    0    0 -0.98217149301E+00 -0.32438910494E+01  0.23717264911E+00  0.33976081452E+01  0.51100000000E-03 0. -1.
        -11    1    3    3    0    0  0.85821850200E+00 -0.39059548085E+02 -0.12841097543E+02  0.41125158017E+02  0.51100000000E-03 0.  1.
         12    1    3    3    0    0  0.13057066197E+01 -0.74758641751E+00 -0.59933144537E+00  0.16195534600E+01  0.00000000000E+00 0. -1.
</event>
<event>
 7    1  0.2227287E-008  0.4614232E+02  0.7816164E-02  0.1320468E+00
        -11   -1    0    0    0    0  0.00000000000E+00  0.00000000000E+00  0.45593999997E+02  0.45594000000E+02  0.51100000000E-03 0.  1.
         11   -1    0    0    0    0 -0.00000000000E+00 -0.00000000000E+00 -0.45593999997E+02  0.45594000000E+02  0.51100000000E-03 0. -1.
    9900012    2    1    2    0    0 -0.38007508009E+02 -0.22304508100E+02 -0.93301516405E+01  0.46142317896E+02  0.10000001226E+02 0.  0.
         12    1    1    2    0    0  0.38007508009E+02  0.22304508100E+02  0.93301516405E+01  0.45045682104E+02  0.00000000000E+00 0. -1.
         11    1    3    3    0    0 -0.14121900012E+02 -0.84888764113E+01  0.79360786353E+00  0.16496026684E+02  0.51100000000E-03 0.  1.
        -11    1    3    3    0    0 -0.12985107454E+02 -0.96392329971E+01 -0.64210396852E+01  0.17399930439E+02  0.51100000000E-03 0. -1.
         12    1    3    3    0    0 -0.10900500543E+02 -0.41763986914E+01 -0.37027198189E+01  0.12246360773E+02  0.00000000000E+00 0. -1.
</event>
<event>
 7    1  0.2227287E-008  0.4614232E+02  0.7816164E-02  0.1320468E+00
        -11   -1    0    0    0    0  0.00000000000E+00  0.00000000000E+00  0.45593999997E+02  0.45594000000E+02  0.51100000000E-03 0. -1.
         11   -1    0    0    0    0 -0.00000000000E+00 -0.00000000000E+00 -0.45593999997E+02  0.45594000000E+02  0.51100000000E-03 0.  1.
    9900012    2    1    2    0    0 -0.43491877174E+02 -0.31529855431E+01  0.11297297726E+02  0.46142316146E+02  0.99999852708E+01 0.  0.
         12    1    1    2    0    0  0.43491877174E+02  0.31529855431E+01 -0.11297297726E+02  0.45045683854E+02  0.00000000000E+00 0. -1.
         11    1    3    3    0    0 -0.46099683353E+01 -0.10534927905E+00  0.30872135519E+01  0.55492156473E+01  0.51100000000E-03 0. -1.
        -11    1    3    3    0    0 -0.22110154106E+02 -0.34963316899E+01  0.81288394699E+01  0.23815148147E+02  0.51100000000E-03 0.  1.
        -12    1    3    3    0    0 -0.16771754733E+02  0.44869542591E+00  0.81244704020E-01  0.16777952352E+02  0.00000000000E+00 0.  1.
</event>
<event>
 7    1  0.2227287E-008  0.4614232E+02  0.7816164E-02  0.1320468E+00
        -11   -1    0    0    0    0  0.00000000000E+00  0.00000000000E+00  0.45593999997E+02  0.45594000000E+02  0.51100000000E-03 0.  1.
         11   -1    0    0    0    0 -0.00000000000E+00 -0.00000000000E+00 -0.45593999997E+02  0.45594000000E+02  0.51100000000E-03 0. -1.
    9900012    2    1    2    0    0 -0.34486494286E+01 -0.39531616048E+02  0.21318342160E+02  0.46142316936E+02  0.99999924721E+01 0.  0.
         12    1    1    2    0    0  0.34486494286E+01  0.39531616048E+02 -0.21318342160E+02  0.45045683064E+02  0.00000000000E+00 0. -1.
         11    1    3    3    0    0  0.36451505125E-01 -0.35923306096E+00 -0.22786828683E+00  0.42696758843E+00  0.51100000000E-03 0. -1.
        -11    1    3    3    0    0 -0.44499302280E+01 -0.32058232843E+02  0.20855236336E+02  0.38502896708E+02  0.51100000000E-03 0.  1.
        -12    1    3    3    0    0  0.96482929425E+00 -0.71141501444E+01  0.69097411136E+00  0.72124526388E+01  0.00000000000E+00 0.  1.
</event>
<event>
 7    1  0.2227287E-008  0.4614232E+02  0.7816164E-02  0.1320468E+00
        -11   -1    0    0    0    0  0.00000000000E+00  0.00000000000E+00  0.45593999997E+02  0.45594000000E+02  0.51100000000E-03 0.  1.
         11   -1    0    0    0    0 -0.00000000000E+00 -0.00000000000E+00 -0.45593999997E+02  0.45594000000E+02  0.51100000000E-03 0. -1.
    9900012    2    1    2    0    0 -0.28068901620E+02  0.22220846001E+02  0.27340158804E+02  0.46142317426E+02  0.99999969428E+01 0.  0.
         12    1    1    2    0    0  0.28068901620E+02 -0.22220846001E+02 -0.27340158804E+02  0.45045682574E+02  0.00000000000E+00 0. -1.
         11    1    3    3    0    0 -0.85999009598E+00  0.23601182798E+01  0.49542423759E+01  0.55546610194E+01  0.51100000000E-03 0. -1.
        -11    1    3    3    0    0 -0.29211849299E+01  0.19486118663E+01  0.11829727467E+01  0.37053791143E+01  0.51100000000E-03 0.  1.
        -12    1    3    3    0    0 -0.24287726594E+02  0.17912115855E+02  0.21202943682E+02  0.36882277292E+02  0.00000000000E+00 0.  1.
</event>
<event>
 7    1  0.2227287E-008  0.4614232E+02  0.7816164E-02  0.1320468E+00
        -11   -1    0    0    0    0  0.00000000000E+00  0.00000000000E+00  0.45593999997E+02  0.45594000000E+02  0.51100000000E-03 0.  1.
         11   -1    0    0    0    0 -0.00000000000E+00 -0.00000000000E+00 -0.45593999997E+02  0.45594000000E+02  0.51100000000E-03 0. -1.
    9900012    2    1    2    0    0 -0.22527908052E+02 -0.27623359126E+02  0.27541911199E+02  0.46142317820E+02  0.10000000535E+02 0.  0.
         12    1    1    2    0    0  0.22527908052E+02  0.27623359126E+02 -0.27541911199E+02  0.45045682180E+02  0.00000000000E+00 0. -1.
         11    1    3    3    0    0 -0.20079938808E+01 -0.42105862913E+01  0.10084234046E+01  0.47726297118E+01  0.51100000000E-03 0. -1.
        -11    1    3    3    0    0 -0.27804260054E+01 -0.67357032274E+01  0.47404492163E+01  0.86932344828E+01  0.51100000000E-03 0.  1.
        -12    1    3    3    0    0 -0.17739488166E+02 -0.16677069607E+02  0.21793038578E+02  0.32676453625E+02  0.00000000000E+00 0.  1.
</event>
<event>
 7    1  0.2227287E-008  0.4614232E+02  0.7816164E-02  0.1320468E+00
        -11   -1    0    0    0    0  0.00000000000E+00  0.00000000000E+00  0.45593999997E+02  0.45594000000E+02  0.51100000000E-03 0.  1.
         11   -1    0    0    0    0 -0.00000000000E+00 -0.00000000000E+00 -0.45593999997E+02  0.45594000000E+02  0.51100000000E-03 0. -1.
    9900012    2    1    2    0    0 -0.15884513752E+02  0.20366654313E+02  0.36905217204E+02  0.46142318277E+02  0.10000004706E+02 0.  0.
         12    1    1    2    0    0  0.15884513752E+02 -0.20366654313E+02 -0.36905217204E+02  0.45045681723E+02  0.00000000000E+00 0. -1.
         11    1    3    3    0    0  0.12001788341E+01  0.14012007209E+01  0.25895549965E+01  0.31795578364E+01  0.51100000000E-03 0. -1.
        -11    1    3    3    0    0 -0.88923372128E+01  0.12181027509E+02  0.17958117229E+02  0.23450907593E+02  0.51100000000E-03 0.  1.
         12    1    3    3    0    0 -0.81923553730E+01  0.67844260835E+01  0.16357544978E+02  0.19511852847E+02  0.00000000000E+00 0. -1.
</event>
<event>
 7    1  0.2227287E-008  0.4614232E+02  0.7816164E-02  0.1320468E+00
        -11   -1    0    0    0    0  0.00000000000E+00  0.00000000000E+00  0.45593999997E+02  0.45594000000E+02  0.51100000000E-03 0.  1.
         11   -1    0    0    0    0 -0.00000000000E+00 -0.00000000000E+00 -0.45593999997E+02  0.45594000000E+02  0.51100000000E-03 0. -1.
    9900012    2    1    2    0    0  0.32053108915E+02 -0.16238183355E+01  0.31608144876E+02  0.46142318746E+02  0.10000008985E+02 0.  0.
         12    1    1    2    0    0 -0.32053108915E+02  0.16238183355E+01 -0.31608144876E+02  0.45045681254E+02  0.00000000000E+00 0. -1.
         11    1    3    3    0    0  0.10387163111E+02  0.23535377379E+01  0.12691375463E+02  0.16568141379E+02  0.51100000000E-03 0. -1.
        -11    1    3    3    0    0  0.59612837956E+01  0.13338276491E+01  0.42780172332E+01  0.74577095947E+01  0.51100000000E-03 0.  1.
         12    1    3    3    0    0  0.15704662008E+02 -0.53111837225E+01  0.14638752180E+02  0.22116467772E+02  0.00000000000E+00 0. -1.
</event>
<event>
 7    1  0.2227287E-008  0.4614232E+02  0.7816164E-02  0.1320468E+00
        -11   -1    0    0    0    0  0.00000000000E+00  0.00000000000E+00  0.45593999997E+02  0.45594000000E+02  0.51100000000E-03 0.  1.
         11   -1    0    0    0    0 -0.00000000000E+00 -0.00000000000E+00 -0.45593999997E+02  0.45594000000E+02  0.51100000000E-03 0. -1.
    9900012    2    1    2    0    0  0.31003727070E+02 -0.29716554826E+02  0.13594439524E+02  0.46142317533E+02  0.99999979180E+01 0.  0.
         12    1    1    2    0    0 -0.31003727070E+02  0.29716554826E+02 -0.13594439524E+02  0.45045682467E+02  0.00000000000E+00 0. -1.
         11    1    3    3    0    0  0.33747967672E+01 -0.48247263543E+01  0.26698933052E+01  0.64649491982E+01  0.51100000000E-03 0. -1.
        -11    1    3    3    0    0  0.25251906350E+02 -0.23905325525E+02  0.12140596208E+02  0.36830930470E+02  0.51100000000E-03 0.  1.
        -12    1    3    3    0    0  0.23770239534E+01 -0.98650294632E+00 -0.12160499894E+01  0.28464378642E+01  0.00000000000E+00 0.  1.
</event>
<event>
 7    1  0.2227287E-008  0.4614232E+02  0.7816164E-02  0.1320468E+00
        -11   -1    0    0    0    0  0.00000000000E+00  0.00000000000E+00  0.45593999997E+02  0.45594000000E+02  0.51100000000E-03 0. -1.
         11   -1    0    0    0    0 -0.00000000000E+00 -0.00000000000E+00 -0.45593999997E+02  0.45594000000E+02  0.51100000000E-03 0.  1.
    9900012    2    1    2    0    0 -0.21704126185E+02 -0.20293992777E+02 -0.33855549800E+02  0.46142317759E+02  0.99999999823E+01 0.  0.
         12    1    1    2    0    0  0.21704126185E+02  0.20293992777E+02  0.33855549800E+02  0.45045682241E+02  0.00000000000E+00 0. -1.
         11    1    3    3    0    0  0.40482411249E-01 -0.11375143719E+01 -0.20623552405E+00  0.11567675325E+01  0.51100000000E-03 0. -1.
        -11    1    3    3    0    0 -0.69185995932E+01 -0.10110330845E+02 -0.16755919726E+02  0.20756846009E+02  0.51100000000E-03 0.  1.
        -12    1    3    3    0    0 -0.14826009003E+02 -0.90461475598E+01 -0.16893394550E+02  0.24228704218E+02  0.00000000000E+00 0.  1.
</event>
<event>
 7    1  0.2227287E-008  0.4614232E+02  0.7816164E-02  0.1320468E+00
        -11   -1    0    0    0    0  0.00000000000E+00  0.00000000000E+00  0.45593999997E+02  0.45594000000E+02  0.51100000000E-03 0. -1.
         11   -1    0    0    0    0 -0.00000000000E+00 -0.00000000000E+00 -0.45593999997E+02  0.45594000000E+02  0.51100000000E-03 0.  1.
    9900012    2    1    2    0    0  0.36238630779E+02 -0.23057710131E+01 -0.26656305098E+02  0.46142317163E+02  0.99999945485E+01 0.  0.
         12    1    1    2    0    0 -0.36238630779E+02  0.23057710131E+01  0.26656305098E+02  0.45045682837E+02  0.00000000000E+00 0. -1.
         11    1    3    3    0    0  0.82358013658E+01 -0.20454391923E+01 -0.31267110406E+01  0.90437032138E+01  0.51100000000E-03 0. -1.
        -11    1    3    3    0    0  0.37212255059E+01 -0.19054226435E+01 -0.49543214557E+01  0.64825501204E+01  0.51100000000E-03 0.  1.
        -12    1    3    3    0    0  0.24281603908E+02  0.16450908228E+01 -0.18575272602E+02  0.30616063829E+02  0.00000000000E+00 0.  1.
</event>
<event>
 7    1  0.2227287E-008  0.4614232E+02  0.7816164E-02  0.1320468E+00
        -11   -1    0    0    0    0  0.00000000000E+00  0.00000000000E+00  0.45593999997E+02  0.45594000000E+02  0.51100000000E-03 0. -1.
         11   -1    0    0    0    0 -0.00000000000E+00 -0.00000000000E+00 -0.45593999997E+02  0.45594000000E+02  0.51100000000E-03 0.  1.
    9900012    2    1    2    0    0  0.22650993350E+01  0.44138112292E+02 -0.87068856331E+01  0.46142317752E+02  0.99999999203E+01 0.  0.
         12    1    1    2    0    0 -0.22650993350E+01 -0.44138112292E+02  0.87068856331E+01  0.45045682248E+02  0.00000000000E+00 0. -1.
         11    1    3    3    0    0  0.44422110115E+00  0.20451780159E+01  0.16247765800E+01  0.26495253725E+01  0.51100000000E-03 0. -1.
        -11    1    3    3    0    0 -0.26793433479E+00  0.78260457219E+01 -0.30167897927E+01  0.83916506936E+01  0.51100000000E-03 0.  1.
        -12    1    3    3    0    0  0.20888125687E+01  0.34266888554E+02 -0.73148724204E+01  0.35101141686E+02  0.00000000000E+00 0.  1.
</event>
<event>
 7    1  0.2227287E-008  0.4614232E+02  0.7816164E-02  0.1320468E+00
        -11   -1    0    0    0    0  0.00000000000E+00  0.00000000000E+00  0.45593999997E+02  0.45594000000E+02  0.51100000000E-03 0.  1.
         11   -1    0    0    0    0 -0.00000000000E+00 -0.00000000000E+00 -0.45593999997E+02  0.45594000000E+02  0.51100000000E-03 0. -1.
    9900012    2    1    2    0    0  0.89762960062E+01  0.73896097705E+01  0.43519343329E+02  0.46142318006E+02  0.10000002232E+02 0.  0.
         12    1    1    2    0    0 -0.89762960062E+01 -0.73896097705E+01 -0.43519343329E+02  0.45045681994E+02  0.00000000000E+00 0. -1.
         11    1    3    3    0    0 -0.47013043110E+00 -0.10082775567E+01  0.20477035074E+01  0.23303939944E+01  0.51100000000E-03 0. -1.
        -11    1    3    3    0    0  0.43822034240E+01  0.15252103825E+01  0.78079197650E+01  0.90825979146E+01  0.51100000000E-03 0.  1.
         12    1    3    3    0    0  0.50642230133E+01  0.68726769446E+01  0.33663720056E+02  0.34729326097E+02  0.00000000000E+00 0. -1.
</event>
<event>
 7    1  0.2227287E-008  0.4614232E+02  0.7816164E-02  0.1320468E+00
        -11   -1    0    0    0    0  0.00000000000E+00  0.00000000000E+00  0.45593999997E+02  0.45594000000E+02  0.51100000000E-03 0. -1.
         11   -1    0    0    0    0 -0.00000000000E+00 -0.00000000000E+00 -0.45593999997E+02  0.45594000000E+02  0.51100000000E-03 0.  1.
    9900012    2    1    2    0    0  0.63130187451E+01 -0.16303796971E+02 -0.41514403455E+02  0.46142315462E+02  0.99999790310E+01 0.  0.
         12    1    1    2    0    0 -0.63130187451E+01  0.16303796971E+02  0.41514403455E+02  0.45045684538E+02  0.00000000000E+00 0. -1.
         11    1    3    3    0    0  0.48102692610E+01 -0.88043745757E+01 -0.18355363456E+02  0.20918295100E+02  0.51100000000E-03 0. -1.
        -11    1    3    3    0    0  0.20109929619E+01 -0.85415461302E+01 -0.19447393256E+02  0.21335491738E+02  0.51100000000E-03 0.  1.
         12    1    3    3    0    0 -0.50824347786E+00  0.10421237354E+01 -0.37116467430E+01  0.38885286237E+01  0.00000000000E+00 0. -1.
</event>
<event>
 7    1  0.2227287E-008  0.4614232E+02  0.7816164E-02  0.1320468E+00
        -11   -1    0    0    0    0  0.00000000000E+00  0.00000000000E+00  0.45593999997E+02  0.45594000000E+02  0.51100000000E-03 0.  1.
         11   -1    0    0    0    0 -0.00000000000E+00 -0.00000000000E+00 -0.45593999997E+02  0.45594000000E+02  0.51100000000E-03 0. -1.
    9900012    2    1    2    0    0 -0.15896523550E+02  0.39250784164E+02  0.15355453331E+02  0.46142318015E+02  0.10000002315E+02 0.  0.
         12    1    1    2    0    0  0.15896523550E+02 -0.39250784164E+02 -0.15355453331E+02  0.45045681985E+02  0.00000000000E+00 0. -1.
         11    1    3    3    0    0  0.90261636244E+00  0.88890013968E+00 -0.26916798134E+00  0.12951105819E+01  0.51100000000E-03 0. -1.
        -11    1    3    3    0    0 -0.59917720864E+01  0.14434991465E+02  0.76991793246E+01  0.17422619604E+02  0.51100000000E-03 0.  1.
         12    1    3    3    0    0 -0.10807367826E+02  0.23926892560E+02  0.79254419880E+01  0.27424587829E+02  0.00000000000E+00 0. -1.
</event>
<event>
 7    1  0.2227287E-008  0.4614232E+02  0.7816164E-02  0.1320468E+00
        -11   -1    0    0    0    0  0.00000000000E+00  0.00000000000E+00  0.45593999997E+02  0.45594000000E+02  0.51100000000E-03 0.  1.
         11   -1    0    0    0    0 -0.00000000000E+00 -0.00000000000E+00 -0.45593999997E+02  0.45594000000E+02  0.51100000000E-03 0. -1.
    9900012    2    1    2    0    0  0.89137193217E+01  0.91604069133E+01  0.43194282339E+02  0.46142317923E+02  0.10000001476E+02 0.  0.
         12    1    1    2    0    0 -0.89137193217E+01 -0.91604069133E+01 -0.43194282339E+02  0.45045682077E+02  0.00000000000E+00 0. -1.
         11    1    3    3    0    0 -0.26321540918E+00  0.22081655066E+00  0.10431049627E+02  0.10436706324E+02  0.51100000000E-03 0. -1.
        -11    1    3    3    0    0  0.74156072107E+01  0.50153429954E+01  0.27430022955E+02  0.28853960824E+02  0.51100000000E-03 0.  1.
         12    1    3    3    0    0  0.17613275202E+01  0.39242473672E+01  0.53332097577E+01  0.68516507757E+01  0.00000000000E+00 0. -1.
</event>
<event>
 7    1  0.2227287E-008  0.4614232E+02  0.7816164E-02  0.1320468E+00
        -11   -1    0    0    0    0  0.00000000000E+00  0.00000000000E+00  0.45593999997E+02  0.45594000000E+02  0.51100000000E-03 0. -1.
         11   -1    0    0    0    0 -0.00000000000E+00 -0.00000000000E+00 -0.45593999997E+02  0.45594000000E+02  0.51100000000E-03 0.  1.
    9900012    2    1    2    0    0 -0.94581205576E+01 -0.43853996376E+02 -0.40601092212E+01  0.46142317305E+02  0.99999958394E+01 0.  0.
         12    1    1    2    0    0  0.94581205576E+01  0.43853996376E+02  0.40601092212E+01  0.45045682695E+02  0.00000000000E+00 0. -1.
         11    1    3    3    0    0 -0.55476294507E+01 -0.13219794196E+02 -0.43238157237E+00  0.14343155343E+02  0.51100000000E-03 0. -1.
        -11    1    3    3    0    0 -0.87362083900E+00 -0.15493017165E+01 -0.17511242988E+01  0.24959939403E+01  0.51100000000E-03 0.  1.
        -12    1    3    3    0    0 -0.30368702679E+01 -0.29084900463E+02 -0.18766033501E+01  0.29303168022E+02  0.00000000000E+00 0.  1.
</event>
<event>
 7    1  0.2227287E-008  0.4614232E+02  0.7816164E-02  0.1320468E+00
        -11   -1    0    0    0    0  0.00000000000E+00  0.00000000000E+00  0.45593999997E+02  0.45594000000E+02  0.51100000000E-03 0.  1.
         11   -1    0    0    0    0 -0.00000000000E+00 -0.00000000000E+00 -0.45593999997E+02  0.45594000000E+02  0.51100000000E-03 0. -1.
    9900012    2    1    2    0    0 -0.12385497297E+02 -0.20969231055E+02  0.37894648191E+02  0.46142317012E+02  0.99999931682E+01 0.  0.
         12    1    1    2    0    0  0.12385497297E+02  0.20969231055E+02 -0.37894648191E+02  0.45045682988E+02  0.00000000000E+00 0. -1.
         11    1    3    3    0    0 -0.17903218107E+01 -0.48004681606E+01  0.96496833941E+01  0.10925481070E+02  0.51100000000E-03 0. -1.
        -11    1    3    3    0    0 -0.10310662010E+01 -0.66530127963E+01  0.14343293379E+02  0.15844738622E+02  0.51100000000E-03 0.  1.
        -12    1    3    3    0    0 -0.95641092857E+01 -0.95157500977E+01  0.13901671418E+02  0.19372097320E+02  0.00000000000E+00 0.  1.
</event>
<event>
 7    1  0.2227287E-008  0.4614232E+02  0.7816164E-02  0.1320468E+00
        -11   -1    0    0    0    0  0.00000000000E+00  0.00000000000E+00  0.45593999997E+02  0.45594000000E+02  0.51100000000E-03 0.  1.
         11   -1    0    0    0    0 -0.00000000000E+00 -0.00000000000E+00 -0.45593999997E+02  0.45594000000E+02  0.51100000000E-03 0. -1.
    9900012    2    1    2    0    0  0.88208005505E+01  0.17236416014E+02  0.40672016148E+02  0.46142318111E+02  0.10000003187E+02 0.  0.
         12    1    1    2    0    0 -0.88208005505E+01 -0.17236416014E+02 -0.40672016148E+02  0.45045681889E+02  0.00000000000E+00 0. -1.
         11    1    3    3    0    0  0.11331369495E+01 -0.34953522598E-01  0.14047417178E+00  0.11423459849E+01  0.51100000000E-03 0.  1.
        -11    1    3    3    0    0 -0.13955706368E+00  0.27504336208E+00  0.34588309865E+01  0.34725548346E+01  0.51100000000E-03 0. -1.
        -12    1    3    3    0    0  0.78272206646E+01  0.16996326175E+02  0.37072710989E+02  0.41527417291E+02  0.00000000000E+00 0.  1.
</event>
<event>
 7    1  0.2227287E-008  0.4614232E+02  0.7816164E-02  0.1320468E+00
        -11   -1    0    0    0    0  0.00000000000E+00  0.00000000000E+00  0.45593999997E+02  0.45594000000E+02  0.51100000000E-03 0. -1.
         11   -1    0    0    0    0 -0.00000000000E+00 -0.00000000000E+00 -0.45593999997E+02  0.45594000000E+02  0.51100000000E-03 0.  1.
    9900012    2    1    2    0    0  0.43198878055E+01  0.43102658565E+02 -0.12353655947E+02  0.46142318505E+02  0.10000006787E+02 0.  0.
         12    1    1    2    0    0 -0.43198878055E+01 -0.43102658565E+02  0.12353655947E+02  0.45045681495E+02  0.00000000000E+00 0. -1.
         11    1    3    3    0    0  0.28328313854E+01  0.77846454616E+01  0.27970312067E+00  0.82887799293E+01  0.51100000000E-03 0. -1.
        -11    1    3    3    0    0 -0.98894918362E+00  0.12472307212E+02 -0.25979922305E+01  0.12778342285E+02  0.51100000000E-03 0.  1.
         12    1    3    3    0    0  0.24760056038E+01  0.22845705892E+02 -0.10035366837E+02  0.25075196291E+02  0.00000000000E+00 0. -1.
</event>
<event>
 7    1  0.2227287E-008  0.4614232E+02  0.7816164E-02  0.1320468E+00
        -11   -1    0    0    0    0  0.00000000000E+00  0.00000000000E+00  0.45593999997E+02  0.45594000000E+02  0.51100000000E-03 0.  1.
         11   -1    0    0    0    0 -0.00000000000E+00 -0.00000000000E+00 -0.45593999997E+02  0.45594000000E+02  0.51100000000E-03 0. -1.
    9900012    2    1    2    0    0  0.17143436152E+02  0.72351580203E+01  0.41022781777E+02  0.46142317194E+02  0.99999948320E+01 0.  0.
         12    1    1    2    0    0 -0.17143436152E+02 -0.72351580203E+01 -0.41022781777E+02  0.45045682806E+02  0.00000000000E+00 0. -1.
         11    1    3    3    0    0  0.24157974075E+01 -0.11288337984E+01  0.55823326050E+01  0.61864998531E+01  0.51100000000E-03 0. -1.
        -11    1    3    3    0    0  0.56170556974E+01  0.66575862355E+01  0.21682818447E+02  0.23367057694E+02  0.51100000000E-03 0.  1.
        -12    1    3    3    0    0  0.91105830469E+01  0.17064055832E+01  0.13757630725E+02  0.16588759647E+02  0.00000000000E+00 0.  1.
</event>
<event>
 7    1  0.2227287E-008  0.4614232E+02  0.7816164E-02  0.1320468E+00
        -11   -1    0    0    0    0  0.00000000000E+00  0.00000000000E+00  0.45593999997E+02  0.45594000000E+02  0.51100000000E-03 0.  1.
         11   -1    0    0    0    0 -0.00000000000E+00 -0.00000000000E+00 -0.45593999997E+02  0.45594000000E+02  0.51100000000E-03 0. -1.
    9900012    2    1    2    0    0  0.15939206305E+02 -0.41348401660E+02  0.80848433525E+01  0.46142319746E+02  0.10000018104E+02 0.  0.
         12    1    1    2    0    0 -0.15939206305E+02  0.41348401660E+02 -0.80848433525E+01  0.45045680254E+02  0.00000000000E+00 0. -1.
         11    1    3    3    0    0  0.72775519759E+01 -0.17768305808E+02  0.67947521277E+01  0.20367722278E+02  0.51100000000E-03 0. -1.
        -11    1    3    3    0    0  0.69391041114E+01 -0.15115759044E+02  0.31768678521E+01  0.16933098563E+02  0.51100000000E-03 0.  1.
         12    1    3    3    0    0  0.17225502177E+01 -0.84643368076E+01 -0.18867766273E+01  0.88414989050E+01  0.00000000000E+00 0. -1.
</event>
<event>
 7    1  0.2227287E-008  0.4614231E+02  0.7816164E-02  0.1320468E+00
        -11   -1    0    0    0    0  0.00000000000E+00  0.00000000000E+00  0.45593999997E+02  0.45594000000E+02  0.51100000000E-03 0.  1.
         11   -1    0    0    0    0 -0.00000000000E+00 -0.00000000000E+00 -0.45593999997E+02  0.45594000000E+02  0.51100000000E-03 0. -1.
    9900012    2    1    2    0    0 -0.34636809378E+02  0.28501682929E+02 -0.41302961769E+01  0.46142313856E+02  0.99999643943E+01 0.  0.
         12    1    1    2    0    0  0.34636809378E+02 -0.28501682929E+02  0.41302961769E+01  0.45045686144E+02  0.00000000000E+00 0. -1.
         11    1    3    3    0    0 -0.22109581009E+02  0.13641338307E+02 -0.55594372661E+01  0.26567405334E+02  0.51100000000E-03 0. -1.
        -11    1    3    3    0    0 -0.30056345054E+01  0.43318456733E+01  0.10406658712E+01  0.53741707672E+01  0.51100000000E-03 0.  1.
         12    1    3    3    0    0 -0.95215938627E+01  0.10528498948E+02  0.38847521797E+00  0.14200737755E+02  0.00000000000E+00 0. -1.
</event>
<event>
 7    1  0.2227287E-008  0.4614232E+02  0.7816164E-02  0.1320468E+00
        -11   -1    0    0    0    0  0.00000000000E+00  0.00000000000E+00  0.45593999997E+02  0.45594000000E+02  0.51100000000E-03 0.  1.
         11   -1    0    0    0    0 -0.00000000000E+00 -0.00000000000E+00 -0.45593999997E+02  0.45594000000E+02  0.51100000000E-03 0. -1.
    9900012    2    1    2    0    0  0.18473211048E+02  0.41082103747E+02  0.33860122927E+00  0.46142318459E+02  0.10000006362E+02 0.  0.
         12    1    1    2    0    0 -0.18473211048E+02 -0.41082103747E+02 -0.33860122927E+00  0.45045681541E+02  0.00000000000E+00 0. -1.
         11    1    3    3    0    0  0.12681723102E+02  0.26238430581E+02 -0.32263034337E+01  0.29320477048E+02  0.51100000000E-03 0. -1.
        -11    1    3    3    0    0  0.22450562048E+01  0.23029534633E+01 -0.29508704418E+00  0.32296979180E+01  0.51100000000E-03 0.  1.
         12    1    3    3    0    0  0.35464317413E+01  0.12540719703E+02  0.38599917072E+01  0.13592143493E+02  0.00000000000E+00 0. -1.
</event>
<event>
 7    1  0.2227287E-008  0.4614232E+02  0.7816164E-02  0.1320468E+00
        -11   -1    0    0    0    0  0.00000000000E+00  0.00000000000E+00  0.45593999997E+02  0.45594000000E+02  0.51100000000E-03 0.  1.
         11   -1    0    0    0    0 -0.00000000000E+00 -0.00000000000E+00 -0.45593999997E+02  0.45594000000E+02  0.51100000000E-03 0. -1.
    9900012    2    1    2    0    0 -0.88978681821E+01  0.21676796517E+02  0.38471521371E+02  0.46142317387E+02  0.99999965903E+01 0.  0.
         12    1    1    2    0    0  0.88978681821E+01 -0.21676796517E+02 -0.38471521371E+02  0.45045682613E+02  0.00000000000E+00 0. -1.
         11    1    3    3    0    0  0.67089850922E+00  0.12741090411E+01  0.21590717211E+01  0.25951974138E+01  0.51100000000E-03 0. -1.
        -11    1    3    3    0    0 -0.41206198143E+01  0.14912945917E+02  0.18426737150E+02  0.24060758629E+02  0.51100000000E-03 0.  1.
        -12    1    3    3    0    0 -0.54481468770E+01  0.54897415589E+01  0.17885712501E+02  0.19486361344E+02  0.00000000000E+00 0.  1.
</event>
<event>
 7    1  0.2227287E-008  0.4614232E+02  0.7816164E-02  0.1320468E+00
        -11   -1    0    0    0    0  0.00000000000E+00  0.00000000000E+00  0.45593999997E+02  0.45594000000E+02  0.51100000000E-03 0. -1.
         11   -1    0    0    0    0 -0.00000000000E+00 -0.00000000000E+00 -0.45593999997E+02  0.45594000000E+02  0.51100000000E-03 0.  1.
    9900012    2    1    2    0    0 -0.29512782293E+02 -0.15263165508E+02  0.30416197479E+02  0.46142316421E+02  0.99999877789E+01 0.  0.
         12    1    1    2    0    0  0.29512782293E+02  0.15263165508E+02 -0.30416197479E+02  0.45045683579E+02  0.00000000000E+00 0. -1.
         11    1    3    3    0    0 -0.13991494724E+02 -0.84858940612E+01  0.95132642270E+01  0.18928140932E+02  0.51100000000E-03 0. -1.
        -11    1    3    3    0    0 -0.10142342243E+02 -0.64099354404E+01  0.13587479066E+02  0.18126609340E+02  0.51100000000E-03 0.  1.
         12    1    3    3    0    0 -0.53789453264E+01 -0.36733600608E+00  0.73154541858E+01  0.90875661489E+01  0.00000000000E+00 0. -1.
</event>
<event>
 7    1  0.2227287E-008  0.4614232E+02  0.7816164E-02  0.1320468E+00
        -11   -1    0    0    0    0  0.00000000000E+00  0.00000000000E+00  0.45593999997E+02  0.45594000000E+02  0.51100000000E-03 0.  1.
         11   -1    0    0    0    0 -0.00000000000E+00 -0.00000000000E+00 -0.45593999997E+02  0.45594000000E+02  0.51100000000E-03 0. -1.
    9900012    2    1    2    0    0  0.14198277891E+02 -0.24797875324E+02  0.34822231679E+02  0.46142317246E+02  0.99999953060E+01 0.  0.
         12    1    1    2    0    0 -0.14198277891E+02  0.24797875324E+02 -0.34822231679E+02  0.45045682754E+02  0.00000000000E+00 0. -1.
         11    1    3    3    0    0  0.15597181068E+01 -0.98282394212E+01  0.15698345219E+02  0.18586690226E+02  0.51100000000E-03 0. -1.
        -11    1    3    3    0    0  0.67899025383E+01 -0.74070772882E+01  0.11888095460E+02  0.15565808182E+02  0.51100000000E-03 0.  1.
         12    1    3    3    0    0  0.58486572455E+01 -0.75625586143E+01  0.72357909999E+01  0.11989818838E+02  0.00000000000E+00 0. -1.
</event>
<event>
 7    1  0.2227287E-008  0.4614232E+02  0.7816164E-02  0.1320468E+00
        -11   -1    0    0    0    0  0.00000000000E+00  0.00000000000E+00  0.45593999997E+02  0.45594000000E+02  0.51100000000E-03 0.  1.
         11   -1    0    0    0    0 -0.00000000000E+00 -0.00000000000E+00 -0.45593999997E+02  0.45594000000E+02  0.51100000000E-03 0. -1.
    9900012    2    1    2    0    0 -0.30499538164E+02  0.28894658365E+02  0.16247779285E+02  0.46142318276E+02  0.10000004700E+02 0.  0.
         12    1    1    2    0    0  0.30499538164E+02 -0.28894658365E+02 -0.16247779285E+02  0.45045681724E+02  0.00000000000E+00 0. -1.
         11    1    3    3    0    0 -0.46022238983E+00  0.18966406981E+01  0.12203990790E+01  0.23018307407E+01  0.51100000000E-03 0. -1.
        -11    1    3    3    0    0 -0.24678502578E+02  0.19615905926E+02  0.14506644694E+02  0.34702377373E+02  0.51100000000E-03 0.  1.
        -12    1    3    3    0    0 -0.53608131956E+01  0.73821117407E+01  0.52073551232E+00  0.91381101627E+01  0.00000000000E+00 0.  1.
</event>
<event>
 7    1  0.2227287E-008  0.4614232E+02  0.7816164E-02  0.1320468E+00
        -11   -1    0    0    0    0  0.00000000000E+00  0.00000000000E+00  0.45593999997E+02  0.45594000000E+02  0.51100000000E-03 0.  1.
         11   -1    0    0    0    0 -0.00000000000E+00 -0.00000000000E+00 -0.45593999997E+02  0.45594000000E+02  0.51100000000E-03 0. -1.
    9900012    2    1    2    0    0  0.17121115584E+02  0.67365021416E+01  0.41116905041E+02  0.46142323847E+02  0.10000055492E+02 0.  0.
         12    1    1    2    0    0 -0.17121115584E+02 -0.67365021416E+01 -0.41116905041E+02  0.45045676153E+02  0.00000000000E+00 0. -1.
         11    1    3    3    0    0  0.21441673061E+01 -0.83402808042E+00  0.92979244331E+00  0.24814452491E+01  0.51100000000E-03 0. -1.
        -11    1    3    3    0    0  0.24811603890E+01  0.10841484352E+00  0.50104275342E+01  0.55921637128E+01  0.51100000000E-03 0.  1.
         12    1    3    3    0    0  0.12495787889E+02  0.74621153785E+01  0.35176685064E+02  0.38068714885E+02  0.00000000000E+00 0. -1.
</event>
<event>
 7    1  0.2227287E-008  0.4614232E+02  0.7816164E-02  0.1320468E+00
        -11   -1    0    0    0    0  0.00000000000E+00  0.00000000000E+00  0.45593999997E+02  0.45594000000E+02  0.51100000000E-03 0.  1.
         11   -1    0    0    0    0 -0.00000000000E+00 -0.00000000000E+00 -0.45593999997E+02  0.45594000000E+02  0.51100000000E-03 0. -1.
    9900012    2    1    2    0    0  0.40051528504E+02  0.16081311527E+02  0.12898835078E+02  0.46142318051E+02  0.10000002643E+02 0.  0.
         12    1    1    2    0    0 -0.40051528504E+02 -0.16081311527E+02 -0.12898835078E+02  0.45045681949E+02  0.00000000000E+00 0. -1.
         11    1    3    3    0    0  0.11746891552E+02  0.79662277110E+01  0.19344092999E+01  0.14324530871E+02  0.51100000000E-03 0. -1.
        -11    1    3    3    0    0  0.13316660594E+02  0.40939940004E+01  0.25430709865E+01  0.14161971845E+02  0.51100000000E-03 0.  1.
        -12    1    3    3    0    0  0.14987976358E+02  0.40210898152E+01  0.84213547911E+01  0.17655815334E+02  0.00000000000E+00 0.  1.
</event>
<event>
 7    1  0.2227287E-008  0.4614232E+02  0.7816164E-02  0.1320468E+00
        -11   -1    0    0    0    0  0.00000000000E+00  0.00000000000E+00  0.45593999997E+02  0.45594000000E+02  0.51100000000E-03 0.  1.
         11   -1    0    0    0    0 -0.00000000000E+00 -0.00000000000E+00 -0.45593999997E+02  0.45594000000E+02  0.51100000000E-03 0. -1.
    9900012    2    1    2    0    0  0.21897553386E+02  0.34903741871E+02  0.18202732073E+02  0.46142317678E+02  0.99999992456E+01 0.  0.
         12    1    1    2    0    0 -0.21897553386E+02 -0.34903741871E+02 -0.18202732073E+02  0.45045682322E+02  0.00000000000E+00 0. -1.
         11    1    3    3    0    0  0.24120810184E+00  0.21378213690E+01  0.31922410091E+01  0.38495278250E+01  0.51100000000E-03 0. -1.
        -11    1    3    3    0    0  0.81551874091E+01  0.13278211716E+02  0.36530617860E+01  0.16005088213E+02  0.51100000000E-03 0.  1.
        -12    1    3    3    0    0  0.13501157875E+02  0.19487708787E+02  0.11357429278E+02  0.26287701640E+02  0.00000000000E+00 0.  1.
</event>
<event>
 7    1  0.2227287E-008  0.4614232E+02  0.7816164E-02  0.1320468E+00
        -11   -1    0    0    0    0  0.00000000000E+00  0.00000000000E+00  0.45593999997E+02  0.45594000000E+02  0.51100000000E-03 0. -1.
         11   -1    0    0    0    0 -0.00000000000E+00 -0.00000000000E+00 -0.45593999997E+02  0.45594000000E+02  0.51100000000E-03 0.  1.
    9900012    2    1    2    0    0 -0.29652011358E+02 -0.33819656245E+02  0.24703225400E+01  0.46142318525E+02  0.10000006968E+02 0.  0.
         12    1    1    2    0    0  0.29652011358E+02  0.33819656245E+02 -0.24703225400E+01  0.45045681475E+02  0.00000000000E+00 0. -1.
         11    1    3    3    0    0 -0.10975773888E+02 -0.13857304172E+02  0.45563228209E+00  0.17683328092E+02  0.51100000000E-03 0. -1.
        -11    1    3    3    0    0 -0.11147655620E+02 -0.90930500503E+01 -0.22617868425E+01  0.14562605022E+02  0.51100000000E-03 0.  1.
         12    1    3    3    0    0 -0.75285818498E+01 -0.10869302022E+02  0.42764771004E+01  0.13896385412E+02  0.00000000000E+00 0. -1.
</event>
<event>
 7    1  0.2227287E-008  0.4614232E+02  0.7816164E-02  0.1320468E+00
        -11   -1    0    0    0    0  0.00000000000E+00  0.00000000000E+00  0.45593999997E+02  0.45594000000E+02  0.51100000000E-03 0.  1.
         11   -1    0    0    0    0 -0.00000000000E+00 -0.00000000000E+00 -0.45593999997E+02  0.45594000000E+02  0.51100000000E-03 0. -1.
    9900012    2    1    2    0    0  0.33859159907E+02 -0.25445105489E+02  0.15336798594E+02  0.46142317698E+02  0.99999994265E+01 0.  0.
         12    1    1    2    0    0 -0.33859159907E+02  0.25445105489E+02 -0.15336798594E+02  0.45045682302E+02  0.00000000000E+00 0. -1.
         11    1    3    3    0    0  0.52508388545E+01 -0.56079861770E+01  0.23991624584E+01  0.80484034690E+01  0.51100000000E-03 0. -1.
        -11    1    3    3    0    0  0.22909300046E+02 -0.16867455209E+02  0.13783395565E+02  0.31612166445E+02  0.51100000000E-03 0.  1.
         12    1    3    3    0    0  0.56990210066E+01 -0.29696641029E+01 -0.84575943006E+00  0.64817477837E+01  0.00000000000E+00 0. -1.
</event>
<event>
 7    1  0.2227287E-008  0.4614232E+02  0.7816164E-02  0.1320468E+00
        -11   -1    0    0    0    0  0.00000000000E+00  0.00000000000E+00  0.45593999997E+02  0.45594000000E+02  0.51100000000E-03 0.  1.
         11   -1    0    0    0    0 -0.00000000000E+00 -0.00000000000E+00 -0.45593999997E+02  0.45594000000E+02  0.51100000000E-03 0. -1.
    9900012    2    1    2    0    0 -0.12326800956E+02  0.17467184552E+02  0.39649222495E+02  0.46142318715E+02  0.10000008700E+02 0.  0.
         12    1    1    2    0    0  0.12326800956E+02 -0.17467184552E+02 -0.39649222495E+02  0.45045681285E+02  0.00000000000E+00 0. -1.
         11    1    3    3    0    0 -0.69130370984E+01  0.96961284663E+01  0.28914091015E+02  0.31270267806E+02  0.51100000000E-03 0. -1.
        -11    1    3    3    0    0  0.49815894850E+00  0.66657810965E+00  0.19514071815E+01  0.21214332333E+01  0.51100000000E-03 0.  1.
         12    1    3    3    0    0 -0.59119228056E+01  0.71044779757E+01  0.87837242981E+01  0.12750617676E+02  0.00000000000E+00 0. -1.
</event>
<event>
 7    1  0.2227287E-008  0.4614232E+02  0.7816164E-02  0.1320468E+00
        -11   -1    0    0    0    0  0.00000000000E+00  0.00000000000E+00  0.45593999997E+02  0.45594000000E+02  0.51100000000E-03 0. -1.
         11   -1    0    0    0    0 -0.00000000000E+00 -0.00000000000E+00 -0.45593999997E+02  0.45594000000E+02  0.51100000000E-03 0.  1.
    9900012    2    1    2    0    0  0.18775919844E+02  0.40946008125E+02  0.51950927017E-01  0.46142318228E+02  0.10000004260E+02 0.  0.
         12    1    1    2    0    0 -0.18775919844E+02 -0.40946008125E+02 -0.51950927017E-01  0.45045681772E+02  0.00000000000E+00 0. -1.
         11    1    3    3    0    0  0.14298590458E+01  0.73813340883E+01  0.11013482685E+01  0.75987866192E+01  0.51100000000E-03 0. -1.
        -11    1    3    3    0    0  0.13320653560E+02  0.25414164286E+02 -0.40340385728E+01  0.28975731657E+02  0.51100000000E-03 0.  1.
         12    1    3    3    0    0  0.40254072385E+01  0.81505097510E+01  0.29846412313E+01  0.95677999517E+01  0.00000000000E+00 0. -1.
</event>
<event>
 7    1  0.2227287E-008  0.4614232E+02  0.7816164E-02  0.1320468E+00
        -11   -1    0    0    0    0  0.00000000000E+00  0.00000000000E+00  0.45593999997E+02  0.45594000000E+02  0.51100000000E-03 0.  1.
         11   -1    0    0    0    0 -0.00000000000E+00 -0.00000000000E+00 -0.45593999997E+02  0.45594000000E+02  0.51100000000E-03 0. -1.
    9900012    2    1    2    0    0 -0.18898244547E+02  0.20435146655E+02  0.35417149612E+02  0.46142319270E+02  0.10000013760E+02 0.  0.
         12    1    1    2    0    0  0.18898244547E+02 -0.20435146655E+02 -0.35417149612E+02  0.45045680730E+02  0.00000000000E+00 0. -1.
         11    1    3    3    0    0 -0.67943821541E+01  0.23239411383E+01  0.78754198958E+01  0.10657700036E+02  0.51100000000E-03 0.  1.
        -11    1    3    3    0    0 -0.43642002752E+01  0.30209522185E+01  0.81154219723E+01  0.96970341032E+01  0.51100000000E-03 0. -1.
         12    1    3    3    0    0 -0.77396621176E+01  0.15090253298E+02  0.19426307744E+02  0.25787585131E+02  0.00000000000E+00 0. -1.
</event>
<event>
 7    1  0.2227287E-008  0.4614233E+02  0.7816164E-02  0.1320468E+00
        -11   -1    0    0    0    0  0.00000000000E+00  0.00000000000E+00  0.45593999997E+02  0.45594000000E+02  0.51100000000E-03 0.  1.
         11   -1    0    0    0    0 -0.00000000000E+00 -0.00000000000E+00 -0.45593999997E+02  0.45594000000E+02  0.51100000000E-03 0. -1.
    9900012    2    1    2    0    0 -0.20149102752E+02  0.68179129550E+00  0.40282264693E+02  0.46142333950E+02  0.10000147619E+02 0.  0.
         12    1    1    2    0    0  0.20149102752E+02 -0.68179129550E+00 -0.40282264693E+02  0.45045666050E+02  0.00000000000E+00 0. -1.
         11    1    3    3    0    0 -0.42899849051E+01  0.41826797442E+01  0.80583375594E+01  0.10041692328E+02  0.51100000000E-03 0. -1.
        -11    1    3    3    0    0 -0.40220160459E+01 -0.52404865683E+00  0.86817080244E+01  0.95824472109E+01  0.51100000000E-03 0.  1.
         12    1    3    3    0    0 -0.11837101801E+02 -0.29768397919E+01  0.23542219110E+02  0.26518194411E+02  0.00000000000E+00 0. -1.
</event>
<event>
 7    1  0.2227287E-008  0.4614232E+02  0.7816164E-02  0.1320468E+00
        -11   -1    0    0    0    0  0.00000000000E+00  0.00000000000E+00  0.45593999997E+02  0.45594000000E+02  0.51100000000E-03 0. -1.
         11   -1    0    0    0    0 -0.00000000000E+00 -0.00000000000E+00 -0.45593999997E+02  0.45594000000E+02  0.51100000000E-03 0.  1.
    9900012    2    1    2    0    0  0.23612121842E+02 -0.32249463403E+02 -0.20773861674E+02  0.46142317449E+02  0.99999971501E+01 0.  0.
         12    1    1    2    0    0 -0.23612121842E+02  0.32249463403E+02  0.20773861674E+02  0.45045682551E+02  0.00000000000E+00 0. -1.
         11    1    3    3    0    0  0.15053378242E+02 -0.17149663346E+02 -0.98921595633E+01  0.24871066934E+02  0.51100000000E-03 0. -1.
        -11    1    3    3    0    0  0.87843572277E+01 -0.11057953022E+02 -0.74653648301E+01  0.15974195731E+02  0.51100000000E-03 0.  1.
         12    1    3    3    0    0 -0.22561362699E+00 -0.40418470353E+01 -0.34163372808E+01  0.52970547837E+01  0.00000000000E+00 0. -1.
</event>
<event>
 7    1  0.2227287E-008  0.4614232E+02  0.7816164E-02  0.1320468E+00
        -11   -1    0    0    0    0  0.00000000000E+00  0.00000000000E+00  0.45593999997E+02  0.45594000000E+02  0.51100000000E-03 0.  1.
         11   -1    0    0    0    0 -0.00000000000E+00 -0.00000000000E+00 -0.45593999997E+02  0.45594000000E+02  0.51100000000E-03 0. -1.
    9900012    2    1    2    0    0  0.40250287342E+02 -0.52878072323E+01  0.19520937236E+02  0.46142317332E+02  0.99999960861E+01 0.  0.
         12    1    1    2    0    0 -0.40250287342E+02  0.52878072323E+01 -0.19520937236E+02  0.45045682668E+02  0.00000000000E+00 0. -1.
         11    1    3    3    0    0  0.41931567983E+01 -0.10628412747E+00 -0.85915752051E-02  0.41945124064E+01  0.51100000000E-03 0. -1.
        -11    1    3    3    0    0  0.34767216625E+01 -0.15781238679E+01  0.51896370984E-01  0.38184763919E+01  0.51100000000E-03 0.  1.
        -12    1    3    3    0    0  0.32580408881E+02 -0.36033992369E+01  0.19477632441E+02  0.38129328534E+02  0.00000000000E+00 0.  1.
</event>
<event>
 7    1  0.2227287E-008  0.4614232E+02  0.7816164E-02  0.1320468E+00
        -11   -1    0    0    0    0  0.00000000000E+00  0.00000000000E+00  0.45593999997E+02  0.45594000000E+02  0.51100000000E-03 0. -1.
         11   -1    0    0    0    0 -0.00000000000E+00 -0.00000000000E+00 -0.45593999997E+02  0.45594000000E+02  0.51100000000E-03 0.  1.
    9900012    2    1    2    0    0  0.36146445106E+02  0.21559410586E+02 -0.16054274316E+02  0.46142318715E+02  0.10000008696E+02 0.  0.
         12    1    1    2    0    0 -0.36146445106E+02 -0.21559410586E+02  0.16054274316E+02  0.45045681285E+02  0.00000000000E+00 0. -1.
         11    1    3    3    0    0  0.10484106437E+02  0.30957809636E+01 -0.49361906421E+01  0.11994428952E+02  0.51100000000E-03 0. -1.
        -11    1    3    3    0    0  0.21838699576E+02  0.12423716742E+02 -0.90634955581E+01  0.26710007280E+02  0.51100000000E-03 0.  1.
         12    1    3    3    0    0  0.38236390923E+01  0.60399128804E+01 -0.20545881161E+01  0.74378824835E+01  0.00000000000E+00 0. -1.
</event>
<event>
 7    1  0.2227287E-008  0.4614232E+02  0.7816164E-02  0.1320468E+00
        -11   -1    0    0    0    0  0.00000000000E+00  0.00000000000E+00  0.45593999997E+02  0.45594000000E+02  0.51100000000E-03 0. -1.
         11   -1    0    0    0    0 -0.00000000000E+00 -0.00000000000E+00 -0.45593999997E+02  0.45594000000E+02  0.51100000000E-03 0.  1.
    9900012    2    1    2    0    0 -0.42392996631E+02  0.76979744334E+01  0.13141099418E+02  0.46142317991E+02  0.10000002092E+02 0.  0.
         12    1    1    2    0    0  0.42392996631E+02 -0.76979744334E+01 -0.13141099418E+02  0.45045682009E+02  0.00000000000E+00 0. -1.
         11    1    3    3    0    0 -0.42658048770E+01  0.23176315829E+01  0.23831786312E+01  0.54081464525E+01  0.51100000000E-03 0. -1.
        -11    1    3    3    0    0 -0.15738022790E+02  0.51615118503E+01  0.72120841672E+01  0.18064903106E+02  0.51100000000E-03 0.  1.
        -12    1    3    3    0    0 -0.22389168964E+02  0.21883100017E+00  0.35458366200E+01  0.22669268432E+02  0.00000000000E+00 0.  1.
</event>
<event>
 7    1  0.2227287E-008  0.4614232E+02  0.7816164E-02  0.1320468E+00
        -11   -1    0    0    0    0  0.00000000000E+00  0.00000000000E+00  0.45593999997E+02  0.45594000000E+02  0.51100000000E-03 0. -1.
         11   -1    0    0    0    0 -0.00000000000E+00 -0.00000000000E+00 -0.45593999997E+02  0.45594000000E+02  0.51100000000E-03 0.  1.
    9900012    2    1    2    0    0  0.34823976200E+02 -0.13558377309E+01 -0.28540600389E+02  0.46142317800E+02  0.10000000355E+02 0.  0.
         12    1    1    2    0    0 -0.34823976200E+02  0.13558377309E+01  0.28540600389E+02  0.45045682200E+02  0.00000000000E+00 0. -1.
         11    1    3    3    0    0  0.98732037621E+01  0.30948331658E+01 -0.11695452339E+02  0.15615433088E+02  0.51100000000E-03 0. -1.
        -11    1    3    3    0    0  0.13852255378E+02 -0.31371280699E+01 -0.82248738799E+01  0.16412650675E+02  0.51100000000E-03 0.  1.
         12    1    3    3    0    0  0.11098517060E+02 -0.13135428268E+01 -0.86202741703E+01  0.14114234037E+02  0.00000000000E+00 0. -1.
</event>
<event>
 7    1  0.2227287E-008  0.4614232E+02  0.7816164E-02  0.1320468E+00
        -11   -1    0    0    0    0  0.00000000000E+00  0.00000000000E+00  0.45593999997E+02  0.45594000000E+02  0.51100000000E-03 0. -1.
         11   -1    0    0    0    0 -0.00000000000E+00 -0.00000000000E+00 -0.45593999997E+02  0.45594000000E+02  0.51100000000E-03 0.  1.
    9900012    2    1    2    0    0 -0.10163196832E+00 -0.72350095027E+01 -0.44460744788E+02  0.46142317424E+02  0.99999969301E+01 0.  0.
         12    1    1    2    0    0  0.10163196832E+00  0.72350095027E+01  0.44460744788E+02  0.45045682576E+02  0.00000000000E+00 0. -1.
         11    1    3    3    0    0 -0.20215605705E+01  0.14107436517E+01 -0.11107843836E+02  0.11378097369E+02  0.51100000000E-03 0. -1.
        -11    1    3    3    0    0 -0.74054760135E+00 -0.45598135942E+01 -0.20586003283E+02  0.21097958247E+02  0.51100000000E-03 0.  1.
        -12    1    3    3    0    0  0.26604762035E+01 -0.40859395602E+01 -0.12766897670E+02  0.13666261809E+02  0.00000000000E+00 0.  1.
</event>
<event>
 7    1  0.2227287E-008  0.4614232E+02  0.7816164E-02  0.1320468E+00
        -11   -1    0    0    0    0  0.00000000000E+00  0.00000000000E+00  0.45593999997E+02  0.45594000000E+02  0.51100000000E-03 0.  1.
         11   -1    0    0    0    0 -0.00000000000E+00 -0.00000000000E+00 -0.45593999997E+02  0.45594000000E+02  0.51100000000E-03 0. -1.
    9900012    2    1    2    0    0  0.34023856459E+02  0.68766627744E+01  0.28708922013E+02  0.46142317605E+02  0.99999985754E+01 0.  0.
         12    1    1    2    0    0 -0.34023856459E+02 -0.68766627744E+01 -0.28708922013E+02  0.45045682395E+02  0.00000000000E+00 0. -1.
         11    1    3    3    0    0  0.84863308796E+01 -0.16183549521E+01  0.60187851648E+01  0.10529133852E+02  0.51100000000E-03 0.  1.
        -11    1    3    3    0    0  0.64351087912E+01  0.27489510917E+01  0.30972123084E+01  0.76524559198E+01  0.51100000000E-03 0. -1.
        -12    1    3    3    0    0  0.19102416788E+02  0.57460666348E+01  0.19592924540E+02  0.27960727833E+02  0.00000000000E+00 0.  1.
</event>
<event>
 7    1  0.2227287E-008  0.4614232E+02  0.7816164E-02  0.1320468E+00
        -11   -1    0    0    0    0  0.00000000000E+00  0.00000000000E+00  0.45593999997E+02  0.45594000000E+02  0.51100000000E-03 0.  1.
         11   -1    0    0    0    0 -0.00000000000E+00 -0.00000000000E+00 -0.45593999997E+02  0.45594000000E+02  0.51100000000E-03 0. -1.
    9900012    2    1    2    0    0 -0.29152132586E+02 -0.31483727976E-01  0.34340437519E+02  0.46142317915E+02  0.10000001404E+02 0.  0.
         12    1    1    2    0    0  0.29152132586E+02  0.31483727976E-01 -0.34340437519E+02  0.45045682085E+02  0.00000000000E+00 0. -1.
         11    1    3    3    0    0 -0.90065519859E+01  0.16923174320E+01  0.16257384715E+02  0.18662381279E+02  0.51100000000E-03 0. -1.
        -11    1    3    3    0    0 -0.64841500744E+01  0.12291923919E+01  0.44830651220E+01  0.79782823510E+01  0.51100000000E-03 0.  1.
        -12    1    3    3    0    0 -0.13661430525E+02 -0.29529935518E+01  0.13599987682E+02  0.19501654285E+02  0.00000000000E+00 0.  1.
</event>
<event>
 7    1  0.2227287E-008  0.4614232E+02  0.7816164E-02  0.1320468E+00
        -11   -1    0    0    0    0  0.00000000000E+00  0.00000000000E+00  0.45593999997E+02  0.45594000000E+02  0.51100000000E-03 0.  1.
         11   -1    0    0    0    0 -0.00000000000E+00 -0.00000000000E+00 -0.45593999997E+02  0.45594000000E+02  0.51100000000E-03 0. -1.
    9900012    2    1    2    0    0 -0.29419895928E+02  0.24122193085E+02  0.24118521316E+02  0.46142317120E+02  0.99999941550E+01 0.  0.
         12    1    1    2    0    0  0.29419895928E+02 -0.24122193085E+02 -0.24118521316E+02  0.45045682880E+02  0.00000000000E+00 0. -1.
         11    1    3    3    0    0 -0.31655783340E+01  0.78079715670E+00  0.36018535945E+00  0.32802841558E+01  0.51100000000E-03 0. -1.
        -11    1    3    3    0    0 -0.41718552378E+01  0.28807647441E+01  0.11110861733E+01  0.51901535991E+01  0.51100000000E-03 0.  1.
         12    1    3    3    0    0 -0.22082462356E+02  0.20460631184E+02  0.22647249783E+02  0.37671879365E+02  0.00000000000E+00 0. -1.
</event>
<event>
 7    1  0.2227287E-008  0.4614232E+02  0.7816164E-02  0.1320468E+00
        -11   -1    0    0    0    0  0.00000000000E+00  0.00000000000E+00  0.45593999997E+02  0.45594000000E+02  0.51100000000E-03 0.  1.
         11   -1    0    0    0    0 -0.00000000000E+00 -0.00000000000E+00 -0.45593999997E+02  0.45594000000E+02  0.51100000000E-03 0. -1.
    9900012    2    1    2    0    0  0.49334066610E+00  0.44099346482E+02  0.91715719317E+01  0.46142317889E+02  0.10000001164E+02 0.  0.
         12    1    1    2    0    0 -0.49334066610E+00 -0.44099346482E+02 -0.91715719317E+01  0.45045682111E+02  0.00000000000E+00 0. -1.
         11    1    3    3    0    0  0.15735790244E+01  0.21431000312E+02  0.22881247599E+01  0.21610169840E+02  0.51100000000E-03 0. -1.
        -11    1    3    3    0    0  0.16866210143E+01  0.16170523663E+02  0.63337521538E+01  0.17448408024E+02  0.51100000000E-03 0.  1.
         12    1    3    3    0    0 -0.27668593727E+01  0.64978225073E+01  0.54969501800E+00  0.70837400247E+01  0.00000000000E+00 0. -1.
</event>
<event>
 7    1  0.2227287E-008  0.4614232E+02  0.7816164E-02  0.1320468E+00
        -11   -1    0    0    0    0  0.00000000000E+00  0.00000000000E+00  0.45593999997E+02  0.45594000000E+02  0.51100000000E-03 0.  1.
         11   -1    0    0    0    0 -0.00000000000E+00 -0.00000000000E+00 -0.45593999997E+02  0.45594000000E+02  0.51100000000E-03 0. -1.
    9900012    2    1    2    0    0  0.11252270888E+01 -0.22953144071E+02  0.38742746204E+02  0.46142319384E+02  0.10000014802E+02 0.  0.
         12    1    1    2    0    0 -0.11252270888E+01  0.22953144071E+02 -0.38742746204E+02  0.45045680616E+02  0.00000000000E+00 0. -1.
         11    1    3    3    0    0  0.15082074257E+01 -0.15054407410E+02  0.28425918396E+02  0.32201594821E+02  0.51100000000E-03 0. -1.
        -11    1    3    3    0    0 -0.68052738955E+00 -0.83662232278E+01  0.81330765113E+01  0.11687760368E+02  0.51100000000E-03 0.  1.
         12    1    3    3    0    0  0.29754705260E+00  0.46748656726E+00  0.21837512968E+01  0.22529641953E+01  0.00000000000E+00 0. -1.
</event>
<event>
 7    1  0.2227287E-008  0.4614232E+02  0.7816164E-02  0.1320468E+00
        -11   -1    0    0    0    0  0.00000000000E+00  0.00000000000E+00  0.45593999997E+02  0.45594000000E+02  0.51100000000E-03 0. -1.
         11   -1    0    0    0    0 -0.00000000000E+00 -0.00000000000E+00 -0.45593999997E+02  0.45594000000E+02  0.51100000000E-03 0.  1.
    9900012    2    1    2    0    0 -0.22356122425E+02 -0.37525399910E+02 -0.11007343957E+02  0.46142317973E+02  0.10000001935E+02 0.  0.
         12    1    1    2    0    0  0.22356122425E+02  0.37525399910E+02  0.11007343957E+02  0.45045682027E+02  0.00000000000E+00 0. -1.
         11    1    3    3    0    0 -0.54600491671E+01 -0.73210584690E+01  0.10109652831E+01  0.91886933281E+01  0.51100000000E-03 0. -1.
        -11    1    3    3    0    0 -0.63316987348E+01 -0.69468391347E+01 -0.33468402132E+01  0.99774907920E+01  0.51100000000E-03 0.  1.
         12    1    3    3    0    0 -0.10564374523E+02 -0.23257502306E+02 -0.86714690268E+01  0.26976133853E+02  0.00000000000E+00 0. -1.
</event>
<event>
 7    1  0.2227287E-008  0.4614232E+02  0.7816164E-02  0.1320468E+00
        -11   -1    0    0    0    0  0.00000000000E+00  0.00000000000E+00  0.45593999997E+02  0.45594000000E+02  0.51100000000E-03 0.  1.
         11   -1    0    0    0    0 -0.00000000000E+00 -0.00000000000E+00 -0.45593999997E+02  0.45594000000E+02  0.51100000000E-03 0. -1.
    9900012    2    1    2    0    0 -0.19934095061E+02  0.27696651131E+02  0.29404777744E+02  0.46142316700E+02  0.99999903211E+01 0.  0.
         12    1    1    2    0    0  0.19934095061E+02 -0.27696651131E+02 -0.29404777744E+02  0.45045683300E+02  0.00000000000E+00 0. -1.
         11    1    3    3    0    0 -0.42600972224E+01  0.46749737266E+01  0.44123222260E+01  0.77118347607E+01  0.51100000000E-03 0. -1.
        -11    1    3    3    0    0 -0.15679503812E+02  0.17207549195E+02  0.18673723788E+02  0.29843836038E+02  0.51100000000E-03 0.  1.
        -12    1    3    3    0    0  0.55059726299E-02  0.58141282098E+01  0.63187317305E+01  0.85866459015E+01  0.00000000000E+00 0.  1.
</event>
<event>
 7    1  0.2227287E-008  0.4614232E+02  0.7816164E-02  0.1320468E+00
        -11   -1    0    0    0    0  0.00000000000E+00  0.00000000000E+00  0.45593999997E+02  0.45594000000E+02  0.51100000000E-03 0.  1.
         11   -1    0    0    0    0 -0.00000000000E+00 -0.00000000000E+00 -0.45593999997E+02  0.45594000000E+02  0.51100000000E-03 0. -1.
    9900012    2    1    2    0    0 -0.10914741032E+02  0.57459245133E+01  0.43323970184E+02  0.46142316379E+02  0.99999874003E+01 0.  0.
         12    1    1    2    0    0  0.10914741032E+02 -0.57459245133E+01 -0.43323970184E+02  0.45045683621E+02  0.00000000000E+00 0. -1.
         11    1    3    3    0    0 -0.80030986387E+01  0.55415987300E+01  0.33963166444E+02  0.35330660614E+02  0.51100000000E-03 0. -1.
        -11    1    3    3    0    0 -0.36495707876E+01 -0.52121309845E+00  0.89828646829E+01  0.97099376003E+01  0.51100000000E-03 0.  1.
         12    1    3    3    0    0  0.73792839384E+00  0.72553888183E+00  0.37793905785E+00  0.11017181649E+01  0.00000000000E+00 0. -1.
</event>
<event>
 7    1  0.2227287E-008  0.4614231E+02  0.7816164E-02  0.1320468E+00
        -11   -1    0    0    0    0  0.00000000000E+00  0.00000000000E+00  0.45593999997E+02  0.45594000000E+02  0.51100000000E-03 0. -1.
         11   -1    0    0    0    0 -0.00000000000E+00 -0.00000000000E+00 -0.45593999997E+02  0.45594000000E+02  0.51100000000E-03 0.  1.
    9900012    2    1    2    0    0 -0.20562765052E+02 -0.26327071809E+02  0.30218732262E+02  0.46142314345E+02  0.99999688476E+01 0.  0.
         12    1    1    2    0    0  0.20562765052E+02  0.26327071809E+02 -0.30218732262E+02  0.45045685655E+02  0.00000000000E+00 0. -1.
         11    1    3    3    0    0 -0.11477505856E+02 -0.13549696467E+02  0.18832136225E+02  0.25883909482E+02  0.51100000000E-03 0. -1.
        -11    1    3    3    0    0 -0.52046740905E+01 -0.11240572640E+02  0.97935681697E+01  0.15790917751E+02  0.51100000000E-03 0.  1.
        -12    1    3    3    0    0 -0.38805851055E+01 -0.15368027024E+01  0.15930278669E+01  0.44674871116E+01  0.00000000000E+00 0.  1.
</event>
<event>
 7    1  0.2227287E-008  0.4614232E+02  0.7816164E-02  0.1320468E+00
        -11   -1    0    0    0    0  0.00000000000E+00  0.00000000000E+00  0.45593999997E+02  0.45594000000E+02  0.51100000000E-03 0.  1.
         11   -1    0    0    0    0 -0.00000000000E+00 -0.00000000000E+00 -0.45593999997E+02  0.45594000000E+02  0.51100000000E-03 0. -1.
    9900012    2    1    2    0    0  0.24422001062E+02 -0.13907379475E+02  0.35203184133E+02  0.46142317489E+02  0.99999975194E+01 0.  0.
         12    1    1    2    0    0 -0.24422001062E+02  0.13907379475E+02 -0.35203184133E+02  0.45045682511E+02  0.00000000000E+00 0. -1.
         11    1    3    3    0    0  0.13586440196E+02 -0.69776315235E+01  0.11971739040E+02  0.19406216395E+02  0.51100000000E-03 0. -1.
        -11    1    3    3    0    0  0.79588901149E+01 -0.34372014211E+01  0.16218785473E+02  0.18390412936E+02  0.51100000000E-03 0.  1.
        -12    1    3    3    0    0  0.28766707515E+01 -0.34925465306E+01  0.70126596208E+01  0.83456881584E+01  0.00000000000E+00 0.  1.
</event>
<event>
 7    1  0.2227287E-008  0.4614232E+02  0.7816164E-02  0.1320468E+00
        -11   -1    0    0    0    0  0.00000000000E+00  0.00000000000E+00  0.45593999997E+02  0.45594000000E+02  0.51100000000E-03 0.  1.
         11   -1    0    0    0    0 -0.00000000000E+00 -0.00000000000E+00 -0.45593999997E+02  0.45594000000E+02  0.51100000000E-03 0. -1.
    9900012    2    1    2    0    0  0.11962941209E+02 -0.46479905476E+01  0.43178671901E+02  0.46142317791E+02  0.10000000276E+02 0.  0.
         12    1    1    2    0    0 -0.11962941209E+02  0.46479905476E+01 -0.43178671901E+02  0.45045682209E+02  0.00000000000E+00 0. -1.
         11    1    3    3    0    0  0.21816065298E+01  0.64933228089E+00  0.17298889799E+02  0.17447997822E+02  0.51100000000E-03 0. -1.
        -11    1    3    3    0    0  0.20171472212E+01 -0.89138352615E+00  0.13384026673E+01  0.25796839852E+01  0.51100000000E-03 0.  1.
        -12    1    3    3    0    0  0.77641874580E+01 -0.44059393024E+01  0.24541379435E+02  0.26114635984E+02  0.00000000000E+00 0.  1.
</event>
<event>
 7    1  0.2227287E-008  0.4614232E+02  0.7816164E-02  0.1320468E+00
        -11   -1    0    0    0    0  0.00000000000E+00  0.00000000000E+00  0.45593999997E+02  0.45594000000E+02  0.51100000000E-03 0. -1.
         11   -1    0    0    0    0 -0.00000000000E+00 -0.00000000000E+00 -0.45593999997E+02  0.45594000000E+02  0.51100000000E-03 0.  1.
    9900012    2    1    2    0    0 -0.55468218899E+00 -0.29604535832E+02 -0.33946683026E+02  0.46142317602E+02  0.99999985516E+01 0.  0.
         12    1    1    2    0    0  0.55468218899E+00  0.29604535832E+02  0.33946683026E+02  0.45045682398E+02  0.00000000000E+00 0. -1.
         11    1    3    3    0    0  0.96115408993E-01 -0.21395705457E+01  0.13894737498E+00  0.21462308650E+01  0.51100000000E-03 0. -1.
        -11    1    3    3    0    0 -0.73003574300E+00 -0.46724609667E+01 -0.36600660547E+01  0.59800441016E+01  0.51100000000E-03 0.  1.
        -12    1    3    3    0    0  0.79238145020E-01 -0.22792504320E+02 -0.30425564347E+02  0.38016042636E+02  0.00000000000E+00 0.  1.
</event>
<event>
 7    1  0.2227287E-008  0.4614232E+02  0.7816164E-02  0.1320468E+00
        -11   -1    0    0    0    0  0.00000000000E+00  0.00000000000E+00  0.45593999997E+02  0.45594000000E+02  0.51100000000E-03 0. -1.
         11   -1    0    0    0    0 -0.00000000000E+00 -0.00000000000E+00 -0.45593999997E+02  0.45594000000E+02  0.51100000000E-03 0.  1.
    9900012    2    1    2    0    0 -0.10786651228E+02  0.40680710606E+02 -0.16057440424E+02  0.46142318153E+02  0.10000003572E+02 0.  0.
         12    1    1    2    0    0  0.10786651228E+02 -0.40680710606E+02  0.16057440424E+02  0.45045681847E+02  0.00000000000E+00 0. -1.
         11    1    3    3    0    0 -0.47808435497E+01  0.19800938127E+02 -0.10009460841E+02  0.22696319577E+02  0.51100000000E-03 0. -1.
        -11    1    3    3    0    0 -0.46326281144E+01  0.20295788678E+02 -0.45053006772E+01  0.21299718678E+02  0.51100000000E-03 0.  1.
         12    1    3    3    0    0 -0.13731795634E+01  0.58398380107E+00 -0.15426789058E+01  0.21462798978E+01  0.00000000000E+00 0. -1.
</event>
<event>
 7    1  0.2227287E-008  0.4614232E+02  0.7816164E-02  0.1320468E+00
        -11   -1    0    0    0    0  0.00000000000E+00  0.00000000000E+00  0.45593999997E+02  0.45594000000E+02  0.51100000000E-03 0.  1.
         11   -1    0    0    0    0 -0.00000000000E+00 -0.00000000000E+00 -0.45593999997E+02  0.45594000000E+02  0.51100000000E-03 0. -1.
    9900012    2    1    2    0    0  0.10890228438E+01  0.43256759233E+02  0.12521194052E+02  0.46142317737E+02  0.99999997760E+01 0.  0.
         12    1    1    2    0    0 -0.10890228438E+01 -0.43256759233E+02 -0.12521194052E+02  0.45045682263E+02  0.00000000000E+00 0. -1.
         11    1    3    3    0    0  0.34820282844E+01  0.21918468858E+02  0.23955785670E+01  0.22322244399E+02  0.51100000000E-03 0. -1.
        -11    1    3    3    0    0 -0.11984383262E+01  0.68687338754E+01  0.41916806845E+01  0.81354745832E+01  0.51100000000E-03 0.  1.
         12    1    3    3    0    0 -0.11945671144E+01  0.14469556500E+02  0.59339348002E+01  0.15684598755E+02  0.00000000000E+00 0. -1.
</event>
<event>
 7    1  0.2227287E-008  0.4614232E+02  0.7816164E-02  0.1320468E+00
        -11   -1    0    0    0    0  0.00000000000E+00  0.00000000000E+00  0.45593999997E+02  0.45594000000E+02  0.51100000000E-03 0.  1.
         11   -1    0    0    0    0 -0.00000000000E+00 -0.00000000000E+00 -0.45593999997E+02  0.45594000000E+02  0.51100000000E-03 0. -1.
    9900012    2    1    2    0    0 -0.68349051221E+01  0.17842693408E+02  0.40792598548E+02  0.46142315052E+02  0.99999752989E+01 0.  0.
         12    1    1    2    0    0  0.68349051221E+01 -0.17842693408E+02 -0.40792598548E+02  0.45045684948E+02  0.00000000000E+00 0. -1.
         11    1    3    3    0    0 -0.12983896042E+01  0.23744564897E-01  0.33486304072E+01  0.35916159642E+01  0.51100000000E-03 0. -1.
        -11    1    3    3    0    0  0.95743424490E+00  0.90692519887E+00  0.70101173483E+01  0.71330876307E+01  0.51100000000E-03 0.  1.
         12    1    3    3    0    0 -0.64939497628E+01  0.16912023645E+02  0.30433850793E+02  0.35417611457E+02  0.00000000000E+00 0. -1.
</event>
<event>
 7    1  0.2227287E-008  0.4614232E+02  0.7816164E-02  0.1320468E+00
        -11   -1    0    0    0    0  0.00000000000E+00  0.00000000000E+00  0.45593999997E+02  0.45594000000E+02  0.51100000000E-03 0.  1.
         11   -1    0    0    0    0 -0.00000000000E+00 -0.00000000000E+00 -0.45593999997E+02  0.45594000000E+02  0.51100000000E-03 0. -1.
    9900012    2    1    2    0    0  0.28109072996E+01 -0.29882735708E+02  0.33589201276E+02  0.46142317237E+02  0.99999952216E+01 0.  0.
         12    1    1    2    0    0 -0.28109072996E+01  0.29882735708E+02 -0.33589201276E+02  0.45045682763E+02  0.00000000000E+00 0. -1.
         11    1    3    3    0    0  0.32861264352E+01 -0.29896905424E+01  0.56631927815E+01  0.71978211446E+01  0.51100000000E-03 0. -1.
        -11    1    3    3    0    0  0.12148667414E+01 -0.42525371254E+01  0.50913424221E+01  0.67440152078E+01  0.51100000000E-03 0.  1.
         12    1    3    3    0    0 -0.16900858770E+01 -0.22640508040E+02  0.22834666072E+02  0.32200480885E+02  0.00000000000E+00 0. -1.
</event>
<event>
 7    1  0.2227287E-008  0.4614232E+02  0.7816164E-02  0.1320468E+00
        -11   -1    0    0    0    0  0.00000000000E+00  0.00000000000E+00  0.45593999997E+02  0.45594000000E+02  0.51100000000E-03 0. -1.
         11   -1    0    0    0    0 -0.00000000000E+00 -0.00000000000E+00 -0.45593999997E+02  0.45594000000E+02  0.51100000000E-03 0.  1.
    9900012    2    1    2    0    0  0.19117982504E+02 -0.35373105003E+01 -0.40633774743E+02  0.46142317960E+02  0.10000001815E+02 0.  0.
         12    1    1    2    0    0 -0.19117982504E+02  0.35373105003E+01  0.40633774743E+02  0.45045682040E+02  0.00000000000E+00 0. -1.
         11    1    3    3    0    0 -0.43628035818E-01  0.84112405094E+00 -0.31154467789E+01  0.32272901896E+01  0.51100000000E-03 0. -1.
        -11    1    3    3    0    0  0.22481695560E+01 -0.18158187062E+01 -0.20694120952E+01  0.35544240894E+01  0.51100000000E-03 0.  1.
         12    1    3    3    0    0  0.16913440983E+02 -0.25626158450E+01 -0.35448915869E+02  0.39360603681E+02  0.00000000000E+00 0. -1.
</event>
<event>
 7    1  0.2227287E-008  0.4614232E+02  0.7816164E-02  0.1320468E+00
        -11   -1    0    0    0    0  0.00000000000E+00  0.00000000000E+00  0.45593999997E+02  0.45594000000E+02  0.51100000000E-03 0.  1.
         11   -1    0    0    0    0 -0.00000000000E+00 -0.00000000000E+00 -0.45593999997E+02  0.45594000000E+02  0.51100000000E-03 0. -1.
    9900012    2    1    2    0    0  0.32011373269E+02  0.24126735930E+02  0.20549600041E+02  0.46142317997E+02  0.10000002155E+02 0.  0.
         12    1    1    2    0    0 -0.32011373269E+02 -0.24126735930E+02 -0.20549600041E+02  0.45045682003E+02  0.00000000000E+00 0. -1.
         11    1    3    3    0    0  0.38922977933E+01  0.46465956871E+01  0.56900732527E+01  0.83137096096E+01  0.51100000000E-03 0.  1.
        -11    1    3    3    0    0  0.22724639581E+02  0.15288096106E+02  0.90035649183E+01  0.28830527365E+02  0.51100000000E-03 0. -1.
         12    1    3    3    0    0  0.53944358948E+01  0.41920441368E+01  0.58559618700E+01  0.89980810227E+01  0.00000000000E+00 0. -1.
</event>
<event>
 7    1  0.2227287E-008  0.4614232E+02  0.7816164E-02  0.1320468E+00
        -11   -1    0    0    0    0  0.00000000000E+00  0.00000000000E+00  0.45593999997E+02  0.45594000000E+02  0.51100000000E-03 0.  1.
         11   -1    0    0    0    0 -0.00000000000E+00 -0.00000000000E+00 -0.45593999997E+02  0.45594000000E+02  0.51100000000E-03 0. -1.
    9900012    2    1    2    0    0 -0.12214882638E+02  0.36392394957E+02  0.23569126789E+02  0.46142317564E+02  0.99999982015E+01 0.  0.
         12    1    1    2    0    0  0.12214882638E+02 -0.36392394957E+02 -0.23569126789E+02  0.45045682436E+02  0.00000000000E+00 0. -1.
         11    1    3    3    0    0 -0.16996046965E+01  0.68630799047E+00 -0.23501881007E+00  0.18479472082E+01  0.51100000000E-03 0. -1.
        -11    1    3    3    0    0 -0.37543189773E+01  0.15219109945E+02  0.83867119755E+01  0.17777883916E+02  0.51100000000E-03 0.  1.
        -12    1    3    3    0    0 -0.67609589647E+01  0.20486977021E+02  0.15417433623E+02  0.26516486440E+02  0.00000000000E+00 0.  1.
</event>
<event>
 7    1  0.2227287E-008  0.4614232E+02  0.7816164E-02  0.1320468E+00
        -11   -1    0    0    0    0  0.00000000000E+00  0.00000000000E+00  0.45593999997E+02  0.45594000000E+02  0.51100000000E-03 0.  1.
         11   -1    0    0    0    0 -0.00000000000E+00 -0.00000000000E+00 -0.45593999997E+02  0.45594000000E+02  0.51100000000E-03 0. -1.
    9900012    2    1    2    0    0  0.15259988517E+02  0.85371335164E+01  0.41513412401E+02  0.46142319770E+02  0.10000018316E+02 0.  0.
         12    1    1    2    0    0 -0.15259988517E+02 -0.85371335164E+01 -0.41513412401E+02  0.45045680230E+02  0.00000000000E+00 0. -1.
         11    1    3    3    0    0  0.14323657150E+01 -0.18859445954E+01  0.25866351748E+01  0.35070130235E+01  0.51100000000E-03 0. -1.
        -11    1    3    3    0    0  0.79572290550E+01  0.55645235039E+01  0.23575931323E+02  0.25497175414E+02  0.51100000000E-03 0.  1.
         12    1    3    3    0    0  0.58703937473E+01  0.48585546078E+01  0.15350845903E+02  0.17138131332E+02  0.00000000000E+00 0. -1.
</event>
<event>
 7    1  0.2227287E-008  0.4614232E+02  0.7816164E-02  0.1320468E+00
        -11   -1    0    0    0    0  0.00000000000E+00  0.00000000000E+00  0.45593999997E+02  0.45594000000E+02  0.51100000000E-03 0.  1.
         11   -1    0    0    0    0 -0.00000000000E+00 -0.00000000000E+00 -0.45593999997E+02  0.45594000000E+02  0.51100000000E-03 0. -1.
    9900012    2    1    2    0    0  0.15280647898E+02 -0.20860498210E+02  0.36884346378E+02  0.46142316595E+02  0.99999893631E+01 0.  0.
         12    1    1    2    0    0 -0.15280647898E+02  0.20860498210E+02 -0.36884346378E+02  0.45045683405E+02  0.00000000000E+00 0. -1.
         11    1    3    3    0    0  0.45967525431E+01 -0.14413811361E+01  0.53186023595E+01  0.71760187319E+01  0.51100000000E-03 0. -1.
        -11    1    3    3    0    0  0.10047170858E+02 -0.19680204311E+02  0.31033182174E+02  0.38096121588E+02  0.51100000000E-03 0.  1.
        -12    1    3    3    0    0  0.63672449665E+00  0.26108723746E+00  0.53256184447E+00  0.87017627432E+00  0.00000000000E+00 0.  1.
</event>
<event>
 7    1  0.2227287E-008  0.4614232E+02  0.7816164E-02  0.1320468E+00
        -11   -1    0    0    0    0  0.00000000000E+00  0.00000000000E+00  0.45593999997E+02  0.45594000000E+02  0.51100000000E-03 0.  1.
         11   -1    0    0    0    0 -0.00000000000E+00 -0.00000000000E+00 -0.45593999997E+02  0.45594000000E+02  0.51100000000E-03 0. -1.
    9900012    2    1    2    0    0 -0.31499343915E+02  0.13130730361E+02  0.29402189770E+02  0.46142317520E+02  0.99999977975E+01 0.  0.
         12    1    1    2    0    0  0.31499343915E+02 -0.13130730361E+02 -0.29402189770E+02  0.45045682480E+02  0.00000000000E+00 0. -1.
         11    1    3    3    0    0 -0.64726107514E+01  0.56443805099E+01  0.43228097293E+01  0.96145933610E+01  0.51100000000E-03 0. -1.
        -11    1    3    3    0    0 -0.19754406764E+02  0.50071594724E+01  0.16840113820E+02  0.26436672754E+02  0.51100000000E-03 0.  1.
         12    1    3    3    0    0 -0.52723263992E+01  0.24791903788E+01  0.82392662205E+01  0.10091051404E+02  0.00000000000E+00 0. -1.
</event>
<event>
 7    1  0.2227287E-008  0.4614232E+02  0.7816164E-02  0.1320468E+00
        -11   -1    0    0    0    0  0.00000000000E+00  0.00000000000E+00  0.45593999997E+02  0.45594000000E+02  0.51100000000E-03 0.  1.
         11   -1    0    0    0    0 -0.00000000000E+00 -0.00000000000E+00 -0.45593999997E+02  0.45594000000E+02  0.51100000000E-03 0. -1.
    9900012    2    1    2    0    0 -0.72265416365E+01 -0.11508434448E+02  0.42947019734E+02  0.46142317948E+02  0.10000001707E+02 0.  0.
         12    1    1    2    0    0  0.72265416365E+01  0.11508434448E+02 -0.42947019734E+02  0.45045682052E+02  0.00000000000E+00 0. -1.
         11    1    3    3    0    0  0.13325840410E+01 -0.20874253012E+01  0.58281589401E+01  0.63325004151E+01  0.51100000000E-03 0. -1.
        -11    1    3    3    0    0 -0.73082635626E+01 -0.86917823344E+01  0.23349426535E+02  0.25964466415E+02  0.51100000000E-03 0.  1.
        -12    1    3    3    0    0 -0.12508621149E+01 -0.72922681213E+00  0.13769434259E+02  0.13845351118E+02  0.00000000000E+00 0.  1.
</event>
<event>
 7    1  0.2227287E-008  0.4614232E+02  0.7816164E-02  0.1320468E+00
        -11   -1    0    0    0    0  0.00000000000E+00  0.00000000000E+00  0.45593999997E+02  0.45594000000E+02  0.51100000000E-03 0. -1.
         11   -1    0    0    0    0 -0.00000000000E+00 -0.00000000000E+00 -0.45593999997E+02  0.45594000000E+02  0.51100000000E-03 0.  1.
    9900012    2    1    2    0    0 -0.33680846492E+02 -0.23896868921E+02 -0.17990379651E+02  0.46142317359E+02  0.99999963312E+01 0.  0.
         12    1    1    2    0    0  0.33680846492E+02  0.23896868921E+02  0.17990379651E+02  0.45045682641E+02  0.00000000000E+00 0. -1.
         11    1    3    3    0    0 -0.14936582626E+01 -0.14054163792E+01 -0.30230033058E+01  0.36530479675E+01  0.51100000000E-03 0. -1.
        -11    1    3    3    0    0 -0.55754895087E+01 -0.66458663457E+01 -0.46591592936E+01  0.98468973962E+01  0.51100000000E-03 0.  1.
         12    1    3    3    0    0 -0.26611698721E+02 -0.15845586196E+02 -0.10308217051E+02  0.32642371995E+02  0.00000000000E+00 0. -1.
</event>
<event>
 7    1  0.2227287E-008  0.4614232E+02  0.7816164E-02  0.1320468E+00
        -11   -1    0    0    0    0  0.00000000000E+00  0.00000000000E+00  0.45593999997E+02  0.45594000000E+02  0.51100000000E-03 0. -1.
         11   -1    0    0    0    0 -0.00000000000E+00 -0.00000000000E+00 -0.45593999997E+02  0.45594000000E+02  0.51100000000E-03 0.  1.
    9900012    2    1    2    0    0 -0.30531532573E+02  0.32922877766E+02  0.36087663490E+01  0.46142317008E+02  0.99999931314E+01 0.  0.
         12    1    1    2    0    0  0.30531532573E+02 -0.32922877766E+02 -0.36087663490E+01  0.45045682992E+02  0.00000000000E+00 0. -1.
         11    1    3    3    0    0 -0.20185512024E+02  0.21063877402E+02  0.50304124900E+01  0.29604845498E+02  0.51100000000E-03 0. -1.
        -11    1    3    3    0    0 -0.94266895514E+01  0.78133270426E+01 -0.33351843217E+00  0.12248338262E+02  0.51100000000E-03 0.  1.
         12    1    3    3    0    0 -0.91933099775E+00  0.40456733220E+01 -0.10881277088E+01  0.42891332484E+01  0.00000000000E+00 0. -1.
</event>
<event>
 7    1  0.2227287E-008  0.4614232E+02  0.7816164E-02  0.1320468E+00
        -11   -1    0    0    0    0  0.00000000000E+00  0.00000000000E+00  0.45593999997E+02  0.45594000000E+02  0.51100000000E-03 0.  1.
         11   -1    0    0    0    0 -0.00000000000E+00 -0.00000000000E+00 -0.45593999997E+02  0.45594000000E+02  0.51100000000E-03 0. -1.
    9900012    2    1    2    0    0  0.19232744135E+02  0.39668076839E+02 -0.92551989920E+01  0.46142317904E+02  0.10000001306E+02 0.  0.
         12    1    1    2    0    0 -0.19232744135E+02 -0.39668076839E+02  0.92551989920E+01  0.45045682096E+02  0.00000000000E+00 0. -1.
         11    1    3    3    0    0  0.62472234862E+01  0.96061546319E+01 -0.17318557576E+01  0.11589017764E+02  0.51100000000E-03 0. -1.
        -11    1    3    3    0    0  0.12993416185E+02  0.26205688921E+02 -0.43757742569E+01  0.29575570943E+02  0.51100000000E-03 0.  1.
         12    1    3    3    0    0 -0.78955366486E-02  0.38562332862E+01 -0.31475689775E+01  0.49777291977E+01  0.00000000000E+00 0. -1.
</event>
<event>
 7    1  0.2227287E-008  0.4614232E+02  0.7816164E-02  0.1320468E+00
        -11   -1    0    0    0    0  0.00000000000E+00  0.00000000000E+00  0.45593999997E+02  0.45594000000E+02  0.51100000000E-03 0.  1.
         11   -1    0    0    0    0 -0.00000000000E+00 -0.00000000000E+00 -0.45593999997E+02  0.45594000000E+02  0.51100000000E-03 0. -1.
    9900012    2    1    2    0    0  0.13535433180E+02 -0.38700286670E+02  0.18659942752E+02  0.46142316486E+02  0.99999883758E+01 0.  0.
         12    1    1    2    0    0 -0.13535433180E+02  0.38700286670E+02 -0.18659942752E+02  0.45045683514E+02  0.00000000000E+00 0. -1.
         11    1    3    3    0    0  0.73188768220E+01 -0.15565284282E+02  0.54933389243E+01  0.18056046232E+02  0.51100000000E-03 0.  1.
        -11    1    3    3    0    0  0.40096837971E+01 -0.15990044911E+02  0.12279326554E+02  0.20555801159E+02  0.51100000000E-03 0. -1.
         12    1    3    3    0    0  0.22068725610E+01 -0.71449574758E+01  0.88727727409E+00  0.75304690951E+01  0.00000000000E+00 0. -1.
</event>
<event>
 7    1  0.2227287E-008  0.4614232E+02  0.7816164E-02  0.1320468E+00
        -11   -1    0    0    0    0  0.00000000000E+00  0.00000000000E+00  0.45593999997E+02  0.45594000000E+02  0.51100000000E-03 0.  1.
         11   -1    0    0    0    0 -0.00000000000E+00 -0.00000000000E+00 -0.45593999997E+02  0.45594000000E+02  0.51100000000E-03 0. -1.
    9900012    2    1    2    0    0 -0.27912246208E+02 -0.30769673059E+02  0.17413996434E+02  0.46142317184E+02  0.99999947383E+01 0.  0.
         12    1    1    2    0    0  0.27912246208E+02  0.30769673059E+02 -0.17413996434E+02  0.45045682816E+02  0.00000000000E+00 0. -1.
         11    1    3    3    0    0 -0.10534517156E+02 -0.15314115658E+02  0.81717333830E+01  0.20304566404E+02  0.51100000000E-03 0. -1.
        -11    1    3    3    0    0 -0.61661688488E+01 -0.37501404056E+01  0.58213246336E+01  0.92721632904E+01  0.51100000000E-03 0.  1.
         12    1    3    3    0    0 -0.11211560203E+02 -0.11705416996E+02  0.34209384170E+01  0.16565587490E+02  0.00000000000E+00 0. -1.
</event>
<event>
 7    1  0.2227287E-008  0.4614232E+02  0.7816164E-02  0.1320468E+00
        -11   -1    0    0    0    0  0.00000000000E+00  0.00000000000E+00  0.45593999997E+02  0.45594000000E+02  0.51100000000E-03 0. -1.
         11   -1    0    0    0    0 -0.00000000000E+00 -0.00000000000E+00 -0.45593999997E+02  0.45594000000E+02  0.51100000000E-03 0.  1.
    9900012    2    1    2    0    0 -0.39567839710E+02  0.61659068699E+01  0.20627193051E+02  0.46142318298E+02  0.10000004898E+02 0.  0.
         12    1    1    2    0    0  0.39567839710E+02 -0.61659068699E+01 -0.20627193051E+02  0.45045681702E+02  0.00000000000E+00 0. -1.
         11    1    3    3    0    0 -0.58434256868E+01 -0.95580686375E+00  0.30952363260E+01  0.66812931901E+01  0.51100000000E-03 0. -1.
        -11    1    3    3    0    0 -0.15019282444E+02 -0.53744475235E+00  0.90312945230E+01  0.17533738136E+02  0.51100000000E-03 0.  1.
        -12    1    3    3    0    0 -0.18705131579E+02  0.76591584860E+01  0.85006622017E+01  0.21927286973E+02  0.00000000000E+00 0.  1.
</event>
<event>
 7    1  0.2227287E-008  0.4614232E+02  0.7816164E-02  0.1320468E+00
        -11   -1    0    0    0    0  0.00000000000E+00  0.00000000000E+00  0.45593999997E+02  0.45594000000E+02  0.51100000000E-03 0. -1.
         11   -1    0    0    0    0 -0.00000000000E+00 -0.00000000000E+00 -0.45593999997E+02  0.45594000000E+02  0.51100000000E-03 0.  1.
    9900012    2    1    2    0    0  0.27783624943E+02  0.47569930044E+01  0.35136230544E+02  0.46142317696E+02  0.99999994042E+01 0.  0.
         12    1    1    2    0    0 -0.27783624943E+02 -0.47569930044E+01 -0.35136230544E+02  0.45045682304E+02  0.00000000000E+00 0. -1.
         11    1    3    3    0    0  0.61924410078E+01  0.97289497410E+00  0.44832955674E+01  0.77066717636E+01  0.51100000000E-03 0. -1.
        -11    1    3    3    0    0  0.14311720338E+02 -0.11911897863E+01  0.18446344488E+02  0.23377593917E+02  0.51100000000E-03 0.  1.
        -12    1    3    3    0    0  0.72794635967E+01  0.49752878165E+01  0.12206590489E+02  0.15058052015E+02  0.00000000000E+00 0.  1.
</event>
<event>
 7    1  0.2227287E-008  0.4614232E+02  0.7816164E-02  0.1320468E+00
        -11   -1    0    0    0    0  0.00000000000E+00  0.00000000000E+00  0.45593999997E+02  0.45594000000E+02  0.51100000000E-03 0.  1.
         11   -1    0    0    0    0 -0.00000000000E+00 -0.00000000000E+00 -0.45593999997E+02  0.45594000000E+02  0.51100000000E-03 0. -1.
    9900012    2    1    2    0    0 -0.33668415317E+02 -0.51667292318E+01  0.29476365912E+02  0.46142318428E+02  0.10000006081E+02 0.  0.
         12    1    1    2    0    0  0.33668415317E+02  0.51667292318E+01 -0.29476365912E+02  0.45045681572E+02  0.00000000000E+00 0. -1.
         11    1    3    3    0    0 -0.56054550974E+00  0.99362554360E+00 -0.53301043410E-01  0.11420789166E+01  0.51100000000E-03 0. -1.
        -11    1    3    3    0    0 -0.47305035134E+01  0.60839003032E+00  0.37209814396E+01  0.60492565703E+01  0.51100000000E-03 0.  1.
        -12    1    3    3    0    0 -0.28377366294E+02 -0.67687448057E+01  0.25808685516E+02  0.38950982941E+02  0.00000000000E+00 0.  1.
</event>
<event>
 7    1  0.2227287E-008  0.4614232E+02  0.7816164E-02  0.1320468E+00
        -11   -1    0    0    0    0  0.00000000000E+00  0.00000000000E+00  0.45593999997E+02  0.45594000000E+02  0.51100000000E-03 0.  1.
         11   -1    0    0    0    0 -0.00000000000E+00 -0.00000000000E+00 -0.45593999997E+02  0.45594000000E+02  0.51100000000E-03 0. -1.
    9900012    2    1    2    0    0 -0.11471243595E+02  0.21075933316E+02  0.38122554080E+02  0.46142317362E+02  0.99999963587E+01 0.  0.
         12    1    1    2    0    0  0.11471243595E+02 -0.21075933316E+02 -0.38122554080E+02  0.45045682638E+02  0.00000000000E+00 0. -1.
         11    1    3    3    0    0  0.52685610875E+00 -0.64981411051E+00  0.14161158895E+01  0.16447553651E+01  0.51100000000E-03 0. -1.
        -11    1    3    3    0    0 -0.25130829597E+01  0.47254967926E+01  0.11179339086E+02  0.12394495898E+02  0.51100000000E-03 0.  1.
         12    1    3    3    0    0 -0.94850167439E+01  0.17000250634E+02  0.25527099104E+02  0.32103066099E+02  0.00000000000E+00 0. -1.
</event>
<event>
 7    1  0.2227287E-008  0.4614232E+02  0.7816164E-02  0.1320468E+00
        -11   -1    0    0    0    0  0.00000000000E+00  0.00000000000E+00  0.45593999997E+02  0.45594000000E+02  0.51100000000E-03 0.  1.
         11   -1    0    0    0    0 -0.00000000000E+00 -0.00000000000E+00 -0.45593999997E+02  0.45594000000E+02  0.51100000000E-03 0. -1.
    9900012    2    1    2    0    0  0.29377304113E+02 -0.15543318308E+02  0.30405472751E+02  0.46142317475E+02  0.99999973888E+01 0.  0.
         12    1    1    2    0    0 -0.29377304113E+02  0.15543318308E+02 -0.30405472751E+02  0.45045682525E+02  0.00000000000E+00 0. -1.
         11    1    3    3    0    0  0.14211892536E+01 -0.28724101431E+01  0.32989729725E+01  0.45993197170E+01  0.51100000000E-03 0. -1.
        -11    1    3    3    0    0 -0.12235198913E+00 -0.98303271509E+00  0.14314716414E+01  0.17408143639E+01  0.51100000000E-03 0.  1.
        -12    1    3    3    0    0  0.28078466849E+02 -0.11687875450E+02  0.25675028137E+02  0.39802183394E+02  0.00000000000E+00 0.  1.
</event>
<event>
 7    1  0.2227287E-008  0.4614232E+02  0.7816164E-02  0.1320468E+00
        -11   -1    0    0    0    0  0.00000000000E+00  0.00000000000E+00  0.45593999997E+02  0.45594000000E+02  0.51100000000E-03 0. -1.
         11   -1    0    0    0    0 -0.00000000000E+00 -0.00000000000E+00 -0.45593999997E+02  0.45594000000E+02  0.51100000000E-03 0.  1.
    9900012    2    1    2    0    0 -0.25326451863E+02  0.14107805587E+02  0.34476863567E+02  0.46142318033E+02  0.10000002481E+02 0.  0.
         12    1    1    2    0    0  0.25326451863E+02 -0.14107805587E+02 -0.34476863567E+02  0.45045681967E+02  0.00000000000E+00 0. -1.
         11    1    3    3    0    0 -0.38277014969E+00 -0.34099887135E+00  0.13316898845E+00  0.52964842902E+00  0.51100000000E-03 0. -1.
        -11    1    3    3    0    0 -0.20862972874E+02  0.80473311097E+01  0.26902772734E+02  0.34982600763E+02  0.51100000000E-03 0.  1.
        -12    1    3    3    0    0 -0.40807088390E+01  0.64014733489E+01  0.74409218444E+01  0.10630068841E+02  0.00000000000E+00 0.  1.
</event>
<event>
 7    1  0.2227287E-008  0.4614232E+02  0.7816164E-02  0.1320468E+00
        -11   -1    0    0    0    0  0.00000000000E+00  0.00000000000E+00  0.45593999997E+02  0.45594000000E+02  0.51100000000E-03 0.  1.
         11   -1    0    0    0    0 -0.00000000000E+00 -0.00000000000E+00 -0.45593999997E+02  0.45594000000E+02  0.51100000000E-03 0. -1.
    9900012    2    1    2    0    0 -0.19043103754E+02  0.29124055044E+01  0.40718440884E+02  0.46142319470E+02  0.10000015579E+02 0.  0.
         12    1    1    2    0    0  0.19043103754E+02 -0.29124055044E+01 -0.40718440884E+02  0.45045680530E+02  0.00000000000E+00 0. -1.
         11    1    3    3    0    0 -0.95632375601E+01 -0.45263403928E+00  0.12533946003E+02  0.15772133428E+02  0.51100000000E-03 0. -1.
        -11    1    3    3    0    0 -0.38064230557E+01  0.20899895815E+01  0.58164572359E+01  0.72586560717E+01  0.51100000000E-03 0.  1.
        -12    1    3    3    0    0 -0.56734431388E+01  0.12750499622E+01  0.22368037645E+02  0.23111529970E+02  0.00000000000E+00 0.  1.
</event>
<event>
 7    1  0.2227287E-008  0.4614232E+02  0.7816164E-02  0.1320468E+00
        -11   -1    0    0    0    0  0.00000000000E+00  0.00000000000E+00  0.45593999997E+02  0.45594000000E+02  0.51100000000E-03 0.  1.
         11   -1    0    0    0    0 -0.00000000000E+00 -0.00000000000E+00 -0.45593999997E+02  0.45594000000E+02  0.51100000000E-03 0. -1.
    9900012    2    1    2    0    0 -0.15945755355E+02  0.40195558197E+02  0.12615996423E+02  0.46142318982E+02  0.10000011135E+02 0.  0.
         12    1    1    2    0    0  0.15945755355E+02 -0.40195558197E+02 -0.12615996423E+02  0.45045681018E+02  0.00000000000E+00 0. -1.
         11    1    3    3    0    0 -0.43512810910E+01  0.10650835567E+02 -0.43329818959E+00  0.11513543894E+02  0.51100000000E-03 0. -1.
        -11    1    3    3    0    0 -0.69602337734E+01  0.14807625294E+02  0.44864945639E+01  0.16965826086E+02  0.51100000000E-03 0.  1.
         12    1    3    3    0    0 -0.46342404907E+01  0.14737097336E+02  0.85628000489E+01  0.17662949003E+02  0.00000000000E+00 0. -1.
</event>
<event>
 7    1  0.2227287E-008  0.4614232E+02  0.7816164E-02  0.1320468E+00
        -11   -1    0    0    0    0  0.00000000000E+00  0.00000000000E+00  0.45593999997E+02  0.45594000000E+02  0.51100000000E-03 0. -1.
         11   -1    0    0    0    0 -0.00000000000E+00 -0.00000000000E+00 -0.45593999997E+02  0.45594000000E+02  0.51100000000E-03 0.  1.
    9900012    2    1    2    0    0  0.21328640682E+02 -0.30210516179E+02 -0.25720175941E+02  0.46142315949E+02  0.99999834746E+01 0.  0.
         12    1    1    2    0    0 -0.21328640682E+02  0.30210516179E+02  0.25720175941E+02  0.45045684051E+02  0.00000000000E+00 0. -1.
         11    1    3    3    0    0  0.65558590560E+01 -0.11762920964E+02 -0.49337305517E+01  0.14341802362E+02  0.51100000000E-03 0. -1.
        -11    1    3    3    0    0  0.53210748147E+01 -0.98870322047E+01 -0.83942915521E+01  0.14018964795E+02  0.51100000000E-03 0.  1.
        -12    1    3    3    0    0  0.94517068116E+01 -0.85605630108E+01 -0.12392153838E+02  0.17781548792E+02  0.00000000000E+00 0.  1.
</event>
<event>
 7    1  0.2227287E-008  0.4614232E+02  0.7816164E-02  0.1320468E+00
        -11   -1    0    0    0    0  0.00000000000E+00  0.00000000000E+00  0.45593999997E+02  0.45594000000E+02  0.51100000000E-03 0.  1.
         11   -1    0    0    0    0 -0.00000000000E+00 -0.00000000000E+00 -0.45593999997E+02  0.45594000000E+02  0.51100000000E-03 0. -1.
    9900012    2    1    2    0    0 -0.19814896159E+02 -0.30952533137E+02  0.26046572832E+02  0.46142319034E+02  0.10000011610E+02 0.  0.
         12    1    1    2    0    0  0.19814896159E+02  0.30952533137E+02 -0.26046572832E+02  0.45045680966E+02  0.00000000000E+00 0. -1.
         11    1    3    3    0    0 -0.37238562442E+01 -0.83549940102E+01  0.21219715426E+01  0.93901966820E+01  0.51100000000E-03 0. -1.
        -11    1    3    3    0    0 -0.37265908587E+01 -0.75020561707E+01  0.76179719493E+01  0.11322624391E+02  0.51100000000E-03 0.  1.
         12    1    3    3    0    0 -0.12364449056E+02 -0.15095482956E+02  0.16306629340E+02  0.25429497961E+02  0.00000000000E+00 0. -1.
</event>
<event>
 7    1  0.2227287E-008  0.4614232E+02  0.7816164E-02  0.1320468E+00
        -11   -1    0    0    0    0  0.00000000000E+00  0.00000000000E+00  0.45593999997E+02  0.45594000000E+02  0.51100000000E-03 0. -1.
         11   -1    0    0    0    0 -0.00000000000E+00 -0.00000000000E+00 -0.45593999997E+02  0.45594000000E+02  0.51100000000E-03 0.  1.
    9900012    2    1    2    0    0 -0.37187822802E+02  0.22257524217E+02 -0.12279331842E+02  0.46142317194E+02  0.99999948263E+01 0.  0.
         12    1    1    2    0    0  0.37187822802E+02 -0.22257524217E+02  0.12279331842E+02  0.45045682806E+02  0.00000000000E+00 0. -1.
         11    1    3    3    0    0 -0.67516757120E+01  0.12955982102E+01 -0.44247343957E+01  0.81756941219E+01  0.51100000000E-03 0.  1.
        -11    1    3    3    0    0 -0.51745086569E+01  0.46341023890E+01 -0.26821538516E+01  0.74460992699E+01  0.51100000000E-03 0. -1.
        -12    1    3    3    0    0 -0.25261638433E+02  0.16327823618E+02 -0.51724435944E+01  0.30520523802E+02  0.00000000000E+00 0.  1.
</event>
<event>
 7    1  0.2227287E-008  0.4614232E+02  0.7816164E-02  0.1320468E+00
        -11   -1    0    0    0    0  0.00000000000E+00  0.00000000000E+00  0.45593999997E+02  0.45594000000E+02  0.51100000000E-03 0.  1.
         11   -1    0    0    0    0 -0.00000000000E+00 -0.00000000000E+00 -0.45593999997E+02  0.45594000000E+02  0.51100000000E-03 0. -1.
    9900012    2    1    2    0    0 -0.46543228539E+01 -0.69575894511E+01  0.44261074343E+02  0.46142317919E+02  0.10000001438E+02 0.  0.
         12    1    1    2    0    0  0.46543228539E+01  0.69575894511E+01 -0.44261074343E+02  0.45045682081E+02  0.00000000000E+00 0. -1.
         11    1    3    3    0    0 -0.74486511674E+01 -0.41205916371E+01  0.25961508985E+02  0.27321449974E+02  0.51100000000E-03 0.  1.
        -11    1    3    3    0    0  0.21262615186E+01 -0.24647182123E+01  0.17033480259E+02  0.17341720616E+02  0.51100000000E-03 0. -1.
        -12    1    3    3    0    0  0.66806679500E+00 -0.37227960164E+00  0.12660850986E+01  0.14791473292E+01  0.00000000000E+00 0.  1.
</event>
<event>
 7    1  0.2227287E-008  0.4614232E+02  0.7816164E-02  0.1320468E+00
        -11   -1    0    0    0    0  0.00000000000E+00  0.00000000000E+00  0.45593999997E+02  0.45594000000E+02  0.51100000000E-03 0.  1.
         11   -1    0    0    0    0 -0.00000000000E+00 -0.00000000000E+00 -0.45593999997E+02  0.45594000000E+02  0.51100000000E-03 0. -1.
    9900012    2    1    2    0    0 -0.25447547433E+02  0.36727985568E+02  0.57088182247E+01  0.46142320964E+02  0.10000029211E+02 0.  0.
         12    1    1    2    0    0  0.25447547433E+02 -0.36727985568E+02 -0.57088182247E+01  0.45045679036E+02  0.00000000000E+00 0. -1.
         11    1    3    3    0    0 -0.12881433711E+01  0.63864579489E+01 -0.12352638531E+00  0.65162425911E+01  0.51100000000E-03 0. -1.
        -11    1    3    3    0    0 -0.12888893175E+02  0.20330820832E+02  0.26309336245E+01  0.24215442490E+02  0.51100000000E-03 0.  1.
        -12    1    3    3    0    0 -0.11270510888E+02  0.10010706787E+02  0.32014109855E+01  0.15410635884E+02  0.00000000000E+00 0.  1.
</event>
<event>
 7    1  0.2227287E-008  0.4614232E+02  0.7816164E-02  0.1320468E+00
        -11   -1    0    0    0    0  0.00000000000E+00  0.00000000000E+00  0.45593999997E+02  0.45594000000E+02  0.51100000000E-03 0.  1.
         11   -1    0    0    0    0 -0.00000000000E+00 -0.00000000000E+00 -0.45593999997E+02  0.45594000000E+02  0.51100000000E-03 0. -1.
    9900012    2    1    2    0    0 -0.28332191943E+01  0.15417073908E+02  0.42230323623E+02  0.46142317275E+02  0.99999955667E+01 0.  0.
         12    1    1    2    0    0  0.28332191943E+01 -0.15417073908E+02 -0.42230323623E+02  0.45045682725E+02  0.00000000000E+00 0. -1.
         11    1    3    3    0    0  0.88254864302E+00  0.17118193341E+01  0.36554144909E+01  0.41317396943E+01  0.51100000000E-03 0. -1.
        -11    1    3    3    0    0  0.20837808254E+01  0.26080608406E+01  0.38424775450E+01  0.50900646187E+01  0.51100000000E-03 0.  1.
        -12    1    3    3    0    0 -0.57995486628E+01  0.11097193733E+02  0.34732431587E+02  0.36920512962E+02  0.00000000000E+00 0.  1.
</event>
<event>
 7    1  0.2227287E-008  0.4614232E+02  0.7816164E-02  0.1320468E+00
        -11   -1    0    0    0    0  0.00000000000E+00  0.00000000000E+00  0.45593999997E+02  0.45594000000E+02  0.51100000000E-03 0.  1.
         11   -1    0    0    0    0 -0.00000000000E+00 -0.00000000000E+00 -0.45593999997E+02  0.45594000000E+02  0.51100000000E-03 0. -1.
    9900012    2    1    2    0    0 -0.20670047637E+02 -0.25465804889E+01  0.39942175229E+02  0.46142319813E+02  0.10000018710E+02 0.  0.
         12    1    1    2    0    0  0.20670047637E+02  0.25465804889E+01 -0.39942175229E+02  0.45045680187E+02  0.00000000000E+00 0. -1.
         11    1    3    3    0    0 -0.22741829354E+00  0.75767857118E+00  0.36526832822E+00  0.87133065491E+00  0.51100000000E-03 0. -1.
        -11    1    3    3    0    0 -0.23150904678E+01  0.18861933989E+01  0.38383563076E+01  0.48631624297E+01  0.51100000000E-03 0.  1.
         12    1    3    3    0    0 -0.18127538875E+02 -0.51904524590E+01  0.35738550593E+02  0.40407826728E+02  0.00000000000E+00 0. -1.
</event>
<event>
 7    1  0.2227287E-008  0.4614232E+02  0.7816164E-02  0.1320468E+00
        -11   -1    0    0    0    0  0.00000000000E+00  0.00000000000E+00  0.45593999997E+02  0.45594000000E+02  0.51100000000E-03 0.  1.
         11   -1    0    0    0    0 -0.00000000000E+00 -0.00000000000E+00 -0.45593999997E+02  0.45594000000E+02  0.51100000000E-03 0. -1.
    9900012    2    1    2    0    0  0.13703789025E+02  0.86993624551E+01  0.42019528919E+02  0.46142317062E+02  0.99999936263E+01 0.  0.
         12    1    1    2    0    0 -0.13703789025E+02 -0.86993624551E+01 -0.42019528919E+02  0.45045682938E+02  0.00000000000E+00 0. -1.
         11    1    3    3    0    0  0.21068825136E+01  0.19719553712E+01  0.10413527212E+02  0.10805975716E+02  0.51100000000E-03 0. -1.
        -11    1    3    3    0    0  0.35332209175E+01  0.38967677584E+01  0.21339956245E+02  0.21978675615E+02  0.51100000000E-03 0.  1.
        -12    1    3    3    0    0  0.80636855942E+01  0.28306393255E+01  0.10266045462E+02  0.13357665731E+02  0.00000000000E+00 0.  1.
</event>
<event>
 7    1  0.2227287E-008  0.4614232E+02  0.7816164E-02  0.1320468E+00
        -11   -1    0    0    0    0  0.00000000000E+00  0.00000000000E+00  0.45593999997E+02  0.45594000000E+02  0.51100000000E-03 0.  1.
         11   -1    0    0    0    0 -0.00000000000E+00 -0.00000000000E+00 -0.45593999997E+02  0.45594000000E+02  0.51100000000E-03 0. -1.
    9900012    2    1    2    0    0 -0.32586796203E+02  0.83093051281E+01  0.29969478808E+02  0.46142317649E+02  0.99999989750E+01 0.  0.
         12    1    1    2    0    0  0.32586796203E+02 -0.83093051281E+01 -0.29969478808E+02  0.45045682351E+02  0.00000000000E+00 0. -1.
         11    1    3    3    0    0 -0.32952721163E+01 -0.17801086454E+00  0.42760985359E+01  0.54014373215E+01  0.51100000000E-03 0. -1.
        -11    1    3    3    0    0 -0.27214063741E+02  0.98624734448E+01  0.24723538626E+02  0.38067400886E+02  0.51100000000E-03 0.  1.
        -12    1    3    3    0    0 -0.20774603451E+01 -0.13751574522E+01  0.96984164609E+00  0.26734794411E+01  0.00000000000E+00 0.  1.
</event>
<event>
 7    1  0.2227287E-008  0.4614232E+02  0.7816164E-02  0.1320468E+00
        -11   -1    0    0    0    0  0.00000000000E+00  0.00000000000E+00  0.45593999997E+02  0.45594000000E+02  0.51100000000E-03 0.  1.
         11   -1    0    0    0    0 -0.00000000000E+00 -0.00000000000E+00 -0.45593999997E+02  0.45594000000E+02  0.51100000000E-03 0. -1.
    9900012    2    1    2    0    0 -0.11571469994E+02  0.19871624855E+02  0.38734132908E+02  0.46142318250E+02  0.10000004455E+02 0.  0.
         12    1    1    2    0    0  0.11571469994E+02 -0.19871624855E+02 -0.38734132908E+02  0.45045681750E+02  0.00000000000E+00 0. -1.
         11    1    3    3    0    0  0.19602523639E+00  0.37867295145E+01  0.32584758328E+01  0.49995411113E+01  0.51100000000E-03 0. -1.
        -11    1    3    3    0    0 -0.36955764315E+01  0.15718316312E+01  0.94784160522E+01  0.10294091070E+02  0.51100000000E-03 0.  1.
        -12    1    3    3    0    0 -0.80719187994E+01  0.14513063709E+02  0.25997241023E+02  0.30848686068E+02  0.00000000000E+00 0.  1.
</event>
<event>
 7    1  0.2227287E-008  0.4614230E+02  0.7816164E-02  0.1320468E+00
        -11   -1    0    0    0    0  0.00000000000E+00  0.00000000000E+00  0.45593999997E+02  0.45594000000E+02  0.51100000000E-03 0. -1.
         11   -1    0    0    0    0 -0.00000000000E+00 -0.00000000000E+00 -0.45593999997E+02  0.45594000000E+02  0.51100000000E-03 0.  1.
    9900012    2    1    2    0    0  0.16546200281E+02  0.38402821370E+02 -0.16749964491E+02  0.46142303830E+02  0.99998729675E+01 0.  0.
         12    1    1    2    0    0 -0.16546200281E+02 -0.38402821370E+02  0.16749964491E+02  0.45045696170E+02  0.00000000000E+00 0. -1.
         11    1    3    3    0    0  0.46013604882E+01  0.57850257413E+01 -0.47553706470E+01  0.87893453352E+01  0.51100000000E-03 0. -1.
        -11    1    3    3    0    0  0.12291198854E+02  0.27065711962E+02 -0.91331172065E+01  0.31097269389E+02  0.51100000000E-03 0.  1.
        -12    1    3    3    0    0 -0.34635906102E+00  0.55520836674E+01 -0.28614766379E+01  0.62556891066E+01  0.00000000000E+00 0.  1.
</event>
<event>
 7    1  0.2227287E-008  0.4614232E+02  0.7816164E-02  0.1320468E+00
        -11   -1    0    0    0    0  0.00000000000E+00  0.00000000000E+00  0.45593999997E+02  0.45594000000E+02  0.51100000000E-03 0.  1.
         11   -1    0    0    0    0 -0.00000000000E+00 -0.00000000000E+00 -0.45593999997E+02  0.45594000000E+02  0.51100000000E-03 0. -1.
    9900012    2    1    2    0    0 -0.98653955611E+01 -0.43845429465E+02  0.30603653602E+01  0.46142317069E+02  0.99999936896E+01 0.  0.
         12    1    1    2    0    0  0.98653955611E+01  0.43845429465E+02 -0.30603653602E+01  0.45045682931E+02  0.00000000000E+00 0. -1.
         11    1    3    3    0    0 -0.96781182276E+00 -0.58175233465E+01  0.24105694679E+01  0.63711131705E+01  0.51100000000E-03 0. -1.
        -11    1    3    3    0    0 -0.18600423089E+01 -0.22316608149E+02  0.21142569450E+01  0.22493573290E+02  0.51100000000E-03 0.  1.
         12    1    3    3    0    0 -0.70375414295E+01 -0.15711297970E+02 -0.14644610527E+01  0.17277630609E+02  0.00000000000E+00 0. -1.
</event>
<event>
 7    1  0.2227287E-008  0.4614232E+02  0.7816164E-02  0.1320468E+00
        -11   -1    0    0    0    0  0.00000000000E+00  0.00000000000E+00  0.45593999997E+02  0.45594000000E+02  0.51100000000E-03 0.  1.
         11   -1    0    0    0    0 -0.00000000000E+00 -0.00000000000E+00 -0.45593999997E+02  0.45594000000E+02  0.51100000000E-03 0. -1.
    9900012    2    1    2    0    0  0.90545717050E+01 -0.18547916394E+01  0.44087277419E+02  0.46142317066E+02  0.99999936641E+01 0.  0.
         12    1    1    2    0    0 -0.90545717050E+01  0.18547916394E+01 -0.44087277419E+02  0.45045682934E+02  0.00000000000E+00 0. -1.
         11    1    3    3    0    0  0.16102413980E+01 -0.15852967556E+01  0.15024020694E+02  0.15192999745E+02  0.51100000000E-03 0. -1.
        -11    1    3    3    0    0  0.42082252203E+01 -0.67900367626E+00  0.26389664026E+02  0.26731714744E+02  0.51100000000E-03 0.  1.
         12    1    3    3    0    0  0.32361050867E+01  0.40950879249E+00  0.26735926980E+01  0.42176025770E+01  0.00000000000E+00 0. -1.
</event>
<event>
 7    1  0.2227287E-008  0.4614232E+02  0.7816164E-02  0.1320468E+00
        -11   -1    0    0    0    0  0.00000000000E+00  0.00000000000E+00  0.45593999997E+02  0.45594000000E+02  0.51100000000E-03 0. -1.
         11   -1    0    0    0    0 -0.00000000000E+00 -0.00000000000E+00 -0.45593999997E+02  0.45594000000E+02  0.51100000000E-03 0.  1.
    9900012    2    1    2    0    0 -0.29835954854E+02 -0.15722125379E+02 -0.29862083737E+02  0.46142317925E+02  0.10000001496E+02 0.  0.
         12    1    1    2    0    0  0.29835954854E+02  0.15722125379E+02  0.29862083737E+02  0.45045682075E+02  0.00000000000E+00 0. -1.
         11    1    3    3    0    0 -0.94879110190E+00  0.47732213562E+00 -0.22450285492E+01  0.24835849943E+01  0.51100000000E-03 0. -1.
        -11    1    3    3    0    0 -0.52097520099E+01 -0.37173077507E+01 -0.90457940218E+01  0.11080897196E+02  0.51100000000E-03 0.  1.
        -12    1    3    3    0    0 -0.23677411742E+02 -0.12482139764E+02 -0.18571261166E+02  0.32577835735E+02  0.00000000000E+00 0.  1.
</event>
<event>
 7    1  0.2227287E-008  0.4614232E+02  0.7816164E-02  0.1320468E+00
        -11   -1    0    0    0    0  0.00000000000E+00  0.00000000000E+00  0.45593999997E+02  0.45594000000E+02  0.51100000000E-03 0.  1.
         11   -1    0    0    0    0 -0.00000000000E+00 -0.00000000000E+00 -0.45593999997E+02  0.45594000000E+02  0.51100000000E-03 0. -1.
    9900012    2    1    2    0    0  0.31217553944E+02 -0.31600776694E+02 -0.74812305028E+01  0.46142316836E+02  0.99999915620E+01 0.  0.
         12    1    1    2    0    0 -0.31217553944E+02  0.31600776694E+02  0.74812305028E+01  0.45045683164E+02  0.00000000000E+00 0. -1.
         11    1    3    3    0    0  0.97891397694E+00  0.21341115509E+00 -0.52610203964E+00  0.11316362104E+01  0.51100000000E-03 0. -1.
        -11    1    3    3    0    0  0.24385586615E+02 -0.29226075868E+02 -0.56734844147E+01  0.38483876765E+02  0.51100000000E-03 0.  1.
         12    1    3    3    0    0  0.58530533515E+01 -0.25881119811E+01 -0.12816440484E+01  0.65268038601E+01  0.00000000000E+00 0. -1.
</event>
<event>
 7    1  0.2227287E-008  0.4614232E+02  0.7816164E-02  0.1320468E+00
        -11   -1    0    0    0    0  0.00000000000E+00  0.00000000000E+00  0.45593999997E+02  0.45594000000E+02  0.51100000000E-03 0.  1.
         11   -1    0    0    0    0 -0.00000000000E+00 -0.00000000000E+00 -0.45593999997E+02  0.45594000000E+02  0.51100000000E-03 0. -1.
    9900012    2    1    2    0    0 -0.37397029609E+02 -0.20756412912E+02  0.14133188541E+02  0.46142317422E+02  0.99999969122E+01 0.  0.
         12    1    1    2    0    0  0.37397029609E+02  0.20756412912E+02 -0.14133188541E+02  0.45045682578E+02  0.00000000000E+00 0. -1.
         11    1    3    3    0    0 -0.41912714944E+01 -0.19466600089E+01  0.41946174568E+01  0.62410782562E+01  0.51100000000E-03 0. -1.
        -11    1    3    3    0    0 -0.72069052731E+01 -0.49971401457E+01  0.48589446246E+01  0.10025978076E+02  0.51100000000E-03 0.  1.
        -12    1    3    3    0    0 -0.25998852841E+02 -0.13812612757E+02  0.50796264596E+01  0.29875261090E+02  0.00000000000E+00 0.  1.
</event>
<event>
 7    1  0.2227287E-008  0.4614232E+02  0.7816164E-02  0.1320468E+00
        -11   -1    0    0    0    0  0.00000000000E+00  0.00000000000E+00  0.45593999997E+02  0.45594000000E+02  0.51100000000E-03 0. -1.
         11   -1    0    0    0    0 -0.00000000000E+00 -0.00000000000E+00 -0.45593999997E+02  0.45594000000E+02  0.51100000000E-03 0.  1.
    9900012    2    1    2    0    0 -0.23306829934E+02 -0.10938693026E+02 -0.36962820057E+02  0.46142318817E+02  0.10000009626E+02 0.  0.
         12    1    1    2    0    0  0.23306829934E+02  0.10938693026E+02  0.36962820057E+02  0.45045681183E+02  0.00000000000E+00 0. -1.
         11    1    3    3    0    0 -0.13829013022E+02 -0.36418420668E+01 -0.15030037837E+02  0.20746244297E+02  0.51100000000E-03 0. -1.
        -11    1    3    3    0    0 -0.59710352363E+01 -0.19033417002E+01 -0.92215773375E+01  0.11149594624E+02  0.51100000000E-03 0.  1.
         12    1    3    3    0    0 -0.35067816756E+01 -0.53935092585E+01 -0.12711204883E+02  0.14246479896E+02  0.00000000000E+00 0. -1.
</event>
<event>
 7    1  0.2227287E-008  0.4614232E+02  0.7816164E-02  0.1320468E+00
        -11   -1    0    0    0    0  0.00000000000E+00  0.00000000000E+00  0.45593999997E+02  0.45594000000E+02  0.51100000000E-03 0.  1.
         11   -1    0    0    0    0 -0.00000000000E+00 -0.00000000000E+00 -0.45593999997E+02  0.45594000000E+02  0.51100000000E-03 0. -1.
    9900012    2    1    2    0    0 -0.22763584398E+02 -0.35921199391E+02 -0.14852613999E+02  0.46142317822E+02  0.10000000551E+02 0.  0.
         12    1    1    2    0    0  0.22763584398E+02  0.35921199391E+02  0.14852613999E+02  0.45045682178E+02  0.00000000000E+00 0. -1.
         11    1    3    3    0    0 -0.11674136951E+01 -0.82303793989E+00  0.69723795983E+00  0.15894612986E+01  0.51100000000E-03 0. -1.
        -11    1    3    3    0    0 -0.16376521555E+02 -0.28545504327E+02 -0.96121563838E+01  0.34284542087E+02  0.51100000000E-03 0.  1.
        -12    1    3    3    0    0 -0.52196491484E+01 -0.65526571241E+01 -0.59376955751E+01  0.10268314436E+02  0.00000000000E+00 0.  1.
</event>
<event>
 7    1  0.2227287E-008  0.4614232E+02  0.7816164E-02  0.1320468E+00
        -11   -1    0    0    0    0  0.00000000000E+00  0.00000000000E+00  0.45593999997E+02  0.45594000000E+02  0.51100000000E-03 0.  1.
         11   -1    0    0    0    0 -0.00000000000E+00 -0.00000000000E+00 -0.45593999997E+02  0.45594000000E+02  0.51100000000E-03 0. -1.
    9900012    2    1    2    0    0 -0.20731917035E+02  0.88281335122E+01  0.39004680785E+02  0.46142318205E+02  0.10000004044E+02 0.  0.
         12    1    1    2    0    0  0.20731917035E+02 -0.88281335122E+01 -0.39004680785E+02  0.45045681795E+02  0.00000000000E+00 0. -1.
         11    1    3    3    0    0 -0.45250418504E+01 -0.17135095253E+01  0.65233502360E+01  0.81219589512E+01  0.51100000000E-03 0. -1.
        -11    1    3    3    0    0 -0.96602991808E+01  0.70133348885E+01  0.16222651751E+02  0.20141565893E+02  0.51100000000E-03 0.  1.
        -12    1    3    3    0    0 -0.65465760038E+01  0.35283081490E+01  0.16258678799E+02  0.17878793361E+02  0.00000000000E+00 0.  1.
</event>
<event>
 7    1  0.2227287E-008  0.4614232E+02  0.7816164E-02  0.1320468E+00
        -11   -1    0    0    0    0  0.00000000000E+00  0.00000000000E+00  0.45593999997E+02  0.45594000000E+02  0.51100000000E-03 0. -1.
         11   -1    0    0    0    0 -0.00000000000E+00 -0.00000000000E+00 -0.45593999997E+02  0.45594000000E+02  0.51100000000E-03 0.  1.
    9900012    2    1    2    0    0  0.30126265702E+02 -0.75058908765E+01 -0.32637143243E+02  0.46142318719E+02  0.10000008732E+02 0.  0.
         12    1    1    2    0    0 -0.30126265702E+02  0.75058908765E+01  0.32637143243E+02  0.45045681281E+02  0.00000000000E+00 0. -1.
         11    1    3    3    0    0  0.11297100154E+02 -0.22651562782E+01 -0.86916559824E+01  0.14432611989E+02  0.51100000000E-03 0. -1.
        -11    1    3    3    0    0  0.17587116860E+02 -0.25271069961E+01 -0.19823070498E+02  0.26620425869E+02  0.51100000000E-03 0.  1.
         12    1    3    3    0    0  0.12420486879E+01 -0.27136276022E+01 -0.41224167627E+01  0.50892808600E+01  0.00000000000E+00 0. -1.
</event>
