<event>
 7    1  0.2876796E-013  0.7246157E+02  0.7816164E-02  0.1226708E+00
        -11   -1    0    0    0    0  0.00000000000E+00  0.00000000000E+00  0.45593999997E+02  0.45594000000E+02  0.51100000000E-03 0.  1.
         11   -1    0    0    0    0 -0.00000000000E+00 -0.00000000000E+00 -0.45593999997E+02  0.45594000000E+02  0.51100000000E-03 0. -1.
    9900012    2    1    2    0    0  0.16443222749E+02 -0.65097392049E+01 -0.61581603400E+01  0.72461569009E+02  0.69999998325E+02 0.  0.
         12    1    1    2    0    0 -0.16443222749E+02  0.65097392049E+01  0.61581603400E+01  0.18726430991E+02  0.00000000000E+00 0. -1.
         11    1    3    3    0    0  0.13430819355E+02 -0.34314017539E+01 -0.25037350354E+01  0.14086522492E+02  0.51100000000E-03 0. -1.
        -11    1    3    3    0    0  0.18282827862E+02 -0.16587657233E+02  0.16510845066E+02  0.29698824424E+02  0.51100000000E-03 0.  1.
        -12    1    3    3    0    0 -0.15270424467E+02  0.13509319782E+02 -0.20165270371E+02  0.28676222093E+02  0.00000000000E+00 0.  1.
</event>
<event>
 7    1  0.2876796E-013  0.7246157E+02  0.7816164E-02  0.1226708E+00
        -11   -1    0    0    0    0  0.00000000000E+00  0.00000000000E+00  0.45593999997E+02  0.45594000000E+02  0.51100000000E-03 0. -1.
         11   -1    0    0    0    0 -0.00000000000E+00 -0.00000000000E+00 -0.45593999997E+02  0.45594000000E+02  0.51100000000E-03 0.  1.
    9900012    2    1    2    0    0  0.13253858719E+02 -0.42677714372E+01 -0.12522003882E+02  0.72461568807E+02  0.69999998063E+02 0.  0.
         12    1    1    2    0    0 -0.13253858719E+02  0.42677714372E+01  0.12522003882E+02  0.18726431193E+02  0.00000000000E+00 0. -1.
         11    1    3    3    0    0 -0.34706144819E+01  0.49561965152E+01 -0.14752923915E+01  0.62278035197E+01  0.51100000000E-03 0. -1.
        -11    1    3    3    0    0 -0.25174577772E+01  0.13908839923E+02  0.19019842386E+02  0.23697000366E+02  0.51100000000E-03 0.  1.
        -12    1    3    3    0    0  0.19241930978E+02 -0.23132807876E+02 -0.30066553877E+02  0.42536764922E+02  0.00000000000E+00 0.  1.
</event>
<event>
 7    1  0.2876796E-013  0.7246162E+02  0.7816164E-02  0.1226708E+00
        -11   -1    0    0    0    0  0.00000000000E+00  0.00000000000E+00  0.45593999997E+02  0.45594000000E+02  0.51100000000E-03 0. -1.
         11   -1    0    0    0    0 -0.00000000000E+00 -0.00000000000E+00 -0.45593999997E+02  0.45594000000E+02  0.51100000000E-03 0.  1.
    9900012    2    1    2    0    0  0.49001010725E+00 -0.60972354040E+01 -0.17699182482E+02  0.72461616206E+02  0.70000059808E+02 0.  0.
         12    1    1    2    0    0 -0.49001010725E+00  0.60972354040E+01  0.17699182482E+02  0.18726383794E+02  0.00000000000E+00 0. -1.
         11    1    3    3    0    0  0.14029586145E+02  0.11075972354E+02 -0.10501356014E+02  0.20731254891E+02  0.51100000000E-03 0.  1.
        -11    1    3    3    0    0  0.98950490988E+01  0.10377824593E+02 -0.59916859751E+01  0.15540641590E+02  0.51100000000E-03 0. -1.
        -12    1    3    3    0    0 -0.23434625136E+02 -0.27551032351E+02 -0.12061404933E+01  0.36189719725E+02  0.00000000000E+00 0.  1.
</event>
<event>
 7    1  0.2876796E-013  0.7246158E+02  0.7816164E-02  0.1226708E+00
        -11   -1    0    0    0    0  0.00000000000E+00  0.00000000000E+00  0.45593999997E+02  0.45594000000E+02  0.51100000000E-03 0.  1.
         11   -1    0    0    0    0 -0.00000000000E+00 -0.00000000000E+00 -0.45593999997E+02  0.45594000000E+02  0.51100000000E-03 0. -1.
    9900012    2    1    2    0    0 -0.60955818863E+01 -0.83336085130E-01  0.17706374671E+02  0.72461581030E+02  0.70000013985E+02 0.  0.
         12    1    1    2    0    0  0.60955818863E+01  0.83336085130E-01 -0.17706374671E+02  0.18726418970E+02  0.00000000000E+00 0. -1.
         11    1    3    3    0    0 -0.15568019260E+02 -0.61421980960E+01 -0.22779177995E+02  0.28266247921E+02  0.51100000000E-03 0. -1.
        -11    1    3    3    0    0  0.61752565310E+00 -0.40317585221E+01  0.67491720300E+01  0.78859202421E+01  0.51100000000E-03 0.  1.
        -12    1    3    3    0    0  0.88549117202E+01  0.10090620533E+02  0.33736380637E+02  0.36309412867E+02  0.00000000000E+00 0.  1.
</event>
<event>
 7    1  0.2876796E-013  0.7246159E+02  0.7816164E-02  0.1226708E+00
        -11   -1    0    0    0    0  0.00000000000E+00  0.00000000000E+00  0.45593999997E+02  0.45594000000E+02  0.51100000000E-03 0.  1.
         11   -1    0    0    0    0 -0.00000000000E+00 -0.00000000000E+00 -0.45593999997E+02  0.45594000000E+02  0.51100000000E-03 0. -1.
    9900012    2    1    2    0    0  0.62593020301E+01 -0.75357483108E+01  0.15959702013E+02  0.72461589429E+02  0.70000024927E+02 0.  0.
         12    1    1    2    0    0 -0.62593020301E+01  0.75357483108E+01 -0.15959702013E+02  0.18726410571E+02  0.00000000000E+00 0. -1.
         11    1    3    3    0    0 -0.70633982063E+01  0.15756953448E+01 -0.22074216001E+02  0.23230269528E+02  0.51100000000E-03 0. -1.
        -11    1    3    3    0    0 -0.32847450630E+01  0.71230554624E+01  0.73513945262E+01  0.10750370737E+02  0.51100000000E-03 0.  1.
        -12    1    3    3    0    0  0.16607445299E+02 -0.16234499118E+02  0.30682523488E+02  0.38480949164E+02  0.00000000000E+00 0.  1.
</event>
<event>
 7    1  0.2876796E-013  0.7246159E+02  0.7816164E-02  0.1226708E+00
        -11   -1    0    0    0    0  0.00000000000E+00  0.00000000000E+00  0.45593999997E+02  0.45594000000E+02  0.51100000000E-03 0.  1.
         11   -1    0    0    0    0 -0.00000000000E+00 -0.00000000000E+00 -0.45593999997E+02  0.45594000000E+02  0.51100000000E-03 0. -1.
    9900012    2    1    2    0    0 -0.18523734472E+01 -0.73487544042E+01  0.17124341263E+02  0.72461587039E+02  0.70000021813E+02 0.  0.
         12    1    1    2    0    0  0.18523734472E+01  0.73487544042E+01 -0.17124341263E+02  0.18726412961E+02  0.00000000000E+00 0. -1.
         11    1    3    3    0    0 -0.84544672199E+00 -0.70591460009E+00 -0.52972664223E+01  0.54105570316E+01  0.51100000000E-03 0. -1.
        -11    1    3    3    0    0  0.19879176761E+02  0.17621073256E+02 -0.22106553963E+01  0.26656535576E+02  0.51100000000E-03 0.  1.
        -12    1    3    3    0    0 -0.20886103486E+02 -0.24263913061E+02  0.24632263082E+02  0.40394494431E+02  0.00000000000E+00 0.  1.
</event>
<event>
 7    1  0.2876796E-013  0.7246166E+02  0.7816164E-02  0.1226708E+00
        -11   -1    0    0    0    0  0.00000000000E+00  0.00000000000E+00  0.45593999997E+02  0.45594000000E+02  0.51100000000E-03 0. -1.
         11   -1    0    0    0    0 -0.00000000000E+00 -0.00000000000E+00 -0.45593999997E+02  0.45594000000E+02  0.51100000000E-03 0.  1.
    9900012    2    1    2    0    0 -0.11280113804E+02 -0.14638461117E+02 -0.30249706639E+01  0.72461656021E+02  0.70000111674E+02 0.  0.
         12    1    1    2    0    0  0.11280113804E+02  0.14638461117E+02  0.30249706639E+01  0.18726343979E+02  0.00000000000E+00 0. -1.
         11    1    3    3    0    0 -0.24986428153E+01 -0.13257677904E+02  0.19486490151E+02  0.23700897409E+02  0.51100000000E-03 0. -1.
        -11    1    3    3    0    0  0.13099323031E+02 -0.12267069705E+02 -0.47964949812E+01  0.18576318995E+02  0.51100000000E-03 0.  1.
        -12    1    3    3    0    0 -0.21880794020E+02  0.10886286492E+02 -0.17714965834E+02  0.30184439617E+02  0.00000000000E+00 0.  1.
</event>
<event>
 7    1  0.2876796E-013  0.7246134E+02  0.7816164E-02  0.1226709E+00
        -11   -1    0    0    0    0  0.00000000000E+00  0.00000000000E+00  0.45593999997E+02  0.45594000000E+02  0.51100000000E-03 0.  1.
         11   -1    0    0    0    0 -0.00000000000E+00 -0.00000000000E+00 -0.45593999997E+02  0.45594000000E+02  0.51100000000E-03 0. -1.
    9900012    2    1    2    0    0 -0.52659416830E+01  0.17969555547E+02  0.22959945564E+00  0.72461340280E+02  0.69999700362E+02 0.  0.
         12    1    1    2    0    0  0.52659416830E+01 -0.17969555547E+02 -0.22959945564E+00  0.18726659720E+02  0.00000000000E+00 0. -1.
         11    1    3    3    0    0  0.10261481190E+02  0.24780811272E+02 -0.21098074545E+01  0.26904235563E+02  0.51100000000E-03 0. -1.
        -11    1    3    3    0    0  0.70293666205E+01  0.54321000155E+01  0.14618122656E+02  0.17105824035E+02  0.51100000000E-03 0.  1.
         12    1    3    3    0    0 -0.22556789493E+02 -0.12243355740E+02 -0.12278715746E+02  0.28451280681E+02  0.00000000000E+00 0. -1.
</event>
<event>
 7    1  0.2876796E-013  0.7246152E+02  0.7816164E-02  0.1226708E+00
        -11   -1    0    0    0    0  0.00000000000E+00  0.00000000000E+00  0.45593999997E+02  0.45594000000E+02  0.51100000000E-03 0. -1.
         11   -1    0    0    0    0 -0.00000000000E+00 -0.00000000000E+00 -0.45593999997E+02  0.45594000000E+02  0.51100000000E-03 0.  1.
    9900012    2    1    2    0    0 -0.70152397807E+01 -0.16567962529E+02 -0.51932568480E+01  0.72461524404E+02  0.69999940220E+02 0.  0.
         12    1    1    2    0    0  0.70152397807E+01  0.16567962529E+02  0.51932568480E+01  0.18726475596E+02  0.00000000000E+00 0. -1.
         11    1    3    3    0    0 -0.22698231178E+02 -0.12562567228E+02  0.93657033620E+01  0.27581591573E+02  0.51100000000E-03 0. -1.
        -11    1    3    3    0    0 -0.92913481962E+01 -0.12938426049E+02 -0.54619064136E+01  0.16839371777E+02  0.51100000000E-03 0.  1.
        -12    1    3    3    0    0  0.24974339593E+02  0.89330307484E+01 -0.90970537965E+01  0.28040561054E+02  0.00000000000E+00 0.  1.
</event>
<event>
 7    1  0.2876796E-013  0.7246158E+02  0.7816164E-02  0.1226708E+00
        -11   -1    0    0    0    0  0.00000000000E+00  0.00000000000E+00  0.45593999997E+02  0.45594000000E+02  0.51100000000E-03 0.  1.
         11   -1    0    0    0    0 -0.00000000000E+00 -0.00000000000E+00 -0.45593999997E+02  0.45594000000E+02  0.51100000000E-03 0. -1.
    9900012    2    1    2    0    0  0.11850915128E+01 -0.15665149867E+02  0.10192028115E+02  0.72461580178E+02  0.70000012875E+02 0.  0.
         12    1    1    2    0    0 -0.11850915128E+01  0.15665149867E+02 -0.10192028115E+02  0.18726419822E+02  0.00000000000E+00 0. -1.
         11    1    3    3    0    0 -0.47004773517E+01  0.14770408919E+02 -0.98335046296E+01  0.18356396175E+02  0.51100000000E-03 0. -1.
        -11    1    3    3    0    0  0.14487748829E+02 -0.84479343151E+01  0.24876346144E+02  0.30001584259E+02  0.51100000000E-03 0.  1.
        -12    1    3    3    0    0 -0.86021799647E+01 -0.21987624470E+02 -0.48508133991E+01  0.24103599744E+02  0.00000000000E+00 0.  1.
</event>
<event>
 7    1  0.2876796E-013  0.7246157E+02  0.7816164E-02  0.1226708E+00
        -11   -1    0    0    0    0  0.00000000000E+00  0.00000000000E+00  0.45593999997E+02  0.45594000000E+02  0.51100000000E-03 0. -1.
         11   -1    0    0    0    0 -0.00000000000E+00 -0.00000000000E+00 -0.45593999997E+02  0.45594000000E+02  0.51100000000E-03 0.  1.
    9900012    2    1    2    0    0 -0.76725105552E+01 -0.59436841743E+01 -0.16015133584E+02  0.72461566718E+02  0.69999995341E+02 0.  0.
         12    1    1    2    0    0  0.76725105552E+01  0.59436841743E+01  0.16015133584E+02  0.18726433282E+02  0.00000000000E+00 0. -1.
         11    1    3    3    0    0  0.10752477623E+02  0.17722161217E+02  0.12438101149E+02  0.24174307305E+02  0.51100000000E-03 0. -1.
        -11    1    3    3    0    0 -0.48943464418E+01 -0.91142169549E+01  0.32743867196E+01  0.10851045408E+02  0.51100000000E-03 0.  1.
         12    1    3    3    0    0 -0.13530641737E+02 -0.14551628436E+02 -0.31727621453E+02  0.37436214004E+02  0.00000000000E+00 0. -1.
</event>
<event>
 7    1  0.2876796E-013  0.7246171E+02  0.7816164E-02  0.1226708E+00
        -11   -1    0    0    0    0  0.00000000000E+00  0.00000000000E+00  0.45593999997E+02  0.45594000000E+02  0.51100000000E-03 0.  1.
         11   -1    0    0    0    0 -0.00000000000E+00 -0.00000000000E+00 -0.45593999997E+02  0.45594000000E+02  0.51100000000E-03 0. -1.
    9900012    2    1    2    0    0  0.99168961240E+01 -0.14418180665E+02  0.66667195771E+01  0.72461710663E+02  0.70000182856E+02 0.  0.
         12    1    1    2    0    0 -0.99168961240E+01  0.14418180665E+02 -0.66667195771E+01  0.18726289337E+02  0.00000000000E+00 0. -1.
         11    1    3    3    0    0  0.20240201549E+02 -0.11226928574E+01 -0.43244698168E+01  0.20727451301E+02  0.51100000000E-03 0. -1.
        -11    1    3    3    0    0  0.14564898250E+02 -0.17812294065E+02  0.12880687682E+02  0.26369038592E+02  0.51100000000E-03 0.  1.
         12    1    3    3    0    0 -0.24888203674E+02  0.45168062574E+01 -0.18894982877E+01  0.25365220769E+02  0.00000000000E+00 0. -1.
</event>
<event>
 7    1  0.2876796E-013  0.7246159E+02  0.7816164E-02  0.1226708E+00
        -11   -1    0    0    0    0  0.00000000000E+00  0.00000000000E+00  0.45593999997E+02  0.45594000000E+02  0.51100000000E-03 0.  1.
         11   -1    0    0    0    0 -0.00000000000E+00 -0.00000000000E+00 -0.45593999997E+02  0.45594000000E+02  0.51100000000E-03 0. -1.
    9900012    2    1    2    0    0 -0.16703559870E+02  0.50087729756E+01 -0.68250754849E+01  0.72461591524E+02  0.70000027655E+02 0.  0.
         12    1    1    2    0    0  0.16703559870E+02 -0.50087729756E+01  0.68250754849E+01  0.18726408476E+02  0.00000000000E+00 0. -1.
         11    1    3    3    0    0 -0.14879538630E+02 -0.78642976551E+01 -0.10600307727E+02  0.19890057104E+02  0.51100000000E-03 0. -1.
        -11    1    3    3    0    0 -0.14431383404E+01 -0.15004957956E+02  0.16128945058E+02  0.22076554996E+02  0.51100000000E-03 0.  1.
         12    1    3    3    0    0 -0.38088289999E+00  0.27878028587E+02 -0.12353712816E+02  0.30494979423E+02  0.00000000000E+00 0. -1.
</event>
<event>
 7    1  0.2876796E-013  0.7246173E+02  0.7816164E-02  0.1226708E+00
        -11   -1    0    0    0    0  0.00000000000E+00  0.00000000000E+00  0.45593999997E+02  0.45594000000E+02  0.51100000000E-03 0. -1.
         11   -1    0    0    0    0 -0.00000000000E+00 -0.00000000000E+00 -0.45593999997E+02  0.45594000000E+02  0.51100000000E-03 0.  1.
    9900012    2    1    2    0    0  0.26986696112E+01 -0.16636405716E+02 -0.81621281445E+01  0.72461731053E+02  0.70000209418E+02 0.  0.
         12    1    1    2    0    0 -0.26986696112E+01  0.16636405716E+02  0.81621281445E+01  0.18726268947E+02  0.00000000000E+00 0. -1.
         11    1    3    3    0    0 -0.12447828440E+02 -0.12232071866E+01  0.25070066919E+02  0.28017011337E+02  0.51100000000E-03 0. -1.
        -11    1    3    3    0    0 -0.18061409029E+01 -0.61481747484E+01 -0.48854453044E+00  0.64265755824E+01  0.51100000000E-03 0.  1.
         12    1    3    3    0    0  0.16952638954E+02 -0.92650237808E+01 -0.32743650533E+02  0.38018144134E+02  0.00000000000E+00 0. -1.
</event>
<event>
 7    1  0.2876796E-013  0.7246159E+02  0.7816164E-02  0.1226708E+00
        -11   -1    0    0    0    0  0.00000000000E+00  0.00000000000E+00  0.45593999997E+02  0.45594000000E+02  0.51100000000E-03 0. -1.
         11   -1    0    0    0    0 -0.00000000000E+00 -0.00000000000E+00 -0.45593999997E+02  0.45594000000E+02  0.51100000000E-03 0.  1.
    9900012    2    1    2    0    0 -0.68520441916E+01  0.16739803131E+02  0.48484061958E+01  0.72461586539E+02  0.70000021162E+02 0.  0.
         12    1    1    2    0    0  0.68520441916E+01 -0.16739803131E+02 -0.48484061958E+01  0.18726413461E+02  0.00000000000E+00 0. -1.
         11    1    3    3    0    0 -0.22147445188E+02  0.16867632771E+02 -0.46089418076E+01  0.28218233618E+02  0.51100000000E-03 0. -1.
        -11    1    3    3    0    0  0.49970727084E+01  0.15733625081E+02 -0.81445784486E+01  0.18407929058E+02  0.51100000000E-03 0.  1.
         12    1    3    3    0    0  0.10298328288E+02 -0.15861454720E+02  0.17601926452E+02  0.25835423863E+02  0.00000000000E+00 0. -1.
</event>
<event>
 7    1  0.2876796E-013  0.7246158E+02  0.7816164E-02  0.1226708E+00
        -11   -1    0    0    0    0  0.00000000000E+00  0.00000000000E+00  0.45593999997E+02  0.45594000000E+02  0.51100000000E-03 0.  1.
         11   -1    0    0    0    0 -0.00000000000E+00 -0.00000000000E+00 -0.45593999997E+02  0.45594000000E+02  0.51100000000E-03 0. -1.
    9900012    2    1    2    0    0 -0.37197478926E+01  0.13219358086E+02  0.12731489273E+02  0.72461580917E+02  0.70000013837E+02 0.  0.
         12    1    1    2    0    0  0.37197478926E+01 -0.13219358086E+02 -0.12731489273E+02  0.18726419083E+02  0.00000000000E+00 0. -1.
         11    1    3    3    0    0 -0.16196067774E+01 -0.67967414196E+01  0.10065714387E+02  0.12253057840E+02  0.51100000000E-03 0. -1.
        -11    1    3    3    0    0  0.25627728443E+02  0.17740488360E+01  0.72755461833E+01  0.26699462297E+02  0.51100000000E-03 0.  1.
         12    1    3    3    0    0 -0.27727869559E+02  0.18242050669E+02 -0.46097712980E+01  0.33509060779E+02  0.00000000000E+00 0. -1.
</event>
<event>
 7    1  0.2876796E-013  0.7246154E+02  0.7816164E-02  0.1226708E+00
        -11   -1    0    0    0    0  0.00000000000E+00  0.00000000000E+00  0.45593999997E+02  0.45594000000E+02  0.51100000000E-03 0. -1.
         11   -1    0    0    0    0 -0.00000000000E+00 -0.00000000000E+00 -0.45593999997E+02  0.45594000000E+02  0.51100000000E-03 0.  1.
    9900012    2    1    2    0    0  0.95469965670E+01  0.14712225254E+02 -0.65639703493E+01  0.72461536850E+02  0.69999956433E+02 0.  0.
         12    1    1    2    0    0 -0.95469965670E+01 -0.14712225254E+02  0.65639703493E+01  0.18726463150E+02  0.00000000000E+00 0. -1.
         11    1    3    3    0    0  0.15482130511E+01  0.64215043047E+01  0.26262693305E+02  0.27080652523E+02  0.51100000000E-03 0. -1.
        -11    1    3    3    0    0  0.50540488998E+01  0.62235852501E+01  0.35918451043E+01  0.87850882273E+01  0.51100000000E-03 0.  1.
        -12    1    3    3    0    0  0.29447346161E+01  0.20671356987E+01 -0.36418508759E+02  0.36595796100E+02  0.00000000000E+00 0.  1.
</event>
<event>
 7    1  0.2876796E-013  0.7246131E+02  0.7816164E-02  0.1226709E+00
        -11   -1    0    0    0    0  0.00000000000E+00  0.00000000000E+00  0.45593999997E+02  0.45594000000E+02  0.51100000000E-03 0.  1.
         11   -1    0    0    0    0 -0.00000000000E+00 -0.00000000000E+00 -0.45593999997E+02  0.45594000000E+02  0.51100000000E-03 0. -1.
    9900012    2    1    2    0    0 -0.14859222367E+02  0.10801495777E+02  0.36359553289E+01  0.72461308580E+02  0.69999659068E+02 0.  0.
         12    1    1    2    0    0  0.14859222367E+02 -0.10801495777E+02 -0.36359553289E+01  0.18726691420E+02  0.00000000000E+00 0. -1.
         11    1    3    3    0    0  0.13090574329E+02  0.11877449052E+02  0.16456619107E+02  0.24150719346E+02  0.51100000000E-03 0. -1.
        -11    1    3    3    0    0  0.11213808178E+00 -0.10862866708E+02  0.66907029255E+01  0.12758524756E+02  0.51100000000E-03 0.  1.
        -12    1    3    3    0    0 -0.28061934777E+02  0.97869134334E+01 -0.19511366703E+02  0.35552064478E+02  0.00000000000E+00 0.  1.
</event>
<event>
 7    1  0.2876796E-013  0.7246108E+02  0.7816164E-02  0.1226709E+00
        -11   -1    0    0    0    0  0.00000000000E+00  0.00000000000E+00  0.45593999997E+02  0.45594000000E+02  0.51100000000E-03 0.  1.
         11   -1    0    0    0    0 -0.00000000000E+00 -0.00000000000E+00 -0.45593999997E+02  0.45594000000E+02  0.51100000000E-03 0. -1.
    9900012    2    1    2    0    0  0.18182733952E+02 -0.27639456135E+01  0.35279595620E+01  0.72461075319E+02  0.69999355200E+02 0.  0.
         12    1    1    2    0    0 -0.18182733952E+02  0.27639456135E+01 -0.35279595620E+01  0.18726924681E+02  0.00000000000E+00 0. -1.
         11    1    3    3    0    0 -0.54528931168E+01  0.26286921034E+02 -0.83649683337E+01  0.28119547583E+02  0.51100000000E-03 0. -1.
        -11    1    3    3    0    0  0.36687184786E+01  0.24991920387E+01 -0.14833433810E+01  0.46803593846E+01  0.51100000000E-03 0.  1.
        -12    1    3    3    0    0  0.19966908590E+02 -0.31550058686E+02  0.13376271277E+02  0.39661168352E+02  0.00000000000E+00 0.  1.
</event>
<event>
 7    1  0.2876796E-013  0.7246158E+02  0.7816164E-02  0.1226708E+00
        -11   -1    0    0    0    0  0.00000000000E+00  0.00000000000E+00  0.45593999997E+02  0.45594000000E+02  0.51100000000E-03 0. -1.
         11   -1    0    0    0    0 -0.00000000000E+00 -0.00000000000E+00 -0.45593999997E+02  0.45594000000E+02  0.51100000000E-03 0.  1.
    9900012    2    1    2    0    0  0.95807813609E+01 -0.15550586657E+02 -0.41311843605E+01  0.72461580132E+02  0.70000012815E+02 0.  0.
         12    1    1    2    0    0 -0.95807813609E+01  0.15550586657E+02  0.41311843605E+01  0.18726419868E+02  0.00000000000E+00 0. -1.
         11    1    3    3    0    0 -0.77236267148E+01  0.22274130405E+00  0.10825963201E+02  0.13300582799E+02  0.51100000000E-03 0. -1.
        -11    1    3    3    0    0 -0.28808049216E+01 -0.29289790674E+02 -0.18273950821E+02  0.34642865840E+02  0.51100000000E-03 0.  1.
         12    1    3    3    0    0  0.20185212997E+02  0.13516462713E+02  0.33168032596E+01  0.24518131492E+02  0.00000000000E+00 0. -1.
</event>
<event>
 7    1  0.2876796E-013  0.7246157E+02  0.7816164E-02  0.1226708E+00
        -11   -1    0    0    0    0  0.00000000000E+00  0.00000000000E+00  0.45593999997E+02  0.45594000000E+02  0.51100000000E-03 0. -1.
         11   -1    0    0    0    0 -0.00000000000E+00 -0.00000000000E+00 -0.45593999997E+02  0.45594000000E+02  0.51100000000E-03 0.  1.
    9900012    2    1    2    0    0 -0.41873863648E+01  0.17798044295E+02 -0.40465394678E+01  0.72461573032E+02  0.70000003567E+02 0.  0.
         12    1    1    2    0    0  0.41873863648E+01 -0.17798044295E+02  0.40465394678E+01  0.18726426968E+02  0.00000000000E+00 0. -1.
         11    1    3    3    0    0 -0.79555635274E+01  0.65146385915E+01  0.47443530232E+01  0.11324327481E+02  0.51100000000E-03 0. -1.
        -11    1    3    3    0    0 -0.23069668453E+02  0.12149399037E+02 -0.19156548799E+02  0.32354147518E+02  0.51100000000E-03 0.  1.
         12    1    3    3    0    0  0.26837845615E+02 -0.86599333313E+00  0.10365656308E+02  0.28783098034E+02  0.00000000000E+00 0. -1.
</event>
<event>
 7    1  0.2876796E-013  0.7246159E+02  0.7816164E-02  0.1226708E+00
        -11   -1    0    0    0    0  0.00000000000E+00  0.00000000000E+00  0.45593999997E+02  0.45594000000E+02  0.51100000000E-03 0.  1.
         11   -1    0    0    0    0 -0.00000000000E+00 -0.00000000000E+00 -0.45593999997E+02  0.45594000000E+02  0.51100000000E-03 0. -1.
    9900012    2    1    2    0    0  0.50354985892E+01  0.15238451124E+02 -0.96494374695E+01  0.72461593987E+02  0.70000030864E+02 0.  0.
         12    1    1    2    0    0 -0.50354985892E+01 -0.15238451124E+02  0.96494374695E+01  0.18726406013E+02  0.00000000000E+00 0. -1.
         11    1    3    3    0    0  0.15637244458E+02  0.35443609401E+02 -0.12187510081E+02  0.40611676447E+02  0.51100000000E-03 0. -1.
        -11    1    3    3    0    0  0.12188033607E+01  0.64013255890E+00 -0.61938915468E+01  0.63450409045E+01  0.51100000000E-03 0.  1.
        -12    1    3    3    0    0 -0.11820549230E+02 -0.20845290836E+02  0.87319641578E+01  0.25504876635E+02  0.00000000000E+00 0.  1.
</event>
<event>
 7    1  0.2876796E-013  0.7246154E+02  0.7816164E-02  0.1226708E+00
        -11   -1    0    0    0    0  0.00000000000E+00  0.00000000000E+00  0.45593999997E+02  0.45594000000E+02  0.51100000000E-03 0.  1.
         11   -1    0    0    0    0 -0.00000000000E+00 -0.00000000000E+00 -0.45593999997E+02  0.45594000000E+02  0.51100000000E-03 0. -1.
    9900012    2    1    2    0    0  0.17251360953E+02  0.64164166784E+01  0.34497202413E+01  0.72461536707E+02  0.69999956246E+02 0.  0.
         12    1    1    2    0    0 -0.17251360953E+02 -0.64164166784E+01 -0.34497202413E+01  0.18726463293E+02  0.00000000000E+00 0. -1.
         11    1    3    3    0    0 -0.27493519487E+01  0.13788144050E+02 -0.35350335704E+01  0.14497183005E+02  0.51100000000E-03 0. -1.
        -11    1    3    3    0    0 -0.12348468020E+02 -0.18827499078E+02  0.72226093954E+01  0.23645834109E+02  0.51100000000E-03 0.  1.
        -12    1    3    3    0    0  0.32349180922E+02  0.11455771706E+02 -0.23785558376E+00  0.34318519592E+02  0.00000000000E+00 0.  1.
</event>
<event>
 7    1  0.2876796E-013  0.7246154E+02  0.7816164E-02  0.1226708E+00
        -11   -1    0    0    0    0  0.00000000000E+00  0.00000000000E+00  0.45593999997E+02  0.45594000000E+02  0.51100000000E-03 0. -1.
         11   -1    0    0    0    0 -0.00000000000E+00 -0.00000000000E+00 -0.45593999997E+02  0.45594000000E+02  0.51100000000E-03 0.  1.
    9900012    2    1    2    0    0 -0.16088374186E+02  0.38580962877E+01  0.87726685851E+01  0.72461537307E+02  0.69999957027E+02 0.  0.
         12    1    1    2    0    0  0.16088374186E+02 -0.38580962877E+01 -0.87726685851E+01  0.18726462693E+02  0.00000000000E+00 0. -1.
         11    1    3    3    0    0 -0.10700794083E+01  0.44862398753E+01 -0.91842183741E+00  0.47026500073E+01  0.51100000000E-03 0. -1.
        -11    1    3    3    0    0  0.13910898909E+02  0.81081166094E+00 -0.21227391931E+02  0.25392374691E+02  0.51100000000E-03 0.  1.
         12    1    3    3    0    0 -0.28929193686E+02 -0.14389552486E+01  0.30918482354E+02  0.42366512608E+02  0.00000000000E+00 0. -1.
</event>
<event>
 7    1  0.2876796E-013  0.7246151E+02  0.7816164E-02  0.1226708E+00
        -11   -1    0    0    0    0  0.00000000000E+00  0.00000000000E+00  0.45593999997E+02  0.45594000000E+02  0.51100000000E-03 0.  1.
         11   -1    0    0    0    0 -0.00000000000E+00 -0.00000000000E+00 -0.45593999997E+02  0.45594000000E+02  0.51100000000E-03 0. -1.
    9900012    2    1    2    0    0 -0.22648714169E+01  0.13815200032E+02  0.12437526168E+02  0.72461509361E+02  0.69999920623E+02 0.  0.
         12    1    1    2    0    0  0.22648714169E+01 -0.13815200032E+02 -0.12437526168E+02  0.18726490639E+02  0.00000000000E+00 0. -1.
         11    1    3    3    0    0 -0.14936658362E+02  0.24162924481E+01 -0.41863502191E+01  0.15699291724E+02  0.51100000000E-03 0. -1.
        -11    1    3    3    0    0  0.20595479940E+02 -0.14309820762E+02  0.16201326930E+02  0.29856787482E+02  0.51100000000E-03 0.  1.
         12    1    3    3    0    0 -0.79236929946E+01  0.25708728346E+02  0.42254945791E+00  0.26905430156E+02  0.00000000000E+00 0. -1.
</event>
<event>
 7    1  0.2876796E-013  0.7246131E+02  0.7816164E-02  0.1226709E+00
        -11   -1    0    0    0    0  0.00000000000E+00  0.00000000000E+00  0.45593999997E+02  0.45594000000E+02  0.51100000000E-03 0. -1.
         11   -1    0    0    0    0 -0.00000000000E+00 -0.00000000000E+00 -0.45593999997E+02  0.45594000000E+02  0.51100000000E-03 0.  1.
    9900012    2    1    2    0    0  0.69279530561E+01 -0.16161948327E+02  0.64407966440E+01  0.72461308657E+02  0.69999659168E+02 0.  0.
         12    1    1    2    0    0 -0.69279530561E+01  0.16161948327E+02 -0.64407966440E+01  0.18726691343E+02  0.00000000000E+00 0. -1.
         11    1    3    3    0    0 -0.17676172633E+01  0.31998612491E+01  0.84692400174E-01  0.36566044176E+01  0.51100000000E-03 0. -1.
        -11    1    3    3    0    0  0.26220975815E+02 -0.24867479513E-01 -0.19028713885E+02  0.32398026845E+02  0.51100000000E-03 0.  1.
         12    1    3    3    0    0 -0.17525405496E+02 -0.19336942096E+02  0.25384818128E+02  0.36406677394E+02  0.00000000000E+00 0. -1.
</event>
<event>
 7    1  0.2876796E-013  0.7246154E+02  0.7816164E-02  0.1226708E+00
        -11   -1    0    0    0    0  0.00000000000E+00  0.00000000000E+00  0.45593999997E+02  0.45594000000E+02  0.51100000000E-03 0.  1.
         11   -1    0    0    0    0 -0.00000000000E+00 -0.00000000000E+00 -0.45593999997E+02  0.45594000000E+02  0.51100000000E-03 0. -1.
    9900012    2    1    2    0    0 -0.15594614291E+02  0.91113079087E+01 -0.49469638669E+01  0.72461538023E+02  0.69999957960E+02 0.  0.
         12    1    1    2    0    0  0.15594614291E+02 -0.91113079087E+01  0.49469638669E+01  0.18726461977E+02  0.00000000000E+00 0. -1.
         11    1    3    3    0    0  0.53626034083E+01 -0.14088304074E+02 -0.57847804311E+01  0.16146253803E+02  0.51100000000E-03 0. -1.
        -11    1    3    3    0    0  0.10444278466E+02  0.48359430831E+01  0.13552529493E+02  0.17780336163E+02  0.51100000000E-03 0.  1.
        -12    1    3    3    0    0 -0.31401496165E+02  0.18363668899E+02 -0.12714712928E+02  0.38534948056E+02  0.00000000000E+00 0.  1.
</event>
<event>
 7    1  0.2876796E-013  0.7246154E+02  0.7816164E-02  0.1226708E+00
        -11   -1    0    0    0    0  0.00000000000E+00  0.00000000000E+00  0.45593999997E+02  0.45594000000E+02  0.51100000000E-03 0.  1.
         11   -1    0    0    0    0 -0.00000000000E+00 -0.00000000000E+00 -0.45593999997E+02  0.45594000000E+02  0.51100000000E-03 0. -1.
    9900012    2    1    2    0    0  0.14714496156E+02 -0.10264560043E+02  0.53668323862E+01  0.72461535308E+02  0.69999954423E+02 0.  0.
         12    1    1    2    0    0 -0.14714496156E+02  0.10264560043E+02 -0.53668323862E+01  0.18726464692E+02  0.00000000000E+00 0. -1.
         11    1    3    3    0    0 -0.83889182597E+01  0.33380986883E+01 -0.24878254131E+02  0.26465909795E+02  0.51100000000E-03 0. -1.
        -11    1    3    3    0    0 -0.28819344033E+01 -0.39140914787E+01 -0.13306211953E+00  0.48624442205E+01  0.51100000000E-03 0.  1.
        -12    1    3    3    0    0  0.25985348819E+02 -0.96885672526E+01  0.30378148636E+02  0.41133181292E+02  0.00000000000E+00 0.  1.
</event>
<event>
 7    1  0.2876796E-013  0.7246158E+02  0.7816164E-02  0.1226708E+00
        -11   -1    0    0    0    0  0.00000000000E+00  0.00000000000E+00  0.45593999997E+02  0.45594000000E+02  0.51100000000E-03 0. -1.
         11   -1    0    0    0    0 -0.00000000000E+00 -0.00000000000E+00 -0.45593999997E+02  0.45594000000E+02  0.51100000000E-03 0.  1.
    9900012    2    1    2    0    0  0.15640849636E+02 -0.39347305329E+01 -0.95163337647E+01  0.72461577757E+02  0.70000009721E+02 0.  0.
         12    1    1    2    0    0 -0.15640849636E+02  0.39347305329E+01  0.95163337647E+01  0.18726422243E+02  0.00000000000E+00 0. -1.
         11    1    3    3    0    0  0.26667297242E+02 -0.16357905961E+02  0.84938653248E+01  0.32417149443E+02  0.51100000000E-03 0. -1.
        -11    1    3    3    0    0  0.78172225749E+01 -0.40506490570E+01  0.64454829662E+00  0.88279198760E+01  0.51100000000E-03 0.  1.
        -12    1    3    3    0    0 -0.18843670180E+02  0.16473824485E+02 -0.18654747386E+02  0.31216508438E+02  0.00000000000E+00 0.  1.
</event>
<event>
 7    1  0.2876796E-013  0.7246160E+02  0.7816164E-02  0.1226708E+00
        -11   -1    0    0    0    0  0.00000000000E+00  0.00000000000E+00  0.45593999997E+02  0.45594000000E+02  0.51100000000E-03 0.  1.
         11   -1    0    0    0    0 -0.00000000000E+00 -0.00000000000E+00 -0.45593999997E+02  0.45594000000E+02  0.51100000000E-03 0. -1.
    9900012    2    1    2    0    0  0.15527043241E+02  0.41543383702E+01  0.96088774081E+01  0.72461598206E+02  0.70000036360E+02 0.  0.
         12    1    1    2    0    0 -0.15527043241E+02 -0.41543383702E+01 -0.96088774081E+01  0.18726401794E+02  0.00000000000E+00 0. -1.
         11    1    3    3    0    0 -0.12464560290E+02  0.17557405374E+02 -0.48984495251E+01  0.22082177309E+02  0.51100000000E-03 0. -1.
        -11    1    3    3    0    0 -0.45052978289E+01 -0.58412448413E+01 -0.74128691744E+01  0.10457938587E+02  0.51100000000E-03 0.  1.
        -12    1    3    3    0    0  0.32496901361E+02 -0.75618221622E+01  0.21920196108E+02  0.39921482310E+02  0.00000000000E+00 0.  1.
</event>
<event>
 7    1  0.2876796E-013  0.7246154E+02  0.7816164E-02  0.1226708E+00
        -11   -1    0    0    0    0  0.00000000000E+00  0.00000000000E+00  0.45593999997E+02  0.45594000000E+02  0.51100000000E-03 0. -1.
         11   -1    0    0    0    0 -0.00000000000E+00 -0.00000000000E+00 -0.45593999997E+02  0.45594000000E+02  0.51100000000E-03 0.  1.
    9900012    2    1    2    0    0  0.13555160019E+02 -0.54201721748E+01 -0.11728586409E+02  0.72461538276E+02  0.69999958291E+02 0.  0.
         12    1    1    2    0    0 -0.13555160019E+02  0.54201721748E+01  0.11728586409E+02  0.18726461724E+02  0.00000000000E+00 0. -1.
         11    1    3    3    0    0  0.12990612820E+02  0.12485479775E+02 -0.60911860059E+01  0.19019615503E+02  0.51100000000E-03 0. -1.
        -11    1    3    3    0    0 -0.21136988057E+01 -0.56823340914E-01 -0.26083627426E+02  0.26169191266E+02  0.51100000000E-03 0.  1.
         12    1    3    3    0    0  0.26782460046E+01 -0.17848828609E+02  0.20446227024E+02  0.27272731507E+02  0.00000000000E+00 0. -1.
</event>
<event>
 7    1  0.2876796E-013  0.7246166E+02  0.7816164E-02  0.1226708E+00
        -11   -1    0    0    0    0  0.00000000000E+00  0.00000000000E+00  0.45593999997E+02  0.45594000000E+02  0.51100000000E-03 0. -1.
         11   -1    0    0    0    0 -0.00000000000E+00 -0.00000000000E+00 -0.45593999997E+02  0.45594000000E+02  0.51100000000E-03 0.  1.
    9900012    2    1    2    0    0 -0.16825400053E+01 -0.26837150914E+01 -0.18456507779E+02  0.72461656337E+02  0.70000112087E+02 0.  0.
         12    1    1    2    0    0  0.16825400053E+01  0.26837150914E+01  0.18456507779E+02  0.18726343663E+02  0.00000000000E+00 0. -1.
         11    1    3    3    0    0 -0.11185568252E+02  0.62829178565E+01  0.48630698823E+01  0.13720110891E+02  0.51100000000E-03 0. -1.
        -11    1    3    3    0    0 -0.19131354307E+02  0.54697800974E+01 -0.16746383657E+02  0.26007087069E+02  0.51100000000E-03 0.  1.
         12    1    3    3    0    0  0.28634382554E+02 -0.14436413045E+02 -0.65731940046E+01  0.32734458378E+02  0.00000000000E+00 0. -1.
</event>
<event>
 7    1  0.2876796E-013  0.7246147E+02  0.7816164E-02  0.1226708E+00
        -11   -1    0    0    0    0  0.00000000000E+00  0.00000000000E+00  0.45593999997E+02  0.45594000000E+02  0.51100000000E-03 0. -1.
         11   -1    0    0    0    0 -0.00000000000E+00 -0.00000000000E+00 -0.45593999997E+02  0.45594000000E+02  0.51100000000E-03 0.  1.
    9900012    2    1    2    0    0 -0.12074018456E+02 -0.36539289817E+01 -0.13840149022E+02  0.72461472195E+02  0.69999872207E+02 0.  0.
         12    1    1    2    0    0  0.12074018456E+02  0.36539289817E+01  0.13840149022E+02  0.18726527805E+02  0.00000000000E+00 0. -1.
         11    1    3    3    0    0  0.14966034438E+02 -0.84068934101E+01  0.48932868652E+01  0.17849434171E+02  0.51100000000E-03 0. -1.
        -11    1    3    3    0    0  0.76460972736E+01 -0.65290773004E+01 -0.14846469265E+02  0.17930680517E+02  0.51100000000E-03 0.  1.
         12    1    3    3    0    0 -0.34686150168E+02  0.11282041729E+02 -0.38869666221E+01  0.36681357507E+02  0.00000000000E+00 0. -1.
</event>
<event>
 7    1  0.2876796E-013  0.7246154E+02  0.7816164E-02  0.1226708E+00
        -11   -1    0    0    0    0  0.00000000000E+00  0.00000000000E+00  0.45593999997E+02  0.45594000000E+02  0.51100000000E-03 0. -1.
         11   -1    0    0    0    0 -0.00000000000E+00 -0.00000000000E+00 -0.45593999997E+02  0.45594000000E+02  0.51100000000E-03 0.  1.
    9900012    2    1    2    0    0 -0.11378641924E+02  0.14872894040E+02  0.60580831199E-01  0.72461544404E+02  0.69999966273E+02 0.  0.
         12    1    1    2    0    0  0.11378641924E+02 -0.14872894040E+02 -0.60580831199E-01  0.18726455596E+02  0.00000000000E+00 0. -1.
         11    1    3    3    0    0 -0.13713968838E+02 -0.10600472695E+01  0.10848617592E+01  0.13797592790E+02  0.51100000000E-03 0. -1.
        -11    1    3    3    0    0  0.49457296426E+00  0.37143707231E+02 -0.30798754926E+01  0.37274458046E+02  0.51100000000E-03 0.  1.
         12    1    3    3    0    0  0.18407539501E+01 -0.21210765922E+02  0.20555945646E+01  0.21389493568E+02  0.00000000000E+00 0. -1.
</event>
<event>
 7    1  0.2876796E-013  0.7246155E+02  0.7816164E-02  0.1226708E+00
        -11   -1    0    0    0    0  0.00000000000E+00  0.00000000000E+00  0.45593999997E+02  0.45594000000E+02  0.51100000000E-03 0.  1.
         11   -1    0    0    0    0 -0.00000000000E+00 -0.00000000000E+00 -0.45593999997E+02  0.45594000000E+02  0.51100000000E-03 0. -1.
    9900012    2    1    2    0    0  0.64806055525E+01 -0.13813126158E+02  0.10857213782E+02  0.72461553629E+02  0.69999978290E+02 0.  0.
         12    1    1    2    0    0 -0.64806055525E+01  0.13813126158E+02 -0.10857213782E+02  0.18726446371E+02  0.00000000000E+00 0. -1.
         11    1    3    3    0    0 -0.12022184193E+02  0.81390113388E+01 -0.23603996856E+01  0.14708769673E+02  0.51100000000E-03 0.  1.
        -11    1    3    3    0    0  0.61381633173E+00 -0.12271690253E+02 -0.17214044920E+02  0.21149337931E+02  0.51100000000E-03 0. -1.
         12    1    3    3    0    0  0.17888973414E+02 -0.96804472440E+01  0.30431658388E+02  0.36603446025E+02  0.00000000000E+00 0. -1.
</event>
<event>
 7    1  0.2876796E-013  0.7246157E+02  0.7816164E-02  0.1226708E+00
        -11   -1    0    0    0    0  0.00000000000E+00  0.00000000000E+00  0.45593999997E+02  0.45594000000E+02  0.51100000000E-03 0.  1.
         11   -1    0    0    0    0 -0.00000000000E+00 -0.00000000000E+00 -0.45593999997E+02  0.45594000000E+02  0.51100000000E-03 0. -1.
    9900012    2    1    2    0    0  0.18564207276E+02 -0.70701129933E+00  0.23557375921E+01  0.72461570646E+02  0.70000000458E+02 0.  0.
         12    1    1    2    0    0 -0.18564207276E+02  0.70701129933E+00 -0.23557375921E+01  0.18726429354E+02  0.00000000000E+00 0. -1.
         11    1    3    3    0    0 -0.74330442197E+01 -0.56058460066E+01 -0.12710236898E+02  0.15755182578E+02  0.51100000000E-03 0. -1.
        -11    1    3    3    0    0  0.64263030897E+00  0.11299490125E+02  0.26004571996E+02  0.28360698435E+02  0.51100000000E-03 0.  1.
         12    1    3    3    0    0  0.25354621187E+02 -0.64006554173E+01 -0.10938597506E+02  0.28345689632E+02  0.00000000000E+00 0. -1.
</event>
<event>
 7    1  0.2876796E-013  0.7246159E+02  0.7816164E-02  0.1226708E+00
        -11   -1    0    0    0    0  0.00000000000E+00  0.00000000000E+00  0.45593999997E+02  0.45594000000E+02  0.51100000000E-03 0.  1.
         11   -1    0    0    0    0 -0.00000000000E+00 -0.00000000000E+00 -0.45593999997E+02  0.45594000000E+02  0.51100000000E-03 0. -1.
    9900012    2    1    2    0    0 -0.79427413556E+01  0.55975693980E+00  0.16949272517E+02  0.72461593326E+02  0.70000030003E+02 0.  0.
         12    1    1    2    0    0  0.79427413556E+01 -0.55975693980E+00 -0.16949272517E+02  0.18726406674E+02  0.00000000000E+00 0. -1.
         11    1    3    3    0    0 -0.16223816171E+02  0.26823813975E+01 -0.68921043376E+01  0.17829988323E+02  0.51100000000E-03 0. -1.
        -11    1    3    3    0    0 -0.13065552097E+02  0.15753730765E+02  0.15148343304E+02  0.25462933643E+02  0.51100000000E-03 0.  1.
        -12    1    3    3    0    0  0.21346626913E+02 -0.17876355222E+02  0.86930335507E+01  0.29168671360E+02  0.00000000000E+00 0.  1.
</event>
<event>
 7    1  0.2876796E-013  0.7246143E+02  0.7816164E-02  0.1226708E+00
        -11   -1    0    0    0    0  0.00000000000E+00  0.00000000000E+00  0.45593999997E+02  0.45594000000E+02  0.51100000000E-03 0.  1.
         11   -1    0    0    0    0 -0.00000000000E+00 -0.00000000000E+00 -0.45593999997E+02  0.45594000000E+02  0.51100000000E-03 0. -1.
    9900012    2    1    2    0    0 -0.10084004969E+02  0.46660635043E+01  0.15073990030E+02  0.72461428496E+02  0.69999815282E+02 0.  0.
         12    1    1    2    0    0  0.10084004969E+02 -0.46660635043E+01 -0.15073990030E+02  0.18726571504E+02  0.00000000000E+00 0. -1.
         11    1    3    3    0    0  0.19521979687E+01  0.14989167384E+02 -0.48181248934E+00  0.15123437417E+02  0.51100000000E-03 0. -1.
        -11    1    3    3    0    0 -0.28298792627E+02 -0.11425654970E+02 -0.51881844668E+01  0.30956170854E+02  0.51100000000E-03 0.  1.
         12    1    3    3    0    0  0.16262589689E+02  0.11025510899E+01  0.20743986987E+02  0.26381820225E+02  0.00000000000E+00 0. -1.
</event>
<event>
 7    1  0.2876796E-013  0.7246157E+02  0.7816164E-02  0.1226708E+00
        -11   -1    0    0    0    0  0.00000000000E+00  0.00000000000E+00  0.45593999997E+02  0.45594000000E+02  0.51100000000E-03 0. -1.
         11   -1    0    0    0    0 -0.00000000000E+00 -0.00000000000E+00 -0.45593999997E+02  0.45594000000E+02  0.51100000000E-03 0.  1.
    9900012    2    1    2    0    0  0.15562928405E+02  0.73811259895E+01 -0.73480105567E+01  0.72461574271E+02  0.70000005181E+02 0.  0.
         12    1    1    2    0    0 -0.15562928405E+02 -0.73811259895E+01  0.73480105567E+01  0.18726425729E+02  0.00000000000E+00 0. -1.
         11    1    3    3    0    0  0.38156184259E+01  0.14097914929E+02 -0.67501116632E+01  0.16089566714E+02  0.51100000000E-03 0. -1.
        -11    1    3    3    0    0 -0.10285444650E+02  0.15043529410E+02 -0.13647905571E+02  0.22767597051E+02  0.51100000000E-03 0.  1.
         12    1    3    3    0    0  0.22032754630E+02 -0.21760318349E+02  0.13050006677E+02  0.33604410507E+02  0.00000000000E+00 0. -1.
</event>
<event>
 7    1  0.2876796E-013  0.7246161E+02  0.7816164E-02  0.1226708E+00
        -11   -1    0    0    0    0  0.00000000000E+00  0.00000000000E+00  0.45593999997E+02  0.45594000000E+02  0.51100000000E-03 0.  1.
         11   -1    0    0    0    0 -0.00000000000E+00 -0.00000000000E+00 -0.45593999997E+02  0.45594000000E+02  0.51100000000E-03 0. -1.
    9900012    2    1    2    0    0 -0.13012621039E+02  0.13337895909E+02  0.18573759018E+01  0.72461611698E+02  0.70000053936E+02 0.  0.
         12    1    1    2    0    0  0.13012621039E+02 -0.13337895909E+02 -0.18573759018E+01  0.18726388302E+02  0.00000000000E+00 0. -1.
         11    1    3    3    0    0 -0.28414306474E+02  0.20846398699E+02 -0.42007616902E+00  0.35243745763E+02  0.51100000000E-03 0. -1.
        -11    1    3    3    0    0  0.15156874989E+02  0.21058630088E+01  0.14893713786E+02  0.21353880889E+02  0.51100000000E-03 0.  1.
        -12    1    3    3    0    0  0.24481044637E+00 -0.96143657994E+01 -0.12616261715E+02  0.15863985046E+02  0.00000000000E+00 0.  1.
</event>
<event>
 7    1  0.2876796E-013  0.7246188E+02  0.7816164E-02  0.1226707E+00
        -11   -1    0    0    0    0  0.00000000000E+00  0.00000000000E+00  0.45593999997E+02  0.45594000000E+02  0.51100000000E-03 0.  1.
         11   -1    0    0    0    0 -0.00000000000E+00 -0.00000000000E+00 -0.45593999997E+02  0.45594000000E+02  0.51100000000E-03 0. -1.
    9900012    2    1    2    0    0  0.67527856091E+01  0.17105641751E+02  0.35304907025E+01  0.72461883003E+02  0.70000407360E+02 0.  0.
         12    1    1    2    0    0 -0.67527856091E+01 -0.17105641751E+02 -0.35304907025E+01  0.18726116997E+02  0.00000000000E+00 0. -1.
         11    1    3    3    0    0 -0.60941099927E+01 -0.14454985466E+02 -0.16896145118E+02  0.23055682630E+02  0.51100000000E-03 0. -1.
        -11    1    3    3    0    0 -0.46745350918E+01 -0.15946535909E+01 -0.24141593667E+01  0.54974870721E+01  0.51100000000E-03 0.  1.
        -12    1    3    3    0    0  0.17521430694E+02  0.33155280807E+02  0.22840795187E+02  0.43908713301E+02  0.00000000000E+00 0.  1.
</event>
<event>
 7    1  0.2876796E-013  0.7246159E+02  0.7816164E-02  0.1226708E+00
        -11   -1    0    0    0    0  0.00000000000E+00  0.00000000000E+00  0.45593999997E+02  0.45594000000E+02  0.51100000000E-03 0.  1.
         11   -1    0    0    0    0 -0.00000000000E+00 -0.00000000000E+00 -0.45593999997E+02  0.45594000000E+02  0.51100000000E-03 0. -1.
    9900012    2    1    2    0    0 -0.12556506015E+02  0.13589856756E+02 -0.28858896294E+01  0.72461590603E+02  0.70000026456E+02 0.  0.
         12    1    1    2    0    0  0.12556506015E+02 -0.13589856756E+02  0.28858896294E+01  0.18726409397E+02  0.00000000000E+00 0. -1.
         11    1    3    3    0    0 -0.22626328816E+02  0.43300517338E+01 -0.20723197765E+02  0.30986303903E+02  0.51100000000E-03 0.  1.
        -11    1    3    3    0    0  0.10162682604E+02  0.51173455383E+01 -0.88832625220E+01  0.14435362703E+02  0.51100000000E-03 0. -1.
        -12    1    3    3    0    0 -0.92859803693E-01  0.41424594839E+01  0.26720570657E+02  0.27039923997E+02  0.00000000000E+00 0.  1.
</event>
<event>
 7    1  0.2876796E-013  0.7246163E+02  0.7816164E-02  0.1226708E+00
        -11   -1    0    0    0    0  0.00000000000E+00  0.00000000000E+00  0.45593999997E+02  0.45594000000E+02  0.51100000000E-03 0. -1.
         11   -1    0    0    0    0 -0.00000000000E+00 -0.00000000000E+00 -0.45593999997E+02  0.45594000000E+02  0.51100000000E-03 0.  1.
    9900012    2    1    2    0    0 -0.11906228464E+02 -0.35817456357E+01 -0.14003199836E+02  0.72461633997E+02  0.70000082984E+02 0.  0.
         12    1    1    2    0    0  0.11906228464E+02  0.35817456357E+01  0.14003199836E+02  0.18726366003E+02  0.00000000000E+00 0. -1.
         11    1    3    3    0    0  0.24234619040E+02 -0.84553909864E+01 -0.59629326614E+01  0.26350843685E+02  0.51100000000E-03 0. -1.
        -11    1    3    3    0    0 -0.10207878554E+02 -0.10922791176E+02 -0.40150327831E+01  0.15479943158E+02  0.51100000000E-03 0.  1.
        -12    1    3    3    0    0 -0.25932968949E+02  0.15796436527E+02 -0.40252343916E+01  0.30630847154E+02  0.00000000000E+00 0.  1.
</event>
<event>
 7    1  0.2876796E-013  0.7246158E+02  0.7816164E-02  0.1226708E+00
        -11   -1    0    0    0    0  0.00000000000E+00  0.00000000000E+00  0.45593999997E+02  0.45594000000E+02  0.51100000000E-03 0.  1.
         11   -1    0    0    0    0 -0.00000000000E+00 -0.00000000000E+00 -0.45593999997E+02  0.45594000000E+02  0.51100000000E-03 0. -1.
    9900012    2    1    2    0    0  0.14987746961E+01 -0.38205512184E+01  0.18271174538E+02  0.72461581330E+02  0.70000014376E+02 0.  0.
         12    1    1    2    0    0 -0.14987746961E+01  0.38205512184E+01 -0.18271174538E+02  0.18726418670E+02  0.00000000000E+00 0. -1.
         11    1    3    3    0    0  0.73784220256E+01  0.15249367014E+02 -0.54195347653E+01  0.17786389832E+02  0.51100000000E-03 0. -1.
        -11    1    3    3    0    0 -0.24495054532E+02 -0.18062800475E+02  0.17049724895E+02  0.34885033707E+02  0.51100000000E-03 0.  1.
         12    1    3    3    0    0  0.18615407202E+02 -0.10071177570E+01  0.66409844085E+01  0.19790157791E+02  0.00000000000E+00 0. -1.
</event>
<event>
 7    1  0.2876796E-013  0.7246154E+02  0.7816164E-02  0.1226708E+00
        -11   -1    0    0    0    0  0.00000000000E+00  0.00000000000E+00  0.45593999997E+02  0.45594000000E+02  0.51100000000E-03 0.  1.
         11   -1    0    0    0    0 -0.00000000000E+00 -0.00000000000E+00 -0.45593999997E+02  0.45594000000E+02  0.51100000000E-03 0. -1.
    9900012    2    1    2    0    0 -0.45852618434E+01  0.40824602727E+01  0.17691504459E+02  0.72461536424E+02  0.69999955878E+02 0.  0.
         12    1    1    2    0    0  0.45852618434E+01 -0.40824602727E+01 -0.17691504459E+02  0.18726463576E+02  0.00000000000E+00 0. -1.
         11    1    3    3    0    0  0.17254097564E+02 -0.18868266761E+02  0.17957401562E+02  0.31243937723E+02  0.51100000000E-03 0. -1.
        -11    1    3    3    0    0  0.53875267808E+01  0.91989819887E+00  0.26474063873E+01  0.60729250243E+01  0.51100000000E-03 0.  1.
        -12    1    3    3    0    0 -0.27226886188E+02  0.22030828834E+02 -0.29133034905E+01  0.35144673677E+02  0.00000000000E+00 0.  1.
</event>
<event>
 7    1  0.2876796E-013  0.7246158E+02  0.7816164E-02  0.1226708E+00
        -11   -1    0    0    0    0  0.00000000000E+00  0.00000000000E+00  0.45593999997E+02  0.45594000000E+02  0.51100000000E-03 0. -1.
         11   -1    0    0    0    0 -0.00000000000E+00 -0.00000000000E+00 -0.45593999997E+02  0.45594000000E+02  0.51100000000E-03 0.  1.
    9900012    2    1    2    0    0  0.14713518215E+02 -0.64792530956E+01  0.96026219112E+01  0.72461583191E+02  0.70000016800E+02 0.  0.
         12    1    1    2    0    0 -0.14713518215E+02  0.64792530956E+01 -0.96026219112E+01  0.18726416809E+02  0.00000000000E+00 0. -1.
         11    1    3    3    0    0  0.88414803464E+00  0.16630490147E+01 -0.18496682995E+02  0.18592329920E+02  0.51100000000E-03 0. -1.
        -11    1    3    3    0    0  0.12035052114E+02 -0.24091170646E+02  0.78896389734E+01  0.28061956202E+02  0.51100000000E-03 0.  1.
         12    1    3    3    0    0  0.17943180665E+01  0.15948868536E+02  0.20209665933E+02  0.25807297069E+02  0.00000000000E+00 0. -1.
</event>
<event>
 7    1  0.2876796E-013  0.7246158E+02  0.7816164E-02  0.1226708E+00
        -11   -1    0    0    0    0  0.00000000000E+00  0.00000000000E+00  0.45593999997E+02  0.45594000000E+02  0.51100000000E-03 0.  1.
         11   -1    0    0    0    0 -0.00000000000E+00 -0.00000000000E+00 -0.45593999997E+02  0.45594000000E+02  0.51100000000E-03 0. -1.
    9900012    2    1    2    0    0 -0.11901812251E+02 -0.17228109164E+01  0.14354705297E+02  0.72461580789E+02  0.70000013671E+02 0.  0.
         12    1    1    2    0    0  0.11901812251E+02  0.17228109164E+01 -0.14354705297E+02  0.18726419211E+02  0.00000000000E+00 0. -1.
         11    1    3    3    0    0 -0.87574475860E+01 -0.16098621913E+02 -0.19681383722E+02  0.26892664078E+02  0.51100000000E-03 0. -1.
        -11    1    3    3    0    0 -0.10945921611E+02 -0.16834319943E+01  0.67780324343E+01  0.12984177568E+02  0.51100000000E-03 0.  1.
        -12    1    3    3    0    0  0.78015569456E+01  0.16059242991E+02  0.27258056585E+02  0.32584739143E+02  0.00000000000E+00 0.  1.
</event>
<event>
 7    1  0.2876796E-013  0.7246148E+02  0.7816164E-02  0.1226708E+00
        -11   -1    0    0    0    0  0.00000000000E+00  0.00000000000E+00  0.45593999997E+02  0.45594000000E+02  0.51100000000E-03 0.  1.
         11   -1    0    0    0    0 -0.00000000000E+00 -0.00000000000E+00 -0.45593999997E+02  0.45594000000E+02  0.51100000000E-03 0. -1.
    9900012    2    1    2    0    0 -0.68478706067E+01  0.95484989287E+01  0.14581337172E+02  0.72461479838E+02  0.69999882164E+02 0.  0.
         12    1    1    2    0    0  0.68478706067E+01 -0.95484989287E+01 -0.14581337172E+02  0.18726520162E+02  0.00000000000E+00 0. -1.
         11    1    3    3    0    0 -0.42189648746E+01 -0.72887378432E+01  0.71767705860E+01  0.11064872356E+02  0.51100000000E-03 0. -1.
        -11    1    3    3    0    0 -0.13576399104E+02 -0.83745926941E+00  0.28622798573E+02  0.31690448862E+02  0.51100000000E-03 0.  1.
         12    1    3    3    0    0  0.10947493372E+02  0.17674696041E+02 -0.21218231987E+02  0.29706158620E+02  0.00000000000E+00 0. -1.
</event>
<event>
 7    1  0.2876796E-013  0.7246157E+02  0.7816164E-02  0.1226708E+00
        -11   -1    0    0    0    0  0.00000000000E+00  0.00000000000E+00  0.45593999997E+02  0.45594000000E+02  0.51100000000E-03 0.  1.
         11   -1    0    0    0    0 -0.00000000000E+00 -0.00000000000E+00 -0.45593999997E+02  0.45594000000E+02  0.51100000000E-03 0. -1.
    9900012    2    1    2    0    0 -0.11006676945E+01  0.72205644395E+01  0.17243297471E+02  0.72461566066E+02  0.69999994492E+02 0.  0.
         12    1    1    2    0    0  0.11006676945E+01 -0.72205644395E+01 -0.17243297471E+02  0.18726433934E+02  0.00000000000E+00 0. -1.
         11    1    3    3    0    0 -0.78477698646E+01  0.12906781877E+02  0.52285775639E+01  0.15984696865E+02  0.51100000000E-03 0. -1.
        -11    1    3    3    0    0 -0.18714388877E+01 -0.15888549026E+02  0.30045030106E+02  0.34038979245E+02  0.51100000000E-03 0.  1.
         12    1    3    3    0    0  0.86185410578E+01  0.10202331588E+02 -0.18030310199E+02  0.22437889956E+02  0.00000000000E+00 0. -1.
</event>
<event>
 7    1  0.2876796E-013  0.7246166E+02  0.7816164E-02  0.1226708E+00
        -11   -1    0    0    0    0  0.00000000000E+00  0.00000000000E+00  0.45593999997E+02  0.45594000000E+02  0.51100000000E-03 0.  1.
         11   -1    0    0    0    0 -0.00000000000E+00 -0.00000000000E+00 -0.45593999997E+02  0.45594000000E+02  0.51100000000E-03 0. -1.
    9900012    2    1    2    0    0  0.18412249384E+02  0.51073953673E+00  0.33769799460E+01  0.72461660907E+02  0.70000118040E+02 0.  0.
         12    1    1    2    0    0 -0.18412249384E+02 -0.51073953673E+00 -0.33769799460E+01  0.18726339093E+02  0.00000000000E+00 0. -1.
         11    1    3    3    0    0  0.14525318303E+01  0.20261434682E+00 -0.14048433594E+02  0.14124779219E+02  0.51100000000E-03 0. -1.
        -11    1    3    3    0    0  0.20444218620E+02 -0.20319423243E+02 -0.31479520812E+01  0.28995769320E+02  0.51100000000E-03 0.  1.
        -12    1    3    3    0    0 -0.34845010659E+01  0.20627548433E+02  0.20573365621E+02  0.29341112368E+02  0.00000000000E+00 0.  1.
</event>
<event>
 7    1  0.2876796E-013  0.7246174E+02  0.7816164E-02  0.1226708E+00
        -11   -1    0    0    0    0  0.00000000000E+00  0.00000000000E+00  0.45593999997E+02  0.45594000000E+02  0.51100000000E-03 0. -1.
         11   -1    0    0    0    0 -0.00000000000E+00 -0.00000000000E+00 -0.45593999997E+02  0.45594000000E+02  0.51100000000E-03 0.  1.
    9900012    2    1    2    0    0  0.45429139068E+01 -0.12828315295E+02 -0.12863474739E+02  0.72461742434E+02  0.70000224243E+02 0.  0.
         12    1    1    2    0    0 -0.45429139068E+01  0.12828315295E+02  0.12863474739E+02  0.18726257566E+02  0.00000000000E+00 0. -1.
         11    1    3    3    0    0  0.41344666878E+01 -0.22247671818E+02  0.78870352877E+01  0.23963681729E+02  0.51100000000E-03 0. -1.
        -11    1    3    3    0    0  0.12842306841E+02 -0.91901469558E+01  0.27674659638E+01  0.16032545468E+02  0.51100000000E-03 0.  1.
        -12    1    3    3    0    0 -0.12433859622E+02  0.18609503479E+02 -0.23517975991E+02  0.32465515236E+02  0.00000000000E+00 0.  1.
</event>
<event>
 7    1  0.2876796E-013  0.7246136E+02  0.7816164E-02  0.1226709E+00
        -11   -1    0    0    0    0  0.00000000000E+00  0.00000000000E+00  0.45593999997E+02  0.45594000000E+02  0.51100000000E-03 0.  1.
         11   -1    0    0    0    0 -0.00000000000E+00 -0.00000000000E+00 -0.45593999997E+02  0.45594000000E+02  0.51100000000E-03 0. -1.
    9900012    2    1    2    0    0 -0.78192123624E+01  0.33550772944E+01  0.16682042941E+02  0.72461356353E+02  0.69999721300E+02 0.  0.
         12    1    1    2    0    0  0.78192123624E+01 -0.33550772944E+01 -0.16682042941E+02  0.18726643647E+02  0.00000000000E+00 0. -1.
         11    1    3    3    0    0 -0.43193444999E+01  0.24513739229E+01  0.10000805119E+02  0.11166112766E+02  0.51100000000E-03 0. -1.
        -11    1    3    3    0    0 -0.28426514385E+02  0.30482466108E+01  0.18054157667E+02  0.33812884183E+02  0.51100000000E-03 0.  1.
         12    1    3    3    0    0  0.24926646523E+02 -0.21445432393E+01 -0.11372919845E+02  0.27482359403E+02  0.00000000000E+00 0. -1.
</event>
<event>
 7    1  0.2876796E-013  0.7246157E+02  0.7816164E-02  0.1226708E+00
        -11   -1    0    0    0    0  0.00000000000E+00  0.00000000000E+00  0.45593999997E+02  0.45594000000E+02  0.51100000000E-03 0. -1.
         11   -1    0    0    0    0 -0.00000000000E+00 -0.00000000000E+00 -0.45593999997E+02  0.45594000000E+02  0.51100000000E-03 0.  1.
    9900012    2    1    2    0    0 -0.64034072920E+01  0.96941050080E+01 -0.14686727870E+02  0.72461567548E+02  0.69999996423E+02 0.  0.
         12    1    1    2    0    0  0.64034072920E+01 -0.96941050080E+01  0.14686727870E+02  0.18726432452E+02  0.00000000000E+00 0. -1.
         11    1    3    3    0    0 -0.89551532525E+01 -0.55246757330E+01 -0.17061270509E+02  0.20045043361E+02  0.51100000000E-03 0. -1.
        -11    1    3    3    0    0 -0.16808483603E+02  0.25044008802E+02 -0.21542635445E+01  0.30238524263E+02  0.51100000000E-03 0.  1.
         12    1    3    3    0    0  0.19360229563E+02 -0.98252280611E+01  0.45288061833E+01  0.22177999924E+02  0.00000000000E+00 0. -1.
</event>
<event>
 7    1  0.2876796E-013  0.7246157E+02  0.7816164E-02  0.1226708E+00
        -11   -1    0    0    0    0  0.00000000000E+00  0.00000000000E+00  0.45593999997E+02  0.45594000000E+02  0.51100000000E-03 0.  1.
         11   -1    0    0    0    0 -0.00000000000E+00 -0.00000000000E+00 -0.45593999997E+02  0.45594000000E+02  0.51100000000E-03 0. -1.
    9900012    2    1    2    0    0 -0.17361542298E+02  0.12419267687E+01  0.69075002387E+01  0.72461572348E+02  0.70000002675E+02 0.  0.
         12    1    1    2    0    0  0.17361542298E+02 -0.12419267687E+01 -0.69075002387E+01  0.18726427652E+02  0.00000000000E+00 0. -1.
         11    1    3    3    0    0 -0.44609129725E+01 -0.96157540964E+01  0.14744453891E+02  0.18159333473E+02  0.51100000000E-03 0. -1.
        -11    1    3    3    0    0  0.79808018787E+01 -0.82253992012E-01  0.17780034888E+02  0.19489217666E+02  0.51100000000E-03 0.  1.
         12    1    3    3    0    0 -0.20881431204E+02  0.10939934857E+02 -0.25616988540E+02  0.34813021209E+02  0.00000000000E+00 0. -1.
</event>
<event>
 7    1  0.2876796E-013  0.7246153E+02  0.7816164E-02  0.1226708E+00
        -11   -1    0    0    0    0  0.00000000000E+00  0.00000000000E+00  0.45593999997E+02  0.45594000000E+02  0.51100000000E-03 0. -1.
         11   -1    0    0    0    0 -0.00000000000E+00 -0.00000000000E+00 -0.45593999997E+02  0.45594000000E+02  0.51100000000E-03 0.  1.
    9900012    2    1    2    0    0  0.10881335592E+02 -0.13517202722E+02 -0.70400510878E+01  0.72461533355E+02  0.69999951879E+02 0.  0.
         12    1    1    2    0    0 -0.10881335592E+02  0.13517202722E+02  0.70400510878E+01  0.18726466645E+02  0.00000000000E+00 0. -1.
         11    1    3    3    0    0  0.74738061035E+01  0.11499584201E+02  0.18639492995E+02  0.23141497658E+02  0.51100000000E-03 0. -1.
        -11    1    3    3    0    0  0.16988989473E+02 -0.76096981049E+01 -0.55051608357E+01  0.19412368857E+02  0.51100000000E-03 0.  1.
        -12    1    3    3    0    0 -0.13581459984E+02 -0.17407088818E+02 -0.20174383247E+02  0.29907666840E+02  0.00000000000E+00 0.  1.
</event>
<event>
 7    1  0.2876796E-013  0.7246154E+02  0.7816164E-02  0.1226708E+00
        -11   -1    0    0    0    0  0.00000000000E+00  0.00000000000E+00  0.45593999997E+02  0.45594000000E+02  0.51100000000E-03 0.  1.
         11   -1    0    0    0    0 -0.00000000000E+00 -0.00000000000E+00 -0.45593999997E+02  0.45594000000E+02  0.51100000000E-03 0. -1.
    9900012    2    1    2    0    0 -0.16759904714E+02 -0.50213189492E+01 -0.66762552589E+01  0.72461536525E+02  0.69999956009E+02 0.  0.
         12    1    1    2    0    0  0.16759904714E+02  0.50213189492E+01  0.66762552589E+01  0.18726463475E+02  0.00000000000E+00 0. -1.
         11    1    3    3    0    0  0.16606352109E+02 -0.95059994425E+01  0.34010931229E+01  0.19434566897E+02  0.51100000000E-03 0. -1.
        -11    1    3    3    0    0 -0.66930202329E+01 -0.14867485525E+02 -0.11644351746E+02  0.20035707462E+02  0.51100000000E-03 0.  1.
        -12    1    3    3    0    0 -0.26673236590E+02  0.19352166018E+02  0.15670033638E+01  0.32991262166E+02  0.00000000000E+00 0.  1.
</event>
<event>
 7    1  0.2876796E-013  0.7246140E+02  0.7816164E-02  0.1226708E+00
        -11   -1    0    0    0    0  0.00000000000E+00  0.00000000000E+00  0.45593999997E+02  0.45594000000E+02  0.51100000000E-03 0.  1.
         11   -1    0    0    0    0 -0.00000000000E+00 -0.00000000000E+00 -0.45593999997E+02  0.45594000000E+02  0.51100000000E-03 0. -1.
    9900012    2    1    2    0    0 -0.24894067037E+00  0.74891705095E+00  0.18709964064E+02  0.72461398507E+02  0.69999776214E+02 0.  0.
         12    1    1    2    0    0  0.24894067037E+00 -0.74891705095E+00 -0.18709964064E+02  0.18726601493E+02  0.00000000000E+00 0. -1.
         11    1    3    3    0    0  0.95468521580E+01  0.87564242546E+01  0.16941471727E+02  0.21326762914E+02  0.51100000000E-03 0. -1.
        -11    1    3    3    0    0  0.28011037156E+01  0.19140554205E+02  0.73438329418E+01  0.20691517098E+02  0.51100000000E-03 0.  1.
        -12    1    3    3    0    0 -0.12596896544E+02 -0.27148061408E+02 -0.55753406050E+01  0.30443118494E+02  0.00000000000E+00 0.  1.
</event>
<event>
 7    1  0.2876796E-013  0.7246167E+02  0.7816164E-02  0.1226708E+00
        -11   -1    0    0    0    0  0.00000000000E+00  0.00000000000E+00  0.45593999997E+02  0.45594000000E+02  0.51100000000E-03 0.  1.
         11   -1    0    0    0    0 -0.00000000000E+00 -0.00000000000E+00 -0.45593999997E+02  0.45594000000E+02  0.51100000000E-03 0. -1.
    9900012    2    1    2    0    0  0.13819913665E+02 -0.10330415983E+01  0.12594373745E+02  0.72461669909E+02  0.70000129767E+02 0.  0.
         12    1    1    2    0    0 -0.13819913665E+02  0.10330415983E+01 -0.12594373745E+02  0.18726330091E+02  0.00000000000E+00 0. -1.
         11    1    3    3    0    0 -0.12723242556E+02  0.30281265749E+01 -0.42722060318E+01  0.13758713470E+02  0.51100000000E-03 0. -1.
        -11    1    3    3    0    0 -0.11589948376E+01 -0.98545124344E+01  0.26903096196E+02  0.28674575316E+02  0.51100000000E-03 0.  1.
         12    1    3    3    0    0  0.27702151059E+02  0.57933442612E+01 -0.10036516420E+02  0.30028381123E+02  0.00000000000E+00 0. -1.
</event>
<event>
 7    1  0.2876796E-013  0.7246158E+02  0.7816164E-02  0.1226708E+00
        -11   -1    0    0    0    0  0.00000000000E+00  0.00000000000E+00  0.45593999997E+02  0.45594000000E+02  0.51100000000E-03 0.  1.
         11   -1    0    0    0    0 -0.00000000000E+00 -0.00000000000E+00 -0.45593999997E+02  0.45594000000E+02  0.51100000000E-03 0. -1.
    9900012    2    1    2    0    0  0.16720119085E+02 -0.83475147951E+01 -0.11980637080E+01  0.72461581706E+02  0.70000014866E+02 0.  0.
         12    1    1    2    0    0 -0.16720119085E+02  0.83475147951E+01  0.11980637080E+01  0.18726418294E+02  0.00000000000E+00 0. -1.
         11    1    3    3    0    0  0.58678397031E+01  0.39244851705E+01  0.25647588749E+01  0.75107333186E+01  0.51100000000E-03 0. -1.
        -11    1    3    3    0    0  0.32364641341E+01  0.14726772603E+02  0.22127855128E+02  0.26776753056E+02  0.51100000000E-03 0.  1.
         12    1    3    3    0    0  0.76158152476E+01 -0.26998772569E+02 -0.25890677711E+02  0.38174095332E+02  0.00000000000E+00 0. -1.
</event>
<event>
 7    1  0.2876796E-013  0.7246162E+02  0.7816164E-02  0.1226708E+00
        -11   -1    0    0    0    0  0.00000000000E+00  0.00000000000E+00  0.45593999997E+02  0.45594000000E+02  0.51100000000E-03 0.  1.
         11   -1    0    0    0    0 -0.00000000000E+00 -0.00000000000E+00 -0.45593999997E+02  0.45594000000E+02  0.51100000000E-03 0. -1.
    9900012    2    1    2    0    0 -0.16415230308E+02  0.47642217316E+01  0.76498181496E+01  0.72461619877E+02  0.70000064591E+02 0.  0.
         12    1    1    2    0    0  0.16415230308E+02 -0.47642217316E+01 -0.76498181496E+01  0.18726380123E+02  0.00000000000E+00 0. -1.
         11    1    3    3    0    0  0.40455317292E+00 -0.46244174148E+01 -0.66459926698E+01  0.81066712357E+01  0.51100000000E-03 0. -1.
        -11    1    3    3    0    0 -0.12583054327E+02  0.34339792288E+02  0.13654762192E+02  0.39038533801E+02  0.51100000000E-03 0.  1.
         12    1    3    3    0    0 -0.42367291546E+01 -0.24951153142E+02  0.64104862741E+00  0.25316414840E+02  0.00000000000E+00 0. -1.
</event>
<event>
 7    1  0.2876796E-013  0.7246156E+02  0.7816164E-02  0.1226708E+00
        -11   -1    0    0    0    0  0.00000000000E+00  0.00000000000E+00  0.45593999997E+02  0.45594000000E+02  0.51100000000E-03 0. -1.
         11   -1    0    0    0    0 -0.00000000000E+00 -0.00000000000E+00 -0.45593999997E+02  0.45594000000E+02  0.51100000000E-03 0.  1.
    9900012    2    1    2    0    0  0.17766304253E+02  0.22394379047E+01 -0.54793212990E+01  0.72461558511E+02  0.69999984650E+02 0.  0.
         12    1    1    2    0    0 -0.17766304253E+02 -0.22394379047E+01  0.54793212990E+01  0.18726441489E+02  0.00000000000E+00 0. -1.
         11    1    3    3    0    0  0.85608214771E+01 -0.36630062509E+01  0.90612028022E+01  0.12992716253E+02  0.51100000000E-03 0. -1.
        -11    1    3    3    0    0  0.26022482744E+02  0.18058151242E+02  0.36372544031E+01  0.31882535255E+02  0.51100000000E-03 0.  1.
         12    1    3    3    0    0 -0.16816999969E+02 -0.12155707086E+02 -0.18177778504E+02  0.27586307003E+02  0.00000000000E+00 0. -1.
</event>
<event>
 7    1  0.2876796E-013  0.7246155E+02  0.7816164E-02  0.1226708E+00
        -11   -1    0    0    0    0  0.00000000000E+00  0.00000000000E+00  0.45593999997E+02  0.45594000000E+02  0.51100000000E-03 0.  1.
         11   -1    0    0    0    0 -0.00000000000E+00 -0.00000000000E+00 -0.45593999997E+02  0.45594000000E+02  0.51100000000E-03 0. -1.
    9900012    2    1    2    0    0 -0.12801717233E+02  0.13583032830E+02  0.15156154323E+01  0.72461552523E+02  0.69999976850E+02 0.  0.
         12    1    1    2    0    0  0.12801717233E+02 -0.13583032830E+02 -0.15156154323E+01  0.18726447477E+02  0.00000000000E+00 0. -1.
         11    1    3    3    0    0 -0.60190925235E+01  0.14692420944E+02 -0.13624689267E+02  0.20921970889E+02  0.51100000000E-03 0. -1.
        -11    1    3    3    0    0 -0.10078558001E+02  0.17553137211E+02 -0.78812464096E+01  0.21721049757E+02  0.51100000000E-03 0.  1.
         12    1    3    3    0    0  0.32959332915E+01 -0.18662525326E+02  0.23021551109E+02  0.29818531876E+02  0.00000000000E+00 0. -1.
</event>
<event>
 7    1  0.2876796E-013  0.7246155E+02  0.7816164E-02  0.1226708E+00
        -11   -1    0    0    0    0  0.00000000000E+00  0.00000000000E+00  0.45593999997E+02  0.45594000000E+02  0.51100000000E-03 0.  1.
         11   -1    0    0    0    0 -0.00000000000E+00 -0.00000000000E+00 -0.45593999997E+02  0.45594000000E+02  0.51100000000E-03 0. -1.
    9900012    2    1    2    0    0  0.18056021795E+02 -0.49608120035E+01 -0.22455249959E+00  0.72461548050E+02  0.69999971023E+02 0.  0.
         12    1    1    2    0    0 -0.18056021795E+02  0.49608120035E+01  0.22455249959E+00  0.18726451950E+02  0.00000000000E+00 0. -1.
         11    1    3    3    0    0  0.73901569985E+01 -0.33545280940E+01  0.44500292243E+01  0.92558111235E+01  0.51100000000E-03 0. -1.
        -11    1    3    3    0    0  0.43026758930E+01 -0.17644399830E+02  0.23783937379E+02  0.29925132292E+02  0.51100000000E-03 0.  1.
         12    1    3    3    0    0  0.63631889036E+01  0.16038115921E+02 -0.28458519103E+02  0.33280604634E+02  0.00000000000E+00 0. -1.
</event>
<event>
 7    1  0.2876796E-013  0.7246156E+02  0.7816164E-02  0.1226708E+00
        -11   -1    0    0    0    0  0.00000000000E+00  0.00000000000E+00  0.45593999997E+02  0.45594000000E+02  0.51100000000E-03 0. -1.
         11   -1    0    0    0    0 -0.00000000000E+00 -0.00000000000E+00 -0.45593999997E+02  0.45594000000E+02  0.51100000000E-03 0.  1.
    9900012    2    1    2    0    0 -0.16206474577E+02 -0.92520764752E+01  0.15584123905E+01  0.72461564501E+02  0.69999992454E+02 0.  0.
         12    1    1    2    0    0  0.16206474577E+02  0.92520764752E+01 -0.15584123905E+01  0.18726435499E+02  0.00000000000E+00 0. -1.
         11    1    3    3    0    0 -0.11720995906E+02 -0.12253719582E+02 -0.16862939448E+02  0.23914307761E+02  0.51100000000E-03 0. -1.
        -11    1    3    3    0    0 -0.13343986085E+02 -0.12899132127E+02 -0.46764915057E+01  0.19139465701E+02  0.51100000000E-03 0.  1.
         12    1    3    3    0    0  0.88585074144E+01  0.15900775234E+02  0.23097843344E+02  0.29407791039E+02  0.00000000000E+00 0. -1.
</event>
<event>
 7    1  0.2876796E-013  0.7246159E+02  0.7816164E-02  0.1226708E+00
        -11   -1    0    0    0    0  0.00000000000E+00  0.00000000000E+00  0.45593999997E+02  0.45594000000E+02  0.51100000000E-03 0. -1.
         11   -1    0    0    0    0 -0.00000000000E+00 -0.00000000000E+00 -0.45593999997E+02  0.45594000000E+02  0.51100000000E-03 0.  1.
    9900012    2    1    2    0    0 -0.16942802968E+02  0.71436229099E+01 -0.35480427125E+01  0.72461587429E+02  0.70000022321E+02 0.  0.
         12    1    1    2    0    0  0.16942802968E+02 -0.71436229099E+01  0.35480427125E+01  0.18726412571E+02  0.00000000000E+00 0. -1.
         11    1    3    3    0    0 -0.15371992167E+02  0.12425031430E+02 -0.15061198422E+02  0.24849934555E+02  0.51100000000E-03 0. -1.
        -11    1    3    3    0    0 -0.13754927347E+02  0.55418010057E+00 -0.13438226812E+02  0.19237751480E+02  0.51100000000E-03 0.  1.
         12    1    3    3    0    0  0.12184116546E+02 -0.58355886206E+01  0.24951382522E+02  0.28373901394E+02  0.00000000000E+00 0. -1.
</event>
<event>
 7    1  0.2876796E-013  0.7246155E+02  0.7816164E-02  0.1226708E+00
        -11   -1    0    0    0    0  0.00000000000E+00  0.00000000000E+00  0.45593999997E+02  0.45594000000E+02  0.51100000000E-03 0.  1.
         11   -1    0    0    0    0 -0.00000000000E+00 -0.00000000000E+00 -0.45593999997E+02  0.45594000000E+02  0.51100000000E-03 0. -1.
    9900012    2    1    2    0    0  0.82914909157E+01 -0.13904071054E+02  0.94131833040E+01  0.72461547228E+02  0.69999969952E+02 0.  0.
         12    1    1    2    0    0 -0.82914909157E+01  0.13904071054E+02 -0.94131833040E+01  0.18726452772E+02  0.00000000000E+00 0. -1.
         11    1    3    3    0    0 -0.76319574223E+01 -0.25208073376E+02 -0.91017666949E+01  0.27866393643E+02  0.51100000000E-03 0. -1.
        -11    1    3    3    0    0 -0.33571090372E+01 -0.10732222358E+02  0.42095599603E+01  0.12007130096E+02  0.51100000000E-03 0.  1.
        -12    1    3    3    0    0  0.19280557375E+02  0.22036224679E+02  0.14305390039E+02  0.32588023490E+02  0.00000000000E+00 0.  1.
</event>
<event>
 7    1  0.2876796E-013  0.7246158E+02  0.7816164E-02  0.1226708E+00
        -11   -1    0    0    0    0  0.00000000000E+00  0.00000000000E+00  0.45593999997E+02  0.45594000000E+02  0.51100000000E-03 0.  1.
         11   -1    0    0    0    0 -0.00000000000E+00 -0.00000000000E+00 -0.45593999997E+02  0.45594000000E+02  0.51100000000E-03 0. -1.
    9900012    2    1    2    0    0 -0.12394592678E+02  0.98421463815E+01  0.10009255666E+02  0.72461575567E+02  0.70000006869E+02 0.  0.
         12    1    1    2    0    0  0.12394592678E+02 -0.98421463815E+01 -0.10009255666E+02  0.18726424433E+02  0.00000000000E+00 0. -1.
         11    1    3    3    0    0 -0.23451365980E+02  0.12534488940E+02 -0.11498012669E+01  0.26615822785E+02  0.51100000000E-03 0. -1.
        -11    1    3    3    0    0  0.19124004371E+02 -0.18213240401E+02  0.31142820358E+01  0.26592262446E+02  0.51100000000E-03 0.  1.
         12    1    3    3    0    0 -0.80672310693E+01  0.15520897843E+02  0.80447748974E+01  0.19253490336E+02  0.00000000000E+00 0. -1.
</event>
<event>
 7    1  0.2876796E-013  0.7246156E+02  0.7816164E-02  0.1226708E+00
        -11   -1    0    0    0    0  0.00000000000E+00  0.00000000000E+00  0.45593999997E+02  0.45594000000E+02  0.51100000000E-03 0. -1.
         11   -1    0    0    0    0 -0.00000000000E+00 -0.00000000000E+00 -0.45593999997E+02  0.45594000000E+02  0.51100000000E-03 0.  1.
    9900012    2    1    2    0    0 -0.25889704673E+01 -0.13523363486E+02 -0.12692334197E+02  0.72461562126E+02  0.69999989360E+02 0.  0.
         12    1    1    2    0    0  0.25889704673E+01  0.13523363486E+02  0.12692334197E+02  0.18726437874E+02  0.00000000000E+00 0. -1.
         11    1    3    3    0    0 -0.12228937306E+02 -0.66620138995E+01  0.80566385133E+01  0.16088466715E+02  0.51100000000E-03 0. -1.
        -11    1    3    3    0    0 -0.83410472588E+01 -0.63835204454E+01  0.13847310524E+02  0.17380172947E+02  0.51100000000E-03 0.  1.
        -12    1    3    3    0    0  0.17981014098E+02 -0.47782914102E+00 -0.34596283235E+02  0.38992922465E+02  0.00000000000E+00 0.  1.
</event>
<event>
 7    1  0.2876796E-013  0.7246169E+02  0.7816164E-02  0.1226708E+00
        -11   -1    0    0    0    0  0.00000000000E+00  0.00000000000E+00  0.45593999997E+02  0.45594000000E+02  0.51100000000E-03 0.  1.
         11   -1    0    0    0    0 -0.00000000000E+00 -0.00000000000E+00 -0.45593999997E+02  0.45594000000E+02  0.51100000000E-03 0. -1.
    9900012    2    1    2    0    0 -0.42868217268E+01 -0.15333533079E+02  0.98580192405E+01  0.72461691753E+02  0.70000158223E+02 0.  0.
         12    1    1    2    0    0  0.42868217268E+01  0.15333533079E+02 -0.98580192405E+01  0.18726308247E+02  0.00000000000E+00 0. -1.
         11    1    3    3    0    0  0.33169509312E+00 -0.18422888991E+02  0.36355526373E+01  0.18781110288E+02  0.51100000000E-03 0.  1.
        -11    1    3    3    0    0 -0.68932450308E+01 -0.16747576334E+02 -0.15742693345E+02  0.23996469201E+02  0.51100000000E-03 0. -1.
        -12    1    3    3    0    0  0.22747282109E+01  0.19836932246E+02  0.21965159948E+02  0.29684112264E+02  0.00000000000E+00 0.  1.
</event>
<event>
 7    1  0.2876796E-013  0.7246141E+02  0.7816164E-02  0.1226708E+00
        -11   -1    0    0    0    0  0.00000000000E+00  0.00000000000E+00  0.45593999997E+02  0.45594000000E+02  0.51100000000E-03 0.  1.
         11   -1    0    0    0    0 -0.00000000000E+00 -0.00000000000E+00 -0.45593999997E+02  0.45594000000E+02  0.51100000000E-03 0. -1.
    9900012    2    1    2    0    0  0.11506293821E+02 -0.10914276355E+02  0.99583636666E+01  0.72461408405E+02  0.69999789108E+02 0.  0.
         12    1    1    2    0    0 -0.11506293821E+02  0.10914276355E+02 -0.99583636666E+01  0.18726591595E+02  0.00000000000E+00 0. -1.
         11    1    3    3    0    0  0.18074528146E+01 -0.25742886082E+01  0.13169538414E+02  0.13539962697E+02  0.51100000000E-03 0. -1.
        -11    1    3    3    0    0 -0.62973257133E+01 -0.18977248075E+02  0.20344821947E+02  0.28525497996E+02  0.51100000000E-03 0.  1.
         12    1    3    3    0    0  0.15996166720E+02  0.10637260328E+02 -0.23555996694E+02  0.30395947712E+02  0.00000000000E+00 0. -1.
</event>
<event>
 7    1  0.2876796E-013  0.7246155E+02  0.7816164E-02  0.1226708E+00
        -11   -1    0    0    0    0  0.00000000000E+00  0.00000000000E+00  0.45593999997E+02  0.45594000000E+02  0.51100000000E-03 0.  1.
         11   -1    0    0    0    0 -0.00000000000E+00 -0.00000000000E+00 -0.45593999997E+02  0.45594000000E+02  0.51100000000E-03 0. -1.
    9900012    2    1    2    0    0  0.46530500182E+01 -0.35705503274E+01  0.17784268733E+02  0.72461550297E+02  0.69999973950E+02 0.  0.
         12    1    1    2    0    0 -0.46530500182E+01  0.35705503274E+01 -0.17784268733E+02  0.18726449703E+02  0.00000000000E+00 0. -1.
         11    1    3    3    0    0  0.91963232230E+01  0.18323921945E+02  0.16370849321E+02  0.26236295166E+02  0.51100000000E-03 0. -1.
        -11    1    3    3    0    0  0.93162514333E+01  0.40038753729E+01  0.11346735047E+02  0.15217488467E+02  0.51100000000E-03 0.  1.
         12    1    3    3    0    0 -0.13859524638E+02 -0.25898347646E+02 -0.99333156354E+01  0.31007766664E+02  0.00000000000E+00 0. -1.
</event>
<event>
 7    1  0.2876796E-013  0.7246151E+02  0.7816164E-02  0.1226708E+00
        -11   -1    0    0    0    0  0.00000000000E+00  0.00000000000E+00  0.45593999997E+02  0.45594000000E+02  0.51100000000E-03 0.  1.
         11   -1    0    0    0    0 -0.00000000000E+00 -0.00000000000E+00 -0.45593999997E+02  0.45594000000E+02  0.51100000000E-03 0. -1.
    9900012    2    1    2    0    0 -0.21220419599E+01 -0.36618263415E+01  0.18241970523E+02  0.72461507462E+02  0.69999918149E+02 0.  0.
         12    1    1    2    0    0  0.21220419599E+01  0.36618263415E+01 -0.18241970523E+02  0.18726492538E+02  0.00000000000E+00 0. -1.
         11    1    3    3    0    0 -0.69800833991E+01 -0.17639738748E+02 -0.17453545175E+02  0.25778056303E+02  0.51100000000E-03 0. -1.
        -11    1    3    3    0    0  0.15359132969E+01 -0.78461705078E+01  0.10162347750E+02  0.12930380248E+02  0.51100000000E-03 0.  1.
        -12    1    3    3    0    0  0.33221281423E+01  0.21824082914E+02  0.25533167947E+02  0.33753070910E+02  0.00000000000E+00 0.  1.
</event>
<event>
 7    1  0.2876796E-013  0.7246156E+02  0.7816164E-02  0.1226708E+00
        -11   -1    0    0    0    0  0.00000000000E+00  0.00000000000E+00  0.45593999997E+02  0.45594000000E+02  0.51100000000E-03 0. -1.
         11   -1    0    0    0    0 -0.00000000000E+00 -0.00000000000E+00 -0.45593999997E+02  0.45594000000E+02  0.51100000000E-03 0.  1.
    9900012    2    1    2    0    0  0.12741517112E+02 -0.48547508303E+01 -0.12836066617E+02  0.72461562268E+02  0.69999989544E+02 0.  0.
         12    1    1    2    0    0 -0.12741517112E+02  0.48547508303E+01  0.12836066617E+02  0.18726437732E+02  0.00000000000E+00 0. -1.
         11    1    3    3    0    0 -0.17292613622E+02  0.92582710553E+01  0.95247465063E+01  0.21805294428E+02  0.51100000000E-03 0. -1.
        -11    1    3    3    0    0 -0.50844541558E+01 -0.70957211745E+01 -0.59861613150E+00  0.87498156885E+01  0.51100000000E-03 0.  1.
        -12    1    3    3    0    0  0.35118584891E+02 -0.70173007111E+01 -0.21762196992E+02  0.41906452151E+02  0.00000000000E+00 0.  1.
</event>
<event>
 7    1  0.2876796E-013  0.7246156E+02  0.7816164E-02  0.1226708E+00
        -11   -1    0    0    0    0  0.00000000000E+00  0.00000000000E+00  0.45593999997E+02  0.45594000000E+02  0.51100000000E-03 0.  1.
         11   -1    0    0    0    0 -0.00000000000E+00 -0.00000000000E+00 -0.45593999997E+02  0.45594000000E+02  0.51100000000E-03 0. -1.
    9900012    2    1    2    0    0 -0.96344141274E+01  0.47559940231E+01  0.15337471985E+02  0.72461562495E+02  0.69999989840E+02 0.  0.
         12    1    1    2    0    0  0.96344141274E+01 -0.47559940231E+01 -0.15337471985E+02  0.18726437505E+02  0.00000000000E+00 0. -1.
         11    1    3    3    0    0 -0.94949948493E+01  0.15830243263E+02  0.12639198564E+02  0.22371876755E+02  0.51100000000E-03 0. -1.
        -11    1    3    3    0    0  0.13771694694E+02  0.14993869473E+02 -0.53438899876E+00  0.20365688508E+02  0.51100000000E-03 0.  1.
        -12    1    3    3    0    0 -0.13911113972E+02 -0.26068118713E+02  0.32326624195E+01  0.29723997233E+02  0.00000000000E+00 0.  1.
</event>
<event>
 7    1  0.2876796E-013  0.7246157E+02  0.7816164E-02  0.1226708E+00
        -11   -1    0    0    0    0  0.00000000000E+00  0.00000000000E+00  0.45593999997E+02  0.45594000000E+02  0.51100000000E-03 0.  1.
         11   -1    0    0    0    0 -0.00000000000E+00 -0.00000000000E+00 -0.45593999997E+02  0.45594000000E+02  0.51100000000E-03 0. -1.
    9900012    2    1    2    0    0  0.89221214461E+01  0.47086713865E+01  0.15776675436E+02  0.72461566139E+02  0.69999994587E+02 0.  0.
         12    1    1    2    0    0 -0.89221214461E+01 -0.47086713865E+01 -0.15776675436E+02  0.18726433861E+02  0.00000000000E+00 0. -1.
         11    1    3    3    0    0  0.11513505084E+01  0.22491284872E+02  0.81943086381E+01  0.23965187199E+02  0.51100000000E-03 0. -1.
        -11    1    3    3    0    0  0.23564155035E+02 -0.20562485510E+02  0.85777337328E+01  0.32429349810E+02  0.51100000000E-03 0.  1.
         12    1    3    3    0    0 -0.15793384097E+02  0.27798720244E+01 -0.99536693444E+00  0.16067029130E+02  0.00000000000E+00 0. -1.
</event>
<event>
 7    1  0.2876796E-013  0.7246158E+02  0.7816164E-02  0.1226708E+00
        -11   -1    0    0    0    0  0.00000000000E+00  0.00000000000E+00  0.45593999997E+02  0.45594000000E+02  0.51100000000E-03 0.  1.
         11   -1    0    0    0    0 -0.00000000000E+00 -0.00000000000E+00 -0.45593999997E+02  0.45594000000E+02  0.51100000000E-03 0. -1.
    9900012    2    1    2    0    0 -0.13159472659E+02 -0.16654930620E+01  0.13218665316E+02  0.72461582816E+02  0.70000016312E+02 0.  0.
         12    1    1    2    0    0  0.13159472659E+02  0.16654930620E+01 -0.13218665316E+02  0.18726417184E+02  0.00000000000E+00 0. -1.
         11    1    3    3    0    0  0.38498729837E+01 -0.16440969054E+02 -0.78739941218E+01  0.18631338361E+02  0.51100000000E-03 0. -1.
        -11    1    3    3    0    0 -0.26393140513E+02 -0.48570016257E+01  0.64441793712E+01  0.27599198882E+02  0.51100000000E-03 0.  1.
        -12    1    3    3    0    0  0.93837948699E+01  0.19632477618E+02  0.14648480067E+02  0.26231045573E+02  0.00000000000E+00 0.  1.
</event>
<event>
 7    1  0.2876796E-013  0.7246157E+02  0.7816164E-02  0.1226708E+00
        -11   -1    0    0    0    0  0.00000000000E+00  0.00000000000E+00  0.45593999997E+02  0.45594000000E+02  0.51100000000E-03 0.  1.
         11   -1    0    0    0    0 -0.00000000000E+00 -0.00000000000E+00 -0.45593999997E+02  0.45594000000E+02  0.51100000000E-03 0. -1.
    9900012    2    1    2    0    0  0.60163918617E+01 -0.13617587759E+02  0.11359727177E+02  0.72461572980E+02  0.70000003498E+02 0.  0.
         12    1    1    2    0    0 -0.60163918617E+01  0.13617587759E+02 -0.11359727177E+02  0.18726427020E+02  0.00000000000E+00 0. -1.
         11    1    3    3    0    0  0.11417380704E+02  0.17346921710E+02 -0.18289581491E+02  0.27672749526E+02  0.51100000000E-03 0. -1.
        -11    1    3    3    0    0 -0.15017128906E+01  0.67760844857E+00  0.10075997640E+01  0.19312048987E+01  0.51100000000E-03 0.  1.
        -12    1    3    3    0    0 -0.38992759521E+01 -0.31642117918E+02  0.28641708904E+02  0.42857618555E+02  0.00000000000E+00 0.  1.
</event>
<event>
 7    1  0.2876796E-013  0.7246162E+02  0.7816164E-02  0.1226708E+00
        -11   -1    0    0    0    0  0.00000000000E+00  0.00000000000E+00  0.45593999997E+02  0.45594000000E+02  0.51100000000E-03 0. -1.
         11   -1    0    0    0    0 -0.00000000000E+00 -0.00000000000E+00 -0.45593999997E+02  0.45594000000E+02  0.51100000000E-03 0.  1.
    9900012    2    1    2    0    0 -0.53244963850E-01  0.11113165816E+02  0.15072232670E+02  0.72461615214E+02  0.70000058517E+02 0.  0.
         12    1    1    2    0    0  0.53244963850E-01 -0.11113165816E+02 -0.15072232670E+02  0.18726384786E+02  0.00000000000E+00 0. -1.
         11    1    3    3    0    0 -0.26532692482E+02  0.83349325012E+01  0.21165711510E+02  0.34949137531E+02  0.51100000000E-03 0. -1.
        -11    1    3    3    0    0  0.30252331906E-01 -0.82835155593E+01 -0.22736515883E+01  0.85899381273E+01  0.51100000000E-03 0.  1.
        -12    1    3    3    0    0  0.26449195186E+02  0.11061748874E+02 -0.38198272519E+01  0.28922539556E+02  0.00000000000E+00 0.  1.
</event>
<event>
 7    1  0.2876796E-013  0.7246159E+02  0.7816164E-02  0.1226708E+00
        -11   -1    0    0    0    0  0.00000000000E+00  0.00000000000E+00  0.45593999997E+02  0.45594000000E+02  0.51100000000E-03 0.  1.
         11   -1    0    0    0    0 -0.00000000000E+00 -0.00000000000E+00 -0.45593999997E+02  0.45594000000E+02  0.51100000000E-03 0. -1.
    9900012    2    1    2    0    0  0.86256870469E+00 -0.18695895773E+02 -0.63072523401E+00  0.72461591966E+02  0.70000028232E+02 0.  0.
         12    1    1    2    0    0 -0.86256870469E+00  0.18695895773E+02  0.63072523401E+00  0.18726408034E+02  0.00000000000E+00 0. -1.
         11    1    3    3    0    0 -0.72630260702E+01  0.10762859287E+02 -0.23802431735E+02  0.27113584132E+02  0.51100000000E-03 0. -1.
        -11    1    3    3    0    0  0.36204743817E+01 -0.75346104587E+01 -0.47092323674E+01  0.95945327799E+01  0.51100000000E-03 0.  1.
         12    1    3    3    0    0  0.45051203932E+01 -0.21924144602E+02  0.27880938868E+02  0.35753475054E+02  0.00000000000E+00 0. -1.
</event>
<event>
 7    1  0.2876796E-013  0.7246157E+02  0.7816164E-02  0.1226708E+00
        -11   -1    0    0    0    0  0.00000000000E+00  0.00000000000E+00  0.45593999997E+02  0.45594000000E+02  0.51100000000E-03 0.  1.
         11   -1    0    0    0    0 -0.00000000000E+00 -0.00000000000E+00 -0.45593999997E+02  0.45594000000E+02  0.51100000000E-03 0. -1.
    9900012    2    1    2    0    0  0.44261029915E+01  0.40897580844E+01  0.17730271172E+02  0.72461574160E+02  0.70000005036E+02 0.  0.
         12    1    1    2    0    0 -0.44261029915E+01 -0.40897580844E+01 -0.17730271172E+02  0.18726425840E+02  0.00000000000E+00 0. -1.
         11    1    3    3    0    0  0.42057335668E+01  0.32283168728E+01  0.25450092903E+02  0.25996489257E+02  0.51100000000E-03 0.  1.
        -11    1    3    3    0    0  0.22565778978E+02  0.25445266778E+01 -0.79353942766E+01  0.24055342015E+02  0.51100000000E-03 0. -1.
         12    1    3    3    0    0 -0.22345409553E+02 -0.16830854663E+01  0.21557254622E+00  0.22409742888E+02  0.00000000000E+00 0. -1.
</event>
<event>
 7    1  0.2876796E-013  0.7246183E+02  0.7816164E-02  0.1226707E+00
        -11   -1    0    0    0    0  0.00000000000E+00  0.00000000000E+00  0.45593999997E+02  0.45594000000E+02  0.51100000000E-03 0. -1.
         11   -1    0    0    0    0 -0.00000000000E+00 -0.00000000000E+00 -0.45593999997E+02  0.45594000000E+02  0.51100000000E-03 0.  1.
    9900012    2    1    2    0    0 -0.12907236299E+02 -0.63803868429E+01 -0.11973441215E+02  0.72461831687E+02  0.70000340512E+02 0.  0.
         12    1    1    2    0    0  0.12907236299E+02  0.63803868429E+01  0.11973441215E+02  0.18726168313E+02  0.00000000000E+00 0. -1.
         11    1    3    3    0    0  0.81752615255E+01  0.11024189395E+02  0.26355316251E+01  0.13975467077E+02  0.51100000000E-03 0. -1.
        -11    1    3    3    0    0 -0.14314129496E+02  0.10978398603E+02  0.97237005880E+01  0.20493166971E+02  0.51100000000E-03 0.  1.
        -12    1    3    3    0    0 -0.67683683288E+01 -0.28382974841E+02 -0.24332673428E+02  0.37993197639E+02  0.00000000000E+00 0.  1.
</event>
<event>
 7    1  0.2876796E-013  0.7246120E+02  0.7816164E-02  0.1226709E+00
        -11   -1    0    0    0    0  0.00000000000E+00  0.00000000000E+00  0.45593999997E+02  0.45594000000E+02  0.51100000000E-03 0.  1.
         11   -1    0    0    0    0 -0.00000000000E+00 -0.00000000000E+00 -0.45593999997E+02  0.45594000000E+02  0.51100000000E-03 0. -1.
    9900012    2    1    2    0    0 -0.26691147408E+01 -0.15694137512E+02  0.98621886419E+01  0.72461203943E+02  0.69999522758E+02 0.  0.
         12    1    1    2    0    0  0.26691147408E+01  0.15694137512E+02 -0.98621886419E+01  0.18726796057E+02  0.00000000000E+00 0. -1.
         11    1    3    3    0    0 -0.49309678261E+01  0.36689069846E+00  0.38516523458E+01  0.62677171714E+01  0.51100000000E-03 0. -1.
        -11    1    3    3    0    0 -0.28103575676E+02 -0.21089263902E+02  0.28100754475E+01  0.35248610497E+02  0.51100000000E-03 0.  1.
         12    1    3    3    0    0  0.30365428761E+02  0.50282356914E+01  0.32004608486E+01  0.30944876274E+02  0.00000000000E+00 0. -1.
</event>
<event>
 7    1  0.2876796E-013  0.7246131E+02  0.7816164E-02  0.1226709E+00
        -11   -1    0    0    0    0  0.00000000000E+00  0.00000000000E+00  0.45593999997E+02  0.45594000000E+02  0.51100000000E-03 0.  1.
         11   -1    0    0    0    0 -0.00000000000E+00 -0.00000000000E+00 -0.45593999997E+02  0.45594000000E+02  0.51100000000E-03 0. -1.
    9900012    2    1    2    0    0  0.14193350523E+02  0.66760808346E+01  0.10230712645E+02  0.72461314880E+02  0.69999667274E+02 0.  0.
         12    1    1    2    0    0 -0.14193350523E+02 -0.66760808346E+01 -0.10230712645E+02  0.18726685120E+02  0.00000000000E+00 0. -1.
         11    1    3    3    0    0 -0.12015696229E+01 -0.19060403749E+01 -0.70233626678E+00  0.23600923631E+01  0.51100000000E-03 0. -1.
        -11    1    3    3    0    0 -0.19038067841E+02 -0.17295572708E+02  0.79638872111E+01  0.26925979317E+02  0.51100000000E-03 0.  1.
         12    1    3    3    0    0  0.34432987986E+02  0.25877693918E+02  0.29691617003E+01  0.43175243200E+02  0.00000000000E+00 0. -1.
</event>
<event>
 7    1  0.2876796E-013  0.7246158E+02  0.7816164E-02  0.1226708E+00
        -11   -1    0    0    0    0  0.00000000000E+00  0.00000000000E+00  0.45593999997E+02  0.45594000000E+02  0.51100000000E-03 0.  1.
         11   -1    0    0    0    0 -0.00000000000E+00 -0.00000000000E+00 -0.45593999997E+02  0.45594000000E+02  0.51100000000E-03 0. -1.
    9900012    2    1    2    0    0  0.17500847077E+02 -0.25355429341E+01 -0.61619914515E+01  0.72461581094E+02  0.70000014069E+02 0.  0.
         12    1    1    2    0    0 -0.17500847077E+02  0.25355429341E+01  0.61619914515E+01  0.18726418906E+02  0.00000000000E+00 0. -1.
         11    1    3    3    0    0  0.11010078805E+02  0.25076240442E+01  0.19750255652E+01  0.11463452355E+02  0.51100000000E-03 0. -1.
        -11    1    3    3    0    0  0.66284834650E+01 -0.10059432755E+02  0.24858184103E+02  0.27623509870E+02  0.51100000000E-03 0.  1.
         12    1    3    3    0    0 -0.13771519330E+00  0.50162657763E+01 -0.32995201119E+02  0.33374618870E+02  0.00000000000E+00 0. -1.
</event>
<event>
 7    1  0.2876796E-013  0.7246162E+02  0.7816164E-02  0.1226708E+00
        -11   -1    0    0    0    0  0.00000000000E+00  0.00000000000E+00  0.45593999997E+02  0.45594000000E+02  0.51100000000E-03 0.  1.
         11   -1    0    0    0    0 -0.00000000000E+00 -0.00000000000E+00 -0.45593999997E+02  0.45594000000E+02  0.51100000000E-03 0. -1.
    9900012    2    1    2    0    0 -0.29076636730E+00  0.17824211494E+01  0.18639089670E+02  0.72461621974E+02  0.70000067323E+02 0.  0.
         12    1    1    2    0    0  0.29076636730E+00 -0.17824211494E+01 -0.18639089670E+02  0.18726378026E+02  0.00000000000E+00 0. -1.
         11    1    3    3    0    0 -0.15317655172E+02  0.93424429259E+01 -0.17149820350E+02  0.24819914144E+02  0.51100000000E-03 0. -1.
        -11    1    3    3    0    0 -0.10348679807E+01  0.29718188323E+01 -0.30064809978E+01  0.43521933736E+01  0.51100000000E-03 0.  1.
        -12    1    3    3    0    0  0.16061756786E+02 -0.10531840609E+02  0.38795391018E+02  0.43289514457E+02  0.00000000000E+00 0.  1.
</event>
<event>
 7    1  0.2876796E-013  0.7246156E+02  0.7816164E-02  0.1226708E+00
        -11   -1    0    0    0    0  0.00000000000E+00  0.00000000000E+00  0.45593999997E+02  0.45594000000E+02  0.51100000000E-03 0. -1.
         11   -1    0    0    0    0 -0.00000000000E+00 -0.00000000000E+00 -0.45593999997E+02  0.45594000000E+02  0.51100000000E-03 0.  1.
    9900012    2    1    2    0    0 -0.12394260252E+02 -0.32144666791E+01  0.13664885922E+02  0.72461559055E+02  0.69999985358E+02 0.  0.
         12    1    1    2    0    0  0.12394260252E+02  0.32144666791E+01 -0.13664885922E+02  0.18726440945E+02  0.00000000000E+00 0. -1.
         11    1    3    3    0    0 -0.70675482284E+01  0.99647648538E+01  0.46008506162E+01  0.13054294435E+02  0.51100000000E-03 0. -1.
        -11    1    3    3    0    0  0.21486562655E+02  0.88788204317E+01  0.82759751555E+01  0.24677876570E+02  0.51100000000E-03 0.  1.
        -12    1    3    3    0    0 -0.26813274678E+02 -0.22058051965E+02  0.78806015008E+00  0.34729388049E+02  0.00000000000E+00 0.  1.
</event>
<event>
 7    1  0.2876796E-013  0.7246159E+02  0.7816164E-02  0.1226708E+00
        -11   -1    0    0    0    0  0.00000000000E+00  0.00000000000E+00  0.45593999997E+02  0.45594000000E+02  0.51100000000E-03 0. -1.
         11   -1    0    0    0    0 -0.00000000000E+00 -0.00000000000E+00 -0.45593999997E+02  0.45594000000E+02  0.51100000000E-03 0.  1.
    9900012    2    1    2    0    0  0.13266944516E+02  0.50588465086E+00 -0.13206457141E+02  0.72461594945E+02  0.70000032112E+02 0.  0.
         12    1    1    2    0    0 -0.13266944516E+02 -0.50588465086E+00  0.13206457141E+02  0.18726405055E+02  0.00000000000E+00 0. -1.
         11    1    3    3    0    0 -0.23028051288E+02  0.11253338928E+02  0.92765246887E+01  0.27257708886E+02  0.51100000000E-03 0. -1.
        -11    1    3    3    0    0  0.12326672639E+02 -0.82766821284E+01 -0.60206792297E+01  0.16021825865E+02  0.51100000000E-03 0.  1.
        -12    1    3    3    0    0  0.23968323165E+02 -0.24707721485E+01 -0.16462302600E+02  0.29182060195E+02  0.00000000000E+00 0.  1.
</event>
<event>
 7    1  0.2876796E-013  0.7246159E+02  0.7816164E-02  0.1226708E+00
        -11   -1    0    0    0    0  0.00000000000E+00  0.00000000000E+00  0.45593999997E+02  0.45594000000E+02  0.51100000000E-03 0. -1.
         11   -1    0    0    0    0 -0.00000000000E+00 -0.00000000000E+00 -0.45593999997E+02  0.45594000000E+02  0.51100000000E-03 0.  1.
    9900012    2    1    2    0    0 -0.10919957893E+02  0.87484887311E+01  0.12445761121E+02  0.72461588028E+02  0.70000023101E+02 0.  0.
         12    1    1    2    0    0  0.10919957893E+02 -0.87484887311E+01 -0.12445761121E+02  0.18726411972E+02  0.00000000000E+00 0. -1.
         11    1    3    3    0    0  0.11380995504E+02  0.73845092844E+00 -0.14966390562E+02  0.18816620715E+02  0.51100000000E-03 0. -1.
        -11    1    3    3    0    0 -0.70669869483E+01  0.10022717674E+02 -0.82721525887E+01  0.14792757782E+02  0.51100000000E-03 0.  1.
         12    1    3    3    0    0 -0.15233966449E+02 -0.20126798710E+01  0.35684304272E+02  0.38852209530E+02  0.00000000000E+00 0. -1.
</event>
<event>
 7    1  0.2876796E-013  0.7246157E+02  0.7816164E-02  0.1226708E+00
        -11   -1    0    0    0    0  0.00000000000E+00  0.00000000000E+00  0.45593999997E+02  0.45594000000E+02  0.51100000000E-03 0.  1.
         11   -1    0    0    0    0 -0.00000000000E+00 -0.00000000000E+00 -0.45593999997E+02  0.45594000000E+02  0.51100000000E-03 0. -1.
    9900012    2    1    2    0    0  0.10737410594E+01 -0.73240974747E+01  0.17201271140E+02  0.72461573418E+02  0.70000004070E+02 0.  0.
         12    1    1    2    0    0 -0.10737410594E+01  0.73240974747E+01 -0.17201271140E+02  0.18726426582E+02  0.00000000000E+00 0. -1.
         11    1    3    3    0    0 -0.56889819019E+01  0.45794552175E+01  0.34572880375E+01  0.80801464098E+01  0.51100000000E-03 0. -1.
        -11    1    3    3    0    0 -0.19300129972E+02 -0.15819958382E+02 -0.11865813679E+02  0.27632655223E+02  0.51100000000E-03 0.  1.
         12    1    3    3    0    0  0.26062852933E+02  0.39164056899E+01  0.25609796782E+02  0.36748771786E+02  0.00000000000E+00 0. -1.
</event>
<event>
 7    1  0.2876796E-013  0.7246161E+02  0.7816164E-02  0.1226708E+00
        -11   -1    0    0    0    0  0.00000000000E+00  0.00000000000E+00  0.45593999997E+02  0.45594000000E+02  0.51100000000E-03 0. -1.
         11   -1    0    0    0    0 -0.00000000000E+00 -0.00000000000E+00 -0.45593999997E+02  0.45594000000E+02  0.51100000000E-03 0.  1.
    9900012    2    1    2    0    0 -0.40471950927E+01  0.11139734427E+02 -0.14498426742E+02  0.72461605547E+02  0.70000045922E+02 0.  0.
         12    1    1    2    0    0  0.40471950927E+01 -0.11139734427E+02  0.14498426742E+02  0.18726394453E+02  0.00000000000E+00 0. -1.
         11    1    3    3    0    0 -0.19341318485E+02 -0.75083146822E+01  0.53936304672E+01  0.21437178918E+02  0.51100000000E-03 0. -1.
        -11    1    3    3    0    0 -0.12240284070E+02  0.90482330391E+01  0.84156464150E+00  0.15244779649E+02  0.51100000000E-03 0.  1.
        -12    1    3    3    0    0  0.27534407462E+02  0.95998160707E+01 -0.20733621851E+02  0.35779646979E+02  0.00000000000E+00 0.  1.
</event>
<event>
 7    1  0.2876796E-013  0.7246158E+02  0.7816164E-02  0.1226708E+00
        -11   -1    0    0    0    0  0.00000000000E+00  0.00000000000E+00  0.45593999997E+02  0.45594000000E+02  0.51100000000E-03 0.  1.
         11   -1    0    0    0    0 -0.00000000000E+00 -0.00000000000E+00 -0.45593999997E+02  0.45594000000E+02  0.51100000000E-03 0. -1.
    9900012    2    1    2    0    0  0.42406358902E+01  0.12177212309E+01  0.18199255420E+02  0.72461581880E+02  0.70000015093E+02 0.  0.
         12    1    1    2    0    0 -0.42406358902E+01 -0.12177212309E+01 -0.18199255420E+02  0.18726418120E+02  0.00000000000E+00 0. -1.
         11    1    3    3    0    0  0.42796610710E+01  0.54830864119E+01 -0.23118735438E+02  0.24142403857E+02  0.51100000000E-03 0. -1.
        -11    1    3    3    0    0 -0.58566992557E+01  0.80786222498E+01  0.98558800275E+01  0.14025100178E+02  0.51100000000E-03 0.  1.
        -12    1    3    3    0    0  0.58176740750E+01 -0.12343987431E+02  0.31462110831E+02  0.34294077845E+02  0.00000000000E+00 0.  1.
</event>
<event>
 7    1  0.2876796E-013  0.7246155E+02  0.7816164E-02  0.1226708E+00
        -11   -1    0    0    0    0  0.00000000000E+00  0.00000000000E+00  0.45593999997E+02  0.45594000000E+02  0.51100000000E-03 0. -1.
         11   -1    0    0    0    0 -0.00000000000E+00 -0.00000000000E+00 -0.45593999997E+02  0.45594000000E+02  0.51100000000E-03 0.  1.
    9900012    2    1    2    0    0  0.46037189891E+00 -0.26791892684E+00 -0.18718877161E+02  0.72461545851E+02  0.69999968157E+02 0.  0.
         12    1    1    2    0    0 -0.46037189891E+00  0.26791892684E+00  0.18718877161E+02  0.18726454149E+02  0.00000000000E+00 0. -1.
         11    1    3    3    0    0 -0.66319722917E+01  0.92150888841E+00  0.52436004891E+01  0.85045623909E+01  0.51100000000E-03 0. -1.
        -11    1    3    3    0    0 -0.18900234149E+02  0.18544914989E+02 -0.82361240274E+01  0.27730244537E+02  0.51100000000E-03 0.  1.
         12    1    3    3    0    0  0.25992578340E+02 -0.19734342805E+02 -0.15726353623E+02  0.36226738922E+02  0.00000000000E+00 0. -1.
</event>
<event>
 7    1  0.2876796E-013  0.7246153E+02  0.7816164E-02  0.1226708E+00
        -11   -1    0    0    0    0  0.00000000000E+00  0.00000000000E+00  0.45593999997E+02  0.45594000000E+02  0.51100000000E-03 0. -1.
         11   -1    0    0    0    0 -0.00000000000E+00 -0.00000000000E+00 -0.45593999997E+02  0.45594000000E+02  0.51100000000E-03 0.  1.
    9900012    2    1    2    0    0 -0.55878931135E+01 -0.13591065365E+02  0.11607710981E+02  0.72461533131E+02  0.69999951587E+02 0.  0.
         12    1    1    2    0    0  0.55878931135E+01  0.13591065365E+02 -0.11607710981E+02  0.18726466869E+02  0.00000000000E+00 0. -1.
         11    1    3    3    0    0 -0.39137947109E+01  0.12325777765E+02  0.80551557962E+00  0.12957293010E+02  0.51100000000E-03 0. -1.
        -11    1    3    3    0    0 -0.89461854154E+00 -0.58010754958E+01 -0.21033843439E+02  0.21837476716E+02  0.51100000000E-03 0.  1.
         12    1    3    3    0    0 -0.77947986105E+00 -0.20115767634E+02  0.31836038840E+02  0.37666763404E+02  0.00000000000E+00 0. -1.
</event>
<event>
 7    1  0.2876796E-013  0.7246157E+02  0.7816164E-02  0.1226708E+00
        -11   -1    0    0    0    0  0.00000000000E+00  0.00000000000E+00  0.45593999997E+02  0.45594000000E+02  0.51100000000E-03 0.  1.
         11   -1    0    0    0    0 -0.00000000000E+00 -0.00000000000E+00 -0.45593999997E+02  0.45594000000E+02  0.51100000000E-03 0. -1.
    9900012    2    1    2    0    0  0.73259116843E+01 -0.12979531373E+02  0.11337639563E+02  0.72461567143E+02  0.69999995895E+02 0.  0.
         12    1    1    2    0    0 -0.73259116843E+01  0.12979531373E+02 -0.11337639563E+02  0.18726432857E+02  0.00000000000E+00 0. -1.
         11    1    3    3    0    0  0.21553251690E+02 -0.16439626672E+02 -0.10924928127E+02  0.29225982248E+02  0.51100000000E-03 0. -1.
        -11    1    3    3    0    0 -0.10662247594E+02  0.14969514039E+01 -0.75476570206E+01  0.13148821773E+02  0.51100000000E-03 0.  1.
        -12    1    3    3    0    0 -0.35650924121E+01  0.19631438943E+01  0.29810224711E+02  0.30086763122E+02  0.00000000000E+00 0.  1.
</event>
<event>
 7    1  0.2876796E-013  0.7246157E+02  0.7816164E-02  0.1226708E+00
        -11   -1    0    0    0    0  0.00000000000E+00  0.00000000000E+00  0.45593999997E+02  0.45594000000E+02  0.51100000000E-03 0.  1.
         11   -1    0    0    0    0 -0.00000000000E+00 -0.00000000000E+00 -0.45593999997E+02  0.45594000000E+02  0.51100000000E-03 0. -1.
    9900012    2    1    2    0    0 -0.86703572899E+01 -0.16582252807E+02  0.73002453811E+00  0.72461571095E+02  0.70000001043E+02 0.  0.
         12    1    1    2    0    0  0.86703572899E+01  0.16582252807E+02 -0.73002453811E+00  0.18726428905E+02  0.00000000000E+00 0. -1.
         11    1    3    3    0    0  0.46050101322E+01 -0.14633689022E+02  0.41167666703E+01  0.15883914530E+02  0.51100000000E-03 0.  1.
        -11    1    3    3    0    0  0.18353451265E+02 -0.50183230027E+01  0.10687130983E+02  0.21823095747E+02  0.51100000000E-03 0. -1.
         12    1    3    3    0    0 -0.31628818687E+02  0.30697592176E+01 -0.14073873115E+02  0.34754560818E+02  0.00000000000E+00 0. -1.
</event>
<event>
 7    1  0.2876796E-013  0.7246167E+02  0.7816164E-02  0.1226708E+00
        -11   -1    0    0    0    0  0.00000000000E+00  0.00000000000E+00  0.45593999997E+02  0.45594000000E+02  0.51100000000E-03 0. -1.
         11   -1    0    0    0    0 -0.00000000000E+00 -0.00000000000E+00 -0.45593999997E+02  0.45594000000E+02  0.51100000000E-03 0.  1.
    9900012    2    1    2    0    0 -0.86612729586E+01  0.13926307723E+02 -0.90396713618E+01  0.72461672159E+02  0.70000132698E+02 0.  0.
         12    1    1    2    0    0  0.86612729586E+01 -0.13926307723E+02  0.90396713618E+01  0.18726327841E+02  0.00000000000E+00 0. -1.
         11    1    3    3    0    0  0.96117417383E+00  0.23484230378E+02 -0.32757081861E+01  0.23731059745E+02  0.51100000000E-03 0. -1.
        -11    1    3    3    0    0  0.18507610123E+02 -0.15247668056E+01  0.13634086905E+01  0.18620296179E+02  0.51100000000E-03 0.  1.
        -12    1    3    3    0    0 -0.28130057255E+02 -0.80331558497E+01 -0.71273718662E+01  0.30110316235E+02  0.00000000000E+00 0.  1.
</event>
<event>
 7    1  0.2876796E-013  0.7246153E+02  0.7816164E-02  0.1226708E+00
        -11   -1    0    0    0    0  0.00000000000E+00  0.00000000000E+00  0.45593999997E+02  0.45594000000E+02  0.51100000000E-03 0.  1.
         11   -1    0    0    0    0 -0.00000000000E+00 -0.00000000000E+00 -0.45593999997E+02  0.45594000000E+02  0.51100000000E-03 0. -1.
    9900012    2    1    2    0    0 -0.11059218607E+02 -0.72844675079E+01 -0.13240503037E+02  0.72461529331E+02  0.69999946637E+02 0.  0.
         12    1    1    2    0    0  0.11059218607E+02  0.72844675079E+01  0.13240503037E+02  0.18726470669E+02  0.00000000000E+00 0. -1.
         11    1    3    3    0    0 -0.16662257607E+02 -0.15150082514E+02 -0.11660422229E+02  0.25359835874E+02  0.51100000000E-03 0. -1.
        -11    1    3    3    0    0  0.25777902295E+02  0.53980417259E+01 -0.39771276779E+01  0.26635627382E+02  0.51100000000E-03 0.  1.
         12    1    3    3    0    0 -0.20174863295E+02  0.24675732801E+01  0.23970468705E+01  0.20466066075E+02  0.00000000000E+00 0. -1.
</event>
<event>
 7    1  0.2876796E-013  0.7246153E+02  0.7816164E-02  0.1226708E+00
        -11   -1    0    0    0    0  0.00000000000E+00  0.00000000000E+00  0.45593999997E+02  0.45594000000E+02  0.51100000000E-03 0. -1.
         11   -1    0    0    0    0 -0.00000000000E+00 -0.00000000000E+00 -0.45593999997E+02  0.45594000000E+02  0.51100000000E-03 0.  1.
    9900012    2    1    2    0    0 -0.11381733081E+02  0.13431629123E+02 -0.63818611920E+01  0.72461530469E+02  0.69999948120E+02 0.  0.
         12    1    1    2    0    0  0.11381733081E+02 -0.13431629123E+02  0.63818611920E+01  0.18726469531E+02  0.00000000000E+00 0. -1.
         11    1    3    3    0    0  0.18585906611E+02  0.17355606547E+01  0.10756489668E+01  0.18697730245E+02  0.51100000000E-03 0. -1.
        -11    1    3    3    0    0  0.80249652469E+01  0.83590352890E+01  0.63365864326E+01  0.13207038504E+02  0.51100000000E-03 0.  1.
        -12    1    3    3    0    0 -0.37992604939E+02  0.33370331793E+01 -0.13794096591E+02  0.40556761720E+02  0.00000000000E+00 0.  1.
</event>
<event>
 7    1  0.2876796E-013  0.7246161E+02  0.7816164E-02  0.1226708E+00
        -11   -1    0    0    0    0  0.00000000000E+00  0.00000000000E+00  0.45593999997E+02  0.45594000000E+02  0.51100000000E-03 0. -1.
         11   -1    0    0    0    0 -0.00000000000E+00 -0.00000000000E+00 -0.45593999997E+02  0.45594000000E+02  0.51100000000E-03 0.  1.
    9900012    2    1    2    0    0  0.16020289534E+02 -0.94635864837E+01 -0.21139112145E+01  0.72461607755E+02  0.70000048799E+02 0.  0.
         12    1    1    2    0    0 -0.16020289534E+02  0.94635864837E+01  0.21139112145E+01  0.18726392245E+02  0.00000000000E+00 0. -1.
         11    1    3    3    0    0 -0.50701373768E+01  0.15732713556E+01 -0.11015991789E+02  0.12228391192E+02  0.51100000000E-03 0. -1.
        -11    1    3    3    0    0  0.12242733320E+02 -0.26038479742E+02 -0.13561548410E+02  0.31808843769E+02  0.51100000000E-03 0.  1.
         12    1    3    3    0    0  0.88476935914E+01  0.15001621902E+02  0.22463628984E+02  0.28424372794E+02  0.00000000000E+00 0. -1.
</event>
<event>
 7    1  0.2876796E-013  0.7246157E+02  0.7816164E-02  0.1226708E+00
        -11   -1    0    0    0    0  0.00000000000E+00  0.00000000000E+00  0.45593999997E+02  0.45594000000E+02  0.51100000000E-03 0.  1.
         11   -1    0    0    0    0 -0.00000000000E+00 -0.00000000000E+00 -0.45593999997E+02  0.45594000000E+02  0.51100000000E-03 0. -1.
    9900012    2    1    2    0    0 -0.18601539443E+01 -0.14951964888E+02  0.11120155370E+02  0.72461567286E+02  0.69999996082E+02 0.  0.
         12    1    1    2    0    0  0.18601539443E+01  0.14951964888E+02 -0.11120155370E+02  0.18726432714E+02  0.00000000000E+00 0. -1.
         11    1    3    3    0    0 -0.69230875322E+00 -0.22790918504E+02  0.19957115096E+02  0.30301678186E+02  0.51100000000E-03 0. -1.
        -11    1    3    3    0    0 -0.36347189019E+01 -0.14349355341E+02 -0.12698943879E+02  0.19503290904E+02  0.51100000000E-03 0.  1.
        -12    1    3    3    0    0  0.24668737108E+01  0.22188308956E+02  0.38619841535E+01  0.22656598197E+02  0.00000000000E+00 0.  1.
</event>
<event>
 7    1  0.2876796E-013  0.7246160E+02  0.7816164E-02  0.1226708E+00
        -11   -1    0    0    0    0  0.00000000000E+00  0.00000000000E+00  0.45593999997E+02  0.45594000000E+02  0.51100000000E-03 0. -1.
         11   -1    0    0    0    0 -0.00000000000E+00 -0.00000000000E+00 -0.45593999997E+02  0.45594000000E+02  0.51100000000E-03 0.  1.
    9900012    2    1    2    0    0 -0.59308037531E+01 -0.16780089716E+02 -0.58251496912E+01  0.72461595834E+02  0.70000033271E+02 0.  0.
         12    1    1    2    0    0  0.59308037531E+01  0.16780089716E+02  0.58251496912E+01  0.18726404166E+02  0.00000000000E+00 0. -1.
         11    1    3    3    0    0 -0.19892044136E+02  0.34304951088E+01  0.14846144458E+02  0.25057328711E+02  0.51100000000E-03 0. -1.
        -11    1    3    3    0    0  0.73119053621E+01 -0.18856807799E+02  0.50145521443E+01  0.20837199760E+02  0.51100000000E-03 0.  1.
        -12    1    3    3    0    0  0.66493350213E+01 -0.13537770263E+01 -0.25685846293E+02  0.26567067363E+02  0.00000000000E+00 0.  1.
</event>
<event>
 7    1  0.2876796E-013  0.7246158E+02  0.7816164E-02  0.1226708E+00
        -11   -1    0    0    0    0  0.00000000000E+00  0.00000000000E+00  0.45593999997E+02  0.45594000000E+02  0.51100000000E-03 0.  1.
         11   -1    0    0    0    0 -0.00000000000E+00 -0.00000000000E+00 -0.45593999997E+02  0.45594000000E+02  0.51100000000E-03 0. -1.
    9900012    2    1    2    0    0  0.89922238150E+01  0.10483208196E+02 -0.12645992198E+02  0.72461578508E+02  0.70000010700E+02 0.  0.
         12    1    1    2    0    0 -0.89922238150E+01 -0.10483208196E+02  0.12645992198E+02  0.18726421492E+02  0.00000000000E+00 0. -1.
         11    1    3    3    0    0 -0.49475594753E+01  0.11396436531E+02 -0.25818860649E+02  0.28652585849E+02  0.51100000000E-03 0. -1.
        -11    1    3    3    0    0  0.20461804681E+02  0.67560424134E+01 -0.58133803146E+01  0.22318713019E+02  0.51100000000E-03 0.  1.
        -12    1    3    3    0    0 -0.65220213902E+01 -0.76692707483E+01  0.18986248766E+02  0.21490279640E+02  0.00000000000E+00 0.  1.
</event>
<event>
 7    1  0.2876796E-013  0.7246160E+02  0.7816164E-02  0.1226708E+00
        -11   -1    0    0    0    0  0.00000000000E+00  0.00000000000E+00  0.45593999997E+02  0.45594000000E+02  0.51100000000E-03 0. -1.
         11   -1    0    0    0    0 -0.00000000000E+00 -0.00000000000E+00 -0.45593999997E+02  0.45594000000E+02  0.51100000000E-03 0.  1.
    9900012    2    1    2    0    0  0.54079077713E+01 -0.94571415319E+01 -0.15231381966E+02  0.72461601814E+02  0.70000041061E+02 0.  0.
         12    1    1    2    0    0 -0.54079077713E+01  0.94571415319E+01  0.15231381966E+02  0.18726398186E+02  0.00000000000E+00 0. -1.
         11    1    3    3    0    0 -0.64910302440E+00 -0.87887456059E+01 -0.13471185798E+02  0.16097708879E+02  0.51100000000E-03 0.  1.
        -11    1    3    3    0    0  0.16407269039E+02  0.24291476257E+02 -0.11665198924E+01  0.29336582367E+02  0.51100000000E-03 0. -1.
         12    1    3    3    0    0 -0.10350258243E+02 -0.24959872183E+02 -0.59367627516E+00  0.27027310569E+02  0.00000000000E+00 0. -1.
</event>
<event>
 7    1  0.2876796E-013  0.7246155E+02  0.7816164E-02  0.1226708E+00
        -11   -1    0    0    0    0  0.00000000000E+00  0.00000000000E+00  0.45593999997E+02  0.45594000000E+02  0.51100000000E-03 0.  1.
         11   -1    0    0    0    0 -0.00000000000E+00 -0.00000000000E+00 -0.45593999997E+02  0.45594000000E+02  0.51100000000E-03 0. -1.
    9900012    2    1    2    0    0 -0.12257044661E+02 -0.49789022465E+01  0.13253503670E+02  0.72461548897E+02  0.69999972126E+02 0.  0.
         12    1    1    2    0    0  0.12257044661E+02  0.49789022465E+01 -0.13253503670E+02  0.18726451103E+02  0.00000000000E+00 0. -1.
         11    1    3    3    0    0 -0.25651929304E+02 -0.11974102375E+02  0.56218059069E+01  0.28861831311E+02  0.51100000000E-03 0. -1.
        -11    1    3    3    0    0 -0.29850552365E+01 -0.71807384129E+01 -0.12043444020E+02  0.14335902589E+02  0.51100000000E-03 0.  1.
        -12    1    3    3    0    0  0.16379939879E+02  0.14175938542E+02  0.19675141783E+02  0.29263814997E+02  0.00000000000E+00 0.  1.
</event>
<event>
 7    1  0.2876796E-013  0.7246161E+02  0.7816164E-02  0.1226708E+00
        -11   -1    0    0    0    0  0.00000000000E+00  0.00000000000E+00  0.45593999997E+02  0.45594000000E+02  0.51100000000E-03 0.  1.
         11   -1    0    0    0    0 -0.00000000000E+00 -0.00000000000E+00 -0.45593999997E+02  0.45594000000E+02  0.51100000000E-03 0. -1.
    9900012    2    1    2    0    0  0.32943111681E+01 -0.16449174863E+02  0.83216529197E+01  0.72461608274E+02  0.70000049476E+02 0.  0.
         12    1    1    2    0    0 -0.32943111681E+01  0.16449174863E+02 -0.83216529197E+01  0.18726391726E+02  0.00000000000E+00 0. -1.
         11    1    3    3    0    0 -0.34169431060E+01 -0.19542031425E+02  0.11404570024E+02  0.22882978611E+02  0.51100000000E-03 0. -1.
        -11    1    3    3    0    0  0.25297103652E+02  0.57163719633E+01  0.87720356315E+01  0.27378257267E+02  0.51100000000E-03 0.  1.
         12    1    3    3    0    0 -0.18585849378E+02 -0.26235154015E+01 -0.11854952736E+02  0.22200372396E+02  0.00000000000E+00 0. -1.
</event>
<event>
 7    1  0.2876796E-013  0.7246155E+02  0.7816164E-02  0.1226708E+00
        -11   -1    0    0    0    0  0.00000000000E+00  0.00000000000E+00  0.45593999997E+02  0.45594000000E+02  0.51100000000E-03 0.  1.
         11   -1    0    0    0    0 -0.00000000000E+00 -0.00000000000E+00 -0.45593999997E+02  0.45594000000E+02  0.51100000000E-03 0. -1.
    9900012    2    1    2    0    0  0.36308671380E+01  0.18074050832E+02  0.32901805118E+01  0.72461553529E+02  0.69999978160E+02 0.  0.
         12    1    1    2    0    0 -0.36308671380E+01 -0.18074050832E+02 -0.32901805118E+01  0.18726446471E+02  0.00000000000E+00 0. -1.
         11    1    3    3    0    0  0.13040844543E+02  0.38975447523E+02 -0.55863157399E+01  0.41477175167E+02  0.51100000000E-03 0. -1.
        -11    1    3    3    0    0 -0.21523871749E+01  0.35503809008E+01  0.78382666271E+00  0.42252052719E+01  0.51100000000E-03 0.  1.
        -12    1    3    3    0    0 -0.72575902299E+01 -0.24451777592E+02  0.80926695889E+01  0.26759173090E+02  0.00000000000E+00 0.  1.
</event>
<event>
 7    1  0.2876796E-013  0.7246165E+02  0.7816164E-02  0.1226708E+00
        -11   -1    0    0    0    0  0.00000000000E+00  0.00000000000E+00  0.45593999997E+02  0.45594000000E+02  0.51100000000E-03 0.  1.
         11   -1    0    0    0    0 -0.00000000000E+00 -0.00000000000E+00 -0.45593999997E+02  0.45594000000E+02  0.51100000000E-03 0. -1.
    9900012    2    1    2    0    0  0.17092031799E+02 -0.57395419927E+01  0.50592805565E+01  0.72461649233E+02  0.70000102832E+02 0.  0.
         12    1    1    2    0    0 -0.17092031799E+02  0.57395419927E+01 -0.50592805565E+01  0.18726350767E+02  0.00000000000E+00 0. -1.
         11    1    3    3    0    0 -0.11590167726E+01 -0.21710969030E+02  0.61969019682E+01  0.22607766151E+02  0.51100000000E-03 0. -1.
        -11    1    3    3    0    0  0.13702185493E+01  0.13246128814E+02  0.19147616765E+02  0.23323135627E+02  0.51100000000E-03 0.  1.
         12    1    3    3    0    0  0.16880830022E+02  0.27252982234E+01 -0.20285238177E+02  0.26530747455E+02  0.00000000000E+00 0. -1.
</event>
<event>
 7    1  0.2876796E-013  0.7246158E+02  0.7816164E-02  0.1226708E+00
        -11   -1    0    0    0    0  0.00000000000E+00  0.00000000000E+00  0.45593999997E+02  0.45594000000E+02  0.51100000000E-03 0. -1.
         11   -1    0    0    0    0 -0.00000000000E+00 -0.00000000000E+00 -0.45593999997E+02  0.45594000000E+02  0.51100000000E-03 0.  1.
    9900012    2    1    2    0    0  0.14647751226E+02  0.11176279960E+02 -0.33485865071E+01  0.72461577989E+02  0.70000010024E+02 0.  0.
         12    1    1    2    0    0 -0.14647751226E+02 -0.11176279960E+02  0.33485865071E+01  0.18726422011E+02  0.00000000000E+00 0. -1.
         11    1    3    3    0    0  0.35061598106E+02  0.21228990691E+02  0.83516842388E+00  0.40996136575E+02  0.51100000000E-03 0. -1.
        -11    1    3    3    0    0  0.40050312446E+00  0.47731782119E+01 -0.34448132761E+01  0.59000315053E+01  0.51100000000E-03 0.  1.
        -12    1    3    3    0    0 -0.20814350005E+02 -0.14825888943E+02 -0.73894165497E+00  0.25565409909E+02  0.00000000000E+00 0.  1.
</event>
<event>
 7    1  0.2876796E-013  0.7246156E+02  0.7816164E-02  0.1226708E+00
        -11   -1    0    0    0    0  0.00000000000E+00  0.00000000000E+00  0.45593999997E+02  0.45594000000E+02  0.51100000000E-03 0. -1.
         11   -1    0    0    0    0 -0.00000000000E+00 -0.00000000000E+00 -0.45593999997E+02  0.45594000000E+02  0.51100000000E-03 0.  1.
    9900012    2    1    2    0    0 -0.11275577572E+02  0.13888041393E+02 -0.55374255135E+01  0.72461563483E+02  0.69999991127E+02 0.  0.
         12    1    1    2    0    0  0.11275577572E+02 -0.13888041393E+02  0.55374255135E+01  0.18726436517E+02  0.00000000000E+00 0. -1.
         11    1    3    3    0    0 -0.61131056684E+00  0.13662747589E+02  0.20722071682E+02  0.24828383502E+02  0.51100000000E-03 0. -1.
        -11    1    3    3    0    0 -0.21431256420E+02  0.67736680834E+01 -0.51665100288E+01  0.23062397039E+02  0.51100000000E-03 0.  1.
        -12    1    3    3    0    0  0.10766989415E+02 -0.65483742791E+01 -0.21092987167E+02  0.24570782942E+02  0.00000000000E+00 0.  1.
</event>
<event>
 7    1  0.2876796E-013  0.7246159E+02  0.7816164E-02  0.1226708E+00
        -11   -1    0    0    0    0  0.00000000000E+00  0.00000000000E+00  0.45593999997E+02  0.45594000000E+02  0.51100000000E-03 0. -1.
         11   -1    0    0    0    0 -0.00000000000E+00 -0.00000000000E+00 -0.45593999997E+02  0.45594000000E+02  0.51100000000E-03 0.  1.
    9900012    2    1    2    0    0 -0.86504106738E+01  0.63528801802E+01 -0.15345680476E+02  0.72461585482E+02  0.70000019785E+02 0.  0.
         12    1    1    2    0    0  0.86504106738E+01 -0.63528801802E+01  0.15345680476E+02  0.18726414518E+02  0.00000000000E+00 0. -1.
         11    1    3    3    0    0 -0.40102801317E+01 -0.12170504429E+02 -0.13556572635E+02  0.18654334259E+02  0.51100000000E-03 0. -1.
        -11    1    3    3    0    0  0.12229884626E+02  0.30504957581E+02 -0.34661033326E+01  0.33047486857E+02  0.51100000000E-03 0.  1.
         12    1    3    3    0    0 -0.16870015168E+02 -0.11981572972E+02  0.16769954911E+01  0.20759764366E+02  0.00000000000E+00 0. -1.
</event>
<event>
 7    1  0.2876796E-013  0.7246154E+02  0.7816164E-02  0.1226708E+00
        -11   -1    0    0    0    0  0.00000000000E+00  0.00000000000E+00  0.45593999997E+02  0.45594000000E+02  0.51100000000E-03 0. -1.
         11   -1    0    0    0    0 -0.00000000000E+00 -0.00000000000E+00 -0.45593999997E+02  0.45594000000E+02  0.51100000000E-03 0.  1.
    9900012    2    1    2    0    0  0.50550407839E+01 -0.17999287377E+02  0.10735385001E+01  0.72461540956E+02  0.69999961782E+02 0.  0.
         12    1    1    2    0    0 -0.50550407839E+01  0.17999287377E+02 -0.10735385001E+01  0.18726459044E+02  0.00000000000E+00 0. -1.
         11    1    3    3    0    0  0.11918953853E+02 -0.93105721605E+00 -0.82746293593E+01  0.14539526120E+02  0.51100000000E-03 0. -1.
        -11    1    3    3    0    0 -0.14323992896E+01 -0.17392724166E+01 -0.22260932959E+02  0.22374672573E+02  0.51100000000E-03 0.  1.
         12    1    3    3    0    0 -0.54315137797E+01 -0.15328957744E+02  0.31609100819E+02  0.35547342264E+02  0.00000000000E+00 0. -1.
</event>
<event>
 7    1  0.2876796E-013  0.7246157E+02  0.7816164E-02  0.1226708E+00
        -11   -1    0    0    0    0  0.00000000000E+00  0.00000000000E+00  0.45593999997E+02  0.45594000000E+02  0.51100000000E-03 0.  1.
         11   -1    0    0    0    0 -0.00000000000E+00 -0.00000000000E+00 -0.45593999997E+02  0.45594000000E+02  0.51100000000E-03 0. -1.
    9900012    2    1    2    0    0 -0.45669816908E+01 -0.11796930499E+02  0.13807761727E+02  0.72461570151E+02  0.69999999814E+02 0.  0.
         12    1    1    2    0    0  0.45669816908E+01  0.11796930499E+02 -0.13807761727E+02  0.18726429849E+02  0.00000000000E+00 0. -1.
         11    1    3    3    0    0 -0.69350677243E+00 -0.11506586541E+02 -0.19618329987E+02  0.22754370069E+02  0.51100000000E-03 0. -1.
        -11    1    3    3    0    0  0.13517309028E+02 -0.95328634238E+01  0.11016863709E+02  0.19873711648E+02  0.51100000000E-03 0.  1.
         12    1    3    3    0    0 -0.17390783946E+02  0.92425194663E+01  0.22409228006E+02  0.29833488434E+02  0.00000000000E+00 0. -1.
</event>
<event>
 7    1  0.2876796E-013  0.7246156E+02  0.7816164E-02  0.1226708E+00
        -11   -1    0    0    0    0  0.00000000000E+00  0.00000000000E+00  0.45593999997E+02  0.45594000000E+02  0.51100000000E-03 0.  1.
         11   -1    0    0    0    0 -0.00000000000E+00 -0.00000000000E+00 -0.45593999997E+02  0.45594000000E+02  0.51100000000E-03 0. -1.
    9900012    2    1    2    0    0  0.72693310771E+01 -0.15596557338E+02  0.73880940883E+01  0.72461555880E+02  0.69999981223E+02 0.  0.
         12    1    1    2    0    0 -0.72693310771E+01  0.15596557338E+02 -0.73880940883E+01  0.18726444120E+02  0.00000000000E+00 0. -1.
         11    1    3    3    0    0 -0.10868224878E+02  0.29561792748E+01 -0.11798892798E+02  0.16311688430E+02  0.51100000000E-03 0. -1.
        -11    1    3    3    0    0 -0.14665264844E+02 -0.18985476536E+01  0.11081737935E+02  0.18479161021E+02  0.51100000000E-03 0.  1.
        -12    1    3    3    0    0  0.32802820799E+02 -0.16654188959E+02  0.81052489518E+01  0.37670706429E+02  0.00000000000E+00 0.  1.
</event>
<event>
 7    1  0.2876796E-013  0.7246159E+02  0.7816164E-02  0.1226708E+00
        -11   -1    0    0    0    0  0.00000000000E+00  0.00000000000E+00  0.45593999997E+02  0.45594000000E+02  0.51100000000E-03 0.  1.
         11   -1    0    0    0    0 -0.00000000000E+00 -0.00000000000E+00 -0.45593999997E+02  0.45594000000E+02  0.51100000000E-03 0. -1.
    9900012    2    1    2    0    0  0.14836731404E+02  0.24413741170E+01 -0.11161966542E+02  0.72461590749E+02  0.70000026646E+02 0.  0.
         12    1    1    2    0    0 -0.14836731404E+02 -0.24413741170E+01  0.11161966542E+02  0.18726409251E+02  0.00000000000E+00 0. -1.
         11    1    3    3    0    0  0.21372387930E+02  0.53660372913E+01 -0.21746220828E+02  0.30959189954E+02  0.51100000000E-03 0. -1.
        -11    1    3    3    0    0  0.31090206417E+01  0.12645818285E+02 -0.81018421877E+01  0.15336967645E+02  0.51100000000E-03 0.  1.
        -12    1    3    3    0    0 -0.96446771670E+01 -0.15570481459E+02  0.18686096474E+02  0.26165433151E+02  0.00000000000E+00 0.  1.
</event>
<event>
 7    1  0.2876796E-013  0.7246159E+02  0.7816164E-02  0.1226708E+00
        -11   -1    0    0    0    0  0.00000000000E+00  0.00000000000E+00  0.45593999997E+02  0.45594000000E+02  0.51100000000E-03 0.  1.
         11   -1    0    0    0    0 -0.00000000000E+00 -0.00000000000E+00 -0.45593999997E+02  0.45594000000E+02  0.51100000000E-03 0. -1.
    9900012    2    1    2    0    0  0.12189770313E+02 -0.95930740473E+01  0.10490985973E+02  0.72461591998E+02  0.70000028273E+02 0.  0.
         12    1    1    2    0    0 -0.12189770313E+02  0.95930740473E+01 -0.10490985973E+02  0.18726408002E+02  0.00000000000E+00 0. -1.
         11    1    3    3    0    0  0.24065376916E+02 -0.77106497698E+01  0.18266053065E+02  0.31180846377E+02  0.51100000000E-03 0. -1.
        -11    1    3    3    0    0 -0.13387054218E+02 -0.18572468067E+02 -0.21317610507E+00  0.22895310329E+02  0.51100000000E-03 0.  1.
         12    1    3    3    0    0  0.15114476162E+01  0.16690043789E+02 -0.75618909867E+01  0.18385435292E+02  0.00000000000E+00 0. -1.
</event>
<event>
 7    1  0.2876796E-013  0.7246154E+02  0.7816164E-02  0.1226708E+00
        -11   -1    0    0    0    0  0.00000000000E+00  0.00000000000E+00  0.45593999997E+02  0.45594000000E+02  0.51100000000E-03 0.  1.
         11   -1    0    0    0    0 -0.00000000000E+00 -0.00000000000E+00 -0.45593999997E+02  0.45594000000E+02  0.51100000000E-03 0. -1.
    9900012    2    1    2    0    0 -0.54949033663E+01  0.16958424288E+02  0.57356887096E+01  0.72461541651E+02  0.69999962687E+02 0.  0.
         12    1    1    2    0    0  0.54949033663E+01 -0.16958424288E+02 -0.57356887096E+01  0.18726458349E+02  0.00000000000E+00 0. -1.
         11    1    3    3    0    0  0.27473982719E+02  0.16469348266E+02  0.14809040008E+01  0.32066372350E+02  0.51100000000E-03 0. -1.
        -11    1    3    3    0    0  0.14161417814E+01  0.49552376174E+01  0.23635647543E+01  0.56697686019E+01  0.51100000000E-03 0.  1.
        -12    1    3    3    0    0 -0.34385027867E+02 -0.44661615958E+01  0.18912199545E+01  0.34725400699E+02  0.00000000000E+00 0.  1.
</event>
<event>
 7    1  0.2876796E-013  0.7246163E+02  0.7816164E-02  0.1226708E+00
        -11   -1    0    0    0    0  0.00000000000E+00  0.00000000000E+00  0.45593999997E+02  0.45594000000E+02  0.51100000000E-03 0.  1.
         11   -1    0    0    0    0 -0.00000000000E+00 -0.00000000000E+00 -0.45593999997E+02  0.45594000000E+02  0.51100000000E-03 0. -1.
    9900012    2    1    2    0    0  0.30604063858E+01 -0.31252874020E+01  0.18208337228E+02  0.72461626801E+02  0.70000073611E+02 0.  0.
         12    1    1    2    0    0 -0.30604063858E+01  0.31252874020E+01 -0.18208337228E+02  0.18726373199E+02  0.00000000000E+00 0. -1.
         11    1    3    3    0    0  0.82092083455E+01  0.68442904943E+00 -0.71233798762E+01  0.10890458480E+02  0.51100000000E-03 0. -1.
        -11    1    3    3    0    0 -0.11999324670E+01 -0.10443570754E+02  0.41950044305E+02  0.43247129679E+02  0.51100000000E-03 0.  1.
         12    1    3    3    0    0 -0.39488694926E+01  0.66338543022E+01 -0.16618327202E+02  0.18324038642E+02  0.00000000000E+00 0. -1.
</event>
<event>
 7    1  0.2876796E-013  0.7246145E+02  0.7816164E-02  0.1226708E+00
        -11   -1    0    0    0    0  0.00000000000E+00  0.00000000000E+00  0.45593999997E+02  0.45594000000E+02  0.51100000000E-03 0.  1.
         11   -1    0    0    0    0 -0.00000000000E+00 -0.00000000000E+00 -0.45593999997E+02  0.45594000000E+02  0.51100000000E-03 0. -1.
    9900012    2    1    2    0    0  0.11626115909E+02 -0.11779233815E+02  0.87616659069E+01  0.72461449067E+02  0.69999842078E+02 0.  0.
         12    1    1    2    0    0 -0.11626115909E+02  0.11779233815E+02 -0.87616659069E+01  0.18726550933E+02  0.00000000000E+00 0. -1.
         11    1    3    3    0    0 -0.48567560962E+01  0.96823455411E+01 -0.15248645613E+02  0.18704467067E+02  0.51100000000E-03 0. -1.
        -11    1    3    3    0    0  0.59779475133E+01 -0.11915741663E+02 -0.10156310503E+02  0.16759218334E+02  0.51100000000E-03 0.  1.
        -12    1    3    3    0    0  0.10504924492E+02 -0.95458376934E+01  0.34166622023E+02  0.36997763666E+02  0.00000000000E+00 0.  1.
</event>
<event>
 7    1  0.2876796E-013  0.7246159E+02  0.7816164E-02  0.1226708E+00
        -11   -1    0    0    0    0  0.00000000000E+00  0.00000000000E+00  0.45593999997E+02  0.45594000000E+02  0.51100000000E-03 0.  1.
         11   -1    0    0    0    0 -0.00000000000E+00 -0.00000000000E+00 -0.45593999997E+02  0.45594000000E+02  0.51100000000E-03 0. -1.
    9900012    2    1    2    0    0  0.13962700537E+00 -0.18620073602E+02 -0.19879581689E+01  0.72461585118E+02  0.70000019311E+02 0.  0.
         12    1    1    2    0    0 -0.13962700537E+00  0.18620073602E+02  0.19879581689E+01  0.18726414882E+02  0.00000000000E+00 0. -1.
         11    1    3    3    0    0 -0.53352908524E+01  0.73486300108E+01  0.60968554386E+01  0.10937976870E+02  0.51100000000E-03 0. -1.
        -11    1    3    3    0    0  0.27072677772E+02 -0.21840187607E+02  0.61582552728E+01  0.35324889026E+02  0.51100000000E-03 0.  1.
         12    1    3    3    0    0 -0.21597759914E+02 -0.41285160056E+01 -0.14243068880E+02  0.26198719221E+02  0.00000000000E+00 0. -1.
</event>
<event>
 7    1  0.2876796E-013  0.7246161E+02  0.7816164E-02  0.1226708E+00
        -11   -1    0    0    0    0  0.00000000000E+00  0.00000000000E+00  0.45593999997E+02  0.45594000000E+02  0.51100000000E-03 0. -1.
         11   -1    0    0    0    0 -0.00000000000E+00 -0.00000000000E+00 -0.45593999997E+02  0.45594000000E+02  0.51100000000E-03 0.  1.
    9900012    2    1    2    0    0 -0.13297454785E+02 -0.86366568321E+01 -0.99631067012E+01  0.72461611129E+02  0.70000053195E+02 0.  0.
         12    1    1    2    0    0  0.13297454785E+02  0.86366568321E+01  0.99631067012E+01  0.18726388871E+02  0.00000000000E+00 0. -1.
         11    1    3    3    0    0  0.87595126006E+01 -0.39410722709E+01 -0.82353100216E+01  0.12652329551E+02  0.51100000000E-03 0. -1.
        -11    1    3    3    0    0 -0.39234469399E+01  0.22734473107E+02  0.96596926069E+01  0.25011184795E+02  0.51100000000E-03 0.  1.
         12    1    3    3    0    0 -0.18133520446E+02 -0.27430057668E+02 -0.11387489287E+02  0.34798096783E+02  0.00000000000E+00 0. -1.
</event>
<event>
 7    1  0.2876796E-013  0.7246159E+02  0.7816164E-02  0.1226708E+00
        -11   -1    0    0    0    0  0.00000000000E+00  0.00000000000E+00  0.45593999997E+02  0.45594000000E+02  0.51100000000E-03 0. -1.
         11   -1    0    0    0    0 -0.00000000000E+00 -0.00000000000E+00 -0.45593999997E+02  0.45594000000E+02  0.51100000000E-03 0.  1.
    9900012    2    1    2    0    0 -0.22513820280E+00 -0.10286768576E+02 -0.15646409482E+02  0.72461590183E+02  0.70000025909E+02 0.  0.
         12    1    1    2    0    0  0.22513820280E+00  0.10286768576E+02  0.15646409482E+02  0.18726409817E+02  0.00000000000E+00 0. -1.
         11    1    3    3    0    0 -0.15486258715E+02 -0.64614312348E+01  0.11177680155E+02  0.20162213086E+02  0.51100000000E-03 0. -1.
        -11    1    3    3    0    0  0.10591239920E+02 -0.17100669488E+02 -0.31582331865E+02  0.37443970760E+02  0.51100000000E-03 0.  1.
         12    1    3    3    0    0  0.46698805922E+01  0.13275332147E+02  0.47582422271E+01  0.14855406338E+02  0.00000000000E+00 0. -1.
</event>
<event>
 7    1  0.2876796E-013  0.7246161E+02  0.7816164E-02  0.1226708E+00
        -11   -1    0    0    0    0  0.00000000000E+00  0.00000000000E+00  0.45593999997E+02  0.45594000000E+02  0.51100000000E-03 0.  1.
         11   -1    0    0    0    0 -0.00000000000E+00 -0.00000000000E+00 -0.45593999997E+02  0.45594000000E+02  0.51100000000E-03 0. -1.
    9900012    2    1    2    0    0 -0.11002211194E+02 -0.14878476496E+02  0.28740151227E+01  0.72461610147E+02  0.70000051915E+02 0.  0.
         12    1    1    2    0    0  0.11002211194E+02  0.14878476496E+02 -0.28740151227E+01  0.18726389853E+02  0.00000000000E+00 0. -1.
         11    1    3    3    0    0  0.15373170343E+02 -0.14530639988E+02 -0.15799037018E+02  0.26402337696E+02  0.51100000000E-03 0. -1.
        -11    1    3    3    0    0 -0.78532837909E+01 -0.16009460964E+02  0.85475584660E+01  0.19774672251E+02  0.51100000000E-03 0.  1.
         12    1    3    3    0    0 -0.18522097747E+02  0.15661624455E+02  0.10125493675E+02  0.26284600200E+02  0.00000000000E+00 0. -1.
</event>
<event>
 7    1  0.2876796E-013  0.7246151E+02  0.7816164E-02  0.1226708E+00
        -11   -1    0    0    0    0  0.00000000000E+00  0.00000000000E+00  0.45593999997E+02  0.45594000000E+02  0.51100000000E-03 0.  1.
         11   -1    0    0    0    0 -0.00000000000E+00 -0.00000000000E+00 -0.45593999997E+02  0.45594000000E+02  0.51100000000E-03 0. -1.
    9900012    2    1    2    0    0 -0.58863938135E+01 -0.50202787366E+01  0.17053698848E+02  0.72461508735E+02  0.69999919807E+02 0.  0.
         12    1    1    2    0    0  0.58863938135E+01  0.50202787366E+01 -0.17053698848E+02  0.18726491265E+02  0.00000000000E+00 0. -1.
         11    1    3    3    0    0  0.34527829725E+01 -0.14344244800E+02 -0.65067889097E+01  0.16125054149E+02  0.51100000000E-03 0. -1.
        -11    1    3    3    0    0 -0.26459931623E+01 -0.58756648940E+01 -0.13921072965E+02  0.15340175700E+02  0.51100000000E-03 0.  1.
        -12    1    3    3    0    0 -0.66931836237E+01  0.15199630957E+02  0.37481560722E+02  0.40996278885E+02  0.00000000000E+00 0.  1.
</event>
<event>
 7    1  0.2876796E-013  0.7246158E+02  0.7816164E-02  0.1226708E+00
        -11   -1    0    0    0    0  0.00000000000E+00  0.00000000000E+00  0.45593999997E+02  0.45594000000E+02  0.51100000000E-03 0. -1.
         11   -1    0    0    0    0 -0.00000000000E+00 -0.00000000000E+00 -0.45593999997E+02  0.45594000000E+02  0.51100000000E-03 0.  1.
    9900012    2    1    2    0    0  0.17985718375E+01 -0.42858779846E+01 -0.18140433670E+02  0.72461576302E+02  0.70000007827E+02 0.  0.
         12    1    1    2    0    0 -0.17985718375E+01  0.42858779846E+01  0.18140433670E+02  0.18726423698E+02  0.00000000000E+00 0. -1.
         11    1    3    3    0    0 -0.64478304694E+01  0.27401734776E+01 -0.87436539177E+01  0.11204220301E+02  0.51100000000E-03 0. -1.
        -11    1    3    3    0    0 -0.21715530831E+00  0.15201211211E+02 -0.27462771241E+02  0.31389931240E+02  0.51100000000E-03 0.  1.
         12    1    3    3    0    0  0.84635576152E+01 -0.22227262674E+02  0.18065991489E+02  0.29867424762E+02  0.00000000000E+00 0. -1.
</event>
<event>
 7    1  0.2876796E-013  0.7246157E+02  0.7816164E-02  0.1226708E+00
        -11   -1    0    0    0    0  0.00000000000E+00  0.00000000000E+00  0.45593999997E+02  0.45594000000E+02  0.51100000000E-03 0.  1.
         11   -1    0    0    0    0 -0.00000000000E+00 -0.00000000000E+00 -0.45593999997E+02  0.45594000000E+02  0.51100000000E-03 0. -1.
    9900012    2    1    2    0    0 -0.52083961358E+00  0.10865099611E+02  0.15243276227E+02  0.72461571254E+02  0.70000001250E+02 0.  0.
         12    1    1    2    0    0  0.52083961358E+00 -0.10865099611E+02 -0.15243276227E+02  0.18726428746E+02  0.00000000000E+00 0. -1.
         11    1    3    3    0    0 -0.27921604510E+00  0.77863399687E+01 -0.23279556395E+02  0.24548784041E+02  0.51100000000E-03 0. -1.
        -11    1    3    3    0    0  0.49406396202E+01  0.39359598020E+01 -0.23231624878E+01  0.67304371051E+01  0.51100000000E-03 0.  1.
        -12    1    3    3    0    0 -0.51822631887E+01 -0.85720015993E+00  0.40845995110E+02  0.41182350107E+02  0.00000000000E+00 0.  1.
</event>
<event>
 7    1  0.2876796E-013  0.7246199E+02  0.7816164E-02  0.1226707E+00
        -11   -1    0    0    0    0  0.00000000000E+00  0.00000000000E+00  0.45593999997E+02  0.45594000000E+02  0.51100000000E-03 0. -1.
         11   -1    0    0    0    0 -0.00000000000E+00 -0.00000000000E+00 -0.45593999997E+02  0.45594000000E+02  0.51100000000E-03 0.  1.
    9900012    2    1    2    0    0  0.62916645168E+01  0.16057982244E+02  0.72951767395E+01  0.72461990286E+02  0.70000547115E+02 0.  0.
         12    1    1    2    0    0 -0.62916645168E+01 -0.16057982244E+02 -0.72951767395E+01  0.18726009714E+02  0.00000000000E+00 0. -1.
         11    1    3    3    0    0  0.30987375797E+01 -0.14206723441E+01  0.40796203662E+01  0.53163697286E+01  0.51100000000E-03 0. -1.
        -11    1    3    3    0    0  0.25467849985E+02  0.16075908123E+02 -0.19036443652E+02  0.35629094740E+02  0.51100000000E-03 0.  1.
         12    1    3    3    0    0 -0.22274923048E+02  0.14027464658E+01  0.22252000025E+02  0.31516525817E+02  0.00000000000E+00 0. -1.
</event>
<event>
 7    1  0.2876796E-013  0.7246177E+02  0.7816164E-02  0.1226707E+00
        -11   -1    0    0    0    0  0.00000000000E+00  0.00000000000E+00  0.45593999997E+02  0.45594000000E+02  0.51100000000E-03 0.  1.
         11   -1    0    0    0    0 -0.00000000000E+00 -0.00000000000E+00 -0.45593999997E+02  0.45594000000E+02  0.51100000000E-03 0. -1.
    9900012    2    1    2    0    0 -0.79679038123E+01  0.80055553641E+01  0.14936378502E+02  0.72461766780E+02  0.70000255958E+02 0.  0.
         12    1    1    2    0    0  0.79679038123E+01 -0.80055553641E+01 -0.14936378502E+02  0.18726233220E+02  0.00000000000E+00 0. -1.
         11    1    3    3    0    0  0.14251709280E+01  0.91160690655E+01  0.50322605408E+00  0.92405121126E+01  0.51100000000E-03 0. -1.
        -11    1    3    3    0    0 -0.20867246762E+01  0.18393996635E+02 -0.17251233178E+02  0.25304121769E+02  0.51100000000E-03 0.  1.
        -12    1    3    3    0    0 -0.73063500641E+01 -0.19504510336E+02  0.31684385626E+02  0.37917132898E+02  0.00000000000E+00 0.  1.
</event>
<event>
 7    1  0.2876796E-013  0.7246155E+02  0.7816164E-02  0.1226708E+00
        -11   -1    0    0    0    0  0.00000000000E+00  0.00000000000E+00  0.45593999997E+02  0.45594000000E+02  0.51100000000E-03 0. -1.
         11   -1    0    0    0    0 -0.00000000000E+00 -0.00000000000E+00 -0.45593999997E+02  0.45594000000E+02  0.51100000000E-03 0.  1.
    9900012    2    1    2    0    0  0.10127837377E+02  0.14206573471E+02 -0.68029548939E+01  0.72461547719E+02  0.69999970592E+02 0.  0.
         12    1    1    2    0    0 -0.10127837377E+02 -0.14206573471E+02  0.68029548939E+01  0.18726452281E+02  0.00000000000E+00 0. -1.
         11    1    3    3    0    0  0.13858435943E+02 -0.70963744433E+01  0.10680467905E+01  0.15606264808E+02  0.51100000000E-03 0. -1.
        -11    1    3    3    0    0 -0.11269185308E+02  0.13553192924E+02 -0.28531467206E+02  0.33536967620E+02  0.51100000000E-03 0.  1.
         12    1    3    3    0    0  0.75385867419E+01  0.77497549907E+01  0.20660465522E+02  0.23318315292E+02  0.00000000000E+00 0. -1.
</event>
<event>
 7    1  0.2876796E-013  0.7246156E+02  0.7816164E-02  0.1226708E+00
        -11   -1    0    0    0    0  0.00000000000E+00  0.00000000000E+00  0.45593999997E+02  0.45594000000E+02  0.51100000000E-03 0. -1.
         11   -1    0    0    0    0 -0.00000000000E+00 -0.00000000000E+00 -0.45593999997E+02  0.45594000000E+02  0.51100000000E-03 0.  1.
    9900012    2    1    2    0    0 -0.13049313730E+00 -0.12054554061E+02 -0.14330047345E+02  0.72461559895E+02  0.69999986454E+02 0.  0.
         12    1    1    2    0    0  0.13049313730E+00  0.12054554061E+02  0.14330047345E+02  0.18726440105E+02  0.00000000000E+00 0. -1.
         11    1    3    3    0    0 -0.15766819268E+02  0.84144746644E+00  0.26734562247E+01  0.16013993634E+02  0.51100000000E-03 0. -1.
        -11    1    3    3    0    0  0.65689735922E+01  0.67410864478E+01 -0.29844499687E+02  0.31293574778E+02  0.51100000000E-03 0.  1.
         12    1    3    3    0    0  0.90673525387E+01 -0.19637087975E+02  0.12840996118E+02  0.25153991483E+02  0.00000000000E+00 0. -1.
</event>
<event>
 7    1  0.2876796E-013  0.7246154E+02  0.7816164E-02  0.1226708E+00
        -11   -1    0    0    0    0  0.00000000000E+00  0.00000000000E+00  0.45593999997E+02  0.45594000000E+02  0.51100000000E-03 0. -1.
         11   -1    0    0    0    0 -0.00000000000E+00 -0.00000000000E+00 -0.45593999997E+02  0.45594000000E+02  0.51100000000E-03 0.  1.
    9900012    2    1    2    0    0  0.35471991897E+01 -0.18289273503E+02 -0.18973998263E+01  0.72461540819E+02  0.69999961602E+02 0.  0.
         12    1    1    2    0    0 -0.35471991897E+01  0.18289273503E+02  0.18973998263E+01  0.18726459181E+02  0.00000000000E+00 0. -1.
         11    1    3    3    0    0 -0.35597849737E+01  0.16128648094E+01  0.85264561950E+01  0.93794380140E+01  0.51100000000E-03 0. -1.
        -11    1    3    3    0    0 -0.25196033234E+02 -0.15236056404E+02 -0.28929715145E+01  0.29586260155E+02  0.51100000000E-03 0.  1.
         12    1    3    3    0    0  0.32303017398E+02 -0.46660819088E+01 -0.75308845068E+01  0.33495842650E+02  0.00000000000E+00 0. -1.
</event>
<event>
 7    1  0.2876796E-013  0.7246160E+02  0.7816164E-02  0.1226708E+00
        -11   -1    0    0    0    0  0.00000000000E+00  0.00000000000E+00  0.45593999997E+02  0.45594000000E+02  0.51100000000E-03 0. -1.
         11   -1    0    0    0    0 -0.00000000000E+00 -0.00000000000E+00 -0.45593999997E+02  0.45594000000E+02  0.51100000000E-03 0.  1.
    9900012    2    1    2    0    0 -0.18306231041E+01  0.95194582059E+01 -0.16022076402E+02  0.72461596242E+02  0.70000033801E+02 0.  0.
         12    1    1    2    0    0  0.18306231041E+01 -0.95194582059E+01  0.16022076402E+02  0.18726403758E+02  0.00000000000E+00 0. -1.
         11    1    3    3    0    0 -0.78284162241E+00  0.13371152313E+02  0.23697385034E+02  0.27220701918E+02  0.51100000000E-03 0. -1.
        -11    1    3    3    0    0  0.86734987232E+01 -0.83495221193E+00 -0.76511784361E+01  0.11596001769E+02  0.51100000000E-03 0.  1.
        -12    1    3    3    0    0 -0.97212802048E+01 -0.30167418955E+01 -0.32068283000E+02  0.33644892555E+02  0.00000000000E+00 0.  1.
</event>
<event>
 7    1  0.2876796E-013  0.7246122E+02  0.7816164E-02  0.1226709E+00
        -11   -1    0    0    0    0  0.00000000000E+00  0.00000000000E+00  0.45593999997E+02  0.45594000000E+02  0.51100000000E-03 0. -1.
         11   -1    0    0    0    0 -0.00000000000E+00 -0.00000000000E+00 -0.45593999997E+02  0.45594000000E+02  0.51100000000E-03 0.  1.
    9900012    2    1    2    0    0 -0.69844247797E+01  0.15088575244E+02 -0.86165485842E+01  0.72461222330E+02  0.69999546710E+02 0.  0.
         12    1    1    2    0    0  0.69844247797E+01 -0.15088575244E+02  0.86165485842E+01  0.18726777670E+02  0.00000000000E+00 0. -1.
         11    1    3    3    0    0  0.58983892238E+01  0.52745505677E+01 -0.23800517585E+02  0.25081397822E+02  0.51100000000E-03 0. -1.
        -11    1    3    3    0    0 -0.60667386597E+01  0.75171923362E+00 -0.14428704804E+02  0.15670287883E+02  0.51100000000E-03 0.  1.
         12    1    3    3    0    0 -0.68160753438E+01  0.90623054430E+01  0.29612673805E+02  0.31709536624E+02  0.00000000000E+00 0. -1.
</event>
<event>
 7    1  0.2876796E-013  0.7246153E+02  0.7816164E-02  0.1226708E+00
        -11   -1    0    0    0    0  0.00000000000E+00  0.00000000000E+00  0.45593999997E+02  0.45594000000E+02  0.51100000000E-03 0.  1.
         11   -1    0    0    0    0 -0.00000000000E+00 -0.00000000000E+00 -0.45593999997E+02  0.45594000000E+02  0.51100000000E-03 0. -1.
    9900012    2    1    2    0    0 -0.18010527083E+02  0.35174356149E+01  0.37321973502E+01  0.72461528465E+02  0.69999945509E+02 0.  0.
         12    1    1    2    0    0  0.18010527083E+02 -0.35174356149E+01 -0.37321973502E+01  0.18726471535E+02  0.00000000000E+00 0. -1.
         11    1    3    3    0    0 -0.48109789360E+01 -0.24062076752E+01  0.86523833588E+01  0.10188183928E+02  0.51100000000E-03 0. -1.
        -11    1    3    3    0    0 -0.32420822446E+02  0.51723399432E+01  0.13632226902E+02  0.35548564515E+02  0.51100000000E-03 0.  1.
         12    1    3    3    0    0  0.19221274299E+02  0.75130334693E+00 -0.18552412910E+02  0.26724780022E+02  0.00000000000E+00 0. -1.
</event>
<event>
 7    1  0.2876796E-013  0.7246157E+02  0.7816164E-02  0.1226708E+00
        -11   -1    0    0    0    0  0.00000000000E+00  0.00000000000E+00  0.45593999997E+02  0.45594000000E+02  0.51100000000E-03 0.  1.
         11   -1    0    0    0    0 -0.00000000000E+00 -0.00000000000E+00 -0.45593999997E+02  0.45594000000E+02  0.51100000000E-03 0. -1.
    9900012    2    1    2    0    0  0.15861259616E+02  0.99495938504E+01  0.32423763722E+00  0.72461572032E+02  0.70000002264E+02 0.  0.
         12    1    1    2    0    0 -0.15861259616E+02 -0.99495938504E+01 -0.32423763722E+00  0.18726427968E+02  0.00000000000E+00 0. -1.
         11    1    3    3    0    0  0.19666810513E+02 -0.85870242169E+01 -0.79760708449E+01  0.22894063140E+02  0.51100000000E-03 0. -1.
        -11    1    3    3    0    0  0.95970990980E+01 -0.59528763309E+01  0.16926394389E+02  0.20348068089E+02  0.51100000000E-03 0.  1.
         12    1    3    3    0    0 -0.13402649996E+02  0.24489494398E+02 -0.86260859065E+01  0.29219440803E+02  0.00000000000E+00 0. -1.
</event>
<event>
 7    1  0.2876796E-013  0.7246160E+02  0.7816164E-02  0.1226708E+00
        -11   -1    0    0    0    0  0.00000000000E+00  0.00000000000E+00  0.45593999997E+02  0.45594000000E+02  0.51100000000E-03 0. -1.
         11   -1    0    0    0    0 -0.00000000000E+00 -0.00000000000E+00 -0.45593999997E+02  0.45594000000E+02  0.51100000000E-03 0.  1.
    9900012    2    1    2    0    0 -0.11492415681E+01  0.17853467684E+02 -0.55327138194E+01  0.72461601875E+02  0.70000041139E+02 0.  0.
         12    1    1    2    0    0  0.11492415681E+01 -0.17853467684E+02  0.55327138194E+01  0.18726398125E+02  0.00000000000E+00 0. -1.
         11    1    3    3    0    0  0.45739876554E+01  0.13557004655E+02  0.53479828000E+01  0.15274641030E+02  0.51100000000E-03 0. -1.
        -11    1    3    3    0    0  0.20862457980E+00  0.29333884111E+02 -0.11345639532E+02  0.31452246627E+02  0.51100000000E-03 0.  1.
         12    1    3    3    0    0 -0.59318538033E+01 -0.25037421082E+02  0.46494291222E+00  0.25734714218E+02  0.00000000000E+00 0. -1.
</event>
<event>
 7    1  0.2876796E-013  0.7246149E+02  0.7816164E-02  0.1226708E+00
        -11   -1    0    0    0    0  0.00000000000E+00  0.00000000000E+00  0.45593999997E+02  0.45594000000E+02  0.51100000000E-03 0.  1.
         11   -1    0    0    0    0 -0.00000000000E+00 -0.00000000000E+00 -0.45593999997E+02  0.45594000000E+02  0.51100000000E-03 0. -1.
    9900012    2    1    2    0    0 -0.24115511686E+01 -0.16820885927E+02  0.78691981145E+01  0.72461493081E+02  0.69999899415E+02 0.  0.
         12    1    1    2    0    0  0.24115511686E+01  0.16820885927E+02 -0.78691981145E+01  0.18726506919E+02  0.00000000000E+00 0. -1.
         11    1    3    3    0    0 -0.63890891291E+01 -0.15908368116E+02 -0.60303508948E+01  0.18173105629E+02  0.51100000000E-03 0. -1.
        -11    1    3    3    0    0 -0.80314416875E+01 -0.24480571134E+02  0.41440568963E+01  0.26095509699E+02  0.51100000000E-03 0.  1.
        -12    1    3    3    0    0  0.12008979648E+02  0.23568053323E+02  0.97554921130E+01  0.28192877753E+02  0.00000000000E+00 0.  1.
</event>
<event>
 7    1  0.2876796E-013  0.7246158E+02  0.7816164E-02  0.1226708E+00
        -11   -1    0    0    0    0  0.00000000000E+00  0.00000000000E+00  0.45593999997E+02  0.45594000000E+02  0.51100000000E-03 0.  1.
         11   -1    0    0    0    0 -0.00000000000E+00 -0.00000000000E+00 -0.45593999997E+02  0.45594000000E+02  0.51100000000E-03 0. -1.
    9900012    2    1    2    0    0 -0.24593851007E+01 -0.16534300981E+02  0.84408031654E+01  0.72461579037E+02  0.70000011389E+02 0.  0.
         12    1    1    2    0    0  0.24593851007E+01  0.16534300981E+02 -0.84408031654E+01  0.18726420963E+02  0.00000000000E+00 0. -1.
         11    1    3    3    0    0 -0.22381400618E+02 -0.20481101925E+02  0.99249256808E+01  0.31920319230E+02  0.51100000000E-03 0. -1.
        -11    1    3    3    0    0  0.28024723385E+01 -0.83757314601E+01  0.12447455546E+02  0.15262564612E+02  0.51100000000E-03 0.  1.
         12    1    3    3    0    0  0.17119543179E+02  0.12322532404E+02 -0.13931578061E+02  0.25278695196E+02  0.00000000000E+00 0. -1.
</event>
<event>
 7    1  0.2876796E-013  0.7246153E+02  0.7816164E-02  0.1226708E+00
        -11   -1    0    0    0    0  0.00000000000E+00  0.00000000000E+00  0.45593999997E+02  0.45594000000E+02  0.51100000000E-03 0. -1.
         11   -1    0    0    0    0 -0.00000000000E+00 -0.00000000000E+00 -0.45593999997E+02  0.45594000000E+02  0.51100000000E-03 0.  1.
    9900012    2    1    2    0    0  0.61419506206E+01  0.15667560098E+02  0.82149166711E+01  0.72461525351E+02  0.69999941454E+02 0.  0.
         12    1    1    2    0    0 -0.61419506206E+01 -0.15667560098E+02 -0.82149166711E+01  0.18726474649E+02  0.00000000000E+00 0. -1.
         11    1    3    3    0    0  0.18830016131E+02  0.71220596737E+01 -0.89413375173E+00  0.20151742280E+02  0.51100000000E-03 0. -1.
        -11    1    3    3    0    0  0.13913907465E+02 -0.38057596878E+01 -0.97765716985E+01  0.17425899752E+02  0.51100000000E-03 0.  1.
         12    1    3    3    0    0 -0.26601972975E+02  0.12351260112E+02  0.18885622121E+02  0.34883883319E+02  0.00000000000E+00 0. -1.
</event>
<event>
 7    1  0.2876796E-013  0.7246156E+02  0.7816164E-02  0.1226708E+00
        -11   -1    0    0    0    0  0.00000000000E+00  0.00000000000E+00  0.45593999997E+02  0.45594000000E+02  0.51100000000E-03 0. -1.
         11   -1    0    0    0    0 -0.00000000000E+00 -0.00000000000E+00 -0.45593999997E+02  0.45594000000E+02  0.51100000000E-03 0.  1.
    9900012    2    1    2    0    0 -0.17175096043E+02 -0.16627925802E+01 -0.72753572606E+01  0.72461558092E+02  0.69999984104E+02 0.  0.
         12    1    1    2    0    0  0.17175096043E+02  0.16627925802E+01  0.72753572606E+01  0.18726441908E+02  0.00000000000E+00 0. -1.
         11    1    3    3    0    0 -0.33250264947E+01  0.52321998301E+00  0.29380130241E+00  0.33787393814E+01  0.51100000000E-03 0.  1.
        -11    1    3    3    0    0 -0.40252900063E+02  0.53343928088E+01  0.25147936585E-02  0.40604823810E+02  0.51100000000E-03 0. -1.
        -12    1    3    3    0    0  0.26402830514E+02 -0.75204053720E+01 -0.75716733566E+01  0.28477994900E+02  0.00000000000E+00 0.  1.
</event>
<event>
 7    1  0.2876796E-013  0.7246154E+02  0.7816164E-02  0.1226708E+00
        -11   -1    0    0    0    0  0.00000000000E+00  0.00000000000E+00  0.45593999997E+02  0.45594000000E+02  0.51100000000E-03 0. -1.
         11   -1    0    0    0    0 -0.00000000000E+00 -0.00000000000E+00 -0.45593999997E+02  0.45594000000E+02  0.51100000000E-03 0.  1.
    9900012    2    1    2    0    0  0.88177706625E+01 -0.16509038837E+02  0.61549557745E+00  0.72461540709E+02  0.69999961460E+02 0.  0.
         12    1    1    2    0    0 -0.88177706625E+01  0.16509038837E+02 -0.61549557745E+00  0.18726459291E+02  0.00000000000E+00 0. -1.
         11    1    3    3    0    0 -0.13913706169E+02 -0.55450009679E+01 -0.56327136648E+01  0.16002053574E+02  0.51100000000E-03 0. -1.
        -11    1    3    3    0    0 -0.71018860209E-01  0.25889707583E+00  0.24921037573E+02  0.24922483531E+02  0.51100000000E-03 0.  1.
        -12    1    3    3    0    0  0.22802495691E+02 -0.11222934945E+02 -0.18672828330E+02  0.31537003605E+02  0.00000000000E+00 0.  1.
</event>
<event>
 7    1  0.2876796E-013  0.7246155E+02  0.7816164E-02  0.1226708E+00
        -11   -1    0    0    0    0  0.00000000000E+00  0.00000000000E+00  0.45593999997E+02  0.45594000000E+02  0.51100000000E-03 0.  1.
         11   -1    0    0    0    0 -0.00000000000E+00 -0.00000000000E+00 -0.45593999997E+02  0.45594000000E+02  0.51100000000E-03 0. -1.
    9900012    2    1    2    0    0 -0.16602284123E+02 -0.73890252172E+01 -0.45217489204E+01  0.72461554927E+02  0.69999979981E+02 0.  0.
         12    1    1    2    0    0  0.16602284123E+02  0.73890252172E+01  0.45217489204E+01  0.18726445073E+02  0.00000000000E+00 0. -1.
         11    1    3    3    0    0  0.18242425015E+01 -0.54515212956E+00 -0.58596591845E+01  0.61612220840E+01  0.51100000000E-03 0. -1.
        -11    1    3    3    0    0  0.20427495487E+02  0.11046098170E+02 -0.24830726829E+01  0.23355181585E+02  0.51100000000E-03 0.  1.
         12    1    3    3    0    0 -0.38854022112E+02 -0.17889971258E+02  0.38209829470E+01  0.42945151258E+02  0.00000000000E+00 0. -1.
</event>
<event>
 7    1  0.2876796E-013  0.7246155E+02  0.7816164E-02  0.1226708E+00
        -11   -1    0    0    0    0  0.00000000000E+00  0.00000000000E+00  0.45593999997E+02  0.45594000000E+02  0.51100000000E-03 0.  1.
         11   -1    0    0    0    0 -0.00000000000E+00 -0.00000000000E+00 -0.45593999997E+02  0.45594000000E+02  0.51100000000E-03 0. -1.
    9900012    2    1    2    0    0 -0.68921978443E+01 -0.12838847880E+02  0.11761873298E+02  0.72461546265E+02  0.69999968697E+02 0.  0.
         12    1    1    2    0    0  0.68921978443E+01  0.12838847880E+02 -0.11761873298E+02  0.18726453735E+02  0.00000000000E+00 0. -1.
         11    1    3    3    0    0  0.18331112364E+02  0.11890676372E+02 -0.36161996159E+01  0.22147116404E+02  0.51100000000E-03 0. -1.
        -11    1    3    3    0    0 -0.52598239875E+01  0.78362116855E+01  0.52370072307E+01  0.10793433511E+02  0.51100000000E-03 0.  1.
        -12    1    3    3    0    0 -0.19963486221E+02 -0.32565735938E+02  0.10141065683E+02  0.39520996350E+02  0.00000000000E+00 0.  1.
</event>
<event>
 7    1  0.2876796E-013  0.7246157E+02  0.7816164E-02  0.1226708E+00
        -11   -1    0    0    0    0  0.00000000000E+00  0.00000000000E+00  0.45593999997E+02  0.45594000000E+02  0.51100000000E-03 0. -1.
         11   -1    0    0    0    0 -0.00000000000E+00 -0.00000000000E+00 -0.45593999997E+02  0.45594000000E+02  0.51100000000E-03 0.  1.
    9900012    2    1    2    0    0  0.41715856514E+01 -0.29009105580E+01 -0.18023922121E+02  0.72461570081E+02  0.69999999721E+02 0.  0.
         12    1    1    2    0    0 -0.41715856514E+01  0.29009105580E+01  0.18023922121E+02  0.18726429919E+02  0.00000000000E+00 0. -1.
         11    1    3    3    0    0 -0.51665763923E+01  0.97314173275E+01  0.19923373642E+02  0.22766967570E+02  0.51100000000E-03 0. -1.
        -11    1    3    3    0    0  0.11193221547E+02 -0.10341428811E+02 -0.41843697687E+01  0.15803237297E+02  0.51100000000E-03 0.  1.
         12    1    3    3    0    0 -0.18550595034E+01 -0.22908990743E+01 -0.33762925994E+02  0.33891365213E+02  0.00000000000E+00 0. -1.
</event>
<event>
 7    1  0.2876796E-013  0.7246169E+02  0.7816164E-02  0.1226708E+00
        -11   -1    0    0    0    0  0.00000000000E+00  0.00000000000E+00  0.45593999997E+02  0.45594000000E+02  0.51100000000E-03 0.  1.
         11   -1    0    0    0    0 -0.00000000000E+00 -0.00000000000E+00 -0.45593999997E+02  0.45594000000E+02  0.51100000000E-03 0. -1.
    9900012    2    1    2    0    0  0.17997427819E+02 -0.27814195593E+01  0.43624559340E+01  0.72461688974E+02  0.70000154603E+02 0.  0.
         12    1    1    2    0    0 -0.17997427819E+02  0.27814195593E+01 -0.43624559340E+01  0.18726311026E+02  0.00000000000E+00 0. -1.
         11    1    3    3    0    0 -0.16094667823E+02 -0.15515053262E+02  0.57693381707E+01  0.23087669290E+02  0.51100000000E-03 0. -1.
        -11    1    3    3    0    0  0.25060183779E+02  0.46492441494E+01  0.14539741747E+02  0.29343353124E+02  0.51100000000E-03 0.  1.
        -12    1    3    3    0    0  0.90319118628E+01  0.80843895534E+01 -0.15946623984E+02  0.20030666560E+02  0.00000000000E+00 0.  1.
</event>
<event>
 7    1  0.2876796E-013  0.7246160E+02  0.7816164E-02  0.1226708E+00
        -11   -1    0    0    0    0  0.00000000000E+00  0.00000000000E+00  0.45593999997E+02  0.45594000000E+02  0.51100000000E-03 0.  1.
         11   -1    0    0    0    0 -0.00000000000E+00 -0.00000000000E+00 -0.45593999997E+02  0.45594000000E+02  0.51100000000E-03 0. -1.
    9900012    2    1    2    0    0  0.39328474516E+01  0.18036094361E+02  0.31480359265E+01  0.72461598341E+02  0.70000036537E+02 0.  0.
         12    1    1    2    0    0 -0.39328474516E+01 -0.18036094361E+02 -0.31480359265E+01  0.18726401659E+02  0.00000000000E+00 0. -1.
         11    1    3    3    0    0  0.18807519776E+01  0.14953493793E+02 -0.84078560318E+01  0.17257932898E+02  0.51100000000E-03 0. -1.
        -11    1    3    3    0    0 -0.12644501435E+02  0.24397879929E+02  0.10082261274E+02  0.29271008766E+02  0.51100000000E-03 0.  1.
        -12    1    3    3    0    0  0.14696596909E+02 -0.21315279360E+02  0.14736306846E+01  0.25932656677E+02  0.00000000000E+00 0.  1.
</event>
<event>
 7    1  0.2876796E-013  0.7246149E+02  0.7816164E-02  0.1226708E+00
        -11   -1    0    0    0    0  0.00000000000E+00  0.00000000000E+00  0.45593999997E+02  0.45594000000E+02  0.51100000000E-03 0. -1.
         11   -1    0    0    0    0 -0.00000000000E+00 -0.00000000000E+00 -0.45593999997E+02  0.45594000000E+02  0.51100000000E-03 0.  1.
    9900012    2    1    2    0    0  0.70813203243E+00 -0.18551693819E+02  0.24526494856E+01  0.72461487136E+02  0.69999891671E+02 0.  0.
         12    1    1    2    0    0 -0.70813203243E+00  0.18551693819E+02 -0.24526494856E+01  0.18726512864E+02  0.00000000000E+00 0. -1.
         11    1    3    3    0    0  0.12376354171E+02 -0.14736259251E+02  0.99616285023E+01  0.21669460583E+02  0.51100000000E-03 0. -1.
        -11    1    3    3    0    0 -0.13285597921E+02 -0.17022552451E+02 -0.22201033371E+02  0.30970312996E+02  0.51100000000E-03 0.  1.
         12    1    3    3    0    0  0.16173757820E+01  0.13207117882E+02  0.14692054355E+02  0.19821713557E+02  0.00000000000E+00 0. -1.
</event>
<event>
 7    1  0.2876796E-013  0.7246171E+02  0.7816164E-02  0.1226708E+00
        -11   -1    0    0    0    0  0.00000000000E+00  0.00000000000E+00  0.45593999997E+02  0.45594000000E+02  0.51100000000E-03 0. -1.
         11   -1    0    0    0    0 -0.00000000000E+00 -0.00000000000E+00 -0.45593999997E+02  0.45594000000E+02  0.51100000000E-03 0.  1.
    9900012    2    1    2    0    0  0.98347305223E+01  0.15167737937E+02 -0.48879364643E+01  0.72461705080E+02  0.70000175583E+02 0.  0.
         12    1    1    2    0    0 -0.98347305223E+01 -0.15167737937E+02  0.48879364643E+01  0.18726294920E+02  0.00000000000E+00 0. -1.
         11    1    3    3    0    0  0.50423187306E+01  0.11919454464E+02  0.25803268130E+02  0.28867057684E+02  0.51100000000E-03 0. -1.
        -11    1    3    3    0    0  0.47555320770E+01  0.75466628156E+01  0.31663174739E+01  0.94653458254E+01  0.51100000000E-03 0.  1.
        -12    1    3    3    0    0  0.36879714706E-01 -0.42983793434E+01 -0.33857522068E+02  0.34129301570E+02  0.00000000000E+00 0.  1.
</event>
<event>
 7    1  0.2876796E-013  0.7246149E+02  0.7816164E-02  0.1226708E+00
        -11   -1    0    0    0    0  0.00000000000E+00  0.00000000000E+00  0.45593999997E+02  0.45594000000E+02  0.51100000000E-03 0.  1.
         11   -1    0    0    0    0 -0.00000000000E+00 -0.00000000000E+00 -0.45593999997E+02  0.45594000000E+02  0.51100000000E-03 0. -1.
    9900012    2    1    2    0    0  0.18064842636E+02  0.19472932197E+01 -0.45333794680E+01  0.72461494192E+02  0.69999900863E+02 0.  0.
         12    1    1    2    0    0 -0.18064842636E+02 -0.19472932197E+01  0.45333794680E+01  0.18726505808E+02  0.00000000000E+00 0. -1.
         11    1    3    3    0    0  0.10498524350E+02 -0.20533863362E+01 -0.14289298036E+02  0.17849914498E+02  0.51100000000E-03 0. -1.
        -11    1    3    3    0    0  0.24402415499E+02  0.18264073834E+02  0.11262118090E+02  0.32494454594E+02  0.51100000000E-03 0.  1.
        -12    1    3    3    0    0 -0.16836097213E+02 -0.14263394278E+02 -0.15061995221E+01  0.22117125100E+02  0.00000000000E+00 0.  1.
</event>
<event>
 7    1  0.2876796E-013  0.7246165E+02  0.7816164E-02  0.1226708E+00
        -11   -1    0    0    0    0  0.00000000000E+00  0.00000000000E+00  0.45593999997E+02  0.45594000000E+02  0.51100000000E-03 0.  1.
         11   -1    0    0    0    0 -0.00000000000E+00 -0.00000000000E+00 -0.45593999997E+02  0.45594000000E+02  0.51100000000E-03 0. -1.
    9900012    2    1    2    0    0  0.12145513929E+02 -0.14208973135E+02 -0.11259196597E+01  0.72461651685E+02  0.70000106026E+02 0.  0.
         12    1    1    2    0    0 -0.12145513929E+02  0.14208973135E+02  0.11259196597E+01  0.18726348315E+02  0.00000000000E+00 0. -1.
         11    1    3    3    0    0  0.20198131387E+02 -0.21943055535E+02 -0.21449437145E+02  0.36736093313E+02  0.51100000000E-03 0. -1.
        -11    1    3    3    0    0  0.15105238168E+01 -0.72435049828E+01 -0.15331590779E+01  0.75564954613E+01  0.51100000000E-03 0.  1.
        -12    1    3    3    0    0 -0.95631412753E+01  0.14977587383E+02  0.21856676564E+02  0.28169062911E+02  0.00000000000E+00 0.  1.
</event>
<event>
 7    1  0.2876796E-013  0.7246156E+02  0.7816164E-02  0.1226708E+00
        -11   -1    0    0    0    0  0.00000000000E+00  0.00000000000E+00  0.45593999997E+02  0.45594000000E+02  0.51100000000E-03 0.  1.
         11   -1    0    0    0    0 -0.00000000000E+00 -0.00000000000E+00 -0.45593999997E+02  0.45594000000E+02  0.51100000000E-03 0. -1.
    9900012    2    1    2    0    0  0.97748839571E+01 -0.90720137136E+01  0.13146479966E+02  0.72461555471E+02  0.69999980690E+02 0.  0.
         12    1    1    2    0    0 -0.97748839571E+01  0.90720137136E+01 -0.13146479966E+02  0.18726444529E+02  0.00000000000E+00 0. -1.
         11    1    3    3    0    0  0.20888379425E+02  0.15631364587E+02 -0.76149466895E+01  0.27178141349E+02  0.51100000000E-03 0. -1.
        -11    1    3    3    0    0 -0.16161319664E+02 -0.58197126289E+01  0.57885786934E+00  0.17186983012E+02  0.51100000000E-03 0.  1.
        -12    1    3    3    0    0  0.50478241961E+01 -0.18883665672E+02  0.20182568786E+02  0.28096431110E+02  0.00000000000E+00 0.  1.
</event>
<event>
 7    1  0.2876796E-013  0.7246154E+02  0.7816164E-02  0.1226708E+00
        -11   -1    0    0    0    0  0.00000000000E+00  0.00000000000E+00  0.45593999997E+02  0.45594000000E+02  0.51100000000E-03 0. -1.
         11   -1    0    0    0    0 -0.00000000000E+00 -0.00000000000E+00 -0.45593999997E+02  0.45594000000E+02  0.51100000000E-03 0.  1.
    9900012    2    1    2    0    0 -0.12215126247E+02 -0.13881918874E+02 -0.29603224772E+01  0.72461535036E+02  0.69999954070E+02 0.  0.
         12    1    1    2    0    0  0.12215126247E+02  0.13881918874E+02  0.29603224772E+01  0.18726464964E+02  0.00000000000E+00 0. -1.
         11    1    3    3    0    0  0.11648829655E+02  0.46073285679E+01  0.11305680473E+02  0.16874273912E+02  0.51100000000E-03 0. -1.
        -11    1    3    3    0    0  0.98554665336E+01 -0.16011913203E+02  0.22291246076E+00  0.18803225128E+02  0.51100000000E-03 0.  1.
         12    1    3    3    0    0 -0.33719422436E+02 -0.24773342397E+01 -0.14488915411E+02  0.36784035995E+02  0.00000000000E+00 0. -1.
</event>
<event>
 7    1  0.2876796E-013  0.7246159E+02  0.7816164E-02  0.1226708E+00
        -11   -1    0    0    0    0  0.00000000000E+00  0.00000000000E+00  0.45593999997E+02  0.45594000000E+02  0.51100000000E-03 0.  1.
         11   -1    0    0    0    0 -0.00000000000E+00 -0.00000000000E+00 -0.45593999997E+02  0.45594000000E+02  0.51100000000E-03 0. -1.
    9900012    2    1    2    0    0  0.18011026636E+02 -0.29792109356E+01  0.41719923404E+01  0.72461593554E+02  0.70000030300E+02 0.  0.
         12    1    1    2    0    0 -0.18011026636E+02  0.29792109356E+01 -0.41719923404E+01  0.18726406446E+02  0.00000000000E+00 0. -1.
         11    1    3    3    0    0 -0.17157901546E+01  0.49093248357E+01  0.31115131976E+01  0.60602739903E+01  0.51100000000E-03 0. -1.
        -11    1    3    3    0    0 -0.25595678346E-01  0.22034697203E+01  0.29920783563E+02  0.30001820331E+02  0.51100000000E-03 0.  1.
         12    1    3    3    0    0  0.19752412469E+02 -0.10092005492E+02 -0.28860304420E+02  0.36399499233E+02  0.00000000000E+00 0. -1.
</event>
<event>
 7    1  0.2876796E-013  0.7246153E+02  0.7816164E-02  0.1226708E+00
        -11   -1    0    0    0    0  0.00000000000E+00  0.00000000000E+00  0.45593999997E+02  0.45594000000E+02  0.51100000000E-03 0.  1.
         11   -1    0    0    0    0 -0.00000000000E+00 -0.00000000000E+00 -0.45593999997E+02  0.45594000000E+02  0.51100000000E-03 0. -1.
    9900012    2    1    2    0    0 -0.84872861753E+01 -0.73169380833E+01  0.15003633714E+02  0.72461531188E+02  0.69999949057E+02 0.  0.
         12    1    1    2    0    0  0.84872861753E+01  0.73169380833E+01 -0.15003633714E+02  0.18726468812E+02  0.00000000000E+00 0. -1.
         11    1    3    3    0    0  0.74496820453E+01 -0.13887390787E+02  0.19294290800E+01  0.15877030021E+02  0.51100000000E-03 0. -1.
        -11    1    3    3    0    0  0.98790098134E+00 -0.21896413335E+02  0.45298926367E+01  0.22381885373E+02  0.51100000000E-03 0.  1.
         12    1    3    3    0    0 -0.16924869202E+02  0.28466866039E+02  0.85443119976E+01  0.34202615794E+02  0.00000000000E+00 0. -1.
</event>
<event>
 7    1  0.2876796E-013  0.7246126E+02  0.7816164E-02  0.1226709E+00
        -11   -1    0    0    0    0  0.00000000000E+00  0.00000000000E+00  0.45593999997E+02  0.45594000000E+02  0.51100000000E-03 0. -1.
         11   -1    0    0    0    0 -0.00000000000E+00 -0.00000000000E+00 -0.45593999997E+02  0.45594000000E+02  0.51100000000E-03 0.  1.
    9900012    2    1    2    0    0 -0.30372072020E+01  0.13184641459E+02 -0.12947254011E+02  0.72461260177E+02  0.69999596013E+02 0.  0.
         12    1    1    2    0    0  0.30372072020E+01 -0.13184641459E+02  0.12947254011E+02  0.18726739823E+02  0.00000000000E+00 0. -1.
         11    1    3    3    0    0 -0.78308502683E+01  0.56639400331E+01  0.12501899224E+02  0.15801895997E+02  0.51100000000E-03 0. -1.
        -11    1    3    3    0    0 -0.25766270912E+01  0.28155360597E+02 -0.10620928633E+02  0.30202110238E+02  0.51100000000E-03 0.  1.
         12    1    3    3    0    0  0.73702701575E+01 -0.20634659171E+02 -0.14828224602E+02  0.26457253942E+02  0.00000000000E+00 0. -1.
</event>
<event>
 7    1  0.2876796E-013  0.7246160E+02  0.7816164E-02  0.1226708E+00
        -11   -1    0    0    0    0  0.00000000000E+00  0.00000000000E+00  0.45593999997E+02  0.45594000000E+02  0.51100000000E-03 0.  1.
         11   -1    0    0    0    0 -0.00000000000E+00 -0.00000000000E+00 -0.45593999997E+02  0.45594000000E+02  0.51100000000E-03 0. -1.
    9900012    2    1    2    0    0  0.14512484788E+02 -0.10963919608E+02  0.44562685416E+01  0.72461599459E+02  0.70000037993E+02 0.  0.
         12    1    1    2    0    0 -0.14512484788E+02  0.10963919608E+02 -0.44562685416E+01  0.18726400541E+02  0.00000000000E+00 0. -1.
         11    1    3    3    0    0  0.16536835274E+02  0.10149924731E+02 -0.89225128233E+00  0.19423799977E+02  0.51100000000E-03 0. -1.
        -11    1    3    3    0    0 -0.43847339455E+01  0.13497308805E+02 -0.74899160152E+01  0.16046871313E+02  0.51100000000E-03 0.  1.
        -12    1    3    3    0    0  0.23603834601E+01 -0.34611153145E+02  0.12838435839E+02  0.36990928170E+02  0.00000000000E+00 0.  1.
</event>
<event>
 7    1  0.2876796E-013  0.7246155E+02  0.7816164E-02  0.1226708E+00
        -11   -1    0    0    0    0  0.00000000000E+00  0.00000000000E+00  0.45593999997E+02  0.45594000000E+02  0.51100000000E-03 0.  1.
         11   -1    0    0    0    0 -0.00000000000E+00 -0.00000000000E+00 -0.45593999997E+02  0.45594000000E+02  0.51100000000E-03 0. -1.
    9900012    2    1    2    0    0 -0.53430621254E+01 -0.16224356029E+02  0.76747553828E+01  0.72461550480E+02  0.69999974189E+02 0.  0.
         12    1    1    2    0    0  0.53430621254E+01  0.16224356029E+02 -0.76747553828E+01  0.18726449520E+02  0.00000000000E+00 0. -1.
         11    1    3    3    0    0  0.76663086630E+01  0.12948680504E+01 -0.11139119705E+02  0.13584143692E+02  0.51100000000E-03 0. -1.
        -11    1    3    3    0    0  0.32563361151E+01 -0.25648098433E+02 -0.74746130209E+01  0.26912794694E+02  0.51100000000E-03 0.  1.
        -12    1    3    3    0    0 -0.16265706904E+02  0.81288743543E+01  0.26288488108E+02  0.31964612095E+02  0.00000000000E+00 0.  1.
</event>
<event>
 7    1  0.2876796E-013  0.7246153E+02  0.7816164E-02  0.1226708E+00
        -11   -1    0    0    0    0  0.00000000000E+00  0.00000000000E+00  0.45593999997E+02  0.45594000000E+02  0.51100000000E-03 0. -1.
         11   -1    0    0    0    0 -0.00000000000E+00 -0.00000000000E+00 -0.45593999997E+02  0.45594000000E+02  0.51100000000E-03 0.  1.
    9900012    2    1    2    0    0 -0.60561063281E+01  0.10418112263E+02 -0.14334130554E+02  0.72461527142E+02  0.69999943786E+02 0.  0.
         12    1    1    2    0    0  0.60561063281E+01 -0.10418112263E+02  0.14334130554E+02  0.18726472858E+02  0.00000000000E+00 0. -1.
         11    1    3    3    0    0 -0.84166414758E+01 -0.17386185933E+01  0.90689184663E+00  0.86420542366E+01  0.51100000000E-03 0. -1.
        -11    1    3    3    0    0 -0.49187012689E+01 -0.12314363956E+02 -0.31068945272E+02  0.33780416552E+02  0.51100000000E-03 0.  1.
         12    1    3    3    0    0  0.72792364165E+01  0.24471094813E+02  0.15827922872E+02  0.30039056353E+02  0.00000000000E+00 0. -1.
</event>
<event>
 7    1  0.2876796E-013  0.7246161E+02  0.7816164E-02  0.1226708E+00
        -11   -1    0    0    0    0  0.00000000000E+00  0.00000000000E+00  0.45593999997E+02  0.45594000000E+02  0.51100000000E-03 0. -1.
         11   -1    0    0    0    0 -0.00000000000E+00 -0.00000000000E+00 -0.45593999997E+02  0.45594000000E+02  0.51100000000E-03 0.  1.
    9900012    2    1    2    0    0  0.82183757660E+01  0.11028058566E+02 -0.12708973929E+02  0.72461607013E+02  0.70000047833E+02 0.  0.
         12    1    1    2    0    0 -0.82183757660E+01 -0.11028058566E+02  0.12708973929E+02  0.18726392987E+02  0.00000000000E+00 0. -1.
         11    1    3    3    0    0  0.10900013107E+01  0.39479302031E+01  0.88438291420E+01  0.97461566733E+01  0.51100000000E-03 0. -1.
        -11    1    3    3    0    0  0.14792296669E+01  0.22254188435E+02  0.12097058734E+02  0.25372738394E+02  0.51100000000E-03 0.  1.
        -12    1    3    3    0    0  0.56491447884E+01 -0.15174060072E+02 -0.33649861806E+02  0.37342711946E+02  0.00000000000E+00 0.  1.
</event>
<event>
 7    1  0.2876796E-013  0.7246157E+02  0.7816164E-02  0.1226708E+00
        -11   -1    0    0    0    0  0.00000000000E+00  0.00000000000E+00  0.45593999997E+02  0.45594000000E+02  0.51100000000E-03 0.  1.
         11   -1    0    0    0    0 -0.00000000000E+00 -0.00000000000E+00 -0.45593999997E+02  0.45594000000E+02  0.51100000000E-03 0. -1.
    9900012    2    1    2    0    0 -0.31090899126E+01 -0.17221001544E+02  0.66670730732E+01  0.72461569544E+02  0.69999999023E+02 0.  0.
         12    1    1    2    0    0  0.31090899126E+01  0.17221001544E+02 -0.66670730732E+01  0.18726430456E+02  0.00000000000E+00 0. -1.
         11    1    3    3    0    0  0.93086964149E+01  0.37414655666E+01 -0.55392334813E+01  0.11460082956E+02  0.51100000000E-03 0. -1.
        -11    1    3    3    0    0  0.18807247375E+02  0.42079630258E+01  0.72447894919E+01  0.20588989332E+02  0.51100000000E-03 0.  1.
        -12    1    3    3    0    0 -0.31225033703E+02 -0.25170430136E+02  0.49615170626E+01  0.40412497257E+02  0.00000000000E+00 0.  1.
</event>
<event>
 7    1  0.2876796E-013  0.7246154E+02  0.7816164E-02  0.1226708E+00
        -11   -1    0    0    0    0  0.00000000000E+00  0.00000000000E+00  0.45593999997E+02  0.45594000000E+02  0.51100000000E-03 0. -1.
         11   -1    0    0    0    0 -0.00000000000E+00 -0.00000000000E+00 -0.45593999997E+02  0.45594000000E+02  0.51100000000E-03 0.  1.
    9900012    2    1    2    0    0 -0.11233783440E+02  0.38526231837E+01 -0.14478940534E+02  0.72461539716E+02  0.69999960166E+02 0.  0.
         12    1    1    2    0    0  0.11233783440E+02 -0.38526231837E+01  0.14478940534E+02  0.18726460284E+02  0.00000000000E+00 0. -1.
         11    1    3    3    0    0 -0.29761289853E+01  0.22887843717E+01  0.16024568517E+02  0.16458513726E+02  0.51100000000E-03 0.  1.
        -11    1    3    3    0    0 -0.51633343318E+01  0.18563740206E+02  0.18165901799E+01  0.19353874858E+02  0.51100000000E-03 0. -1.
        -12    1    3    3    0    0 -0.30943201230E+01 -0.16999901394E+02 -0.32320099231E+02  0.36649151133E+02  0.00000000000E+00 0.  1.
</event>
<event>
 7    1  0.2876796E-013  0.7246157E+02  0.7816164E-02  0.1226708E+00
        -11   -1    0    0    0    0  0.00000000000E+00  0.00000000000E+00  0.45593999997E+02  0.45594000000E+02  0.51100000000E-03 0. -1.
         11   -1    0    0    0    0 -0.00000000000E+00 -0.00000000000E+00 -0.45593999997E+02  0.45594000000E+02  0.51100000000E-03 0.  1.
    9900012    2    1    2    0    0  0.44413549730E+01 -0.65003993619E+00 -0.18180506557E+02  0.72461574699E+02  0.70000005737E+02 0.  0.
         12    1    1    2    0    0 -0.44413549730E+01  0.65003993619E+00  0.18180506557E+02  0.18726425301E+02  0.00000000000E+00 0. -1.
         11    1    3    3    0    0 -0.20072104025E+02 -0.18100777407E+02 -0.10459634864E+02  0.28981571119E+02  0.51100000000E-03 0. -1.
        -11    1    3    3    0    0  0.62500342683E+00  0.10397172528E+02 -0.14324815263E+02  0.17711356765E+02  0.51100000000E-03 0.  1.
        -12    1    3    3    0    0  0.23888455572E+02  0.70535649429E+01  0.66039435703E+01  0.25768646815E+02  0.00000000000E+00 0.  1.
</event>
<event>
 7    1  0.2876796E-013  0.7246158E+02  0.7816164E-02  0.1226708E+00
        -11   -1    0    0    0    0  0.00000000000E+00  0.00000000000E+00  0.45593999997E+02  0.45594000000E+02  0.51100000000E-03 0. -1.
         11   -1    0    0    0    0 -0.00000000000E+00 -0.00000000000E+00 -0.45593999997E+02  0.45594000000E+02  0.51100000000E-03 0.  1.
    9900012    2    1    2    0    0 -0.16613576430E+02  0.21124147736E+01  0.83788698836E+01  0.72461583404E+02  0.70000017078E+02 0.  0.
         12    1    1    2    0    0  0.16613576430E+02 -0.21124147736E+01 -0.83788698836E+01  0.18726416596E+02  0.00000000000E+00 0. -1.
         11    1    3    3    0    0  0.71568596988E+01 -0.79578116516E+00  0.11923570152E+02  0.13929301269E+02  0.51100000000E-03 0.  1.
        -11    1    3    3    0    0  0.73969180317E+01  0.16596756592E+02  0.11297675168E+02  0.21396359274E+02  0.51100000000E-03 0. -1.
        -12    1    3    3    0    0 -0.31167354161E+02 -0.13688560653E+02 -0.14842375437E+02  0.37135922861E+02  0.00000000000E+00 0.  1.
</event>
<event>
 7    1  0.2876796E-013  0.7246150E+02  0.7816164E-02  0.1226708E+00
        -11   -1    0    0    0    0  0.00000000000E+00  0.00000000000E+00  0.45593999997E+02  0.45594000000E+02  0.51100000000E-03 0.  1.
         11   -1    0    0    0    0 -0.00000000000E+00 -0.00000000000E+00 -0.45593999997E+02  0.45594000000E+02  0.51100000000E-03 0. -1.
    9900012    2    1    2    0    0  0.77742613202E+01  0.11732759092E+02  0.12352538412E+02  0.72461495248E+02  0.69999902239E+02 0.  0.
         12    1    1    2    0    0 -0.77742613202E+01 -0.11732759092E+02 -0.12352538412E+02  0.18726504752E+02  0.00000000000E+00 0. -1.
         11    1    3    3    0    0  0.14760565514E+02 -0.19100174711E+02  0.48231571600E+01  0.24616129134E+02  0.51100000000E-03 0. -1.
        -11    1    3    3    0    0  0.87240158334E+01  0.13859526880E+02  0.16303894099E+02  0.23108697511E+02  0.51100000000E-03 0.  1.
        -12    1    3    3    0    0 -0.15710320027E+02  0.16973406922E+02 -0.87745128465E+01  0.24736668604E+02  0.00000000000E+00 0.  1.
</event>
<event>
 7    1  0.2876796E-013  0.7246153E+02  0.7816164E-02  0.1226708E+00
        -11   -1    0    0    0    0  0.00000000000E+00  0.00000000000E+00  0.45593999997E+02  0.45594000000E+02  0.51100000000E-03 0.  1.
         11   -1    0    0    0    0 -0.00000000000E+00 -0.00000000000E+00 -0.45593999997E+02  0.45594000000E+02  0.51100000000E-03 0. -1.
    9900012    2    1    2    0    0  0.13955137359E+02  0.12487354479E+02 -0.25567466132E-01  0.72461533855E+02  0.69999952531E+02 0.  0.
         12    1    1    2    0    0 -0.13955137359E+02 -0.12487354479E+02  0.25567466132E-01  0.18726466145E+02  0.00000000000E+00 0. -1.
         11    1    3    3    0    0 -0.15713559775E+01 -0.99350630548E+01 -0.78845192119E+01  0.12780464818E+02  0.51100000000E-03 0. -1.
        -11    1    3    3    0    0  0.23448616144E+02 -0.52678703480E+01 -0.97363887206E+01  0.25930393801E+02  0.51100000000E-03 0.  1.
        -12    1    3    3    0    0 -0.79221228076E+01  0.27690287882E+02  0.17595340466E+02  0.33750675236E+02  0.00000000000E+00 0.  1.
</event>
<event>
 7    1  0.2876796E-013  0.7246152E+02  0.7816164E-02  0.1226708E+00
        -11   -1    0    0    0    0  0.00000000000E+00  0.00000000000E+00  0.45593999997E+02  0.45594000000E+02  0.51100000000E-03 0. -1.
         11   -1    0    0    0    0 -0.00000000000E+00 -0.00000000000E+00 -0.45593999997E+02  0.45594000000E+02  0.51100000000E-03 0.  1.
    9900012    2    1    2    0    0  0.15436922564E+02  0.88773906390E+01  0.57943296957E+01  0.72461524106E+02  0.69999939831E+02 0.  0.
         12    1    1    2    0    0 -0.15436922564E+02 -0.88773906390E+01 -0.57943296957E+01  0.18726475894E+02  0.00000000000E+00 0. -1.
         11    1    3    3    0    0 -0.17330425302E+02  0.53631025688E+01 -0.97746072432E+00  0.18167606888E+02  0.51100000000E-03 0. -1.
        -11    1    3    3    0    0 -0.43762196081E+01 -0.77972119568E+01 -0.87202659947E+01  0.12489629764E+02  0.51100000000E-03 0.  1.
         12    1    3    3    0    0  0.37143567474E+02  0.11311500027E+02  0.15492056415E+02  0.41804287454E+02  0.00000000000E+00 0. -1.
</event>
<event>
 7    1  0.2876796E-013  0.7246157E+02  0.7816164E-02  0.1226708E+00
        -11   -1    0    0    0    0  0.00000000000E+00  0.00000000000E+00  0.45593999997E+02  0.45594000000E+02  0.51100000000E-03 0.  1.
         11   -1    0    0    0    0 -0.00000000000E+00 -0.00000000000E+00 -0.45593999997E+02  0.45594000000E+02  0.51100000000E-03 0. -1.
    9900012    2    1    2    0    0  0.52411533304E+01 -0.30159506443E+01  0.17723249358E+02  0.72461569098E+02  0.69999998442E+02 0.  0.
         12    1    1    2    0    0 -0.52411533304E+01  0.30159506443E+01 -0.17723249358E+02  0.18726430902E+02  0.00000000000E+00 0. -1.
         11    1    3    3    0    0  0.17435899806E+02  0.11128974969E+02 -0.58572376309E+01  0.21498184083E+02  0.51100000000E-03 0. -1.
        -11    1    3    3    0    0  0.54746499679E+01  0.73155683239E+01  0.21173351557E+02  0.23060792453E+02  0.51100000000E-03 0.  1.
         12    1    3    3    0    0 -0.17669396444E+02 -0.21460493937E+02  0.24071354316E+01  0.27902592562E+02  0.00000000000E+00 0. -1.
</event>
<event>
 7    1  0.3534734E-013  0.7246167E+02  0.7816164E-02  0.1226708E+00
        -11   -1    0    0    0    0  0.00000000000E+00  0.00000000000E+00  0.45593999997E+02  0.45594000000E+02  0.51100000000E-03 0. -1.
         11   -1    0    0    0    0 -0.00000000000E+00 -0.00000000000E+00 -0.45593999997E+02  0.45594000000E+02  0.51100000000E-03 0.  1.
    9900012    2    1    2    0    0 -0.38816470959E+01  0.10804110806E+02 -0.14794575962E+02  0.72461669009E+02  0.70000128594E+02 0.  0.
         12    1    1    2    0    0  0.38816470959E+01 -0.10804110806E+02  0.14794575962E+02  0.18726330991E+02  0.00000000000E+00 0. -1.
         11    1    3    3    0    0  0.13029132748E+02  0.67350219564E+01  0.14622244074E+02  0.20710597358E+02  0.51100000000E-03 0. -1.
        -11    1    3    3    0    0  0.12550310629E+02  0.25953200632E+01 -0.11625679022E+02  0.17303248137E+02  0.51100000000E-03 0.  1.
        -12    1    3    3    0    0 -0.29461090472E+02  0.14737687860E+01 -0.17791141014E+02  0.34447823514E+02  0.00000000000E+00 0.  1.
</event>
<event>
 7    1  0.2876796E-013  0.7246152E+02  0.7816164E-02  0.1226708E+00
        -11   -1    0    0    0    0  0.00000000000E+00  0.00000000000E+00  0.45593999997E+02  0.45594000000E+02  0.51100000000E-03 0.  1.
         11   -1    0    0    0    0 -0.00000000000E+00 -0.00000000000E+00 -0.45593999997E+02  0.45594000000E+02  0.51100000000E-03 0. -1.
    9900012    2    1    2    0    0 -0.14829386117E+02 -0.50835053762E+01  0.10243454852E+02  0.72461519102E+02  0.69999933313E+02 0.  0.
         12    1    1    2    0    0  0.14829386117E+02  0.50835053762E+01 -0.10243454852E+02  0.18726480898E+02  0.00000000000E+00 0. -1.
         11    1    3    3    0    0 -0.84339836632E+01 -0.42383716155E+01 -0.54715826980E+01  0.10910274601E+02  0.51100000000E-03 0. -1.
        -11    1    3    3    0    0  0.11671731328E+02  0.12331789761E+02 -0.15609245250E+02  0.23064060537E+02  0.51100000000E-03 0.  1.
         12    1    3    3    0    0 -0.18067133782E+02 -0.13176923522E+02  0.31324282800E+02  0.38487183965E+02  0.00000000000E+00 0. -1.
</event>
<event>
 7    1  0.2876796E-013  0.7246159E+02  0.7816164E-02  0.1226708E+00
        -11   -1    0    0    0    0  0.00000000000E+00  0.00000000000E+00  0.45593999997E+02  0.45594000000E+02  0.51100000000E-03 0.  1.
         11   -1    0    0    0    0 -0.00000000000E+00 -0.00000000000E+00 -0.45593999997E+02  0.45594000000E+02  0.51100000000E-03 0. -1.
    9900012    2    1    2    0    0 -0.12300124586E+02 -0.12589594402E+02  0.63943386415E+01  0.72461587672E+02  0.70000022637E+02 0.  0.
         12    1    1    2    0    0  0.12300124586E+02  0.12589594402E+02 -0.63943386415E+01  0.18726412328E+02  0.00000000000E+00 0. -1.
         11    1    3    3    0    0 -0.90705149312E+01 -0.10364820190E+02  0.26302302732E+01  0.14022191350E+02  0.51100000000E-03 0. -1.
        -11    1    3    3    0    0 -0.81981625241E+01 -0.23244943976E+02  0.19736060354E+02  0.31576088544E+02  0.51100000000E-03 0.  1.
         12    1    3    3    0    0  0.49685528696E+01  0.21020169764E+02 -0.15971951985E+02  0.26863307778E+02  0.00000000000E+00 0. -1.
</event>
<event>
 7    1  0.2876796E-013  0.7246169E+02  0.7816164E-02  0.1226708E+00
        -11   -1    0    0    0    0  0.00000000000E+00  0.00000000000E+00  0.45593999997E+02  0.45594000000E+02  0.51100000000E-03 0.  1.
         11   -1    0    0    0    0 -0.00000000000E+00 -0.00000000000E+00 -0.45593999997E+02  0.45594000000E+02  0.51100000000E-03 0. -1.
    9900012    2    1    2    0    0  0.18363328374E+02 -0.55170316963E+00 -0.36274390881E+01  0.72461694446E+02  0.70000161730E+02 0.  0.
         12    1    1    2    0    0 -0.18363328374E+02  0.55170316963E+00  0.36274390881E+01  0.18726305554E+02  0.00000000000E+00 0. -1.
         11    1    3    3    0    0  0.17487083394E+02  0.11661302796E+02 -0.14596019500E+02  0.25589604414E+02  0.51100000000E-03 0. -1.
        -11    1    3    3    0    0 -0.85570374023E+00  0.15914210958E+02 -0.15970609357E+01  0.16017020422E+02  0.51100000000E-03 0.  1.
        -12    1    3    3    0    0  0.17319487201E+01 -0.28127216923E+02  0.12565641348E+02  0.30855069611E+02  0.00000000000E+00 0.  1.
</event>
<event>
 7    1  0.2876796E-013  0.7246158E+02  0.7816164E-02  0.1226708E+00
        -11   -1    0    0    0    0  0.00000000000E+00  0.00000000000E+00  0.45593999997E+02  0.45594000000E+02  0.51100000000E-03 0.  1.
         11   -1    0    0    0    0 -0.00000000000E+00 -0.00000000000E+00 -0.45593999997E+02  0.45594000000E+02  0.51100000000E-03 0. -1.
    9900012    2    1    2    0    0 -0.16568091196E+02 -0.55741051103E+01  0.67161330714E+01  0.72461581841E+02  0.70000015041E+02 0.  0.
         12    1    1    2    0    0  0.16568091196E+02  0.55741051103E+01 -0.67161330714E+01  0.18726418159E+02  0.00000000000E+00 0. -1.
         11    1    3    3    0    0 -0.14591075137E+02  0.69687767538E+01  0.11642316292E+02  0.19925030791E+02  0.51100000000E-03 0. -1.
        -11    1    3    3    0    0 -0.87490454512E+01 -0.85989916250E+01  0.21619958833E+02  0.24857817151E+02  0.51100000000E-03 0.  1.
         12    1    3    3    0    0  0.67720293924E+01 -0.39438902391E+01 -0.26546142054E+02  0.27678733899E+02  0.00000000000E+00 0. -1.
</event>
<event>
 7    1  0.2876796E-013  0.7246161E+02  0.7816164E-02  0.1226708E+00
        -11   -1    0    0    0    0  0.00000000000E+00  0.00000000000E+00  0.45593999997E+02  0.45594000000E+02  0.51100000000E-03 0.  1.
         11   -1    0    0    0    0 -0.00000000000E+00 -0.00000000000E+00 -0.45593999997E+02  0.45594000000E+02  0.51100000000E-03 0. -1.
    9900012    2    1    2    0    0 -0.42746564408E+01 -0.52514702361E+01  0.17459296540E+02  0.72461610519E+02  0.70000052400E+02 0.  0.
         12    1    1    2    0    0  0.42746564408E+01  0.52514702361E+01 -0.17459296540E+02  0.18726389481E+02  0.00000000000E+00 0. -1.
         11    1    3    3    0    0  0.48392275256E+01  0.33183045180E+01  0.92110054659E+00  0.59395028745E+01  0.51100000000E-03 0. -1.
        -11    1    3    3    0    0  0.24202592041E+02 -0.17117714674E+02  0.40017774811E+01  0.29913138258E+02  0.51100000000E-03 0.  1.
         12    1    3    3    0    0 -0.33316476008E+02  0.85479399194E+01  0.12536418512E+02  0.36608969387E+02  0.00000000000E+00 0. -1.
</event>
<event>
 7    1  0.2876796E-013  0.7246155E+02  0.7816164E-02  0.1226708E+00
        -11   -1    0    0    0    0  0.00000000000E+00  0.00000000000E+00  0.45593999997E+02  0.45594000000E+02  0.51100000000E-03 0.  1.
         11   -1    0    0    0    0 -0.00000000000E+00 -0.00000000000E+00 -0.45593999997E+02  0.45594000000E+02  0.51100000000E-03 0. -1.
    9900012    2    1    2    0    0 -0.75278746298E+00 -0.33051924835E+01  0.18417080804E+02  0.72461552081E+02  0.69999976274E+02 0.  0.
         12    1    1    2    0    0  0.75278746298E+00  0.33051924835E+01 -0.18417080804E+02  0.18726447919E+02  0.00000000000E+00 0. -1.
         11    1    3    3    0    0  0.52074002892E+01  0.90792409146E+01 -0.17456832668E+02  0.20354130795E+02  0.51100000000E-03 0. -1.
        -11    1    3    3    0    0  0.14502132291E+02 -0.53993042735E+01  0.10163020545E+02  0.18513544082E+02  0.51100000000E-03 0.  1.
         12    1    3    3    0    0 -0.20462320044E+02 -0.69851291246E+01  0.25710892928E+02  0.33593877204E+02  0.00000000000E+00 0. -1.
</event>
<event>
 7    1  0.2876796E-013  0.7246157E+02  0.7816164E-02  0.1226708E+00
        -11   -1    0    0    0    0  0.00000000000E+00  0.00000000000E+00  0.45593999997E+02  0.45594000000E+02  0.51100000000E-03 0. -1.
         11   -1    0    0    0    0 -0.00000000000E+00 -0.00000000000E+00 -0.45593999997E+02  0.45594000000E+02  0.51100000000E-03 0.  1.
    9900012    2    1    2    0    0 -0.97798306086E+01  0.27092527648E+01  0.15738302932E+02  0.72461566371E+02  0.69999994889E+02 0.  0.
         12    1    1    2    0    0  0.97798306086E+01 -0.27092527648E+01 -0.15738302932E+02  0.18726433629E+02  0.00000000000E+00 0. -1.
         11    1    3    3    0    0 -0.12018315473E+02 -0.13601956984E+02  0.14647724187E+02  0.23323999758E+02  0.51100000000E-03 0. -1.
        -11    1    3    3    0    0 -0.11015511343E+02 -0.57610555175E+01 -0.14452842548E+02  0.19063470534E+02  0.51100000000E-03 0.  1.
         12    1    3    3    0    0  0.13253996208E+02  0.22072265266E+02  0.15543421294E+02  0.30074096079E+02  0.00000000000E+00 0. -1.
</event>
<event>
 7    1  0.2876796E-013  0.7246156E+02  0.7816164E-02  0.1226708E+00
        -11   -1    0    0    0    0  0.00000000000E+00  0.00000000000E+00  0.45593999997E+02  0.45594000000E+02  0.51100000000E-03 0. -1.
         11   -1    0    0    0    0 -0.00000000000E+00 -0.00000000000E+00 -0.45593999997E+02  0.45594000000E+02  0.51100000000E-03 0.  1.
    9900012    2    1    2    0    0 -0.14757112413E+02 -0.11420943595E+02 -0.15714103841E+01  0.72461557467E+02  0.69999983290E+02 0.  0.
         12    1    1    2    0    0  0.14757112413E+02  0.11420943595E+02  0.15714103841E+01  0.18726442533E+02  0.00000000000E+00 0. -1.
         11    1    3    3    0    0 -0.16157140262E+02  0.23073718174E+02  0.23947569570E+01  0.28269851661E+02  0.51100000000E-03 0. -1.
        -11    1    3    3    0    0 -0.11958510750E+02 -0.13769949155E+02 -0.65982219306E+01  0.19394690304E+02  0.51100000000E-03 0.  1.
         12    1    3    3    0    0  0.13358538599E+02 -0.20724712613E+02  0.26320545895E+01  0.24797015501E+02  0.00000000000E+00 0. -1.
</event>
<event>
 7    1  0.2876796E-013  0.7246157E+02  0.7816164E-02  0.1226708E+00
        -11   -1    0    0    0    0  0.00000000000E+00  0.00000000000E+00  0.45593999997E+02  0.45594000000E+02  0.51100000000E-03 0. -1.
         11   -1    0    0    0    0 -0.00000000000E+00 -0.00000000000E+00 -0.45593999997E+02  0.45594000000E+02  0.51100000000E-03 0.  1.
    9900012    2    1    2    0    0 -0.10929035034E+02 -0.10545662833E+02 -0.10955556793E+02  0.72461573859E+02  0.70000004644E+02 0.  0.
         12    1    1    2    0    0  0.10929035034E+02  0.10545662833E+02  0.10955556793E+02  0.18726426141E+02  0.00000000000E+00 0. -1.
         11    1    3    3    0    0 -0.10598112215E+02 -0.36226435218E+01  0.15054705745E+01  0.11300883617E+02  0.51100000000E-03 0. -1.
        -11    1    3    3    0    0  0.11715194301E+02 -0.29130240385E+02  0.30008200453E+01  0.31540792692E+02  0.51100000000E-03 0.  1.
         12    1    3    3    0    0 -0.12046117121E+02  0.22207221074E+02 -0.15461847413E+02  0.29619897551E+02  0.00000000000E+00 0. -1.
</event>
<event>
 7    1  0.2876796E-013  0.7246123E+02  0.7816164E-02  0.1226709E+00
        -11   -1    0    0    0    0  0.00000000000E+00  0.00000000000E+00  0.45593999997E+02  0.45594000000E+02  0.51100000000E-03 0.  1.
         11   -1    0    0    0    0 -0.00000000000E+00 -0.00000000000E+00 -0.45593999997E+02  0.45594000000E+02  0.51100000000E-03 0. -1.
    9900012    2    1    2    0    0  0.99192797658E+01  0.13701412501E+02  0.80356231923E+01  0.72461226234E+02  0.69999551796E+02 0.  0.
         12    1    1    2    0    0 -0.99192797658E+01 -0.13701412501E+02 -0.80356231923E+01  0.18726773766E+02  0.00000000000E+00 0. -1.
         11    1    3    3    0    0  0.24072004150E+02  0.13291692281E+02 -0.17610420401E+02  0.32653596654E+02  0.51100000000E-03 0. -1.
        -11    1    3    3    0    0  0.18437032753E+01  0.63639726455E+01  0.21140322835E+02  0.22154291670E+02  0.51100000000E-03 0.  1.
        -12    1    3    3    0    0 -0.15996427659E+02 -0.59542524249E+01  0.45057207587E+01  0.17653337910E+02  0.00000000000E+00 0.  1.
</event>
<event>
 7    1  0.2876796E-013  0.7246156E+02  0.7816164E-02  0.1226708E+00
        -11   -1    0    0    0    0  0.00000000000E+00  0.00000000000E+00  0.45593999997E+02  0.45594000000E+02  0.51100000000E-03 0.  1.
         11   -1    0    0    0    0 -0.00000000000E+00 -0.00000000000E+00 -0.45593999997E+02  0.45594000000E+02  0.51100000000E-03 0. -1.
    9900012    2    1    2    0    0 -0.32403844367E+01  0.10470999369E+02  0.15183469047E+02  0.72461557429E+02  0.69999983240E+02 0.  0.
         12    1    1    2    0    0  0.32403844367E+01 -0.10470999369E+02 -0.15183469047E+02  0.18726442571E+02  0.00000000000E+00 0. -1.
         11    1    3    3    0    0 -0.13779684993E+02  0.75055453836E+00  0.11553271221E+02  0.17997808944E+02  0.51100000000E-03 0. -1.
        -11    1    3    3    0    0 -0.34935050748E+01 -0.38980421203E+01  0.24973931197E+02  0.25516593616E+02  0.51100000000E-03 0.  1.
         12    1    3    3    0    0  0.14032805631E+02  0.13618486951E+02 -0.21343733372E+02  0.28947154868E+02  0.00000000000E+00 0. -1.
</event>
<event>
 7    1  0.2876796E-013  0.7246150E+02  0.7816164E-02  0.1226708E+00
        -11   -1    0    0    0    0  0.00000000000E+00  0.00000000000E+00  0.45593999997E+02  0.45594000000E+02  0.51100000000E-03 0.  1.
         11   -1    0    0    0    0 -0.00000000000E+00 -0.00000000000E+00 -0.45593999997E+02  0.45594000000E+02  0.51100000000E-03 0. -1.
    9900012    2    1    2    0    0  0.13982180496E+01  0.62290129303E+01  0.17604718715E+02  0.72461501747E+02  0.69999910704E+02 0.  0.
         12    1    1    2    0    0 -0.13982180496E+01 -0.62290129303E+01 -0.17604718715E+02  0.18726498253E+02  0.00000000000E+00 0. -1.
         11    1    3    3    0    0 -0.10582749558E+02 -0.14463888851E+01  0.11337055237E+02  0.15576117960E+02  0.51100000000E-03 0. -1.
        -11    1    3    3    0    0 -0.36564536270E+01  0.46343685469E+01  0.28739659769E+02  0.29339650115E+02  0.51100000000E-03 0.  1.
         12    1    3    3    0    0  0.15637421234E+02  0.30410332685E+01 -0.22471996291E+02  0.27545733672E+02  0.00000000000E+00 0. -1.
</event>
<event>
 7    1  0.2876796E-013  0.7246157E+02  0.7816164E-02  0.1226708E+00
        -11   -1    0    0    0    0  0.00000000000E+00  0.00000000000E+00  0.45593999997E+02  0.45594000000E+02  0.51100000000E-03 0. -1.
         11   -1    0    0    0    0 -0.00000000000E+00 -0.00000000000E+00 -0.45593999997E+02  0.45594000000E+02  0.51100000000E-03 0.  1.
    9900012    2    1    2    0    0 -0.14557089214E+02  0.50486551510E+01  0.10643380833E+02  0.72461566256E+02  0.69999994739E+02 0.  0.
         12    1    1    2    0    0  0.14557089214E+02 -0.50486551510E+01 -0.10643380833E+02  0.18726433744E+02  0.00000000000E+00 0. -1.
         11    1    3    3    0    0 -0.79527269514E+00  0.40181967040E+01  0.45962226929E+01  0.61565921349E+01  0.51100000000E-03 0. -1.
        -11    1    3    3    0    0 -0.28383657945E+02 -0.17199986871E+02 -0.13508739985E+02  0.35832354695E+02  0.51100000000E-03 0.  1.
         12    1    3    3    0    0  0.14621841426E+02  0.18230445318E+02  0.19555898125E+02  0.30472619426E+02  0.00000000000E+00 0. -1.
</event>
<event>
 7    1  0.2876796E-013  0.7246160E+02  0.7816164E-02  0.1226708E+00
        -11   -1    0    0    0    0  0.00000000000E+00  0.00000000000E+00  0.45593999997E+02  0.45594000000E+02  0.51100000000E-03 0. -1.
         11   -1    0    0    0    0 -0.00000000000E+00 -0.00000000000E+00 -0.45593999997E+02  0.45594000000E+02  0.51100000000E-03 0.  1.
    9900012    2    1    2    0    0  0.11579413834E+02 -0.62653347132E+01 -0.13316938773E+02  0.72461598795E+02  0.70000037127E+02 0.  0.
         12    1    1    2    0    0 -0.11579413834E+02  0.62653347132E+01  0.13316938773E+02  0.18726401205E+02  0.00000000000E+00 0. -1.
         11    1    3    3    0    0  0.19818351899E+02 -0.11015141384E+02  0.55540228238E+01  0.23344112352E+02  0.51100000000E-03 0. -1.
        -11    1    3    3    0    0  0.15922544617E+02  0.99693937063E+01 -0.15121507703E+02  0.24115891720E+02  0.51100000000E-03 0.  1.
        -12    1    3    3    0    0 -0.24161482682E+02 -0.52195870353E+01 -0.37494538940E+01  0.25001594724E+02  0.00000000000E+00 0.  1.
</event>
<event>
 7    1  0.2876796E-013  0.7246168E+02  0.7816164E-02  0.1226708E+00
        -11   -1    0    0    0    0  0.00000000000E+00  0.00000000000E+00  0.45593999997E+02  0.45594000000E+02  0.51100000000E-03 0.  1.
         11   -1    0    0    0    0 -0.00000000000E+00 -0.00000000000E+00 -0.45593999997E+02  0.45594000000E+02  0.51100000000E-03 0. -1.
    9900012    2    1    2    0    0 -0.11859890926E+02 -0.14368381260E+02  0.18888710730E+01  0.72461675568E+02  0.70000137139E+02 0.  0.
         12    1    1    2    0    0  0.11859890926E+02  0.14368381260E+02 -0.18888710730E+01  0.18726324432E+02  0.00000000000E+00 0. -1.
         11    1    3    3    0    0 -0.17655916952E+02 -0.45814691865E+01 -0.20504675893E+02  0.27443815278E+02  0.51100000000E-03 0. -1.
        -11    1    3    3    0    0 -0.17369279364E+01  0.10514498783E+02 -0.35428305667E+01  0.11230460898E+02  0.51100000000E-03 0.  1.
         12    1    3    3    0    0  0.75329539626E+01 -0.20301410856E+02  0.25936377532E+02  0.33787399391E+02  0.00000000000E+00 0. -1.
</event>
<event>
 7    1  0.2876796E-013  0.7246154E+02  0.7816164E-02  0.1226708E+00
        -11   -1    0    0    0    0  0.00000000000E+00  0.00000000000E+00  0.45593999997E+02  0.45594000000E+02  0.51100000000E-03 0.  1.
         11   -1    0    0    0    0 -0.00000000000E+00 -0.00000000000E+00 -0.45593999997E+02  0.45594000000E+02  0.51100000000E-03 0. -1.
    9900012    2    1    2    0    0  0.10470896343E+02 -0.10257936602E+02  0.11653985258E+02  0.72461539951E+02  0.69999960472E+02 0.  0.
         12    1    1    2    0    0 -0.10470896343E+02  0.10257936602E+02 -0.11653985258E+02  0.18726460049E+02  0.00000000000E+00 0. -1.
         11    1    3    3    0    0 -0.80279011100E+01 -0.27553305602E+02  0.16681483647E+01  0.28747427103E+02  0.51100000000E-03 0. -1.
        -11    1    3    3    0    0  0.20399153561E+01 -0.98911012110E+01  0.58349695162E+01  0.11663704701E+02  0.51100000000E-03 0.  1.
        -12    1    3    3    0    0  0.16458882097E+02  0.27186470211E+02  0.41508673775E+01  0.32050408147E+02  0.00000000000E+00 0.  1.
</event>
<event>
 7    1  0.2876796E-013  0.7246159E+02  0.7816164E-02  0.1226708E+00
        -11   -1    0    0    0    0  0.00000000000E+00  0.00000000000E+00  0.45593999997E+02  0.45594000000E+02  0.51100000000E-03 0.  1.
         11   -1    0    0    0    0 -0.00000000000E+00 -0.00000000000E+00 -0.45593999997E+02  0.45594000000E+02  0.51100000000E-03 0. -1.
    9900012    2    1    2    0    0  0.85359689706E+01  0.17056920196E+01  0.16580292804E+02  0.72461594552E+02  0.70000031601E+02 0.  0.
         12    1    1    2    0    0 -0.85359689706E+01 -0.17056920196E+01 -0.16580292804E+02  0.18726405448E+02  0.00000000000E+00 0. -1.
         11    1    3    3    0    0 -0.22729177044E+02 -0.58577040019E+01 -0.12801903143E+01  0.23506745261E+02  0.51100000000E-03 0.  1.
        -11    1    3    3    0    0 -0.36999316665E+01  0.45983205958E+01 -0.44330139664E+01  0.73814402203E+01  0.51100000000E-03 0. -1.
        -12    1    3    3    0    0  0.34965077681E+02  0.29650754258E+01  0.22293497084E+02  0.41573409071E+02  0.00000000000E+00 0.  1.
</event>
<event>
 7    1  0.2876796E-013  0.7246155E+02  0.7816164E-02  0.1226708E+00
        -11   -1    0    0    0    0  0.00000000000E+00  0.00000000000E+00  0.45593999997E+02  0.45594000000E+02  0.51100000000E-03 0.  1.
         11   -1    0    0    0    0 -0.00000000000E+00 -0.00000000000E+00 -0.45593999997E+02  0.45594000000E+02  0.51100000000E-03 0. -1.
    9900012    2    1    2    0    0 -0.78032822699E+01  0.16652985628E+02 -0.35308296159E+01  0.72461550729E+02  0.69999974513E+02 0.  0.
         12    1    1    2    0    0  0.78032822699E+01 -0.16652985628E+02  0.35308296159E+01  0.18726449271E+02  0.00000000000E+00 0. -1.
         11    1    3    3    0    0  0.20120845378E+02  0.16762968231E+02 -0.21638507242E+01  0.26277895138E+02  0.51100000000E-03 0. -1.
        -11    1    3    3    0    0 -0.20764277780E-03 -0.55118582528E+01  0.13144895388E+02  0.14253731318E+02  0.51100000000E-03 0.  1.
        -12    1    3    3    0    0 -0.27923920005E+02  0.54018756501E+01 -0.14511874280E+02  0.31929924274E+02  0.00000000000E+00 0.  1.
</event>
<event>
 7    1  0.2876796E-013  0.7246156E+02  0.7816164E-02  0.1226708E+00
        -11   -1    0    0    0    0  0.00000000000E+00  0.00000000000E+00  0.45593999997E+02  0.45594000000E+02  0.51100000000E-03 0.  1.
         11   -1    0    0    0    0 -0.00000000000E+00 -0.00000000000E+00 -0.45593999997E+02  0.45594000000E+02  0.51100000000E-03 0. -1.
    9900012    2    1    2    0    0  0.51779296192E+01  0.16088480806E+02  0.80640876253E+01  0.72461556690E+02  0.69999982278E+02 0.  0.
         12    1    1    2    0    0 -0.51779296192E+01 -0.16088480806E+02 -0.80640876253E+01  0.18726443310E+02  0.00000000000E+00 0. -1.
         11    1    3    3    0    0 -0.11912290826E+02 -0.83106696508E+01 -0.16409193772E+02  0.21914185891E+02  0.51100000000E-03 0. -1.
        -11    1    3    3    0    0 -0.41316466392E+01  0.18576820397E+02  0.20683794453E+01  0.19142804230E+02  0.51100000000E-03 0.  1.
        -12    1    3    3    0    0  0.21221867084E+02  0.58223300603E+01  0.22404901952E+02  0.31404566569E+02  0.00000000000E+00 0.  1.
</event>
<event>
 7    1  0.2876796E-013  0.7246148E+02  0.7816164E-02  0.1226708E+00
        -11   -1    0    0    0    0  0.00000000000E+00  0.00000000000E+00  0.45593999997E+02  0.45594000000E+02  0.51100000000E-03 0.  1.
         11   -1    0    0    0    0 -0.00000000000E+00 -0.00000000000E+00 -0.45593999997E+02  0.45594000000E+02  0.51100000000E-03 0. -1.
    9900012    2    1    2    0    0 -0.18654733841E+02 -0.12031221832E+01  0.11117165219E+01  0.72461481068E+02  0.69999883766E+02 0.  0.
         12    1    1    2    0    0  0.18654733841E+02  0.12031221832E+01 -0.11117165219E+01  0.18726518932E+02  0.00000000000E+00 0. -1.
         11    1    3    3    0    0 -0.12434939989E+02  0.14311808528E+02  0.53180950031E+01  0.19691057123E+02  0.51100000000E-03 0. -1.
        -11    1    3    3    0    0  0.80922156801E+01 -0.13551592939E+02  0.19452071897E+02  0.25050204134E+02  0.51100000000E-03 0.  1.
         12    1    3    3    0    0 -0.14312009533E+02 -0.19633377723E+01 -0.23658450379E+02  0.27720219811E+02  0.00000000000E+00 0. -1.
</event>
<event>
 7    1  0.2876796E-013  0.7246157E+02  0.7816164E-02  0.1226708E+00
        -11   -1    0    0    0    0  0.00000000000E+00  0.00000000000E+00  0.45593999997E+02  0.45594000000E+02  0.51100000000E-03 0. -1.
         11   -1    0    0    0    0 -0.00000000000E+00 -0.00000000000E+00 -0.45593999997E+02  0.45594000000E+02  0.51100000000E-03 0.  1.
    9900012    2    1    2    0    0  0.58466046264E+01 -0.10295634105E+02 -0.14508490981E+02  0.72461570072E+02  0.69999999711E+02 0.  0.
         12    1    1    2    0    0 -0.58466046264E+01  0.10295634105E+02  0.14508490981E+02  0.18726429928E+02  0.00000000000E+00 0. -1.
         11    1    3    3    0    0  0.11343838260E+02 -0.39710099776E+01 -0.12451590043E+02  0.17305885749E+02  0.51100000000E-03 0. -1.
        -11    1    3    3    0    0 -0.14962076552E+02 -0.58514408392E+01 -0.25348031420E+02  0.30010428051E+02  0.51100000000E-03 0.  1.
         12    1    3    3    0    0  0.94648429188E+01 -0.47318328853E+00  0.23291130482E+02  0.25145256272E+02  0.00000000000E+00 0. -1.
</event>
<event>
 7    1  0.2876796E-013  0.7246156E+02  0.7816164E-02  0.1226708E+00
        -11   -1    0    0    0    0  0.00000000000E+00  0.00000000000E+00  0.45593999997E+02  0.45594000000E+02  0.51100000000E-03 0.  1.
         11   -1    0    0    0    0 -0.00000000000E+00 -0.00000000000E+00 -0.45593999997E+02  0.45594000000E+02  0.51100000000E-03 0. -1.
    9900012    2    1    2    0    0  0.48318257019E+01  0.74156473064E+01  0.16502762446E+02  0.72461560591E+02  0.69999987359E+02 0.  0.
         12    1    1    2    0    0 -0.48318257019E+01 -0.74156473064E+01 -0.16502762446E+02  0.18726439409E+02  0.00000000000E+00 0. -1.
         11    1    3    3    0    0 -0.13952411551E+02 -0.86612384268E+01 -0.16260249010E+01  0.16502448194E+02  0.51100000000E-03 0. -1.
        -11    1    3    3    0    0  0.19089050610E+02 -0.23654380578E+01 -0.10491416312E+02  0.21910202348E+02  0.51100000000E-03 0.  1.
        -12    1    3    3    0    0 -0.30481335785E+00  0.18442323791E+02  0.28620203660E+02  0.34048910049E+02  0.00000000000E+00 0.  1.
</event>
<event>
 7    1  0.2876796E-013  0.7246152E+02  0.7816164E-02  0.1226708E+00
        -11   -1    0    0    0    0  0.00000000000E+00  0.00000000000E+00  0.45593999997E+02  0.45594000000E+02  0.51100000000E-03 0. -1.
         11   -1    0    0    0    0 -0.00000000000E+00 -0.00000000000E+00 -0.45593999997E+02  0.45594000000E+02  0.51100000000E-03 0.  1.
    9900012    2    1    2    0    0 -0.17042829060E+02  0.42626612497E+01 -0.64848101851E+01  0.72461519647E+02  0.69999934022E+02 0.  0.
         12    1    1    2    0    0  0.17042829060E+02 -0.42626612497E+01  0.64848101851E+01  0.18726480353E+02  0.00000000000E+00 0. -1.
         11    1    3    3    0    0 -0.39372582511E+01  0.16030141267E+02 -0.99164691108E+01  0.19256266291E+02  0.51100000000E-03 0. -1.
        -11    1    3    3    0    0 -0.20871702645E+02  0.41813019882E+01  0.19797557012E+02  0.29069821490E+02  0.51100000000E-03 0.  1.
         12    1    3    3    0    0  0.77661318361E+01 -0.15948782006E+02 -0.16365898086E+02  0.24135431865E+02  0.00000000000E+00 0. -1.
</event>
<event>
 7    1  0.2876796E-013  0.7246156E+02  0.7816164E-02  0.1226708E+00
        -11   -1    0    0    0    0  0.00000000000E+00  0.00000000000E+00  0.45593999997E+02  0.45594000000E+02  0.51100000000E-03 0.  1.
         11   -1    0    0    0    0 -0.00000000000E+00 -0.00000000000E+00 -0.45593999997E+02  0.45594000000E+02  0.51100000000E-03 0. -1.
    9900012    2    1    2    0    0 -0.11041692439E+01 -0.18693267466E+02  0.14819614306E+00  0.72461564131E+02  0.69999991971E+02 0.  0.
         12    1    1    2    0    0  0.11041692439E+01  0.18693267466E+02 -0.14819614306E+00  0.18726435869E+02  0.00000000000E+00 0. -1.
         11    1    3    3    0    0  0.15725066438E+01 -0.63967045846E+01  0.61267809434E+00  0.66155862473E+01  0.51100000000E-03 0. -1.
        -11    1    3    3    0    0 -0.15987991416E+02 -0.35566428038E+02 -0.14233579273E+01  0.39020669150E+02  0.51100000000E-03 0.  1.
         12    1    3    3    0    0  0.13311315529E+02  0.23269865156E+02  0.95887597602E+00  0.26825308733E+02  0.00000000000E+00 0. -1.
</event>
<event>
 7    1  0.2876796E-013  0.7246158E+02  0.7816164E-02  0.1226708E+00
        -11   -1    0    0    0    0  0.00000000000E+00  0.00000000000E+00  0.45593999997E+02  0.45594000000E+02  0.51100000000E-03 0. -1.
         11   -1    0    0    0    0 -0.00000000000E+00 -0.00000000000E+00 -0.45593999997E+02  0.45594000000E+02  0.51100000000E-03 0.  1.
    9900012    2    1    2    0    0  0.15005186859E+02  0.11073576692E+02 -0.17026986676E+01  0.72461577059E+02  0.70000008812E+02 0.  0.
         12    1    1    2    0    0 -0.15005186859E+02 -0.11073576692E+02  0.17026986676E+01  0.18726422941E+02  0.00000000000E+00 0. -1.
         11    1    3    3    0    0 -0.56670474655E+01  0.34592626336E+01 -0.17150399515E+01  0.68573527867E+01  0.51100000000E-03 0. -1.
        -11    1    3    3    0    0 -0.96556697280E+00 -0.13275926275E+02 -0.23781936927E+02  0.27253679794E+02  0.51100000000E-03 0.  1.
         12    1    3    3    0    0  0.21637801297E+02  0.20890240334E+02  0.23794278211E+02  0.38350544478E+02  0.00000000000E+00 0. -1.
</event>
<event>
 7    1  0.2876796E-013  0.7246153E+02  0.7816164E-02  0.1226708E+00
        -11   -1    0    0    0    0  0.00000000000E+00  0.00000000000E+00  0.45593999997E+02  0.45594000000E+02  0.51100000000E-03 0.  1.
         11   -1    0    0    0    0 -0.00000000000E+00 -0.00000000000E+00 -0.45593999997E+02  0.45594000000E+02  0.51100000000E-03 0. -1.
    9900012    2    1    2    0    0  0.18140507727E+02 -0.19503555741E+01  0.42188564482E+01  0.72461530573E+02  0.69999948255E+02 0.  0.
         12    1    1    2    0    0 -0.18140507727E+02  0.19503555741E+01 -0.42188564482E+01  0.18726469427E+02  0.00000000000E+00 0. -1.
         11    1    3    3    0    0  0.19564214038E+02 -0.29829434481E+02 -0.41882413922E+01  0.35917892458E+02  0.51100000000E-03 0. -1.
        -11    1    3    3    0    0  0.42163385181E+01 -0.21361750086E+01  0.27967412228E+01  0.54920411410E+01  0.51100000000E-03 0.  1.
        -12    1    3    3    0    0 -0.56400448291E+01  0.30015253915E+02  0.56103566176E+01  0.31051596974E+02  0.00000000000E+00 0.  1.
</event>
<event>
 7    1  0.2876796E-013  0.7246159E+02  0.7816164E-02  0.1226708E+00
        -11   -1    0    0    0    0  0.00000000000E+00  0.00000000000E+00  0.45593999997E+02  0.45594000000E+02  0.51100000000E-03 0.  1.
         11   -1    0    0    0    0 -0.00000000000E+00 -0.00000000000E+00 -0.45593999997E+02  0.45594000000E+02  0.51100000000E-03 0. -1.
    9900012    2    1    2    0    0 -0.17313611943E+02 -0.54592577315E+01 -0.45949738938E+01  0.72461589810E+02  0.70000025423E+02 0.  0.
         12    1    1    2    0    0  0.17313611943E+02  0.54592577315E+01  0.45949738938E+01  0.18726410190E+02  0.00000000000E+00 0. -1.
         11    1    3    3    0    0 -0.92387744167E+01 -0.25620027062E+02  0.15900769927E+01  0.27281295506E+02  0.51100000000E-03 0. -1.
        -11    1    3    3    0    0  0.60562294276E+01 -0.98502105916E+01 -0.21973515873E+01  0.11770000758E+02  0.51100000000E-03 0.  1.
         12    1    3    3    0    0 -0.14131066954E+02  0.30010979922E+02 -0.39876992992E+01  0.33410293546E+02  0.00000000000E+00 0. -1.
</event>
<event>
 7    1  0.2876796E-013  0.7246159E+02  0.7816164E-02  0.1226708E+00
        -11   -1    0    0    0    0  0.00000000000E+00  0.00000000000E+00  0.45593999997E+02  0.45594000000E+02  0.51100000000E-03 0.  1.
         11   -1    0    0    0    0 -0.00000000000E+00 -0.00000000000E+00 -0.45593999997E+02  0.45594000000E+02  0.51100000000E-03 0. -1.
    9900012    2    1    2    0    0  0.24842583525E+01  0.18530637773E+02  0.10593742769E+01  0.72461592184E+02  0.70000028515E+02 0.  0.
         12    1    1    2    0    0 -0.24842583525E+01 -0.18530637773E+02 -0.10593742769E+01  0.18726407816E+02  0.00000000000E+00 0. -1.
         11    1    3    3    0    0  0.39730174354E+01 -0.79796868985E+00 -0.12502693378E+02  0.13143019575E+02  0.51100000000E-03 0. -1.
        -11    1    3    3    0    0 -0.18019415304E+01  0.25639091452E+02 -0.15206862826E+02  0.29864003098E+02  0.51100000000E-03 0.  1.
        -12    1    3    3    0    0  0.31318244754E+00 -0.63104849891E+01  0.28768930481E+02  0.29454569511E+02  0.00000000000E+00 0.  1.
</event>
<event>
 7    1  0.2876796E-013  0.7246157E+02  0.7816164E-02  0.1226708E+00
        -11   -1    0    0    0    0  0.00000000000E+00  0.00000000000E+00  0.45593999997E+02  0.45594000000E+02  0.51100000000E-03 0. -1.
         11   -1    0    0    0    0 -0.00000000000E+00 -0.00000000000E+00 -0.45593999997E+02  0.45594000000E+02  0.51100000000E-03 0.  1.
    9900012    2    1    2    0    0 -0.17370810172E+02 -0.68638364226E+01 -0.13497187013E+01  0.72461573831E+02  0.70000004608E+02 0.  0.
         12    1    1    2    0    0  0.17370810172E+02  0.68638364226E+01  0.13497187013E+01  0.18726426169E+02  0.00000000000E+00 0. -1.
         11    1    3    3    0    0 -0.16334659566E+01  0.24326188335E+02 -0.78965908903E+01  0.25627871505E+02  0.51100000000E-03 0. -1.
        -11    1    3    3    0    0 -0.31235729023E+01  0.57190650656E+01  0.42113667987E+01  0.77588674093E+01  0.51100000000E-03 0.  1.
         12    1    3    3    0    0 -0.12613771313E+02 -0.36909089823E+02  0.23355053903E+01  0.39074834917E+02  0.00000000000E+00 0. -1.
</event>
<event>
 7    1  0.2876796E-013  0.7246164E+02  0.7816164E-02  0.1226708E+00
        -11   -1    0    0    0    0  0.00000000000E+00  0.00000000000E+00  0.45593999997E+02  0.45594000000E+02  0.51100000000E-03 0. -1.
         11   -1    0    0    0    0 -0.00000000000E+00 -0.00000000000E+00 -0.45593999997E+02  0.45594000000E+02  0.51100000000E-03 0.  1.
    9900012    2    1    2    0    0 -0.36269487574E+01  0.52274478298E+01 -0.17612366656E+02  0.72461643512E+02  0.70000095379E+02 0.  0.
         12    1    1    2    0    0  0.36269487574E+01 -0.52274478298E+01  0.17612366656E+02  0.18726356488E+02  0.00000000000E+00 0. -1.
         11    1    3    3    0    0  0.13064935025E+01  0.24922538696E+02  0.75092671566E+01  0.26062021292E+02  0.51100000000E-03 0. -1.
        -11    1    3    3    0    0 -0.95659335985E+01  0.68828692903E+01 -0.10101252205E+02  0.15521477753E+02  0.51100000000E-03 0.  1.
        -12    1    3    3    0    0  0.46324913386E+01 -0.26577960156E+02 -0.15020381608E+02  0.30878144467E+02  0.00000000000E+00 0.  1.
</event>
<event>
 7    1  0.2876796E-013  0.7246161E+02  0.7816164E-02  0.1226708E+00
        -11   -1    0    0    0    0  0.00000000000E+00  0.00000000000E+00  0.45593999997E+02  0.45594000000E+02  0.51100000000E-03 0.  1.
         11   -1    0    0    0    0 -0.00000000000E+00 -0.00000000000E+00 -0.45593999997E+02  0.45594000000E+02  0.51100000000E-03 0. -1.
    9900012    2    1    2    0    0  0.15263931789E+02  0.59642350216E+01  0.90618932664E+01  0.72461611597E+02  0.70000053804E+02 0.  0.
         12    1    1    2    0    0 -0.15263931789E+02 -0.59642350216E+01 -0.90618932664E+01  0.18726388403E+02  0.00000000000E+00 0. -1.
         11    1    3    3    0    0  0.11661513409E+02 -0.10890620562E+02 -0.27821385198E+01  0.16196814693E+02  0.51100000000E-03 0. -1.
        -11    1    3    3    0    0  0.16728408407E+02 -0.12527680893E+02  0.11967838224E+02  0.24083429748E+02  0.51100000000E-03 0.  1.
         12    1    3    3    0    0 -0.13125990028E+02  0.29382536476E+02 -0.12380643795E+00  0.32181367156E+02  0.00000000000E+00 0. -1.
</event>
<event>
 7    1  0.2876796E-013  0.7246163E+02  0.7816164E-02  0.1226708E+00
        -11   -1    0    0    0    0  0.00000000000E+00  0.00000000000E+00  0.45593999997E+02  0.45594000000E+02  0.51100000000E-03 0.  1.
         11   -1    0    0    0    0 -0.00000000000E+00 -0.00000000000E+00 -0.45593999997E+02  0.45594000000E+02  0.51100000000E-03 0. -1.
    9900012    2    1    2    0    0 -0.37491411858E+01 -0.13496778922E+02  0.12428099655E+02  0.72461634578E+02  0.70000083741E+02 0.  0.
         12    1    1    2    0    0  0.37491411858E+01  0.13496778922E+02 -0.12428099655E+02  0.18726365422E+02  0.00000000000E+00 0. -1.
         11    1    3    3    0    0 -0.22112906966E+02  0.15911197113E+02  0.47784500793E+01  0.27658279655E+02  0.51100000000E-03 0. -1.
        -11    1    3    3    0    0 -0.13469753821E+01 -0.21111686768E+00  0.94328248655E+01  0.95308498160E+01  0.51100000000E-03 0.  1.
        -12    1    3    3    0    0  0.19710741163E+02 -0.29196859167E+02 -0.17831752898E+01  0.35272505107E+02  0.00000000000E+00 0.  1.
</event>
<event>
 7    1  0.2876796E-013  0.7246156E+02  0.7816164E-02  0.1226708E+00
        -11   -1    0    0    0    0  0.00000000000E+00  0.00000000000E+00  0.45593999997E+02  0.45594000000E+02  0.51100000000E-03 0.  1.
         11   -1    0    0    0    0 -0.00000000000E+00 -0.00000000000E+00 -0.45593999997E+02  0.45594000000E+02  0.51100000000E-03 0. -1.
    9900012    2    1    2    0    0  0.52024127253E+01 -0.17983986846E+02 -0.43677331948E+00  0.72461557413E+02  0.69999983220E+02 0.  0.
         12    1    1    2    0    0 -0.52024127253E+01  0.17983986846E+02  0.43677331948E+00  0.18726442587E+02  0.00000000000E+00 0. -1.
         11    1    3    3    0    0  0.10432030452E+02 -0.43555935396E+01 -0.18177975417E+02  0.21406476706E+02  0.51100000000E-03 0. -1.
        -11    1    3    3    0    0 -0.13431703073E+02  0.64112583476E+01 -0.84162056382E+01  0.17098169453E+02  0.51100000000E-03 0.  1.
         12    1    3    3    0    0  0.82020853462E+01 -0.20039651654E+02  0.26157407736E+02  0.33956911254E+02  0.00000000000E+00 0. -1.
</event>
<event>
 7    1  0.2876796E-013  0.7246155E+02  0.7816164E-02  0.1226708E+00
        -11   -1    0    0    0    0  0.00000000000E+00  0.00000000000E+00  0.45593999997E+02  0.45594000000E+02  0.51100000000E-03 0.  1.
         11   -1    0    0    0    0 -0.00000000000E+00 -0.00000000000E+00 -0.45593999997E+02  0.45594000000E+02  0.51100000000E-03 0. -1.
    9900012    2    1    2    0    0 -0.10258612995E+02  0.89258993898E+00  0.15641100833E+02  0.72461550986E+02  0.69999974848E+02 0.  0.
         12    1    1    2    0    0  0.10258612995E+02 -0.89258993898E+00 -0.15641100833E+02  0.18726449014E+02  0.00000000000E+00 0. -1.
         11    1    3    3    0    0 -0.16192445967E+02  0.12914334490E+02 -0.22356705539E+02  0.30476181265E+02  0.51100000000E-03 0. -1.
        -11    1    3    3    0    0  0.18135100927E+01  0.58793368012E+00  0.18774105762E+00  0.19156544141E+01  0.51100000000E-03 0.  1.
        -12    1    3    3    0    0  0.41203228792E+01 -0.12609678231E+02  0.37810065314E+02  0.40069715307E+02  0.00000000000E+00 0.  1.
</event>
<event>
 7    1  0.2876796E-013  0.7246158E+02  0.7816164E-02  0.1226708E+00
        -11   -1    0    0    0    0  0.00000000000E+00  0.00000000000E+00  0.45593999997E+02  0.45594000000E+02  0.51100000000E-03 0.  1.
         11   -1    0    0    0    0 -0.00000000000E+00 -0.00000000000E+00 -0.45593999997E+02  0.45594000000E+02  0.51100000000E-03 0. -1.
    9900012    2    1    2    0    0 -0.91543989582E+01 -0.13671147158E+02  0.89429015731E+01  0.72461580869E+02  0.70000013776E+02 0.  0.
         12    1    1    2    0    0  0.91543989582E+01  0.13671147158E+02 -0.89429015731E+01  0.18726419131E+02  0.00000000000E+00 0. -1.
         11    1    3    3    0    0 -0.13427303150E+02 -0.35264700193E+01 -0.44398629259E+01  0.14575350553E+02  0.51100000000E-03 0. -1.
        -11    1    3    3    0    0 -0.76416500074E+01 -0.30854073756E+02  0.33121736740E+01  0.31958397596E+02  0.51100000000E-03 0.  1.
         12    1    3    3    0    0  0.11914554200E+02  0.20709396617E+02  0.10070590825E+02  0.25927832720E+02  0.00000000000E+00 0. -1.
</event>
<event>
 7    1  0.2876796E-013  0.7246158E+02  0.7816164E-02  0.1226708E+00
        -11   -1    0    0    0    0  0.00000000000E+00  0.00000000000E+00  0.45593999997E+02  0.45594000000E+02  0.51100000000E-03 0.  1.
         11   -1    0    0    0    0 -0.00000000000E+00 -0.00000000000E+00 -0.45593999997E+02  0.45594000000E+02  0.51100000000E-03 0. -1.
    9900012    2    1    2    0    0  0.52286708763E+01 -0.10654808958E+02  0.14484993369E+02  0.72461575196E+02  0.70000006385E+02 0.  0.
         12    1    1    2    0    0 -0.52286708763E+01  0.10654808958E+02 -0.14484993369E+02  0.18726424804E+02  0.00000000000E+00 0. -1.
         11    1    3    3    0    0 -0.20574345776E+00 -0.17341570354E+02 -0.16586639300E+01  0.17421927534E+02  0.51100000000E-03 0. -1.
        -11    1    3    3    0    0  0.18260074772E+02 -0.17449955919E+02  0.86636986339E+01  0.26701890692E+02  0.51100000000E-03 0.  1.
         12    1    3    3    0    0 -0.12825660438E+02  0.24136717315E+02  0.74799586649E+01  0.28337756969E+02  0.00000000000E+00 0. -1.
</event>
<event>
 7    1  0.2876796E-013  0.7246161E+02  0.7816164E-02  0.1226708E+00
        -11   -1    0    0    0    0  0.00000000000E+00  0.00000000000E+00  0.45593999997E+02  0.45594000000E+02  0.51100000000E-03 0.  1.
         11   -1    0    0    0    0 -0.00000000000E+00 -0.00000000000E+00 -0.45593999997E+02  0.45594000000E+02  0.51100000000E-03 0. -1.
    9900012    2    1    2    0    0  0.12659822255E+02 -0.11314524458E+02  0.78986095479E+01  0.72461612307E+02  0.70000054729E+02 0.  0.
         12    1    1    2    0    0 -0.12659822255E+02  0.11314524458E+02 -0.78986095479E+01  0.18726387693E+02  0.00000000000E+00 0. -1.
         11    1    3    3    0    0 -0.90190518447E+01 -0.17109963330E+02 -0.15438381423E+02  0.24747479923E+02  0.51100000000E-03 0. -1.
        -11    1    3    3    0    0  0.16202033698E+02 -0.13727991621E+02  0.10246745809E+02  0.23578792374E+02  0.51100000000E-03 0.  1.
        -12    1    3    3    0    0  0.54768404022E+01  0.19523430493E+02  0.13090245162E+02  0.24135340010E+02  0.00000000000E+00 0.  1.
</event>
<event>
 7    1  0.2876796E-013  0.7246158E+02  0.7816164E-02  0.1226708E+00
        -11   -1    0    0    0    0  0.00000000000E+00  0.00000000000E+00  0.45593999997E+02  0.45594000000E+02  0.51100000000E-03 0. -1.
         11   -1    0    0    0    0 -0.00000000000E+00 -0.00000000000E+00 -0.45593999997E+02  0.45594000000E+02  0.51100000000E-03 0.  1.
    9900012    2    1    2    0    0 -0.10923338786E+02 -0.14975948706E+02  0.26608890198E+01  0.72461582824E+02  0.70000016322E+02 0.  0.
         12    1    1    2    0    0  0.10923338786E+02  0.14975948706E+02 -0.26608890198E+01  0.18726417176E+02  0.00000000000E+00 0. -1.
         11    1    3    3    0    0 -0.15876148200E-01  0.88544183756E+01  0.11717264127E+02  0.14686567186E+02  0.51100000000E-03 0. -1.
        -11    1    3    3    0    0  0.71413925918E+01 -0.44025868347E+01 -0.25315505181E+02  0.26669403102E+02  0.51100000000E-03 0.  1.
         12    1    3    3    0    0 -0.18048855230E+02 -0.19427780247E+02  0.16259130074E+02  0.31105612535E+02  0.00000000000E+00 0. -1.
</event>
<event>
 7    1  0.2876796E-013  0.7246159E+02  0.7816164E-02  0.1226708E+00
        -11   -1    0    0    0    0  0.00000000000E+00  0.00000000000E+00  0.45593999997E+02  0.45594000000E+02  0.51100000000E-03 0.  1.
         11   -1    0    0    0    0 -0.00000000000E+00 -0.00000000000E+00 -0.45593999997E+02  0.45594000000E+02  0.51100000000E-03 0. -1.
    9900012    2    1    2    0    0  0.88812952390E+00  0.16264772261E+02  0.92383257032E+01  0.72461594778E+02  0.70000031894E+02 0.  0.
         12    1    1    2    0    0 -0.88812952390E+00 -0.16264772261E+02 -0.92383257032E+01  0.18726405222E+02  0.00000000000E+00 0. -1.
         11    1    3    3    0    0  0.99766198971E+01  0.45887320055E+01 -0.89402491228E+01  0.14160418801E+02  0.51100000000E-03 0. -1.
        -11    1    3    3    0    0  0.33687163098E+00  0.21917237033E+02  0.31933585835E+02  0.38732837053E+02  0.51100000000E-03 0.  1.
         12    1    3    3    0    0 -0.94253620042E+01 -0.10241196778E+02 -0.13755011009E+02  0.19568338923E+02  0.00000000000E+00 0. -1.
</event>
<event>
 7    1  0.2876796E-013  0.7246157E+02  0.7816164E-02  0.1226708E+00
        -11   -1    0    0    0    0  0.00000000000E+00  0.00000000000E+00  0.45593999997E+02  0.45594000000E+02  0.51100000000E-03 0.  1.
         11   -1    0    0    0    0 -0.00000000000E+00 -0.00000000000E+00 -0.45593999997E+02  0.45594000000E+02  0.51100000000E-03 0. -1.
    9900012    2    1    2    0    0 -0.34854600068E+01 -0.41600295924E+01  0.17922751055E+02  0.72461567263E+02  0.69999996051E+02 0.  0.
         12    1    1    2    0    0  0.34854600068E+01  0.41600295924E+01 -0.17922751055E+02  0.18726432737E+02  0.00000000000E+00 0. -1.
         11    1    3    3    0    0  0.57363807800E+01 -0.74762766213E+01 -0.11100671736E+02  0.14561101944E+02  0.51100000000E-03 0. -1.
        -11    1    3    3    0    0 -0.17701008115E+01 -0.21139466856E+02  0.23661263359E+02  0.31778384160E+02  0.51100000000E-03 0.  1.
         12    1    3    3    0    0 -0.74517399753E+01  0.24455713885E+02  0.53621594325E+01  0.26122081158E+02  0.00000000000E+00 0. -1.
</event>
<event>
 7    1  0.2876796E-013  0.7246158E+02  0.7816164E-02  0.1226708E+00
        -11   -1    0    0    0    0  0.00000000000E+00  0.00000000000E+00  0.45593999997E+02  0.45594000000E+02  0.51100000000E-03 0. -1.
         11   -1    0    0    0    0 -0.00000000000E+00 -0.00000000000E+00 -0.45593999997E+02  0.45594000000E+02  0.51100000000E-03 0.  1.
    9900012    2    1    2    0    0  0.15509396868E+02  0.10491549815E+02 -0.25451985978E+00  0.72461580452E+02  0.70000013232E+02 0.  0.
         12    1    1    2    0    0 -0.15509396868E+02 -0.10491549815E+02  0.25451985978E+00  0.18726419548E+02  0.00000000000E+00 0. -1.
         11    1    3    3    0    0 -0.12465854025E+02 -0.21001776011E+02  0.93378944261E+01  0.26147053080E+02  0.51100000000E-03 0. -1.
        -11    1    3    3    0    0  0.60469492742E+01  0.88121969916E+01  0.47057623419E+01  0.11677525886E+02  0.51100000000E-03 0.  1.
        -12    1    3    3    0    0  0.21928301619E+02  0.22681128834E+02 -0.14298176628E+02  0.34637001486E+02  0.00000000000E+00 0.  1.
</event>
<event>
 7    1  0.2876796E-013  0.7246156E+02  0.7816164E-02  0.1226708E+00
        -11   -1    0    0    0    0  0.00000000000E+00  0.00000000000E+00  0.45593999997E+02  0.45594000000E+02  0.51100000000E-03 0.  1.
         11   -1    0    0    0    0 -0.00000000000E+00 -0.00000000000E+00 -0.45593999997E+02  0.45594000000E+02  0.51100000000E-03 0. -1.
    9900012    2    1    2    0    0 -0.81465826783E+01  0.15036234187E+02 -0.76304971282E+01  0.72461557885E+02  0.69999983834E+02 0.  0.
         12    1    1    2    0    0  0.81465826783E+01 -0.15036234187E+02  0.76304971282E+01  0.18726442115E+02  0.00000000000E+00 0. -1.
         11    1    3    3    0    0 -0.17336568114E+02  0.22064333816E+02  0.58376583081E+01  0.28661292286E+02  0.51100000000E-03 0. -1.
        -11    1    3    3    0    0 -0.11956589829E+01  0.16799908462E+01  0.13479462719E+02  0.13636270938E+02  0.51100000000E-03 0.  1.
         12    1    3    3    0    0  0.10385644419E+02 -0.87080904749E+01 -0.26947618155E+02  0.30163994661E+02  0.00000000000E+00 0. -1.
</event>
<event>
 7    1  0.2876796E-013  0.7246157E+02  0.7816164E-02  0.1226708E+00
        -11   -1    0    0    0    0  0.00000000000E+00  0.00000000000E+00  0.45593999997E+02  0.45594000000E+02  0.51100000000E-03 0.  1.
         11   -1    0    0    0    0 -0.00000000000E+00 -0.00000000000E+00 -0.45593999997E+02  0.45594000000E+02  0.51100000000E-03 0. -1.
    9900012    2    1    2    0    0 -0.10287973687E+02 -0.12317520052E+02 -0.96496429424E+01  0.72461566497E+02  0.69999995054E+02 0.  0.
         12    1    1    2    0    0  0.10287973687E+02  0.12317520052E+02  0.96496429424E+01  0.18726433503E+02  0.00000000000E+00 0. -1.
         11    1    3    3    0    0 -0.16211107840E+01  0.13242489105E+02  0.93237939105E+01  0.16276506106E+02  0.51100000000E-03 0.  1.
        -11    1    3    3    0    0  0.16611838289E+02 -0.31547923236E+01  0.10081560805E+01  0.16938779912E+02  0.51100000000E-03 0. -1.
        -12    1    3    3    0    0 -0.25278701193E+02 -0.22405216833E+02 -0.19981592933E+02  0.39246280480E+02  0.00000000000E+00 0.  1.
</event>
<event>
 7    1  0.2876796E-013  0.7246156E+02  0.7816164E-02  0.1226708E+00
        -11   -1    0    0    0    0  0.00000000000E+00  0.00000000000E+00  0.45593999997E+02  0.45594000000E+02  0.51100000000E-03 0.  1.
         11   -1    0    0    0    0 -0.00000000000E+00 -0.00000000000E+00 -0.45593999997E+02  0.45594000000E+02  0.51100000000E-03 0. -1.
    9900012    2    1    2    0    0 -0.82209867607E+01 -0.11920335117E+02  0.11874363616E+02  0.72461560832E+02  0.69999987674E+02 0.  0.
         12    1    1    2    0    0  0.82209867607E+01  0.11920335117E+02 -0.11874363616E+02  0.18726439168E+02  0.00000000000E+00 0. -1.
         11    1    3    3    0    0 -0.16148723410E+02  0.90317787382E+01 -0.16881734034E+02  0.25046900790E+02  0.51100000000E-03 0. -1.
        -11    1    3    3    0    0  0.23150748834E+01  0.78807022489E+01  0.78399731643E+01  0.11354744345E+02  0.51100000000E-03 0.  1.
        -12    1    3    3    0    0  0.56126617654E+01 -0.28832816105E+02  0.20916124485E+02  0.36059915697E+02  0.00000000000E+00 0.  1.
</event>
<event>
 7    1  0.2876796E-013  0.7246161E+02  0.7816164E-02  0.1226708E+00
        -11   -1    0    0    0    0  0.00000000000E+00  0.00000000000E+00  0.45593999997E+02  0.45594000000E+02  0.51100000000E-03 0.  1.
         11   -1    0    0    0    0 -0.00000000000E+00 -0.00000000000E+00 -0.45593999997E+02  0.45594000000E+02  0.51100000000E-03 0. -1.
    9900012    2    1    2    0    0 -0.35499889712E+01 -0.33816033919E+01  0.18073184108E+02  0.72461610946E+02  0.70000052956E+02 0.  0.
         12    1    1    2    0    0  0.35499889712E+01  0.33816033919E+01 -0.18073184108E+02  0.18726389054E+02  0.00000000000E+00 0. -1.
         11    1    3    3    0    0  0.14422258595E+02  0.11626081682E+02 -0.12689019382E+02  0.22453920179E+02  0.51100000000E-03 0. -1.
        -11    1    3    3    0    0 -0.63464742661E+00  0.93800263676E+01  0.89360882943E+01  0.12970788190E+02  0.51100000000E-03 0.  1.
         12    1    3    3    0    0 -0.17337600139E+02 -0.24387711442E+02  0.21826115196E+02  0.37036902577E+02  0.00000000000E+00 0. -1.
</event>
<event>
 7    1  0.2876796E-013  0.7246156E+02  0.7816164E-02  0.1226708E+00
        -11   -1    0    0    0    0  0.00000000000E+00  0.00000000000E+00  0.45593999997E+02  0.45594000000E+02  0.51100000000E-03 0.  1.
         11   -1    0    0    0    0 -0.00000000000E+00 -0.00000000000E+00 -0.45593999997E+02  0.45594000000E+02  0.51100000000E-03 0. -1.
    9900012    2    1    2    0    0  0.77009771421E+01 -0.16829187605E+02  0.28553290247E+01  0.72461561251E+02  0.69999988219E+02 0.  0.
         12    1    1    2    0    0 -0.77009771421E+01  0.16829187605E+02 -0.28553290247E+01  0.18726438749E+02  0.00000000000E+00 0. -1.
         11    1    3    3    0    0  0.29466881224E+02 -0.88507115950E+01  0.90971283973E+01  0.32084107128E+02  0.51100000000E-03 0. -1.
        -11    1    3    3    0    0 -0.53520170511E+01 -0.14675227823E+02 -0.14047071952E+02  0.21007775438E+02  0.51100000000E-03 0.  1.
         12    1    3    3    0    0 -0.16413887031E+02  0.66967518130E+01  0.78052725792E+01  0.19369678685E+02  0.00000000000E+00 0. -1.
</event>
<event>
 7    1  0.2876796E-013  0.7246154E+02  0.7816164E-02  0.1226708E+00
        -11   -1    0    0    0    0  0.00000000000E+00  0.00000000000E+00  0.45593999997E+02  0.45594000000E+02  0.51100000000E-03 0.  1.
         11   -1    0    0    0    0 -0.00000000000E+00 -0.00000000000E+00 -0.45593999997E+02  0.45594000000E+02  0.51100000000E-03 0. -1.
    9900012    2    1    2    0    0  0.82659016917E+01 -0.16800733064E+02 -0.30066334632E+00  0.72461543830E+02  0.69999965525E+02 0.  0.
         12    1    1    2    0    0 -0.82659016917E+01  0.16800733064E+02  0.30066334632E+00  0.18726456170E+02  0.00000000000E+00 0. -1.
         11    1    3    3    0    0  0.17946894844E+02 -0.22676261133E+01 -0.99026857241E+01  0.20622714360E+02  0.51100000000E-03 0. -1.
        -11    1    3    3    0    0 -0.22350427028E+02 -0.21864464901E+02 -0.44094551960E+01  0.31575935602E+02  0.51100000000E-03 0.  1.
         12    1    3    3    0    0  0.12669433875E+02  0.73313579508E+01  0.14011477574E+02  0.20262893868E+02  0.00000000000E+00 0. -1.
</event>
<event>
 7    1  0.2876796E-013  0.7246156E+02  0.7816164E-02  0.1226708E+00
        -11   -1    0    0    0    0  0.00000000000E+00  0.00000000000E+00  0.45593999997E+02  0.45594000000E+02  0.51100000000E-03 0.  1.
         11   -1    0    0    0    0 -0.00000000000E+00 -0.00000000000E+00 -0.45593999997E+02  0.45594000000E+02  0.51100000000E-03 0. -1.
    9900012    2    1    2    0    0 -0.54930723711E+01 -0.70763091016E+01  0.16444809035E+02  0.72461555095E+02  0.69999980200E+02 0.  0.
         12    1    1    2    0    0  0.54930723711E+01  0.70763091016E+01 -0.16444809035E+02  0.18726444905E+02  0.00000000000E+00 0. -1.
         11    1    3    3    0    0 -0.10363861663E+02 -0.10305856465E+02  0.22006992477E+02  0.26418327430E+02  0.51100000000E-03 0. -1.
        -11    1    3    3    0    0 -0.31256568311E+01  0.83814284044E+01  0.18292137918E+02  0.20362229313E+02  0.51100000000E-03 0.  1.
        -12    1    3    3    0    0  0.79964461231E+01 -0.51518810410E+01 -0.23854321359E+02  0.25680998352E+02  0.00000000000E+00 0.  1.
</event>
<event>
 7    1  0.2876796E-013  0.7246157E+02  0.7816164E-02  0.1226708E+00
        -11   -1    0    0    0    0  0.00000000000E+00  0.00000000000E+00  0.45593999997E+02  0.45594000000E+02  0.51100000000E-03 0.  1.
         11   -1    0    0    0    0 -0.00000000000E+00 -0.00000000000E+00 -0.45593999997E+02  0.45594000000E+02  0.51100000000E-03 0. -1.
    9900012    2    1    2    0    0  0.71808967899E+01 -0.76369008763E+01  0.15517460490E+02  0.72461571783E+02  0.70000001939E+02 0.  0.
         12    1    1    2    0    0 -0.71808967899E+01  0.76369008763E+01 -0.15517460490E+02  0.18726428217E+02  0.00000000000E+00 0. -1.
         11    1    3    3    0    0 -0.17814285483E+01 -0.31283600917E+01 -0.70525314869E+01  0.79182274008E+01  0.51100000000E-03 0. -1.
        -11    1    3    3    0    0  0.21408208081E+02  0.21337624889E+02  0.42935369109E+01  0.30529331284E+02  0.51100000000E-03 0.  1.
         12    1    3    3    0    0 -0.12445882743E+02 -0.25846165674E+02  0.18276455066E+02  0.34014013099E+02  0.00000000000E+00 0. -1.
</event>
<event>
 7    1  0.2876796E-013  0.7246158E+02  0.7816164E-02  0.1226708E+00
        -11   -1    0    0    0    0  0.00000000000E+00  0.00000000000E+00  0.45593999997E+02  0.45594000000E+02  0.51100000000E-03 0. -1.
         11   -1    0    0    0    0 -0.00000000000E+00 -0.00000000000E+00 -0.45593999997E+02  0.45594000000E+02  0.51100000000E-03 0.  1.
    9900012    2    1    2    0    0 -0.10215249599E+02 -0.15674531275E+02 -0.79787479588E+00  0.72461578579E+02  0.70000010792E+02 0.  0.
         12    1    1    2    0    0  0.10215249599E+02  0.15674531275E+02  0.79787479588E+00  0.18726421421E+02  0.00000000000E+00 0. -1.
         11    1    3    3    0    0 -0.11578637917E+02 -0.94287807670E+01 -0.54124710994E+01  0.15882745557E+02  0.51100000000E-03 0. -1.
        -11    1    3    3    0    0 -0.72080089075E+01 -0.19991013784E+02 -0.18620437325E+02  0.28254498950E+02  0.51100000000E-03 0.  1.
         12    1    3    3    0    0  0.85713972253E+01  0.13745263276E+02  0.23235033628E+02  0.28324334072E+02  0.00000000000E+00 0. -1.
</event>
<event>
 7    1  0.2876796E-013  0.7246157E+02  0.7816164E-02  0.1226708E+00
        -11   -1    0    0    0    0  0.00000000000E+00  0.00000000000E+00  0.45593999997E+02  0.45594000000E+02  0.51100000000E-03 0. -1.
         11   -1    0    0    0    0 -0.00000000000E+00 -0.00000000000E+00 -0.45593999997E+02  0.45594000000E+02  0.51100000000E-03 0.  1.
    9900012    2    1    2    0    0  0.22821885511E+01  0.40655150412E+00 -0.18582395353E+02  0.72461572531E+02  0.70000002914E+02 0.  0.
         12    1    1    2    0    0 -0.22821885511E+01 -0.40655150412E+00  0.18582395353E+02  0.18726427469E+02  0.00000000000E+00 0. -1.
         11    1    3    3    0    0 -0.85728659681E+01  0.50056682515E+01 -0.16305699278E+02  0.19089960051E+02  0.51100000000E-03 0. -1.
        -11    1    3    3    0    0 -0.10075268320E+02  0.18822559474E+02 -0.47223592480E+01  0.21865508317E+02  0.51100000000E-03 0.  1.
         12    1    3    3    0    0  0.20930322839E+02 -0.23421676221E+02  0.24456631735E+01  0.31506104163E+02  0.00000000000E+00 0. -1.
</event>
<event>
 7    1  0.2876796E-013  0.7246159E+02  0.7816164E-02  0.1226708E+00
        -11   -1    0    0    0    0  0.00000000000E+00  0.00000000000E+00  0.45593999997E+02  0.45594000000E+02  0.51100000000E-03 0.  1.
         11   -1    0    0    0    0 -0.00000000000E+00 -0.00000000000E+00 -0.45593999997E+02  0.45594000000E+02  0.51100000000E-03 0. -1.
    9900012    2    1    2    0    0 -0.17864045206E+02  0.50683899528E+01 -0.24219218223E+01  0.72461591024E+02  0.70000027004E+02 0.  0.
         12    1    1    2    0    0  0.17864045206E+02 -0.50683899528E+01  0.24219218223E+01  0.18726408976E+02  0.00000000000E+00 0. -1.
         11    1    3    3    0    0  0.66833586426E+01  0.49064703997E+00  0.29647679820E+01  0.73278828260E+01  0.51100000000E-03 0. -1.
        -11    1    3    3    0    0 -0.31252063185E+02  0.19821046256E+02  0.14008624515E+02  0.39570277850E+02  0.51100000000E-03 0.  1.
         12    1    3    3    0    0  0.67046593373E+01 -0.15243303343E+02 -0.19395314319E+02  0.25563430348E+02  0.00000000000E+00 0. -1.
</event>
<event>
 7    1  0.2876796E-013  0.7246155E+02  0.7816164E-02  0.1226708E+00
        -11   -1    0    0    0    0  0.00000000000E+00  0.00000000000E+00  0.45593999997E+02  0.45594000000E+02  0.51100000000E-03 0.  1.
         11   -1    0    0    0    0 -0.00000000000E+00 -0.00000000000E+00 -0.45593999997E+02  0.45594000000E+02  0.51100000000E-03 0. -1.
    9900012    2    1    2    0    0  0.33449634091E+01 -0.17815367728E+02 -0.47014513066E+01  0.72461554745E+02  0.69999979744E+02 0.  0.
         12    1    1    2    0    0 -0.33449634091E+01  0.17815367728E+02  0.47014513066E+01  0.18726445255E+02  0.00000000000E+00 0. -1.
         11    1    3    3    0    0  0.14782665364E+02 -0.26322822012E+02  0.29862398605E+01  0.30337036486E+02  0.51100000000E-03 0.  1.
        -11    1    3    3    0    0  0.13781773099E+02  0.79847530222E+01 -0.67091245020E+00  0.15941884278E+02  0.51100000000E-03 0. -1.
         12    1    3    3    0    0 -0.25219475054E+02  0.52270126170E+00 -0.70167787169E+01  0.26182633981E+02  0.00000000000E+00 0. -1.
</event>
<event>
 7    1  0.2876796E-013  0.7246161E+02  0.7816164E-02  0.1226708E+00
        -11   -1    0    0    0    0  0.00000000000E+00  0.00000000000E+00  0.45593999997E+02  0.45594000000E+02  0.51100000000E-03 0. -1.
         11   -1    0    0    0    0 -0.00000000000E+00 -0.00000000000E+00 -0.45593999997E+02  0.45594000000E+02  0.51100000000E-03 0.  1.
    9900012    2    1    2    0    0 -0.18430493033E+02 -0.88245772839E+00 -0.31962308633E+01  0.72461609616E+02  0.70000051224E+02 0.  0.
         12    1    1    2    0    0  0.18430493033E+02  0.88245772839E+00  0.31962308633E+01  0.18726390384E+02  0.00000000000E+00 0. -1.
         11    1    3    3    0    0  0.23708205382E+02  0.51883546708E+00  0.11168408310E+02  0.26212240215E+02  0.51100000000E-03 0.  1.
        -11    1    3    3    0    0 -0.17347588951E+02 -0.67233296445E+01 -0.62497807950E+01  0.19626557624E+02  0.51100000000E-03 0. -1.
        -12    1    3    3    0    0 -0.24791109464E+02  0.53220364490E+01 -0.81148583783E+01  0.26622811777E+02  0.00000000000E+00 0.  1.
</event>
<event>
 7    1  0.2876796E-013  0.7246162E+02  0.7816164E-02  0.1226708E+00
        -11   -1    0    0    0    0  0.00000000000E+00  0.00000000000E+00  0.45593999997E+02  0.45594000000E+02  0.51100000000E-03 0.  1.
         11   -1    0    0    0    0 -0.00000000000E+00 -0.00000000000E+00 -0.45593999997E+02  0.45594000000E+02  0.51100000000E-03 0. -1.
    9900012    2    1    2    0    0  0.87842952993E+00  0.35023938197E+01  0.18374955897E+02  0.72461617404E+02  0.70000061370E+02 0.  0.
         12    1    1    2    0    0 -0.87842952993E+00 -0.35023938197E+01 -0.18374955897E+02  0.18726382596E+02  0.00000000000E+00 0. -1.
         11    1    3    3    0    0  0.95990637225E-01  0.47866492102E+01 -0.49818144462E+00  0.48134613198E+01  0.51100000000E-03 0. -1.
        -11    1    3    3    0    0  0.12320662829E+02  0.28919808266E+02  0.15763923597E+02  0.35166110535E+02  0.51100000000E-03 0.  1.
         12    1    3    3    0    0 -0.11538223936E+02 -0.30204063657E+02  0.31092137440E+01  0.32482045550E+02  0.00000000000E+00 0. -1.
</event>
<event>
 7    1  0.2876796E-013  0.7246157E+02  0.7816164E-02  0.1226708E+00
        -11   -1    0    0    0    0  0.00000000000E+00  0.00000000000E+00  0.45593999997E+02  0.45594000000E+02  0.51100000000E-03 0.  1.
         11   -1    0    0    0    0 -0.00000000000E+00 -0.00000000000E+00 -0.45593999997E+02  0.45594000000E+02  0.51100000000E-03 0. -1.
    9900012    2    1    2    0    0  0.86216660103E+01  0.57106655320E+01  0.15611997989E+02  0.72461566629E+02  0.69999995225E+02 0.  0.
         12    1    1    2    0    0 -0.86216660103E+01 -0.57106655320E+01 -0.15611997989E+02  0.18726433371E+02  0.00000000000E+00 0. -1.
         11    1    3    3    0    0  0.55458065719E+01  0.49220913871E+01 -0.21002903328E+02  0.22273412460E+02  0.51100000000E-03 0. -1.
        -11    1    3    3    0    0 -0.30494376069E+01  0.14939951453E+02  0.69550132789E+01  0.16759278895E+02  0.51100000000E-03 0.  1.
        -12    1    3    3    0    0  0.61252970452E+01 -0.14151377308E+02  0.29659888038E+02  0.33428875273E+02  0.00000000000E+00 0.  1.
</event>
<event>
 7    1  0.2876796E-013  0.7246160E+02  0.7816164E-02  0.1226708E+00
        -11   -1    0    0    0    0  0.00000000000E+00  0.00000000000E+00  0.45593999997E+02  0.45594000000E+02  0.51100000000E-03 0. -1.
         11   -1    0    0    0    0 -0.00000000000E+00 -0.00000000000E+00 -0.45593999997E+02  0.45594000000E+02  0.51100000000E-03 0.  1.
    9900012    2    1    2    0    0 -0.14329188877E+02 -0.11646014432E+02  0.31181302379E+01  0.72461600394E+02  0.70000039211E+02 0.  0.
         12    1    1    2    0    0  0.14329188877E+02  0.11646014432E+02 -0.31181302379E+01  0.18726399606E+02  0.00000000000E+00 0. -1.
         11    1    3    3    0    0 -0.80055954562E+01 -0.30402576373E+01  0.15156980237E+02  0.17408813149E+02  0.51100000000E-03 0. -1.
        -11    1    3    3    0    0 -0.26810128538E+02 -0.31890497479E+01 -0.18696844415E+02  0.32840904705E+02  0.51100000000E-03 0.  1.
         12    1    3    3    0    0  0.20486535117E+02 -0.54167070465E+01  0.66579944162E+01  0.22211882540E+02  0.00000000000E+00 0. -1.
</event>
<event>
 7    1  0.2876796E-013  0.7246163E+02  0.7816164E-02  0.1226708E+00
        -11   -1    0    0    0    0  0.00000000000E+00  0.00000000000E+00  0.45593999997E+02  0.45594000000E+02  0.51100000000E-03 0. -1.
         11   -1    0    0    0    0 -0.00000000000E+00 -0.00000000000E+00 -0.45593999997E+02  0.45594000000E+02  0.51100000000E-03 0.  1.
    9900012    2    1    2    0    0  0.11558453175E+02  0.14658208861E+02  0.14886061229E+01  0.72461631559E+02  0.70000079808E+02 0.  0.
         12    1    1    2    0    0 -0.11558453175E+02 -0.14658208861E+02 -0.14886061229E+01  0.18726368441E+02  0.00000000000E+00 0. -1.
         11    1    3    3    0    0  0.48214747561E+01 -0.55319767654E+01 -0.14764456614E+02  0.16487527563E+02  0.51100000000E-03 0. -1.
        -11    1    3    3    0    0 -0.57783352890E+01 -0.67919982201E+01 -0.12000172586E+02  0.14950737136E+02  0.51100000000E-03 0.  1.
         12    1    3    3    0    0  0.12515313708E+02  0.26982183846E+02  0.28253235323E+02  0.41023366860E+02  0.00000000000E+00 0. -1.
</event>
<event>
 7    1  0.2876796E-013  0.7246162E+02  0.7816164E-02  0.1226708E+00
        -11   -1    0    0    0    0  0.00000000000E+00  0.00000000000E+00  0.45593999997E+02  0.45594000000E+02  0.51100000000E-03 0. -1.
         11   -1    0    0    0    0 -0.00000000000E+00 -0.00000000000E+00 -0.45593999997E+02  0.45594000000E+02  0.51100000000E-03 0.  1.
    9900012    2    1    2    0    0  0.13614163300E+01  0.16424319195E+02 -0.88918761470E+01  0.72461623499E+02  0.70000069309E+02 0.  0.
         12    1    1    2    0    0 -0.13614163300E+01 -0.16424319195E+02  0.88918761470E+01  0.18726376501E+02  0.00000000000E+00 0. -1.
         11    1    3    3    0    0 -0.43894445549E+01  0.66978043045E+01 -0.76084111554E+01  0.11046072903E+02  0.51100000000E-03 0. -1.
        -11    1    3    3    0    0  0.29708382685E+02  0.80224422304E+01 -0.14481990807E+02  0.34009934418E+02  0.51100000000E-03 0.  1.
         12    1    3    3    0    0 -0.23957521800E+02  0.17040726601E+01  0.13198525815E+02  0.27405616179E+02  0.00000000000E+00 0. -1.
</event>
<event>
 7    1  0.2876796E-013  0.7246161E+02  0.7816164E-02  0.1226708E+00
        -11   -1    0    0    0    0  0.00000000000E+00  0.00000000000E+00  0.45593999997E+02  0.45594000000E+02  0.51100000000E-03 0.  1.
         11   -1    0    0    0    0 -0.00000000000E+00 -0.00000000000E+00 -0.45593999997E+02  0.45594000000E+02  0.51100000000E-03 0. -1.
    9900012    2    1    2    0    0 -0.48800522618E+01 -0.78607434475E+01  0.16281014678E+02  0.72461611225E+02  0.70000053320E+02 0.  0.
         12    1    1    2    0    0  0.48800522618E+01  0.78607434475E+01 -0.16281014678E+02  0.18726388775E+02  0.00000000000E+00 0. -1.
         11    1    3    3    0    0  0.25921988324E+02  0.92111606184E+01  0.10279498945E+02  0.29367721352E+02  0.51100000000E-03 0. -1.
        -11    1    3    3    0    0 -0.37343718166E+01  0.38482991966E+01 -0.48231398798E+01  0.72123240451E+01  0.51100000000E-03 0.  1.
        -12    1    3    3    0    0 -0.27067668769E+02 -0.20920203263E+02  0.10824655612E+02  0.35881565828E+02  0.00000000000E+00 0.  1.
</event>
<event>
 7    1  0.2876796E-013  0.7246155E+02  0.7816164E-02  0.1226708E+00
        -11   -1    0    0    0    0  0.00000000000E+00  0.00000000000E+00  0.45593999997E+02  0.45594000000E+02  0.51100000000E-03 0.  1.
         11   -1    0    0    0    0 -0.00000000000E+00 -0.00000000000E+00 -0.45593999997E+02  0.45594000000E+02  0.51100000000E-03 0. -1.
    9900012    2    1    2    0    0 -0.11113594432E+02 -0.56108614843E+01  0.13988790864E+02  0.72461547650E+02  0.69999970501E+02 0.  0.
         12    1    1    2    0    0  0.11113594432E+02  0.56108614843E+01 -0.13988790864E+02  0.18726452350E+02  0.00000000000E+00 0. -1.
         11    1    3    3    0    0 -0.96505332152E+01 -0.23767981570E+01 -0.50873807609E+01  0.11165276713E+02  0.51100000000E-03 0. -1.
        -11    1    3    3    0    0 -0.27108480199E+02  0.12154522312E+01  0.22228106829E+02  0.35077567708E+02  0.51100000000E-03 0.  1.
         12    1    3    3    0    0  0.25645418982E+02 -0.44495155585E+01 -0.31519352043E+01  0.26218703229E+02  0.00000000000E+00 0. -1.
</event>
<event>
 7    1  0.2876796E-013  0.7246158E+02  0.7816164E-02  0.1226708E+00
        -11   -1    0    0    0    0  0.00000000000E+00  0.00000000000E+00  0.45593999997E+02  0.45594000000E+02  0.51100000000E-03 0. -1.
         11   -1    0    0    0    0 -0.00000000000E+00 -0.00000000000E+00 -0.45593999997E+02  0.45594000000E+02  0.51100000000E-03 0.  1.
    9900012    2    1    2    0    0 -0.66294625932E+01  0.11480343199E+02 -0.13226139396E+02  0.72461579692E+02  0.70000012242E+02 0.  0.
         12    1    1    2    0    0  0.66294625932E+01 -0.11480343199E+02  0.13226139396E+02  0.18726420308E+02  0.00000000000E+00 0. -1.
         11    1    3    3    0    0 -0.14094207901E+02  0.11010320561E+02  0.73536314744E+01  0.19337780414E+02  0.51100000000E-03 0. -1.
        -11    1    3    3    0    0  0.19183971323E+02  0.16933969788E+02 -0.19915593344E+01  0.25666133276E+02  0.51100000000E-03 0.  1.
        -12    1    3    3    0    0 -0.11719226014E+02 -0.16463947151E+02 -0.18588211536E+02  0.27457666002E+02  0.00000000000E+00 0.  1.
</event>
<event>
 7    1  0.2876796E-013  0.7246159E+02  0.7816164E-02  0.1226708E+00
        -11   -1    0    0    0    0  0.00000000000E+00  0.00000000000E+00  0.45593999997E+02  0.45594000000E+02  0.51100000000E-03 0.  1.
         11   -1    0    0    0    0 -0.00000000000E+00 -0.00000000000E+00 -0.45593999997E+02  0.45594000000E+02  0.51100000000E-03 0. -1.
    9900012    2    1    2    0    0 -0.17858829296E+01  0.13015590116E+02  0.13344790149E+02  0.72461591161E+02  0.70000027183E+02 0.  0.
         12    1    1    2    0    0  0.17858829296E+01 -0.13015590116E+02 -0.13344790149E+02  0.18726408839E+02  0.00000000000E+00 0. -1.
         11    1    3    3    0    0 -0.23131486160E+02  0.16475428473E+02  0.35057585205E+01  0.28614607081E+02  0.51100000000E-03 0. -1.
        -11    1    3    3    0    0 -0.53850883029E+01  0.45314047445E+01 -0.80592714766E+01  0.10699750557E+02  0.51100000000E-03 0.  1.
        -12    1    3    3    0    0  0.26730691534E+02 -0.79912431017E+01  0.17898303105E+02  0.33147233523E+02  0.00000000000E+00 0.  1.
</event>
<event>
 7    1  0.2876796E-013  0.7246162E+02  0.7816164E-02  0.1226708E+00
        -11   -1    0    0    0    0  0.00000000000E+00  0.00000000000E+00  0.45593999997E+02  0.45594000000E+02  0.51100000000E-03 0. -1.
         11   -1    0    0    0    0 -0.00000000000E+00 -0.00000000000E+00 -0.45593999997E+02  0.45594000000E+02  0.51100000000E-03 0.  1.
    9900012    2    1    2    0    0 -0.83031838438E+01  0.11988535192E+02 -0.11747746901E+02  0.72461617668E+02  0.70000061713E+02 0.  0.
         12    1    1    2    0    0  0.83031838438E+01 -0.11988535192E+02  0.11747746901E+02  0.18726382332E+02  0.00000000000E+00 0. -1.
         11    1    3    3    0    0 -0.23762743952E+02  0.20804477996E+02 -0.17850219831E+01  0.31633536137E+02  0.51100000000E-03 0. -1.
        -11    1    3    3    0    0 -0.11340449162E+02 -0.23942574491E+01 -0.57871765536E+01  0.12954909056E+02  0.51100000000E-03 0.  1.
        -12    1    3    3    0    0  0.26800009270E+02 -0.64216853553E+01 -0.41755483646E+01  0.27873172475E+02  0.00000000000E+00 0.  1.
</event>
<event>
 7    1  0.2876796E-013  0.7246157E+02  0.7816164E-02  0.1226708E+00
        -11   -1    0    0    0    0  0.00000000000E+00  0.00000000000E+00  0.45593999997E+02  0.45594000000E+02  0.51100000000E-03 0. -1.
         11   -1    0    0    0    0 -0.00000000000E+00 -0.00000000000E+00 -0.45593999997E+02  0.45594000000E+02  0.51100000000E-03 0.  1.
    9900012    2    1    2    0    0 -0.40041063816E+00  0.18446264919E+02 -0.32021853585E+01  0.72461574574E+02  0.70000005576E+02 0.  0.
         12    1    1    2    0    0  0.40041063816E+00 -0.18446264919E+02  0.32021853585E+01  0.18726425426E+02  0.00000000000E+00 0. -1.
         11    1    3    3    0    0 -0.22809134271E+02  0.14705216651E+02  0.48662721741E+01  0.27571372982E+02  0.51100000000E-03 0. -1.
        -11    1    3    3    0    0 -0.61842810738E+01 -0.10378298811E+02 -0.40857345474E+01  0.12753338608E+02  0.51100000000E-03 0.  1.
         12    1    3    3    0    0  0.28593004707E+02  0.14119347079E+02 -0.39827229852E+01  0.32136862984E+02  0.00000000000E+00 0. -1.
</event>
<event>
 7    1  0.2876796E-013  0.7246153E+02  0.7816164E-02  0.1226708E+00
        -11   -1    0    0    0    0  0.00000000000E+00  0.00000000000E+00  0.45593999997E+02  0.45594000000E+02  0.51100000000E-03 0. -1.
         11   -1    0    0    0    0 -0.00000000000E+00 -0.00000000000E+00 -0.45593999997E+02  0.45594000000E+02  0.51100000000E-03 0.  1.
    9900012    2    1    2    0    0  0.99446640464E+01  0.85932597376E+01 -0.13339417403E+02  0.72461534435E+02  0.69999953286E+02 0.  0.
         12    1    1    2    0    0 -0.99446640464E+01 -0.85932597376E+01  0.13339417403E+02  0.18726465565E+02  0.00000000000E+00 0. -1.
         11    1    3    3    0    0  0.34366840974E+01  0.18062125954E+01 -0.32619417787E+01  0.50708446982E+01  0.51100000000E-03 0. -1.
        -11    1    3    3    0    0  0.16975574494E+02 -0.20087149483E+02 -0.23783565930E+02  0.35458732526E+02  0.51100000000E-03 0.  1.
         12    1    3    3    0    0 -0.10467594545E+02  0.26874196625E+02  0.13706090306E+02  0.31931957210E+02  0.00000000000E+00 0. -1.
</event>
<event>
 7    1  0.2876796E-013  0.7246156E+02  0.7816164E-02  0.1226708E+00
        -11   -1    0    0    0    0  0.00000000000E+00  0.00000000000E+00  0.45593999997E+02  0.45594000000E+02  0.51100000000E-03 0.  1.
         11   -1    0    0    0    0 -0.00000000000E+00 -0.00000000000E+00 -0.45593999997E+02  0.45594000000E+02  0.51100000000E-03 0. -1.
    9900012    2    1    2    0    0 -0.35423488801E+01  0.17265793477E+02  0.63264151074E+01  0.72461564459E+02  0.69999992398E+02 0.  0.
         12    1    1    2    0    0  0.35423488801E+01 -0.17265793477E+02 -0.63264151074E+01  0.18726435541E+02  0.00000000000E+00 0. -1.
         11    1    3    3    0    0 -0.35141666898E+00  0.37417151158E+01  0.38656609693E+01  0.53914061870E+01  0.51100000000E-03 0. -1.
        -11    1    3    3    0    0  0.17075531795E+02  0.34020551198E+02 -0.71075439713E+00  0.38071995770E+02  0.51100000000E-03 0.  1.
         12    1    3    3    0    0 -0.20266464006E+02 -0.20496472837E+02  0.31715085353E+01  0.28998162501E+02  0.00000000000E+00 0. -1.
</event>
<event>
 7    1  0.2876796E-013  0.7246159E+02  0.7816164E-02  0.1226708E+00
        -11   -1    0    0    0    0  0.00000000000E+00  0.00000000000E+00  0.45593999997E+02  0.45594000000E+02  0.51100000000E-03 0. -1.
         11   -1    0    0    0    0 -0.00000000000E+00 -0.00000000000E+00 -0.45593999997E+02  0.45594000000E+02  0.51100000000E-03 0.  1.
    9900012    2    1    2    0    0  0.18603141189E+02  0.18545261136E+01  0.10781108024E+01  0.72461589450E+02  0.70000024954E+02 0.  0.
         12    1    1    2    0    0 -0.18603141189E+02 -0.18545261136E+01 -0.10781108024E+01  0.18726410550E+02  0.00000000000E+00 0. -1.
         11    1    3    3    0    0  0.26252302513E+01 -0.19585573800E+02 -0.16839106247E+02  0.25962319512E+02  0.51100000000E-03 0. -1.
        -11    1    3    3    0    0  0.33527261769E+01  0.82999943316E+01 -0.98352717785E+01  0.13298994321E+02  0.51100000000E-03 0.  1.
        -12    1    3    3    0    0  0.12625184760E+02  0.13140105582E+02  0.27752488828E+02  0.33200275618E+02  0.00000000000E+00 0.  1.
</event>
<event>
 7    1  0.2876796E-013  0.7246160E+02  0.7816164E-02  0.1226708E+00
        -11   -1    0    0    0    0  0.00000000000E+00  0.00000000000E+00  0.45593999997E+02  0.45594000000E+02  0.51100000000E-03 0.  1.
         11   -1    0    0    0    0 -0.00000000000E+00 -0.00000000000E+00 -0.45593999997E+02  0.45594000000E+02  0.51100000000E-03 0. -1.
    9900012    2    1    2    0    0 -0.35540251492E+01  0.52235127186E+01  0.17628438558E+02  0.72461600830E+02  0.70000039778E+02 0.  0.
         12    1    1    2    0    0  0.35540251492E+01 -0.52235127186E+01 -0.17628438558E+02  0.18726399170E+02  0.00000000000E+00 0. -1.
         11    1    3    3    0    0 -0.12475224356E+02  0.40888368887E+01 -0.13207054221E+01  0.13194471301E+02  0.51100000000E-03 0. -1.
        -11    1    3    3    0    0 -0.10012431056E+02 -0.97055279487E+01  0.31250784056E+02  0.34220718181E+02  0.51100000000E-03 0.  1.
        -12    1    3    3    0    0  0.18933630262E+02  0.10840203779E+02 -0.12301640076E+02  0.25046411348E+02  0.00000000000E+00 0.  1.
</event>
<event>
 7    1  0.2876796E-013  0.7246173E+02  0.7816164E-02  0.1226708E+00
        -11   -1    0    0    0    0  0.00000000000E+00  0.00000000000E+00  0.45593999997E+02  0.45594000000E+02  0.51100000000E-03 0.  1.
         11   -1    0    0    0    0 -0.00000000000E+00 -0.00000000000E+00 -0.45593999997E+02  0.45594000000E+02  0.51100000000E-03 0. -1.
    9900012    2    1    2    0    0  0.11002363247E+02 -0.84736680507E+01  0.12562562446E+02  0.72461734423E+02  0.70000213807E+02 0.  0.
         12    1    1    2    0    0 -0.11002363247E+02  0.84736680507E+01 -0.12562562446E+02  0.18726265577E+02  0.00000000000E+00 0. -1.
         11    1    3    3    0    0  0.22439991276E+02  0.15760034333E+02 -0.32975132484E+01  0.27618933442E+02  0.51100000000E-03 0. -1.
        -11    1    3    3    0    0  0.32482430451E+01 -0.17523680866E+02 -0.49563043677E+01  0.18498525001E+02  0.51100000000E-03 0.  1.
        -12    1    3    3    0    0 -0.14685871073E+02 -0.67100215175E+01  0.20816380062E+02  0.26344275979E+02  0.00000000000E+00 0.  1.
</event>
<event>
 7    1  0.2876796E-013  0.7246158E+02  0.7816164E-02  0.1226708E+00
        -11   -1    0    0    0    0  0.00000000000E+00  0.00000000000E+00  0.45593999997E+02  0.45594000000E+02  0.51100000000E-03 0. -1.
         11   -1    0    0    0    0 -0.00000000000E+00 -0.00000000000E+00 -0.45593999997E+02  0.45594000000E+02  0.51100000000E-03 0.  1.
    9900012    2    1    2    0    0  0.12268881792E+02 -0.38544200225E+01  0.13612370673E+02  0.72461584179E+02  0.70000018088E+02 0.  0.
         12    1    1    2    0    0 -0.12268881792E+02  0.38544200225E+01 -0.13612370673E+02  0.18726415821E+02  0.00000000000E+00 0. -1.
         11    1    3    3    0    0 -0.16428396917E+02 -0.10433742218E+02 -0.99136103650E+01  0.21841128008E+02  0.51100000000E-03 0. -1.
        -11    1    3    3    0    0  0.97078265875E+01 -0.16403917465E+01 -0.81525961179E+01  0.12782707298E+02  0.51100000000E-03 0.  1.
        -12    1    3    3    0    0  0.18989452122E+02  0.82197139425E+01  0.31678577156E+02  0.37837748874E+02  0.00000000000E+00 0.  1.
</event>
<event>
 7    1  0.2876796E-013  0.7246150E+02  0.7816164E-02  0.1226708E+00
        -11   -1    0    0    0    0  0.00000000000E+00  0.00000000000E+00  0.45593999997E+02  0.45594000000E+02  0.51100000000E-03 0.  1.
         11   -1    0    0    0    0 -0.00000000000E+00 -0.00000000000E+00 -0.45593999997E+02  0.45594000000E+02  0.51100000000E-03 0. -1.
    9900012    2    1    2    0    0 -0.79169501177E+00  0.11571435844E+02  0.14702275149E+02  0.72461499979E+02  0.69999908401E+02 0.  0.
         12    1    1    2    0    0  0.79169501177E+00 -0.11571435844E+02 -0.14702275149E+02  0.18726500021E+02  0.00000000000E+00 0. -1.
         11    1    3    3    0    0  0.49287633912E+01  0.32754919360E+01  0.25164011054E+02  0.25850512734E+02  0.51100000000E-03 0. -1.
        -11    1    3    3    0    0 -0.77610158757E+01  0.95229717003E+01  0.15927353514E+02  0.20114694818E+02  0.51100000000E-03 0.  1.
         12    1    3    3    0    0  0.20405574727E+01 -0.12270277924E+01 -0.26389089419E+02  0.26496292427E+02  0.00000000000E+00 0. -1.
</event>
<event>
 7    1  0.2876796E-013  0.7246158E+02  0.7816164E-02  0.1226708E+00
        -11   -1    0    0    0    0  0.00000000000E+00  0.00000000000E+00  0.45593999997E+02  0.45594000000E+02  0.51100000000E-03 0.  1.
         11   -1    0    0    0    0 -0.00000000000E+00 -0.00000000000E+00 -0.45593999997E+02  0.45594000000E+02  0.51100000000E-03 0. -1.
    9900012    2    1    2    0    0  0.16869441213E+01 -0.72105609154E+01  0.17200024512E+02  0.72461579829E+02  0.70000012421E+02 0.  0.
         12    1    1    2    0    0 -0.16869441213E+01  0.72105609154E+01 -0.17200024512E+02  0.18726420171E+02  0.00000000000E+00 0. -1.
         11    1    3    3    0    0 -0.18609813227E+02  0.10276174514E+02 -0.82128663823E+00  0.21274384198E+02  0.51100000000E-03 0. -1.
        -11    1    3    3    0    0  0.79392974922E+00  0.11825043008E+02  0.50259464987E+00  0.11862317153E+02  0.51100000000E-03 0.  1.
         12    1    3    3    0    0  0.19502827599E+02 -0.29311778438E+02  0.17518716501E+02  0.39324878479E+02  0.00000000000E+00 0. -1.
</event>
<event>
 7    1  0.2876796E-013  0.7246164E+02  0.7816164E-02  0.1226708E+00
        -11   -1    0    0    0    0  0.00000000000E+00  0.00000000000E+00  0.45593999997E+02  0.45594000000E+02  0.51100000000E-03 0. -1.
         11   -1    0    0    0    0 -0.00000000000E+00 -0.00000000000E+00 -0.45593999997E+02  0.45594000000E+02  0.51100000000E-03 0.  1.
    9900012    2    1    2    0    0 -0.16222760150E+02  0.43914432064E+01 -0.82591754043E+01  0.72461636267E+02  0.70000085941E+02 0.  0.
         12    1    1    2    0    0  0.16222760150E+02 -0.43914432064E+01  0.82591754043E+01  0.18726363733E+02  0.00000000000E+00 0. -1.
         11    1    3    3    0    0 -0.87305189838E+01 -0.54491819005E+01  0.18250731650E+02  0.20952440219E+02  0.51100000000E-03 0. -1.
        -11    1    3    3    0    0 -0.69607588547E+01  0.15988518446E+02  0.59827345299E+01  0.18435780392E+02  0.51100000000E-03 0.  1.
        -12    1    3    3    0    0 -0.53148231141E+00 -0.61478933393E+01 -0.32492641585E+02  0.33073415655E+02  0.00000000000E+00 0.  1.
</event>
<event>
 7    1  0.2876796E-013  0.7246156E+02  0.7816164E-02  0.1226708E+00
        -11   -1    0    0    0    0  0.00000000000E+00  0.00000000000E+00  0.45593999997E+02  0.45594000000E+02  0.51100000000E-03 0. -1.
         11   -1    0    0    0    0 -0.00000000000E+00 -0.00000000000E+00 -0.45593999997E+02  0.45594000000E+02  0.51100000000E-03 0.  1.
    9900012    2    1    2    0    0  0.32099390819E+01  0.28801616622E+01 -0.18223074889E+02  0.72461561510E+02  0.69999988557E+02 0.  0.
         12    1    1    2    0    0 -0.32099390819E+01 -0.28801616622E+01  0.18223074889E+02  0.18726438490E+02  0.00000000000E+00 0. -1.
         11    1    3    3    0    0 -0.15828988347E+02  0.72562016243E+01 -0.55754927738E-01  0.17412996381E+02  0.51100000000E-03 0. -1.
        -11    1    3    3    0    0  0.27497343132E+02 -0.27353834782E+01 -0.29755938257E+02  0.40607906421E+02  0.51100000000E-03 0.  1.
         12    1    3    3    0    0 -0.84584157038E+01 -0.16406564838E+01  0.11588618295E+02  0.14440658708E+02  0.00000000000E+00 0. -1.
</event>
<event>
 7    1  0.2876796E-013  0.7246157E+02  0.7816164E-02  0.1226708E+00
        -11   -1    0    0    0    0  0.00000000000E+00  0.00000000000E+00  0.45593999997E+02  0.45594000000E+02  0.51100000000E-03 0.  1.
         11   -1    0    0    0    0 -0.00000000000E+00 -0.00000000000E+00 -0.45593999997E+02  0.45594000000E+02  0.51100000000E-03 0. -1.
    9900012    2    1    2    0    0 -0.55002677396E+01  0.11549372878E+02  0.13676186801E+02  0.72461573633E+02  0.70000004349E+02 0.  0.
         12    1    1    2    0    0  0.55002677396E+01 -0.11549372878E+02 -0.13676186801E+02  0.18726426367E+02  0.00000000000E+00 0. -1.
         11    1    3    3    0    0  0.46528035357E+01  0.48938120159E+01 -0.17061880032E+02  0.18349542972E+02  0.51100000000E-03 0. -1.
        -11    1    3    3    0    0  0.62639693816E+00 -0.95967762823E+01 -0.68217314536E+01  0.11790950276E+02  0.51100000000E-03 0.  1.
        -12    1    3    3    0    0 -0.10779468214E+02  0.16252337144E+02  0.37559798286E+02  0.42321080385E+02  0.00000000000E+00 0.  1.
</event>
<event>
 7    1  0.2876796E-013  0.7246133E+02  0.7816164E-02  0.1226709E+00
        -11   -1    0    0    0    0  0.00000000000E+00  0.00000000000E+00  0.45593999997E+02  0.45594000000E+02  0.51100000000E-03 0. -1.
         11   -1    0    0    0    0 -0.00000000000E+00 -0.00000000000E+00 -0.45593999997E+02  0.45594000000E+02  0.51100000000E-03 0.  1.
    9900012    2    1    2    0    0 -0.96298932884E+01 -0.33441625662E+00 -0.16057443038E+02  0.72461330358E+02  0.69999687437E+02 0.  0.
         12    1    1    2    0    0  0.96298932884E+01  0.33441625662E+00  0.16057443038E+02  0.18726669642E+02  0.00000000000E+00 0. -1.
         11    1    3    3    0    0  0.14843182036E+02 -0.14904323823E+02 -0.42312674842E+01  0.21456060831E+02  0.51100000000E-03 0. -1.
        -11    1    3    3    0    0  0.88181281884E+01  0.12741123761E+02 -0.80194307919E+01  0.17447260241E+02  0.51100000000E-03 0.  1.
         12    1    3    3    0    0 -0.33291203513E+02  0.18287838057E+01 -0.38067447618E+01  0.33558009286E+02  0.00000000000E+00 0. -1.
</event>
<event>
 7    1  0.2876796E-013  0.7246155E+02  0.7816164E-02  0.1226708E+00
        -11   -1    0    0    0    0  0.00000000000E+00  0.00000000000E+00  0.45593999997E+02  0.45594000000E+02  0.51100000000E-03 0. -1.
         11   -1    0    0    0    0 -0.00000000000E+00 -0.00000000000E+00 -0.45593999997E+02  0.45594000000E+02  0.51100000000E-03 0.  1.
    9900012    2    1    2    0    0 -0.58167913944E+01 -0.87085437908E+01 -0.15524367760E+02  0.72461553689E+02  0.69999978368E+02 0.  0.
         12    1    1    2    0    0  0.58167913944E+01  0.87085437908E+01  0.15524367760E+02  0.18726446311E+02  0.00000000000E+00 0. -1.
         11    1    3    3    0    0 -0.25039477150E+00 -0.29794853777E+02 -0.29274001383E+00  0.29797343944E+02  0.51100000000E-03 0. -1.
        -11    1    3    3    0    0  0.64436289145E+01 -0.57973613005E+01 -0.91397652943E+01  0.12596232037E+02  0.51100000000E-03 0.  1.
        -12    1    3    3    0    0 -0.12010025537E+02  0.26883671287E+02 -0.60918624524E+01  0.30067977708E+02  0.00000000000E+00 0.  1.
</event>
<event>
 7    1  0.2876796E-013  0.7246153E+02  0.7816164E-02  0.1226708E+00
        -11   -1    0    0    0    0  0.00000000000E+00  0.00000000000E+00  0.45593999997E+02  0.45594000000E+02  0.51100000000E-03 0. -1.
         11   -1    0    0    0    0 -0.00000000000E+00 -0.00000000000E+00 -0.45593999997E+02  0.45594000000E+02  0.51100000000E-03 0.  1.
    9900012    2    1    2    0    0 -0.11107212594E+02  0.12294413008E+02 -0.87268466826E+01  0.72461531677E+02  0.69999949694E+02 0.  0.
         12    1    1    2    0    0  0.11107212594E+02 -0.12294413008E+02  0.87268466826E+01  0.18726468323E+02  0.00000000000E+00 0. -1.
         11    1    3    3    0    0  0.26979940718E+01 -0.83819120013E+01  0.14422475699E+02  0.16898030251E+02  0.51100000000E-03 0. -1.
        -11    1    3    3    0    0 -0.18073984802E+02 -0.88418303936E+01 -0.53076396093E+01  0.20809082868E+02  0.51100000000E-03 0.  1.
        -12    1    3    3    0    0  0.42687781362E+01  0.29518155403E+02 -0.17841682773E+02  0.34754418558E+02  0.00000000000E+00 0.  1.
</event>
<event>
 7    1  0.2876796E-013  0.7246162E+02  0.7816164E-02  0.1226708E+00
        -11   -1    0    0    0    0  0.00000000000E+00  0.00000000000E+00  0.45593999997E+02  0.45594000000E+02  0.51100000000E-03 0. -1.
         11   -1    0    0    0    0 -0.00000000000E+00 -0.00000000000E+00 -0.45593999997E+02  0.45594000000E+02  0.51100000000E-03 0.  1.
    9900012    2    1    2    0    0 -0.10104970799E+01 -0.10089660573E+02  0.15743415597E+02  0.72461615152E+02  0.70000058436E+02 0.  0.
         12    1    1    2    0    0  0.10104970799E+01  0.10089660573E+02 -0.15743415597E+02  0.18726384848E+02  0.00000000000E+00 0. -1.
         11    1    3    3    0    0  0.11487089666E+02 -0.21794738821E+02  0.29242003259E+02  0.38236875188E+02  0.51100000000E-03 0. -1.
        -11    1    3    3    0    0 -0.57977311747E+01 -0.82760578952E+01 -0.65163653553E+01  0.12023719839E+02  0.51100000000E-03 0.  1.
        -12    1    3    3    0    0 -0.66998555708E+01  0.19981136144E+02 -0.69822223072E+01  0.22201020125E+02  0.00000000000E+00 0.  1.
</event>
<event>
 7    1  0.2876796E-013  0.7246161E+02  0.7816164E-02  0.1226708E+00
        -11   -1    0    0    0    0  0.00000000000E+00  0.00000000000E+00  0.45593999997E+02  0.45594000000E+02  0.51100000000E-03 0.  1.
         11   -1    0    0    0    0 -0.00000000000E+00 -0.00000000000E+00 -0.45593999997E+02  0.45594000000E+02  0.51100000000E-03 0. -1.
    9900012    2    1    2    0    0 -0.27823298117E+00 -0.16529192170E+02 -0.87969366019E+01  0.72461609505E+02  0.70000051079E+02 0.  0.
         12    1    1    2    0    0  0.27823298117E+00  0.16529192170E+02  0.87969366019E+01  0.18726390495E+02  0.00000000000E+00 0. -1.
         11    1    3    3    0    0 -0.83331813636E+01  0.11343631141E+02 -0.24668953719E+01  0.14290047311E+02  0.51100000000E-03 0. -1.
        -11    1    3    3    0    0  0.42318854165E+01 -0.77218509368E+01  0.21711746312E+02  0.23429378230E+02  0.51100000000E-03 0.  1.
        -12    1    3    3    0    0  0.38230629659E+01 -0.20150972375E+02 -0.28041787542E+02  0.34742183964E+02  0.00000000000E+00 0.  1.
</event>
<event>
 7    1  0.2876796E-013  0.7246154E+02  0.7816164E-02  0.1226708E+00
        -11   -1    0    0    0    0  0.00000000000E+00  0.00000000000E+00  0.45593999997E+02  0.45594000000E+02  0.51100000000E-03 0.  1.
         11   -1    0    0    0    0 -0.00000000000E+00 -0.00000000000E+00 -0.45593999997E+02  0.45594000000E+02  0.51100000000E-03 0. -1.
    9900012    2    1    2    0    0  0.10471193072E+02  0.48272595638E+01  0.14755741052E+02  0.72461542427E+02  0.69999963697E+02 0.  0.
         12    1    1    2    0    0 -0.10471193072E+02 -0.48272595638E+01 -0.14755741052E+02  0.18726457573E+02  0.00000000000E+00 0. -1.
         11    1    3    3    0    0 -0.13247873443E+02  0.26057311073E+02  0.47962090379E+01  0.29622512259E+02  0.51100000000E-03 0. -1.
        -11    1    3    3    0    0  0.46352127451E+01  0.24194709350E+01  0.11267798379E+02  0.12421848388E+02  0.51100000000E-03 0.  1.
        -12    1    3    3    0    0  0.19083853770E+02 -0.23649522444E+02 -0.13082663652E+01  0.30417181780E+02  0.00000000000E+00 0.  1.
</event>
<event>
 7    1  0.2876796E-013  0.7246156E+02  0.7816164E-02  0.1226708E+00
        -11   -1    0    0    0    0  0.00000000000E+00  0.00000000000E+00  0.45593999997E+02  0.45594000000E+02  0.51100000000E-03 0. -1.
         11   -1    0    0    0    0 -0.00000000000E+00 -0.00000000000E+00 -0.45593999997E+02  0.45594000000E+02  0.51100000000E-03 0.  1.
    9900012    2    1    2    0    0  0.14772309149E+01  0.11213733259E+00 -0.18667743494E+02  0.72461563256E+02  0.69999990831E+02 0.  0.
         12    1    1    2    0    0 -0.14772309149E+01 -0.11213733259E+00  0.18667743494E+02  0.18726436744E+02  0.00000000000E+00 0. -1.
         11    1    3    3    0    0 -0.87838068202E+01  0.13256019776E+02  0.12140995997E+01  0.15948396805E+02  0.51100000000E-03 0. -1.
        -11    1    3    3    0    0  0.31090634789E+01 -0.15381849632E+02 -0.35707009318E+02  0.39003308687E+02  0.51100000000E-03 0.  1.
         12    1    3    3    0    0  0.71519742562E+01  0.22379671880E+01  0.15825166224E+02  0.17509857764E+02  0.00000000000E+00 0. -1.
</event>
<event>
 7    1  0.2876796E-013  0.7246154E+02  0.7816164E-02  0.1226708E+00
        -11   -1    0    0    0    0  0.00000000000E+00  0.00000000000E+00  0.45593999997E+02  0.45594000000E+02  0.51100000000E-03 0.  1.
         11   -1    0    0    0    0 -0.00000000000E+00 -0.00000000000E+00 -0.45593999997E+02  0.45594000000E+02  0.51100000000E-03 0. -1.
    9900012    2    1    2    0    0 -0.59079170086E+01  0.17758288432E+02 -0.64818071730E+00  0.72461536648E+02  0.69999956170E+02 0.  0.
         12    1    1    2    0    0  0.59079170086E+01 -0.17758288432E+02  0.64818071730E+00  0.18726463352E+02  0.00000000000E+00 0. -1.
         11    1    3    3    0    0 -0.52531806846E+00 -0.34416614813E+01 -0.11226019498E+02  0.11753489135E+02  0.51100000000E-03 0. -1.
        -11    1    3    3    0    0  0.37415145736E+01  0.39315516110E+02  0.72605721987E+01  0.40155007748E+02  0.51100000000E-03 0.  1.
         12    1    3    3    0    0 -0.91241135137E+01 -0.18115566197E+02  0.33172665818E+01  0.20553039766E+02  0.00000000000E+00 0. -1.
</event>
<event>
 7    1  0.2876796E-013  0.7246156E+02  0.7816164E-02  0.1226708E+00
        -11   -1    0    0    0    0  0.00000000000E+00  0.00000000000E+00  0.45593999997E+02  0.45594000000E+02  0.51100000000E-03 0.  1.
         11   -1    0    0    0    0 -0.00000000000E+00 -0.00000000000E+00 -0.45593999997E+02  0.45594000000E+02  0.51100000000E-03 0. -1.
    9900012    2    1    2    0    0 -0.88776735885E-01 -0.18587340115E+02  0.22764884001E+01  0.72461561649E+02  0.69999988738E+02 0.  0.
         12    1    1    2    0    0  0.88776735885E-01  0.18587340115E+02 -0.22764884001E+01  0.18726438351E+02  0.00000000000E+00 0. -1.
         11    1    3    3    0    0  0.17493380362E+02  0.62255459482E+01 -0.58034137250E+01  0.19453929936E+02  0.51100000000E-03 0. -1.
        -11    1    3    3    0    0  0.54185111017E+01 -0.19083643044E+02 -0.10905777550E+02  0.22638058190E+02  0.51100000000E-03 0.  1.
        -12    1    3    3    0    0 -0.23000668200E+02 -0.57292430190E+01  0.18985679675E+02  0.30369573522E+02  0.00000000000E+00 0.  1.
</event>
<event>
 7    1  0.2876796E-013  0.7246158E+02  0.7816164E-02  0.1226708E+00
        -11   -1    0    0    0    0  0.00000000000E+00  0.00000000000E+00  0.45593999997E+02  0.45594000000E+02  0.51100000000E-03 0.  1.
         11   -1    0    0    0    0 -0.00000000000E+00 -0.00000000000E+00 -0.45593999997E+02  0.45594000000E+02  0.51100000000E-03 0. -1.
    9900012    2    1    2    0    0 -0.12811372053E+02  0.19670605592E+01  0.13515845181E+02  0.72461584110E+02  0.70000017997E+02 0.  0.
         12    1    1    2    0    0  0.12811372053E+02 -0.19670605592E+01 -0.13515845181E+02  0.18726415890E+02  0.00000000000E+00 0. -1.
         11    1    3    3    0    0  0.43393673947E+01 -0.41580667485E+01 -0.38111753161E+01  0.71165079936E+01  0.51100000000E-03 0. -1.
        -11    1    3    3    0    0 -0.29352198492E+02  0.19406180694E+02 -0.61703988024E+01  0.35724294634E+02  0.51100000000E-03 0.  1.
         12    1    3    3    0    0  0.12201459044E+02 -0.13281053387E+02  0.23497419299E+02  0.29620781482E+02  0.00000000000E+00 0. -1.
</event>
<event>
 7    1  0.2876796E-013  0.7246159E+02  0.7816164E-02  0.1226708E+00
        -11   -1    0    0    0    0  0.00000000000E+00  0.00000000000E+00  0.45593999997E+02  0.45594000000E+02  0.51100000000E-03 0.  1.
         11   -1    0    0    0    0 -0.00000000000E+00 -0.00000000000E+00 -0.45593999997E+02  0.45594000000E+02  0.51100000000E-03 0. -1.
    9900012    2    1    2    0    0  0.96819688496E+00  0.20765583393E+01  0.18585716527E+02  0.72461591947E+02  0.70000028207E+02 0.  0.
         12    1    1    2    0    0 -0.96819688496E+00 -0.20765583393E+01 -0.18585716527E+02  0.18726408053E+02  0.00000000000E+00 0. -1.
         11    1    3    3    0    0 -0.14407664343E+02 -0.28162398261E+01  0.15371692384E+02  0.21255609274E+02  0.51100000000E-03 0. -1.
        -11    1    3    3    0    0  0.41860488814E-01  0.97046284239E-01  0.24520563559E+02  0.24520791337E+02  0.51100000000E-03 0.  1.
         12    1    3    3    0    0  0.15334000739E+02  0.47957518812E+01 -0.21306539416E+02  0.26685191337E+02  0.00000000000E+00 0. -1.
</event>
<event>
 7    1  0.2876796E-013  0.7246158E+02  0.7816164E-02  0.1226708E+00
        -11   -1    0    0    0    0  0.00000000000E+00  0.00000000000E+00  0.45593999997E+02  0.45594000000E+02  0.51100000000E-03 0.  1.
         11   -1    0    0    0    0 -0.00000000000E+00 -0.00000000000E+00 -0.45593999997E+02  0.45594000000E+02  0.51100000000E-03 0. -1.
    9900012    2    1    2    0    0  0.14033710885E+02 -0.12398934129E+02  0.18206638211E-01  0.72461576417E+02  0.70000007976E+02 0.  0.
         12    1    1    2    0    0 -0.14033710885E+02  0.12398934129E+02 -0.18206638211E-01  0.18726423583E+02  0.00000000000E+00 0. -1.
         11    1    3    3    0    0  0.12613762621E+02 -0.74200970501E+01 -0.79517133428E+01  0.16655167158E+02  0.51100000000E-03 0. -1.
        -11    1    3    3    0    0  0.12108771715E+02  0.20995502777E+02 -0.51934397053E+01  0.24787200438E+02  0.51100000000E-03 0.  1.
         12    1    3    3    0    0 -0.10688823452E+02 -0.25974339855E+02  0.13163359686E+02  0.31019208822E+02  0.00000000000E+00 0. -1.
</event>
<event>
 7    1  0.2876796E-013  0.7246158E+02  0.7816164E-02  0.1226708E+00
        -11   -1    0    0    0    0  0.00000000000E+00  0.00000000000E+00  0.45593999997E+02  0.45594000000E+02  0.51100000000E-03 0. -1.
         11   -1    0    0    0    0 -0.00000000000E+00 -0.00000000000E+00 -0.45593999997E+02  0.45594000000E+02  0.51100000000E-03 0.  1.
    9900012    2    1    2    0    0  0.74481562049E+01 -0.83467168870E+01 -0.15017859037E+02  0.72461580062E+02  0.70000012724E+02 0.  0.
         12    1    1    2    0    0 -0.74481562049E+01  0.83467168870E+01  0.15017859037E+02  0.18726419938E+02  0.00000000000E+00 0. -1.
         11    1    3    3    0    0  0.43902432048E+01 -0.15230135117E+02  0.19341552857E+01  0.15967849198E+02  0.51100000000E-03 0. -1.
        -11    1    3    3    0    0 -0.12147728491E+02 -0.15103715023E+02 -0.21965754639E+02  0.29294775850E+02  0.51100000000E-03 0.  1.
         12    1    3    3    0    0  0.15205641491E+02  0.21987133254E+02  0.50137403164E+01  0.27198955014E+02  0.00000000000E+00 0. -1.
</event>
<event>
 7    1  0.2876796E-013  0.7246166E+02  0.7816164E-02  0.1226708E+00
        -11   -1    0    0    0    0  0.00000000000E+00  0.00000000000E+00  0.45593999997E+02  0.45594000000E+02  0.51100000000E-03 0. -1.
         11   -1    0    0    0    0 -0.00000000000E+00 -0.00000000000E+00 -0.45593999997E+02  0.45594000000E+02  0.51100000000E-03 0.  1.
    9900012    2    1    2    0    0  0.14671697868E+02  0.11459353678E+02 -0.20249476688E+01  0.72461657107E+02  0.70000113090E+02 0.  0.
         12    1    1    2    0    0 -0.14671697868E+02 -0.11459353678E+02  0.20249476688E+01  0.18726342893E+02  0.00000000000E+00 0. -1.
         11    1    3    3    0    0 -0.31313234624E+01  0.52286417943E+01  0.13667361959E+02  0.14964647166E+02  0.51100000000E-03 0. -1.
        -11    1    3    3    0    0 -0.16895457940E+02  0.11079560868E+02 -0.43106571582E+01  0.20659015790E+02  0.51100000000E-03 0.  1.
        -12    1    3    3    0    0  0.34698479270E+02 -0.48488489841E+01 -0.11381652469E+02  0.36837994151E+02  0.00000000000E+00 0.  1.
</event>
<event>
 7    1  0.2876796E-013  0.7246153E+02  0.7816164E-02  0.1226708E+00
        -11   -1    0    0    0    0  0.00000000000E+00  0.00000000000E+00  0.45593999997E+02  0.45594000000E+02  0.51100000000E-03 0. -1.
         11   -1    0    0    0    0 -0.00000000000E+00 -0.00000000000E+00 -0.45593999997E+02  0.45594000000E+02  0.51100000000E-03 0.  1.
    9900012    2    1    2    0    0  0.11245352892E+02 -0.90626059417E+00 -0.14946618602E+02  0.72461530030E+02  0.69999947548E+02 0.  0.
         12    1    1    2    0    0 -0.11245352892E+02  0.90626059417E+00  0.14946618602E+02  0.18726469970E+02  0.00000000000E+00 0. -1.
         11    1    3    3    0    0 -0.75352966626E+01  0.21211111154E+02 -0.44928085769E+01  0.22953807121E+02  0.51100000000E-03 0. -1.
        -11    1    3    3    0    0 -0.73776687276E+00  0.71830438904E-01 -0.18788199106E+02  0.18802815893E+02  0.51100000000E-03 0.  1.
        -12    1    3    3    0    0  0.19518416427E+02 -0.22189202187E+02  0.83343890816E+01  0.30704907016E+02  0.00000000000E+00 0.  1.
</event>
<event>
 7    1  0.2876796E-013  0.7246159E+02  0.7816164E-02  0.1226708E+00
        -11   -1    0    0    0    0  0.00000000000E+00  0.00000000000E+00  0.45593999997E+02  0.45594000000E+02  0.51100000000E-03 0.  1.
         11   -1    0    0    0    0 -0.00000000000E+00 -0.00000000000E+00 -0.45593999997E+02  0.45594000000E+02  0.51100000000E-03 0. -1.
    9900012    2    1    2    0    0  0.16611663822E+02 -0.68715153883E+01  0.52453073943E+01  0.72461592220E+02  0.70000028562E+02 0.  0.
         12    1    1    2    0    0 -0.16611663822E+02  0.68715153883E+01 -0.52453073943E+01  0.18726407780E+02  0.00000000000E+00 0. -1.
         11    1    3    3    0    0 -0.14303899859E+02 -0.15046382668E+02 -0.47473575238E+01  0.21296304522E+02  0.51100000000E-03 0. -1.
        -11    1    3    3    0    0  0.82224353299E+01 -0.76742142561E+01 -0.11526468311E+02  0.16104703636E+02  0.51100000000E-03 0.  1.
        -12    1    3    3    0    0  0.22693128351E+02  0.15849081536E+02  0.21519133229E+02  0.35060584063E+02  0.00000000000E+00 0.  1.
</event>
<event>
 7    1  0.2876796E-013  0.7246156E+02  0.7816164E-02  0.1226708E+00
        -11   -1    0    0    0    0  0.00000000000E+00  0.00000000000E+00  0.45593999997E+02  0.45594000000E+02  0.51100000000E-03 0. -1.
         11   -1    0    0    0    0 -0.00000000000E+00 -0.00000000000E+00 -0.45593999997E+02  0.45594000000E+02  0.51100000000E-03 0.  1.
    9900012    2    1    2    0    0 -0.15577727731E+02  0.89608541540E+01 -0.52646901666E+01  0.72461562245E+02  0.69999989514E+02 0.  0.
         12    1    1    2    0    0  0.15577727731E+02 -0.89608541540E+01  0.52646901666E+01  0.18726437755E+02  0.00000000000E+00 0. -1.
         11    1    3    3    0    0 -0.18073752562E+02 -0.71852404849E+01  0.43661808390E+01  0.19933683751E+02  0.51100000000E-03 0. -1.
        -11    1    3    3    0    0 -0.21297541577E+02 -0.14942345240E+01 -0.82108520842E+01  0.22874354773E+02  0.51100000000E-03 0.  1.
        -12    1    3    3    0    0  0.23793566408E+02  0.17640329163E+02 -0.14200189213E+01  0.29653523722E+02  0.00000000000E+00 0.  1.
</event>
<event>
 7    1  0.2876796E-013  0.7246156E+02  0.7816164E-02  0.1226708E+00
        -11   -1    0    0    0    0  0.00000000000E+00  0.00000000000E+00  0.45593999997E+02  0.45594000000E+02  0.51100000000E-03 0. -1.
         11   -1    0    0    0    0 -0.00000000000E+00 -0.00000000000E+00 -0.45593999997E+02  0.45594000000E+02  0.51100000000E-03 0.  1.
    9900012    2    1    2    0    0  0.15055201236E+01 -0.18618136314E+02  0.13334635910E+01  0.72461555709E+02  0.69999980999E+02 0.  0.
         12    1    1    2    0    0 -0.15055201236E+01  0.18618136314E+02 -0.13334635910E+01  0.18726444291E+02  0.00000000000E+00 0. -1.
         11    1    3    3    0    0  0.12196288316E+02 -0.91926436688E+01 -0.22265378963E+01  0.15434105661E+02  0.51100000000E-03 0. -1.
        -11    1    3    3    0    0 -0.17598759843E+01  0.77383106173E+01 -0.22906822972E+02  0.24242548415E+02  0.51100000000E-03 0.  1.
         12    1    3    3    0    0 -0.89308922080E+01 -0.17163803263E+02  0.26466824460E+02  0.32784901632E+02  0.00000000000E+00 0. -1.
</event>
<event>
 7    1  0.2876796E-013  0.7246159E+02  0.7816164E-02  0.1226708E+00
        -11   -1    0    0    0    0  0.00000000000E+00  0.00000000000E+00  0.45593999997E+02  0.45594000000E+02  0.51100000000E-03 0. -1.
         11   -1    0    0    0    0 -0.00000000000E+00 -0.00000000000E+00 -0.45593999997E+02  0.45594000000E+02  0.51100000000E-03 0.  1.
    9900012    2    1    2    0    0 -0.50304477160E+01  0.61820873996E+01 -0.16945642281E+02  0.72461590810E+02  0.70000026726E+02 0.  0.
         12    1    1    2    0    0  0.50304477160E+01 -0.61820873996E+01  0.16945642281E+02  0.18726409190E+02  0.00000000000E+00 0. -1.
         11    1    3    3    0    0 -0.86862076642E+00  0.47021374396E+01 -0.63941480808E+01  0.79843427079E+01  0.51100000000E-03 0. -1.
        -11    1    3    3    0    0 -0.21612339537E+02 -0.24103787296E+02 -0.83329328437E+01  0.33429381572E+02  0.51100000000E-03 0.  1.
         12    1    3    3    0    0  0.17450512587E+02  0.25583737257E+02 -0.22185613563E+01  0.31047866530E+02  0.00000000000E+00 0. -1.
</event>
<event>
 7    1  0.2876796E-013  0.7246144E+02  0.7816164E-02  0.1226708E+00
        -11   -1    0    0    0    0  0.00000000000E+00  0.00000000000E+00  0.45593999997E+02  0.45594000000E+02  0.51100000000E-03 0. -1.
         11   -1    0    0    0    0 -0.00000000000E+00 -0.00000000000E+00 -0.45593999997E+02  0.45594000000E+02  0.51100000000E-03 0.  1.
    9900012    2    1    2    0    0 -0.18309225506E+01  0.10707214653E+02 -0.15254092454E+02  0.72461439729E+02  0.69999829914E+02 0.  0.
         12    1    1    2    0    0  0.18309225506E+01 -0.10707214653E+02  0.15254092454E+02  0.18726560271E+02  0.00000000000E+00 0. -1.
         11    1    3    3    0    0  0.17671946009E+02 -0.11881104559E+00  0.13551071480E+02  0.22269785143E+02  0.51100000000E-03 0. -1.
        -11    1    3    3    0    0  0.97910479208E+01  0.51096402468E+01 -0.55819606723E+01  0.12374624360E+02  0.51100000000E-03 0.  1.
         12    1    3    3    0    0 -0.29293916481E+02  0.57163854516E+01 -0.23223203261E+02  0.37817030226E+02  0.00000000000E+00 0. -1.
</event>
<event>
 7    1  0.2876796E-013  0.7246155E+02  0.7816164E-02  0.1226708E+00
        -11   -1    0    0    0    0  0.00000000000E+00  0.00000000000E+00  0.45593999997E+02  0.45594000000E+02  0.51100000000E-03 0.  1.
         11   -1    0    0    0    0 -0.00000000000E+00 -0.00000000000E+00 -0.45593999997E+02  0.45594000000E+02  0.51100000000E-03 0. -1.
    9900012    2    1    2    0    0  0.48954091539E+01 -0.87246543006E+01  0.15830203169E+02  0.72461549300E+02  0.69999972651E+02 0.  0.
         12    1    1    2    0    0 -0.48954091539E+01  0.87246543006E+01 -0.15830203169E+02  0.18726450700E+02  0.00000000000E+00 0. -1.
         11    1    3    3    0    0  0.12390248172E+02 -0.13597165914E+02 -0.10747618253E+02  0.21305221638E+02  0.51100000000E-03 0. -1.
        -11    1    3    3    0    0 -0.52794613641E+01 -0.18159300535E+02  0.19004031871E+02  0.26810187165E+02  0.51100000000E-03 0.  1.
        -12    1    3    3    0    0 -0.22153776537E+01  0.23031812148E+02  0.75737895510E+01  0.24346140498E+02  0.00000000000E+00 0.  1.
</event>
<event>
 7    1  0.2876796E-013  0.7246156E+02  0.7816164E-02  0.1226708E+00
        -11   -1    0    0    0    0  0.00000000000E+00  0.00000000000E+00  0.45593999997E+02  0.45594000000E+02  0.51100000000E-03 0. -1.
         11   -1    0    0    0    0 -0.00000000000E+00 -0.00000000000E+00 -0.45593999997E+02  0.45594000000E+02  0.51100000000E-03 0.  1.
    9900012    2    1    2    0    0 -0.14006814875E+02 -0.89872324230E+01 -0.85859354308E+01  0.72461561556E+02  0.69999988617E+02 0.  0.
         12    1    1    2    0    0  0.14006814875E+02  0.89872324230E+01  0.85859354308E+01  0.18726438444E+02  0.00000000000E+00 0. -1.
         11    1    3    3    0    0 -0.21529936907E+02  0.14727883788E+02 -0.11627420512E+02  0.28559510712E+02  0.51100000000E-03 0. -1.
        -11    1    3    3    0    0  0.50849133536E+01 -0.11046283146E+02  0.19505307197E+02  0.22985511181E+02  0.51100000000E-03 0.  1.
        -12    1    3    3    0    0  0.24382086784E+01 -0.12668833065E+02 -0.16463822116E+02  0.20916539663E+02  0.00000000000E+00 0.  1.
</event>
<event>
 7    1  0.2876796E-013  0.7246151E+02  0.7816164E-02  0.1226708E+00
        -11   -1    0    0    0    0  0.00000000000E+00  0.00000000000E+00  0.45593999997E+02  0.45594000000E+02  0.51100000000E-03 0. -1.
         11   -1    0    0    0    0 -0.00000000000E+00 -0.00000000000E+00 -0.45593999997E+02  0.45594000000E+02  0.51100000000E-03 0.  1.
    9900012    2    1    2    0    0  0.13932710910E+02 -0.12477016329E+02 -0.94084766565E+00  0.72461506359E+02  0.69999916712E+02 0.  0.
         12    1    1    2    0    0 -0.13932710910E+02  0.12477016329E+02  0.94084766565E+00  0.18726493641E+02  0.00000000000E+00 0. -1.
         11    1    3    3    0    0  0.19533669974E+02 -0.65694095002E+01 -0.14670131059E+01  0.20660917974E+02  0.51100000000E-03 0. -1.
        -11    1    3    3    0    0  0.20045181906E+02 -0.81173522794E-01  0.11717442306E+02  0.23218836346E+02  0.51100000000E-03 0.  1.
        -12    1    3    3    0    0 -0.25646140970E+02 -0.58264333059E+01 -0.11191276866E+02  0.28581752039E+02  0.00000000000E+00 0.  1.
</event>
<event>
 7    1  0.2876796E-013  0.7246160E+02  0.7816164E-02  0.1226708E+00
        -11   -1    0    0    0    0  0.00000000000E+00  0.00000000000E+00  0.45593999997E+02  0.45594000000E+02  0.51100000000E-03 0. -1.
         11   -1    0    0    0    0 -0.00000000000E+00 -0.00000000000E+00 -0.45593999997E+02  0.45594000000E+02  0.51100000000E-03 0.  1.
    9900012    2    1    2    0    0 -0.31307906268E+01 -0.97321497332E+01 -0.15689533467E+02  0.72461600218E+02  0.70000038981E+02 0.  0.
         12    1    1    2    0    0  0.31307906268E+01  0.97321497332E+01  0.15689533467E+02  0.18726399782E+02  0.00000000000E+00 0. -1.
         11    1    3    3    0    0 -0.60959804025E+01  0.87420546352E+01  0.26106230808E+01  0.10972686519E+02  0.51100000000E-03 0. -1.
        -11    1    3    3    0    0 -0.13352021218E+02 -0.25616754862E+02 -0.28817413577E+02  0.40803650888E+02  0.51100000000E-03 0.  1.
         12    1    3    3    0    0  0.16317210993E+02  0.71425504931E+01  0.10517257029E+02  0.20685262811E+02  0.00000000000E+00 0. -1.
</event>
<event>
 7    1  0.2876796E-013  0.7246156E+02  0.7816164E-02  0.1226708E+00
        -11   -1    0    0    0    0  0.00000000000E+00  0.00000000000E+00  0.45593999997E+02  0.45594000000E+02  0.51100000000E-03 0.  1.
         11   -1    0    0    0    0 -0.00000000000E+00 -0.00000000000E+00 -0.45593999997E+02  0.45594000000E+02  0.51100000000E-03 0. -1.
    9900012    2    1    2    0    0  0.77826818213E+01 -0.28322724575E+01  0.16795462610E+02  0.72461562328E+02  0.69999989622E+02 0.  0.
         12    1    1    2    0    0 -0.77826818213E+01  0.28322724575E+01 -0.16795462610E+02  0.18726437672E+02  0.00000000000E+00 0. -1.
         11    1    3    3    0    0  0.57729753597E+01 -0.92924685312E+01 -0.61054135577E+01  0.12528100051E+02  0.51100000000E-03 0. -1.
        -11    1    3    3    0    0  0.82223386812E+01 -0.20475584460E+02  0.23564918160E+02  0.32282530578E+02  0.51100000000E-03 0.  1.
        -12    1    3    3    0    0 -0.62126322196E+01  0.26935780534E+02 -0.66404199301E+00  0.27650931699E+02  0.00000000000E+00 0.  1.
</event>
<event>
 7    1  0.2876796E-013  0.7246156E+02  0.7816164E-02  0.1226708E+00
        -11   -1    0    0    0    0  0.00000000000E+00  0.00000000000E+00  0.45593999997E+02  0.45594000000E+02  0.51100000000E-03 0. -1.
         11   -1    0    0    0    0 -0.00000000000E+00 -0.00000000000E+00 -0.45593999997E+02  0.45594000000E+02  0.51100000000E-03 0.  1.
    9900012    2    1    2    0    0  0.48435596035E+01  0.13457129893E+02  0.12088230232E+02  0.72461555470E+02  0.69999980689E+02 0.  0.
         12    1    1    2    0    0 -0.48435596035E+01 -0.13457129893E+02 -0.12088230232E+02  0.18726444530E+02  0.00000000000E+00 0. -1.
         11    1    3    3    0    0  0.16120276029E+02 -0.16957044520E+01  0.22842509320E+02  0.28009265344E+02  0.51100000000E-03 0. -1.
        -11    1    3    3    0    0  0.14190647607E+02  0.86633517401E+01 -0.63869874443E+01  0.17810720136E+02  0.51100000000E-03 0.  1.
        -12    1    3    3    0    0 -0.25467364033E+02  0.64894826047E+01 -0.43672916429E+01  0.26641569990E+02  0.00000000000E+00 0.  1.
</event>
<event>
 7    1  0.2876796E-013  0.7246149E+02  0.7816164E-02  0.1226708E+00
        -11   -1    0    0    0    0  0.00000000000E+00  0.00000000000E+00  0.45593999997E+02  0.45594000000E+02  0.51100000000E-03 0.  1.
         11   -1    0    0    0    0 -0.00000000000E+00 -0.00000000000E+00 -0.45593999997E+02  0.45594000000E+02  0.51100000000E-03 0. -1.
    9900012    2    1    2    0    0  0.13309737102E+02  0.67682277185E+01 -0.11301516009E+02  0.72461487450E+02  0.69999892080E+02 0.  0.
         12    1    1    2    0    0 -0.13309737102E+02 -0.67682277185E+01  0.11301516009E+02  0.18726512550E+02  0.00000000000E+00 0. -1.
         11    1    3    3    0    0  0.14794221265E+02  0.18827510902E+02 -0.28947046572E+02  0.37566948973E+02  0.51100000000E-03 0. -1.
        -11    1    3    3    0    0 -0.67107705478E+01 -0.16170515445E+02  0.16661366307E+01  0.17586813885E+02  0.51100000000E-03 0.  1.
        -12    1    3    3    0    0  0.52262863850E+01  0.41112322613E+01  0.15979393933E+02  0.17307724592E+02  0.00000000000E+00 0.  1.
</event>
<event>
 7    1  0.2876796E-013  0.7246157E+02  0.7816164E-02  0.1226708E+00
        -11   -1    0    0    0    0  0.00000000000E+00  0.00000000000E+00  0.45593999997E+02  0.45594000000E+02  0.51100000000E-03 0. -1.
         11   -1    0    0    0    0 -0.00000000000E+00 -0.00000000000E+00 -0.45593999997E+02  0.45594000000E+02  0.51100000000E-03 0.  1.
    9900012    2    1    2    0    0 -0.81919379526E+01  0.21609215690E+01 -0.16700347732E+02  0.72461573650E+02  0.70000004372E+02 0.  0.
         12    1    1    2    0    0  0.81919379526E+01 -0.21609215690E+01  0.16700347732E+02  0.18726426350E+02  0.00000000000E+00 0. -1.
         11    1    3    3    0    0 -0.57978408294E+01 -0.26422043789E+02  0.64122339110E+00  0.27058280137E+02  0.51100000000E-03 0. -1.
        -11    1    3    3    0    0 -0.98711827463E+01 -0.12208762751E+01 -0.93557784236E+01  0.13655086154E+02  0.51100000000E-03 0.  1.
        -12    1    3    3    0    0  0.74770856231E+01  0.29803841633E+02 -0.79857927000E+01  0.31748207360E+02  0.00000000000E+00 0.  1.
</event>
<event>
 7    1  0.2876796E-013  0.7246157E+02  0.7816164E-02  0.1226708E+00
        -11   -1    0    0    0    0  0.00000000000E+00  0.00000000000E+00  0.45593999997E+02  0.45594000000E+02  0.51100000000E-03 0.  1.
         11   -1    0    0    0    0 -0.00000000000E+00 -0.00000000000E+00 -0.45593999997E+02  0.45594000000E+02  0.51100000000E-03 0. -1.
    9900012    2    1    2    0    0 -0.16928651417E+02 -0.76729911576E+01  0.22858621490E+01  0.72461569537E+02  0.69999999014E+02 0.  0.
         12    1    1    2    0    0  0.16928651417E+02  0.76729911576E+01 -0.22858621490E+01  0.18726430463E+02  0.00000000000E+00 0. -1.
         11    1    3    3    0    0 -0.62833597285E+01 -0.60903085471E+01  0.13529435587E+02  0.16112668781E+02  0.51100000000E-03 0. -1.
        -11    1    3    3    0    0 -0.15740028056E+02  0.16014050310E+02  0.13012412017E+02  0.25952286167E+02  0.51100000000E-03 0.  1.
         12    1    3    3    0    0  0.50947363673E+01 -0.17596732920E+02 -0.24255985455E+02  0.30396614590E+02  0.00000000000E+00 0. -1.
</event>
<event>
 7    1  0.2876796E-013  0.7246157E+02  0.7816164E-02  0.1226708E+00
        -11   -1    0    0    0    0  0.00000000000E+00  0.00000000000E+00  0.45593999997E+02  0.45594000000E+02  0.51100000000E-03 0.  1.
         11   -1    0    0    0    0 -0.00000000000E+00 -0.00000000000E+00 -0.45593999997E+02  0.45594000000E+02  0.51100000000E-03 0. -1.
    9900012    2    1    2    0    0 -0.13525019734E+02  0.31813766665E+01  0.12555145661E+02  0.72461574851E+02  0.70000005936E+02 0.  0.
         12    1    1    2    0    0  0.13525019734E+02 -0.31813766665E+01 -0.12555145661E+02  0.18726425149E+02  0.00000000000E+00 0. -1.
         11    1    3    3    0    0 -0.96380527492E+01 -0.91626934079E+01  0.17588188998E+02  0.22049748383E+02  0.51100000000E-03 0. -1.
        -11    1    3    3    0    0 -0.23613101019E+02 -0.27194038935E+01  0.37918028952E+01  0.24069720953E+02  0.51100000000E-03 0.  1.
         12    1    3    3    0    0  0.19726134034E+02  0.15063473968E+02 -0.88248462325E+01  0.26342105515E+02  0.00000000000E+00 0. -1.
</event>
<event>
 7    1  0.2876796E-013  0.7246172E+02  0.7816164E-02  0.1226708E+00
        -11   -1    0    0    0    0  0.00000000000E+00  0.00000000000E+00  0.45593999997E+02  0.45594000000E+02  0.51100000000E-03 0. -1.
         11   -1    0    0    0    0 -0.00000000000E+00 -0.00000000000E+00 -0.45593999997E+02  0.45594000000E+02  0.51100000000E-03 0.  1.
    9900012    2    1    2    0    0 -0.53243712639E+01  0.17953154198E+02  0.93341634395E-01  0.72461724672E+02  0.70000201105E+02 0.  0.
         12    1    1    2    0    0  0.53243712639E+01 -0.17953154198E+02 -0.93341634395E-01  0.18726275328E+02  0.00000000000E+00 0. -1.
         11    1    3    3    0    0 -0.87261637120E+01 -0.81840789462E+01  0.93083675541E+01  0.15158192112E+02  0.51100000000E-03 0. -1.
        -11    1    3    3    0    0 -0.39295521729E+01 -0.13632270648E+02 -0.91163393891E+01  0.16863802283E+02  0.51100000000E-03 0.  1.
        -12    1    3    3    0    0  0.73313446210E+01  0.39769503792E+02 -0.98686530602E-01  0.40439730277E+02  0.00000000000E+00 0.  1.
</event>
<event>
 7    1  0.2876796E-013  0.7246165E+02  0.7816164E-02  0.1226708E+00
        -11   -1    0    0    0    0  0.00000000000E+00  0.00000000000E+00  0.45593999997E+02  0.45594000000E+02  0.51100000000E-03 0. -1.
         11   -1    0    0    0    0 -0.00000000000E+00 -0.00000000000E+00 -0.45593999997E+02  0.45594000000E+02  0.51100000000E-03 0.  1.
    9900012    2    1    2    0    0  0.17976693861E+02 -0.18629492530E+01  0.49034838231E+01  0.72461648095E+02  0.70000101349E+02 0.  0.
         12    1    1    2    0    0 -0.17976693861E+02  0.18629492530E+01 -0.49034838231E+01  0.18726351905E+02  0.00000000000E+00 0. -1.
         11    1    3    3    0    0  0.80004641060E+01  0.21079499242E+02  0.25029440017E+01  0.22685181135E+02  0.51100000000E-03 0. -1.
        -11    1    3    3    0    0  0.17774168491E+02 -0.31958975046E+01  0.16360083469E+02  0.24367748311E+02  0.51100000000E-03 0.  1.
        -12    1    3    3    0    0 -0.77979387358E+01 -0.19746550990E+02 -0.13959543647E+02  0.25408718649E+02  0.00000000000E+00 0.  1.
</event>
<event>
 7    1  0.2876796E-013  0.7246099E+02  0.7816164E-02  0.1226710E+00
        -11   -1    0    0    0    0  0.00000000000E+00  0.00000000000E+00  0.45593999997E+02  0.45594000000E+02  0.51100000000E-03 0.  1.
         11   -1    0    0    0    0 -0.00000000000E+00 -0.00000000000E+00 -0.45593999997E+02  0.45594000000E+02  0.51100000000E-03 0. -1.
    9900012    2    1    2    0    0  0.20565365502E+01  0.14496723700E+02  0.11675472910E+02  0.72460987203E+02  0.69999240412E+02 0.  0.
         12    1    1    2    0    0 -0.20565365502E+01 -0.14496723700E+02 -0.11675472910E+02  0.18727012797E+02  0.00000000000E+00 0. -1.
         11    1    3    3    0    0  0.94351224157E+01 -0.24502438075E+01 -0.10331980458E+02  0.14204754492E+02  0.51100000000E-03 0. -1.
        -11    1    3    3    0    0  0.15447803794E+02 -0.97236151346E+01  0.11653504782E+02  0.21656119396E+02  0.51100000000E-03 0.  1.
         12    1    3    3    0    0 -0.22826389660E+02  0.26670582642E+02  0.10353948587E+02  0.36600113315E+02  0.00000000000E+00 0. -1.
</event>
<event>
 7    1  0.2876796E-013  0.7246154E+02  0.7816164E-02  0.1226708E+00
        -11   -1    0    0    0    0  0.00000000000E+00  0.00000000000E+00  0.45593999997E+02  0.45594000000E+02  0.51100000000E-03 0.  1.
         11   -1    0    0    0    0 -0.00000000000E+00 -0.00000000000E+00 -0.45593999997E+02  0.45594000000E+02  0.51100000000E-03 0. -1.
    9900012    2    1    2    0    0 -0.65124059185E+00  0.78464305059E+01  0.16990876507E+02  0.72461535558E+02  0.69999954750E+02 0.  0.
         12    1    1    2    0    0  0.65124059185E+00 -0.78464305059E+01 -0.16990876507E+02  0.18726464442E+02  0.00000000000E+00 0. -1.
         11    1    3    3    0    0  0.27419591248E+02  0.12891414538E+02  0.91534651225E+01  0.31651358217E+02  0.51100000000E-03 0. -1.
        -11    1    3    3    0    0 -0.61328826493E+01  0.85503889488E+01 -0.53750195017E+01  0.11815762171E+02  0.51100000000E-03 0.  1.
        -12    1    3    3    0    0 -0.21937949190E+02 -0.13595372981E+02  0.13212430887E+02  0.28994415171E+02  0.00000000000E+00 0.  1.
</event>
<event>
 7    1  0.2876796E-013  0.7246161E+02  0.7816164E-02  0.1226708E+00
        -11   -1    0    0    0    0  0.00000000000E+00  0.00000000000E+00  0.45593999997E+02  0.45594000000E+02  0.51100000000E-03 0.  1.
         11   -1    0    0    0    0 -0.00000000000E+00 -0.00000000000E+00 -0.45593999997E+02  0.45594000000E+02  0.51100000000E-03 0. -1.
    9900012    2    1    2    0    0  0.97601479169E+01 -0.12340299754E+02  0.10155505931E+02  0.72461607232E+02  0.70000048118E+02 0.  0.
         12    1    1    2    0    0 -0.97601479169E+01  0.12340299754E+02 -0.10155505931E+02  0.18726392768E+02  0.00000000000E+00 0. -1.
         11    1    3    3    0    0 -0.80850946952E+01 -0.17486520937E+02  0.73746408555E+01  0.20628439076E+02  0.51100000000E-03 0. -1.
        -11    1    3    3    0    0  0.12260648144E+02 -0.20513149993E+02  0.77173293955E+01  0.25113143746E+02  0.51100000000E-03 0.  1.
         12    1    3    3    0    0  0.55845944685E+01  0.25659371175E+02 -0.49364643197E+01  0.26720024410E+02  0.00000000000E+00 0. -1.
</event>
<event>
 7    1  0.2876796E-013  0.7246158E+02  0.7816164E-02  0.1226708E+00
        -11   -1    0    0    0    0  0.00000000000E+00  0.00000000000E+00  0.45593999997E+02  0.45594000000E+02  0.51100000000E-03 0.  1.
         11   -1    0    0    0    0 -0.00000000000E+00 -0.00000000000E+00 -0.45593999997E+02  0.45594000000E+02  0.51100000000E-03 0. -1.
    9900012    2    1    2    0    0 -0.99882170908E+01 -0.10326986732E+02  0.12011140668E+02  0.72461584546E+02  0.70000018565E+02 0.  0.
         12    1    1    2    0    0  0.99882170908E+01  0.10326986732E+02 -0.12011140668E+02  0.18726415454E+02  0.00000000000E+00 0. -1.
         11    1    3    3    0    0  0.99240301931E+01 -0.14012284614E+02  0.95114826855E+01  0.19629029485E+02  0.51100000000E-03 0. -1.
        -11    1    3    3    0    0  0.20383082475E+01  0.33867630668E+01  0.22675093016E+02  0.23017052551E+02  0.51100000000E-03 0.  1.
         12    1    3    3    0    0 -0.21950555531E+02  0.29853481487E+00 -0.20175435033E+02  0.29815502510E+02  0.00000000000E+00 0. -1.
</event>
<event>
 7    1  0.2876796E-013  0.7246159E+02  0.7816164E-02  0.1226708E+00
        -11   -1    0    0    0    0  0.00000000000E+00  0.00000000000E+00  0.45593999997E+02  0.45594000000E+02  0.51100000000E-03 0. -1.
         11   -1    0    0    0    0 -0.00000000000E+00 -0.00000000000E+00 -0.45593999997E+02  0.45594000000E+02  0.51100000000E-03 0.  1.
    9900012    2    1    2    0    0 -0.35983018522E+01  0.12610930615E+02 -0.13367694433E+02  0.72461585457E+02  0.70000019752E+02 0.  0.
         12    1    1    2    0    0  0.35983018522E+01 -0.12610930615E+02  0.13367694433E+02  0.18726414543E+02  0.00000000000E+00 0. -1.
         11    1    3    3    0    0  0.12230841219E+02  0.12845189983E+02 -0.71349391627E+01  0.19118047488E+02  0.51100000000E-03 0. -1.
        -11    1    3    3    0    0  0.12244640162E+02 -0.15775955506E+02 -0.72317064685E+01  0.21239339997E+02  0.51100000000E-03 0.  1.
         12    1    3    3    0    0 -0.28073783234E+02  0.15541696138E+02  0.99895119852E+00  0.32104197971E+02  0.00000000000E+00 0. -1.
</event>
<event>
 7    1  0.2876796E-013  0.7246159E+02  0.7816164E-02  0.1226708E+00
        -11   -1    0    0    0    0  0.00000000000E+00  0.00000000000E+00  0.45593999997E+02  0.45594000000E+02  0.51100000000E-03 0. -1.
         11   -1    0    0    0    0 -0.00000000000E+00 -0.00000000000E+00 -0.45593999997E+02  0.45594000000E+02  0.51100000000E-03 0.  1.
    9900012    2    1    2    0    0 -0.11215309380E+02 -0.82910985915E+01 -0.12496116207E+02  0.72461590824E+02  0.70000026744E+02 0.  0.
         12    1    1    2    0    0  0.11215309380E+02  0.82910985915E+01  0.12496116207E+02  0.18726409176E+02  0.00000000000E+00 0. -1.
         11    1    3    3    0    0  0.92616151651E+01  0.82563650851E+01 -0.14603954341E+02  0.19162999831E+02  0.51100000000E-03 0. -1.
        -11    1    3    3    0    0 -0.10292583248E+02  0.91207755081E+01 -0.15364663767E+02  0.20620346959E+02  0.51100000000E-03 0.  1.
         12    1    3    3    0    0 -0.10184341297E+02 -0.25668239185E+02  0.17472501900E+02  0.32678244034E+02  0.00000000000E+00 0. -1.
</event>
<event>
 7    1  0.2876796E-013  0.7246145E+02  0.7816164E-02  0.1226708E+00
        -11   -1    0    0    0    0  0.00000000000E+00  0.00000000000E+00  0.45593999997E+02  0.45594000000E+02  0.51100000000E-03 0.  1.
         11   -1    0    0    0    0 -0.00000000000E+00 -0.00000000000E+00 -0.45593999997E+02  0.45594000000E+02  0.51100000000E-03 0. -1.
    9900012    2    1    2    0    0  0.13048907638E+02 -0.77090939544E+01  0.10999069532E+02  0.72461450646E+02  0.69999844135E+02 0.  0.
         12    1    1    2    0    0 -0.13048907638E+02  0.77090939544E+01 -0.10999069532E+02  0.18726549354E+02  0.00000000000E+00 0. -1.
         11    1    3    3    0    0 -0.17042083772E+01  0.11675447242E+01  0.92224722703E+00  0.22623057010E+01  0.51100000000E-03 0. -1.
        -11    1    3    3    0    0 -0.23668124517E+02  0.96531534069E+01 -0.26163318526E+01  0.25694526294E+02  0.51100000000E-03 0.  1.
         12    1    3    3    0    0  0.38421240532E+02 -0.18529792086E+02  0.12693154158E+02  0.44504618651E+02  0.00000000000E+00 0. -1.
</event>
<event>
 7    1  0.2876796E-013  0.7246155E+02  0.7816164E-02  0.1226708E+00
        -11   -1    0    0    0    0  0.00000000000E+00  0.00000000000E+00  0.45593999997E+02  0.45594000000E+02  0.51100000000E-03 0.  1.
         11   -1    0    0    0    0 -0.00000000000E+00 -0.00000000000E+00 -0.45593999997E+02  0.45594000000E+02  0.51100000000E-03 0. -1.
    9900012    2    1    2    0    0 -0.18214493825E+02  0.39525842470E+01 -0.18135953183E+01  0.72461552513E+02  0.69999976836E+02 0.  0.
         12    1    1    2    0    0  0.18214493825E+02 -0.39525842470E+01  0.18135953183E+01  0.18726447487E+02  0.00000000000E+00 0. -1.
         11    1    3    3    0    0 -0.35331898871E+02 -0.46716036736E+01 -0.47386991228E+01  0.35953055897E+02  0.51100000000E-03 0. -1.
        -11    1    3    3    0    0  0.10704696522E+02 -0.10538852069E+02  0.57894917616E+01  0.16098948589E+02  0.51100000000E-03 0.  1.
        -12    1    3    3    0    0  0.64127085241E+01  0.19163039990E+02 -0.28643879571E+01  0.20409548026E+02  0.00000000000E+00 0.  1.
</event>
<event>
 7    1  0.2876796E-013  0.7246159E+02  0.7816164E-02  0.1226708E+00
        -11   -1    0    0    0    0  0.00000000000E+00  0.00000000000E+00  0.45593999997E+02  0.45594000000E+02  0.51100000000E-03 0.  1.
         11   -1    0    0    0    0 -0.00000000000E+00 -0.00000000000E+00 -0.45593999997E+02  0.45594000000E+02  0.51100000000E-03 0. -1.
    9900012    2    1    2    0    0  0.10396320291E+02 -0.11749005622E+02  0.10225253519E+02  0.72461590354E+02  0.70000026131E+02 0.  0.
         12    1    1    2    0    0 -0.10396320291E+02  0.11749005622E+02 -0.10225253519E+02  0.18726409646E+02  0.00000000000E+00 0. -1.
         11    1    3    3    0    0  0.16944502616E+01  0.22224551043E+01  0.46103462031E+00  0.28324938768E+01  0.51100000000E-03 0. -1.
        -11    1    3    3    0    0  0.35688968963E+02 -0.44631624680E+01  0.17486089392E+02  0.39992319855E+02  0.51100000000E-03 0.  1.
         12    1    3    3    0    0 -0.26987098934E+02 -0.95082982588E+01 -0.77218704933E+01  0.29636776622E+02  0.00000000000E+00 0. -1.
</event>
<event>
 7    1  0.2876796E-013  0.7246158E+02  0.7816164E-02  0.1226708E+00
        -11   -1    0    0    0    0  0.00000000000E+00  0.00000000000E+00  0.45593999997E+02  0.45594000000E+02  0.51100000000E-03 0.  1.
         11   -1    0    0    0    0 -0.00000000000E+00 -0.00000000000E+00 -0.45593999997E+02  0.45594000000E+02  0.51100000000E-03 0. -1.
    9900012    2    1    2    0    0  0.18216739684E+02  0.11604246280E+01 -0.41812221198E+01  0.72461579935E+02  0.70000012559E+02 0.  0.
         12    1    1    2    0    0 -0.18216739684E+02 -0.11604246280E+01  0.41812221198E+01  0.18726420065E+02  0.00000000000E+00 0. -1.
         11    1    3    3    0    0 -0.20681642206E+02 -0.33556389788E+01 -0.12195567772E+02  0.24242988901E+02  0.51100000000E-03 0. -1.
        -11    1    3    3    0    0  0.10237508447E+02  0.12183547555E+02 -0.36708927251E+01  0.16331590978E+02  0.51100000000E-03 0.  1.
        -12    1    3    3    0    0  0.28660873444E+02 -0.76674839482E+01  0.11685238377E+02  0.31887000056E+02  0.00000000000E+00 0.  1.
</event>
<event>
 7    1  0.2876796E-013  0.7246157E+02  0.7816164E-02  0.1226708E+00
        -11   -1    0    0    0    0  0.00000000000E+00  0.00000000000E+00  0.45593999997E+02  0.45594000000E+02  0.51100000000E-03 0. -1.
         11   -1    0    0    0    0 -0.00000000000E+00 -0.00000000000E+00 -0.45593999997E+02  0.45594000000E+02  0.51100000000E-03 0.  1.
    9900012    2    1    2    0    0 -0.18600665383E+02 -0.21441433945E+01  0.31168902502E+00  0.72461568048E+02  0.69999997074E+02 0.  0.
         12    1    1    2    0    0  0.18600665383E+02  0.21441433945E+01 -0.31168902502E+00  0.18726431952E+02  0.00000000000E+00 0. -1.
         11    1    3    3    0    0 -0.16909728090E+02  0.14248508821E+02 -0.22980662065E+02  0.31891530802E+02  0.51100000000E-03 0. -1.
        -11    1    3    3    0    0 -0.99813892267E+00  0.38254977966E+01  0.19613798485E+02  0.20008293430E+02  0.51100000000E-03 0.  1.
        -12    1    3    3    0    0 -0.69279837001E+00 -0.20218150012E+02  0.36785526049E+01  0.20561743816E+02  0.00000000000E+00 0.  1.
</event>
<event>
 7    1  0.2876796E-013  0.7246156E+02  0.7816164E-02  0.1226708E+00
        -11   -1    0    0    0    0  0.00000000000E+00  0.00000000000E+00  0.45593999997E+02  0.45594000000E+02  0.51100000000E-03 0. -1.
         11   -1    0    0    0    0 -0.00000000000E+00 -0.00000000000E+00 -0.45593999997E+02  0.45594000000E+02  0.51100000000E-03 0.  1.
    9900012    2    1    2    0    0  0.78626585771E+01 -0.15303944733E+02 -0.73923801643E+01  0.72461563906E+02  0.69999991678E+02 0.  0.
         12    1    1    2    0    0 -0.78626585771E+01  0.15303944733E+02  0.73923801643E+01  0.18726436094E+02  0.00000000000E+00 0. -1.
         11    1    3    3    0    0 -0.17030669967E+01 -0.54109690809E+01  0.12767069506E+02  0.13970579359E+02  0.51100000000E-03 0. -1.
        -11    1    3    3    0    0  0.19837537152E+02  0.14407444179E+02 -0.20723992390E+02  0.32102744258E+02  0.51100000000E-03 0.  1.
         12    1    3    3    0    0 -0.10271811579E+02 -0.24300419831E+02  0.56454271979E+00  0.26388240289E+02  0.00000000000E+00 0. -1.
</event>
<event>
 7    1  0.2876796E-013  0.7246157E+02  0.7816164E-02  0.1226708E+00
        -11   -1    0    0    0    0  0.00000000000E+00  0.00000000000E+00  0.45593999997E+02  0.45594000000E+02  0.51100000000E-03 0.  1.
         11   -1    0    0    0    0 -0.00000000000E+00 -0.00000000000E+00 -0.45593999997E+02  0.45594000000E+02  0.51100000000E-03 0. -1.
    9900012    2    1    2    0    0 -0.11393864904E+02  0.69783329038E+01  0.13121050812E+02  0.72461567826E+02  0.69999996784E+02 0.  0.
         12    1    1    2    0    0  0.11393864904E+02 -0.69783329038E+01 -0.13121050812E+02  0.18726432174E+02  0.00000000000E+00 0. -1.
         11    1    3    3    0    0 -0.10243639083E+02  0.18851715279E+02  0.21972388549E+01  0.21567270793E+02  0.51100000000E-03 0. -1.
        -11    1    3    3    0    0 -0.18597674997E+02 -0.42438404393E+01  0.21797512190E+02  0.28965759698E+02  0.51100000000E-03 0.  1.
        -12    1    3    3    0    0  0.17447449175E+02 -0.76295419358E+01 -0.10873700233E+02  0.21928537335E+02  0.00000000000E+00 0.  1.
</event>
<event>
 7    1  0.2876796E-013  0.7246160E+02  0.7816164E-02  0.1226708E+00
        -11   -1    0    0    0    0  0.00000000000E+00  0.00000000000E+00  0.45593999997E+02  0.45594000000E+02  0.51100000000E-03 0.  1.
         11   -1    0    0    0    0 -0.00000000000E+00 -0.00000000000E+00 -0.45593999997E+02  0.45594000000E+02  0.51100000000E-03 0. -1.
    9900012    2    1    2    0    0  0.65447963555E+00 -0.17929148569E+02  0.53661280163E+01  0.72461600403E+02  0.70000039222E+02 0.  0.
         12    1    1    2    0    0 -0.65447963555E+00  0.17929148569E+02 -0.53661280163E+01  0.18726399597E+02  0.00000000000E+00 0. -1.
         11    1    3    3    0    0  0.17028867866E+01  0.15020956510E+02 -0.90718817974E+01  0.17630314730E+02  0.51100000000E-03 0. -1.
        -11    1    3    3    0    0  0.16652635024E+01  0.96824081907E+01  0.52356034598E+01  0.11132550236E+02  0.51100000000E-03 0.  1.
        -12    1    3    3    0    0 -0.27136706534E+01 -0.42632513269E+02  0.92024063539E+01  0.43698735437E+02  0.00000000000E+00 0.  1.
</event>
<event>
 7    1  0.2876796E-013  0.7246149E+02  0.7816164E-02  0.1226708E+00
        -11   -1    0    0    0    0  0.00000000000E+00  0.00000000000E+00  0.45593999997E+02  0.45594000000E+02  0.51100000000E-03 0.  1.
         11   -1    0    0    0    0 -0.00000000000E+00 -0.00000000000E+00 -0.45593999997E+02  0.45594000000E+02  0.51100000000E-03 0. -1.
    9900012    2    1    2    0    0 -0.13399845404E+02  0.12701204152E+02  0.31314214713E+01  0.72461488200E+02  0.69999893056E+02 0.  0.
         12    1    1    2    0    0  0.13399845404E+02 -0.12701204152E+02 -0.31314214713E+01  0.18726511800E+02  0.00000000000E+00 0. -1.
         11    1    3    3    0    0  0.15217057792E+02 -0.14719722304E+02 -0.13552929313E+01  0.21214756462E+02  0.51100000000E-03 0. -1.
        -11    1    3    3    0    0 -0.74559786828E+00  0.10749536470E+02  0.13755189980E+02  0.17473228155E+02  0.51100000000E-03 0.  1.
         12    1    3    3    0    0 -0.27871305328E+02  0.16671389986E+02 -0.92684755776E+01  0.33773503583E+02  0.00000000000E+00 0. -1.
</event>
<event>
 7    1  0.2876796E-013  0.7246157E+02  0.7816164E-02  0.1226708E+00
        -11   -1    0    0    0    0  0.00000000000E+00  0.00000000000E+00  0.45593999997E+02  0.45594000000E+02  0.51100000000E-03 0.  1.
         11   -1    0    0    0    0 -0.00000000000E+00 -0.00000000000E+00 -0.45593999997E+02  0.45594000000E+02  0.51100000000E-03 0. -1.
    9900012    2    1    2    0    0  0.13550193454E+01  0.18346911835E+02 -0.34977253259E+01  0.72461565909E+02  0.69999994288E+02 0.  0.
         12    1    1    2    0    0 -0.13550193454E+01 -0.18346911835E+02  0.34977253259E+01  0.18726434091E+02  0.00000000000E+00 0. -1.
         11    1    3    3    0    0 -0.19274944388E+01 -0.16803396310E+01 -0.10053633544E+02  0.10373732394E+02  0.51100000000E-03 0. -1.
        -11    1    3    3    0    0 -0.25979930639E+02  0.11171642489E+02 -0.62144969263E+01  0.28954833175E+02  0.51100000000E-03 0.  1.
        -12    1    3    3    0    0  0.29262444423E+02  0.88556089768E+01  0.12770405145E+02  0.33133000340E+02  0.00000000000E+00 0.  1.
</event>
<event>
 7    1  0.2876796E-013  0.7246157E+02  0.7816164E-02  0.1226708E+00
        -11   -1    0    0    0    0  0.00000000000E+00  0.00000000000E+00  0.45593999997E+02  0.45594000000E+02  0.51100000000E-03 0. -1.
         11   -1    0    0    0    0 -0.00000000000E+00 -0.00000000000E+00 -0.45593999997E+02  0.45594000000E+02  0.51100000000E-03 0.  1.
    9900012    2    1    2    0    0 -0.14623017582E+02 -0.11686631147E+02  0.51901214383E+00  0.72461565092E+02  0.69999993222E+02 0.  0.
         12    1    1    2    0    0  0.14623017582E+02  0.11686631147E+02 -0.51901214383E+00  0.18726434908E+02  0.00000000000E+00 0. -1.
         11    1    3    3    0    0 -0.16809310430E+02 -0.19225223617E+02 -0.13542821970E+02  0.28906230598E+02  0.51100000000E-03 0. -1.
        -11    1    3    3    0    0 -0.21506876964E-01 -0.40627544556E+01 -0.13218371929E+02  0.13828658395E+02  0.51100000000E-03 0.  1.
        -12    1    3    3    0    0  0.22077997247E+01  0.11601346925E+02  0.27280206043E+02  0.29726676098E+02  0.00000000000E+00 0.  1.
</event>
<event>
 7    1  0.2876796E-013  0.7246155E+02  0.7816164E-02  0.1226708E+00
        -11   -1    0    0    0    0  0.00000000000E+00  0.00000000000E+00  0.45593999997E+02  0.45594000000E+02  0.51100000000E-03 0.  1.
         11   -1    0    0    0    0 -0.00000000000E+00 -0.00000000000E+00 -0.45593999997E+02  0.45594000000E+02  0.51100000000E-03 0. -1.
    9900012    2    1    2    0    0  0.11059799759E+02  0.19969399828E-01  0.15111591525E+02  0.72461554317E+02  0.69999979187E+02 0.  0.
         12    1    1    2    0    0 -0.11059799759E+02 -0.19969399828E-01 -0.15111591525E+02  0.18726445683E+02  0.00000000000E+00 0. -1.
         11    1    3    3    0    0  0.49622027627E+01  0.98358004203E+00 -0.10835764330E+02  0.11958456207E+02  0.51100000000E-03 0. -1.
        -11    1    3    3    0    0  0.23500606533E+02 -0.16876944190E+02  0.58481105614E+01  0.29517963176E+02  0.51100000000E-03 0.  1.
         12    1    3    3    0    0 -0.17403009537E+02  0.15913333548E+02  0.20099245294E+02  0.30985134935E+02  0.00000000000E+00 0. -1.
</event>
<event>
 7    1  0.2876796E-013  0.7246155E+02  0.7816164E-02  0.1226708E+00
        -11   -1    0    0    0    0  0.00000000000E+00  0.00000000000E+00  0.45593999997E+02  0.45594000000E+02  0.51100000000E-03 0.  1.
         11   -1    0    0    0    0 -0.00000000000E+00 -0.00000000000E+00 -0.45593999997E+02  0.45594000000E+02  0.51100000000E-03 0. -1.
    9900012    2    1    2    0    0  0.38885953287E+01  0.17342924356E+02  0.58976114256E+01  0.72461547603E+02  0.69999970440E+02 0.  0.
         12    1    1    2    0    0 -0.38885953287E+01 -0.17342924356E+02 -0.58976114256E+01  0.18726452397E+02  0.00000000000E+00 0. -1.
         11    1    3    3    0    0  0.12542276390E+01  0.56984144302E+01 -0.19124329819E+00  0.58379438374E+01  0.51100000000E-03 0. -1.
        -11    1    3    3    0    0  0.30713322634E+02  0.18200181822E+02  0.11036982029E+02  0.37368031499E+02  0.51100000000E-03 0.  1.
         12    1    3    3    0    0 -0.28078954944E+02 -0.65556718958E+01 -0.49481273052E+01  0.29255572266E+02  0.00000000000E+00 0. -1.
</event>
<event>
 7    1  0.2876796E-013  0.7246151E+02  0.7816164E-02  0.1226708E+00
        -11   -1    0    0    0    0  0.00000000000E+00  0.00000000000E+00  0.45593999997E+02  0.45594000000E+02  0.51100000000E-03 0.  1.
         11   -1    0    0    0    0 -0.00000000000E+00 -0.00000000000E+00 -0.45593999997E+02  0.45594000000E+02  0.51100000000E-03 0. -1.
    9900012    2    1    2    0    0 -0.74992975281E+01  0.71739441389E+01  0.15587708784E+02  0.72461505318E+02  0.69999915356E+02 0.  0.
         12    1    1    2    0    0  0.74992975281E+01 -0.71739441389E+01 -0.15587708784E+02  0.18726494682E+02  0.00000000000E+00 0. -1.
         11    1    3    3    0    0 -0.24598513624E+02 -0.50696019311E+01 -0.54836028121E+01  0.25707151463E+02  0.51100000000E-03 0. -1.
        -11    1    3    3    0    0 -0.10554456054E+02  0.85076088557E+01  0.94562568084E+01  0.16528664318E+02  0.51100000000E-03 0.  1.
        -12    1    3    3    0    0  0.27653672151E+02  0.37359372143E+01  0.11615054788E+02  0.30225689537E+02  0.00000000000E+00 0.  1.
</event>
<event>
 7    1  0.2876796E-013  0.7246154E+02  0.7816164E-02  0.1226708E+00
        -11   -1    0    0    0    0  0.00000000000E+00  0.00000000000E+00  0.45593999997E+02  0.45594000000E+02  0.51100000000E-03 0.  1.
         11   -1    0    0    0    0 -0.00000000000E+00 -0.00000000000E+00 -0.45593999997E+02  0.45594000000E+02  0.51100000000E-03 0. -1.
    9900012    2    1    2    0    0 -0.42469009564E+01  0.78893614040E+01  0.16443904492E+02  0.72461543153E+02  0.69999964644E+02 0.  0.
         12    1    1    2    0    0  0.42469009564E+01 -0.78893614040E+01 -0.16443904492E+02  0.18726456847E+02  0.00000000000E+00 0. -1.
         11    1    3    3    0    0 -0.30611804303E+02 -0.25786811518E+01  0.35872587357E+01  0.30928960290E+02  0.51100000000E-03 0. -1.
        -11    1    3    3    0    0 -0.51550803942E+01 -0.18335991390E+01  0.32324123613E+01  0.63549531554E+01  0.51100000000E-03 0.  1.
         12    1    3    3    0    0  0.31519983740E+02  0.12301641695E+02  0.96242333949E+01  0.35177629707E+02  0.00000000000E+00 0. -1.
</event>
<event>
 7    1  0.2876796E-013  0.7246158E+02  0.7816164E-02  0.1226708E+00
        -11   -1    0    0    0    0  0.00000000000E+00  0.00000000000E+00  0.45593999997E+02  0.45594000000E+02  0.51100000000E-03 0.  1.
         11   -1    0    0    0    0 -0.00000000000E+00 -0.00000000000E+00 -0.45593999997E+02  0.45594000000E+02  0.51100000000E-03 0. -1.
    9900012    2    1    2    0    0 -0.16001185537E+02  0.70852912739E+01  0.66662902015E+01  0.72461582402E+02  0.70000015772E+02 0.  0.
         12    1    1    2    0    0  0.16001185537E+02 -0.70852912739E+01 -0.66662902015E+01  0.18726417598E+02  0.00000000000E+00 0. -1.
         11    1    3    3    0    0  0.79024022890E+01  0.47044873844E+00  0.89796240709E+01  0.11970920293E+02  0.51100000000E-03 0. -1.
        -11    1    3    3    0    0 -0.26352558555E+02 -0.20189213408E+02 -0.44312974724E+01  0.33491761345E+02  0.51100000000E-03 0.  1.
         12    1    3    3    0    0  0.24489707293E+01  0.26804055943E+02  0.21179636031E+01  0.26998900764E+02  0.00000000000E+00 0. -1.
</event>
<event>
 7    1  0.2876796E-013  0.7246154E+02  0.7816164E-02  0.1226708E+00
        -11   -1    0    0    0    0  0.00000000000E+00  0.00000000000E+00  0.45593999997E+02  0.45594000000E+02  0.51100000000E-03 0.  1.
         11   -1    0    0    0    0 -0.00000000000E+00 -0.00000000000E+00 -0.45593999997E+02  0.45594000000E+02  0.51100000000E-03 0. -1.
    9900012    2    1    2    0    0  0.12638438408E+02  0.10880706701E+02  0.85182321964E+01  0.72461543222E+02  0.69999964733E+02 0.  0.
         12    1    1    2    0    0 -0.12638438408E+02 -0.10880706701E+02 -0.85182321964E+01  0.18726456778E+02  0.00000000000E+00 0. -1.
         11    1    3    3    0    0  0.89668626183E-01  0.22439874436E+02  0.15236019861E+01  0.22491717774E+02  0.51100000000E-03 0. -1.
        -11    1    3    3    0    0  0.10788143738E+02  0.15173740262E+02 -0.68190445856E+01  0.19827400439E+02  0.51100000000E-03 0.  1.
        -12    1    3    3    0    0  0.17606260437E+01 -0.26732907997E+02  0.13813674796E+02  0.30142425008E+02  0.00000000000E+00 0.  1.
</event>
<event>
 7    1  0.2876796E-013  0.7246158E+02  0.7816164E-02  0.1226708E+00
        -11   -1    0    0    0    0  0.00000000000E+00  0.00000000000E+00  0.45593999997E+02  0.45594000000E+02  0.51100000000E-03 0.  1.
         11   -1    0    0    0    0 -0.00000000000E+00 -0.00000000000E+00 -0.45593999997E+02  0.45594000000E+02  0.51100000000E-03 0. -1.
    9900012    2    1    2    0    0  0.80171008664E+01  0.14075753777E+02 -0.93956353763E+01  0.72461582435E+02  0.70000015815E+02 0.  0.
         12    1    1    2    0    0 -0.80171008664E+01 -0.14075753777E+02  0.93956353763E+01  0.18726417565E+02  0.00000000000E+00 0. -1.
         11    1    3    3    0    0 -0.43568843210E+01  0.12131436804E+02 -0.88856432401E+01  0.15655952733E+02  0.51100000000E-03 0. -1.
        -11    1    3    3    0    0  0.25370749492E+02  0.21435502445E+02 -0.24142052335E+01  0.33301412613E+02  0.51100000000E-03 0.  1.
        -12    1    3    3    0    0 -0.12996764305E+02 -0.19491185471E+02  0.19042130973E+01  0.23504217089E+02  0.00000000000E+00 0.  1.
</event>
<event>
 7    1  0.2876796E-013  0.7246156E+02  0.7816164E-02  0.1226708E+00
        -11   -1    0    0    0    0  0.00000000000E+00  0.00000000000E+00  0.45593999997E+02  0.45594000000E+02  0.51100000000E-03 0.  1.
         11   -1    0    0    0    0 -0.00000000000E+00 -0.00000000000E+00 -0.45593999997E+02  0.45594000000E+02  0.51100000000E-03 0. -1.
    9900012    2    1    2    0    0 -0.29182118472E+01  0.52053331994E+01  0.17750154027E+02  0.72461563551E+02  0.69999991215E+02 0.  0.
         12    1    1    2    0    0  0.29182118472E+01 -0.52053331994E+01 -0.17750154027E+02  0.18726436449E+02  0.00000000000E+00 0. -1.
         11    1    3    3    0    0  0.60397645337E+01  0.52854300709E+00  0.14293219447E+02  0.15525921414E+02  0.51100000000E-03 0. -1.
        -11    1    3    3    0    0 -0.40125381212E+01 -0.17324300663E+02  0.21610427212E+02  0.27986468519E+02  0.51100000000E-03 0.  1.
         12    1    3    3    0    0 -0.49454382597E+01  0.22001090855E+02 -0.18153492632E+02  0.28949173617E+02  0.00000000000E+00 0. -1.
</event>
<event>
 7    1  0.2876796E-013  0.7246155E+02  0.7816164E-02  0.1226708E+00
        -11   -1    0    0    0    0  0.00000000000E+00  0.00000000000E+00  0.45593999997E+02  0.45594000000E+02  0.51100000000E-03 0. -1.
         11   -1    0    0    0    0 -0.00000000000E+00 -0.00000000000E+00 -0.45593999997E+02  0.45594000000E+02  0.51100000000E-03 0.  1.
    9900012    2    1    2    0    0  0.18024285065E+02 -0.48265024007E+01 -0.15842744943E+01  0.72461550705E+02  0.69999974481E+02 0.  0.
         12    1    1    2    0    0 -0.18024285065E+02  0.48265024007E+01  0.15842744943E+01  0.18726449295E+02  0.00000000000E+00 0. -1.
         11    1    3    3    0    0  0.30146506325E+00 -0.94932134137E+01 -0.19291146994E+02  0.21502565770E+02  0.51100000000E-03 0. -1.
        -11    1    3    3    0    0 -0.30058275252E+01 -0.12587585696E+02 -0.67104123265E+01  0.14577789497E+02  0.51100000000E-03 0.  1.
         12    1    3    3    0    0  0.20728647527E+02  0.17254296709E+02  0.24417284826E+02  0.36381195438E+02  0.00000000000E+00 0. -1.
</event>
<event>
 7    1  0.2876796E-013  0.7246173E+02  0.7816164E-02  0.1226708E+00
        -11   -1    0    0    0    0  0.00000000000E+00  0.00000000000E+00  0.45593999997E+02  0.45594000000E+02  0.51100000000E-03 0.  1.
         11   -1    0    0    0    0 -0.00000000000E+00 -0.00000000000E+00 -0.45593999997E+02  0.45594000000E+02  0.51100000000E-03 0. -1.
    9900012    2    1    2    0    0  0.15284188692E+02 -0.86449365008E+01  0.65063046192E+01  0.72461725654E+02  0.70000202385E+02 0.  0.
         12    1    1    2    0    0 -0.15284188692E+02  0.86449365008E+01 -0.65063046192E+01  0.18726274346E+02  0.00000000000E+00 0. -1.
         11    1    3    3    0    0 -0.15068327706E+02  0.68480644405E+01 -0.45715510512E+01  0.17171184167E+02  0.51100000000E-03 0. -1.
        -11    1    3    3    0    0  0.15557592052E+02  0.13993295162E+02  0.17008589004E+01  0.20993901524E+02  0.51100000000E-03 0.  1.
        -12    1    3    3    0    0  0.14794924346E+02 -0.29486296103E+02  0.93769967699E+01  0.34296639962E+02  0.00000000000E+00 0.  1.
</event>
<event>
 7    1  0.2876796E-013  0.7246155E+02  0.7816164E-02  0.1226708E+00
        -11   -1    0    0    0    0  0.00000000000E+00  0.00000000000E+00  0.45593999997E+02  0.45594000000E+02  0.51100000000E-03 0. -1.
         11   -1    0    0    0    0 -0.00000000000E+00 -0.00000000000E+00 -0.45593999997E+02  0.45594000000E+02  0.51100000000E-03 0.  1.
    9900012    2    1    2    0    0 -0.40669489410E+01 -0.13589400983E+02 -0.12225714731E+02  0.72461548296E+02  0.69999971343E+02 0.  0.
         12    1    1    2    0    0  0.40669489410E+01  0.13589400983E+02  0.12225714731E+02  0.18726451704E+02  0.00000000000E+00 0. -1.
         11    1    3    3    0    0  0.81109461162E+01 -0.21679433413E+02 -0.14173034908E+02  0.27141484830E+02  0.51100000000E-03 0. -1.
        -11    1    3    3    0    0  0.15585781214E+02 -0.19190997619E+01  0.18054844628E+01  0.15806938171E+02  0.51100000000E-03 0.  1.
         12    1    3    3    0    0 -0.27763676271E+02  0.10009132192E+02  0.14183571438E+00  0.29513125295E+02  0.00000000000E+00 0. -1.
</event>
<event>
 7    1  0.2876796E-013  0.7246174E+02  0.7816164E-02  0.1226708E+00
        -11   -1    0    0    0    0  0.00000000000E+00  0.00000000000E+00  0.45593999997E+02  0.45594000000E+02  0.51100000000E-03 0.  1.
         11   -1    0    0    0    0 -0.00000000000E+00 -0.00000000000E+00 -0.45593999997E+02  0.45594000000E+02  0.51100000000E-03 0. -1.
    9900012    2    1    2    0    0 -0.95723138427E+00 -0.16153637237E+00  0.18701085429E+02  0.72461735499E+02  0.70000215210E+02 0.  0.
         12    1    1    2    0    0  0.95723138427E+00  0.16153637237E+00 -0.18701085429E+02  0.18726264501E+02  0.00000000000E+00 0. -1.
         11    1    3    3    0    0  0.87704834059E+01 -0.14098234725E+02 -0.25364617869E+01  0.16796286500E+02  0.51100000000E-03 0. -1.
        -11    1    3    3    0    0 -0.51904539443E+01  0.19988333140E+02  0.34609536942E+02  0.40302534926E+02  0.51100000000E-03 0.  1.
         12    1    3    3    0    0 -0.45372608458E+01 -0.60516347865E+01 -0.13371989726E+02  0.15362914073E+02  0.00000000000E+00 0. -1.
</event>
<event>
 7    1  0.2876796E-013  0.7246153E+02  0.7816164E-02  0.1226708E+00
        -11   -1    0    0    0    0  0.00000000000E+00  0.00000000000E+00  0.45593999997E+02  0.45594000000E+02  0.51100000000E-03 0. -1.
         11   -1    0    0    0    0 -0.00000000000E+00 -0.00000000000E+00 -0.45593999997E+02  0.45594000000E+02  0.51100000000E-03 0.  1.
    9900012    2    1    2    0    0 -0.63235133133E+01 -0.53380437037E+01 -0.16798787703E+02  0.72461526773E+02  0.69999943306E+02 0.  0.
         12    1    1    2    0    0  0.63235133133E+01  0.53380437037E+01  0.16798787703E+02  0.18726473227E+02  0.00000000000E+00 0. -1.
         11    1    3    3    0    0  0.28292259356E+01  0.37573584827E+01  0.14279296376E+02  0.15033980425E+02  0.51100000000E-03 0. -1.
        -11    1    3    3    0    0  0.58931491573E+00 -0.26129808760E+02 -0.84337049142E+01  0.27463458936E+02  0.51100000000E-03 0.  1.
         12    1    3    3    0    0 -0.97420541647E+01  0.17034406574E+02 -0.22644379165E+02  0.29964087412E+02  0.00000000000E+00 0. -1.
</event>
<event>
 7    1  0.2876796E-013  0.7246159E+02  0.7816164E-02  0.1226708E+00
        -11   -1    0    0    0    0  0.00000000000E+00  0.00000000000E+00  0.45593999997E+02  0.45594000000E+02  0.51100000000E-03 0. -1.
         11   -1    0    0    0    0 -0.00000000000E+00 -0.00000000000E+00 -0.45593999997E+02  0.45594000000E+02  0.51100000000E-03 0.  1.
    9900012    2    1    2    0    0 -0.18331206495E+02  0.38177004882E+01 -0.26529341178E+00  0.72461592198E+02  0.70000028534E+02 0.  0.
         12    1    1    2    0    0  0.18331206495E+02 -0.38177004882E+01  0.26529341178E+00  0.18726407802E+02  0.00000000000E+00 0. -1.
         11    1    3    3    0    0 -0.10620148948E+02  0.62918362352E+01 -0.64032008430E+00  0.12360613940E+02  0.51100000000E-03 0. -1.
        -11    1    3    3    0    0  0.90181347903E+01  0.19305290741E+01 -0.26545139116E+02  0.28101567724E+02  0.51100000000E-03 0.  1.
         12    1    3    3    0    0 -0.16729192337E+02 -0.44046648211E+01  0.26920165789E+02  0.31999410534E+02  0.00000000000E+00 0. -1.
</event>
<event>
 7    1  0.2876796E-013  0.7246165E+02  0.7816164E-02  0.1226708E+00
        -11   -1    0    0    0    0  0.00000000000E+00  0.00000000000E+00  0.45593999997E+02  0.45594000000E+02  0.51100000000E-03 0.  1.
         11   -1    0    0    0    0 -0.00000000000E+00 -0.00000000000E+00 -0.45593999997E+02  0.45594000000E+02  0.51100000000E-03 0. -1.
    9900012    2    1    2    0    0 -0.82643760375E+01  0.11004255596E+02  0.12699707852E+02  0.72461651396E+02  0.70000105649E+02 0.  0.
         12    1    1    2    0    0  0.82643760375E+01 -0.11004255596E+02 -0.12699707852E+02  0.18726348604E+02  0.00000000000E+00 0. -1.
         11    1    3    3    0    0 -0.63191032708E+00 -0.98019658847E+01 -0.21302425191E+01  0.10050660641E+02  0.51100000000E-03 0. -1.
        -11    1    3    3    0    0  0.14273764786E+02 -0.11588086518E+02  0.14315867058E+02  0.23301677197E+02  0.51100000000E-03 0.  1.
         12    1    3    3    0    0 -0.21906230497E+02  0.32394307999E+02  0.51408331307E+00  0.39109313557E+02  0.00000000000E+00 0. -1.
</event>
<event>
 7    1  0.2876796E-013  0.7246165E+02  0.7816164E-02  0.1226708E+00
        -11   -1    0    0    0    0  0.00000000000E+00  0.00000000000E+00  0.45593999997E+02  0.45594000000E+02  0.51100000000E-03 0.  1.
         11   -1    0    0    0    0 -0.00000000000E+00 -0.00000000000E+00 -0.45593999997E+02  0.45594000000E+02  0.51100000000E-03 0. -1.
    9900012    2    1    2    0    0 -0.11702495930E+02 -0.14228689988E+01  0.14550022510E+02  0.72461651658E+02  0.70000105992E+02 0.  0.
         12    1    1    2    0    0  0.11702495930E+02  0.14228689988E+01 -0.14550022510E+02  0.18726348342E+02  0.00000000000E+00 0. -1.
         11    1    3    3    0    0  0.64926805213E+01 -0.13057144891E+02 -0.21819011046E+02  0.26243345372E+02  0.51100000000E-03 0. -1.
        -11    1    3    3    0    0 -0.32031036515E+01  0.11496333922E+02  0.87706246872E+01  0.14810449835E+02  0.51100000000E-03 0.  1.
        -12    1    3    3    0    0 -0.14992072800E+02  0.13794197018E+00  0.27598408868E+02  0.31407856451E+02  0.00000000000E+00 0.  1.
</event>
<event>
 7    1  0.2876796E-013  0.7246158E+02  0.7816164E-02  0.1226708E+00
        -11   -1    0    0    0    0  0.00000000000E+00  0.00000000000E+00  0.45593999997E+02  0.45594000000E+02  0.51100000000E-03 0. -1.
         11   -1    0    0    0    0 -0.00000000000E+00 -0.00000000000E+00 -0.45593999997E+02  0.45594000000E+02  0.51100000000E-03 0.  1.
    9900012    2    1    2    0    0 -0.84262378336E+01 -0.14151890759E+02 -0.89107460712E+01  0.72461577714E+02  0.70000009666E+02 0.  0.
         12    1    1    2    0    0  0.84262378336E+01  0.14151890759E+02  0.89107460712E+01  0.18726422286E+02  0.00000000000E+00 0. -1.
         11    1    3    3    0    0  0.69952524852E+01  0.16308620324E+02 -0.48895683615E+00  0.17752288113E+02  0.51100000000E-03 0. -1.
        -11    1    3    3    0    0  0.12590316450E+02 -0.72014761751E+01  0.57997712013E+01  0.15620969037E+02  0.51100000000E-03 0.  1.
        -12    1    3    3    0    0 -0.28011806769E+02 -0.23259034907E+02 -0.14221560436E+02  0.39088320564E+02  0.00000000000E+00 0.  1.
</event>
<event>
 7    1  0.2876796E-013  0.7246157E+02  0.7816164E-02  0.1226708E+00
        -11   -1    0    0    0    0  0.00000000000E+00  0.00000000000E+00  0.45593999997E+02  0.45594000000E+02  0.51100000000E-03 0.  1.
         11   -1    0    0    0    0 -0.00000000000E+00 -0.00000000000E+00 -0.45593999997E+02  0.45594000000E+02  0.51100000000E-03 0. -1.
    9900012    2    1    2    0    0 -0.97160082504E+01 -0.13365191136E+02  0.88119331004E+01  0.72461566400E+02  0.69999994927E+02 0.  0.
         12    1    1    2    0    0  0.97160082504E+01  0.13365191136E+02 -0.88119331004E+01  0.18726433600E+02  0.00000000000E+00 0. -1.
         11    1    3    3    0    0 -0.50287637356E+01 -0.62470739178E+01 -0.21894247204E+01  0.83131208406E+01  0.51100000000E-03 0. -1.
        -11    1    3    3    0    0 -0.19215582937E+02 -0.60995518278E+01  0.32461816401E+02  0.38212729351E+02  0.51100000000E-03 0.  1.
         12    1    3    3    0    0  0.14528338422E+02 -0.10185653902E+01 -0.21460458580E+02  0.25935716208E+02  0.00000000000E+00 0. -1.
</event>
<event>
 7    1  0.2876796E-013  0.7246157E+02  0.7816164E-02  0.1226708E+00
        -11   -1    0    0    0    0  0.00000000000E+00  0.00000000000E+00  0.45593999997E+02  0.45594000000E+02  0.51100000000E-03 0.  1.
         11   -1    0    0    0    0 -0.00000000000E+00 -0.00000000000E+00 -0.45593999997E+02  0.45594000000E+02  0.51100000000E-03 0. -1.
    9900012    2    1    2    0    0 -0.16861607178E+02  0.78028254117E+00  0.81090454609E+01  0.72461567992E+02  0.69999997000E+02 0.  0.
         12    1    1    2    0    0  0.16861607178E+02 -0.78028254117E+00 -0.81090454609E+01  0.18726432008E+02  0.00000000000E+00 0. -1.
         11    1    3    3    0    0 -0.27348619418E+02 -0.94780962397E+01 -0.14350914732E+02  0.32306811144E+02  0.51100000000E-03 0. -1.
        -11    1    3    3    0    0 -0.10135923488E+02  0.36007322891E+01  0.33626233078E+01  0.11269847104E+02  0.51100000000E-03 0.  1.
        -12    1    3    3    0    0  0.20622935727E+02  0.66576464919E+01  0.19097336885E+02  0.28884909744E+02  0.00000000000E+00 0.  1.
</event>
<event>
 7    1  0.2876796E-013  0.7246152E+02  0.7816164E-02  0.1226708E+00
        -11   -1    0    0    0    0  0.00000000000E+00  0.00000000000E+00  0.45593999997E+02  0.45594000000E+02  0.51100000000E-03 0.  1.
         11   -1    0    0    0    0 -0.00000000000E+00 -0.00000000000E+00 -0.45593999997E+02  0.45594000000E+02  0.51100000000E-03 0. -1.
    9900012    2    1    2    0    0 -0.75801887940E+01 -0.37151724474E+00  0.17119691470E+02  0.72461518130E+02  0.69999932046E+02 0.  0.
         12    1    1    2    0    0  0.75801887940E+01  0.37151724474E+00 -0.17119691470E+02  0.18726481870E+02  0.00000000000E+00 0. -1.
         11    1    3    3    0    0 -0.10140487316E+02 -0.25977814568E+01  0.19882494170E+02  0.22469791414E+02  0.51100000000E-03 0.  1.
        -11    1    3    3    0    0  0.23631923797E+02  0.11324017158E+02 -0.58020947236E+01  0.26839625377E+02  0.51100000000E-03 0. -1.
         12    1    3    3    0    0 -0.21071625275E+02 -0.90977529455E+01  0.30392920237E+01  0.23152101339E+02  0.00000000000E+00 0. -1.
</event>
<event>
 7    1  0.2876796E-013  0.7246158E+02  0.7816164E-02  0.1226708E+00
        -11   -1    0    0    0    0  0.00000000000E+00  0.00000000000E+00  0.45593999997E+02  0.45594000000E+02  0.51100000000E-03 0.  1.
         11   -1    0    0    0    0 -0.00000000000E+00 -0.00000000000E+00 -0.45593999997E+02  0.45594000000E+02  0.51100000000E-03 0. -1.
    9900012    2    1    2    0    0 -0.10981108050E+01  0.13425736018E+01  0.18645926285E+02  0.72461577004E+02  0.70000008740E+02 0.  0.
         12    1    1    2    0    0  0.10981108050E+01 -0.13425736018E+01 -0.18645926285E+02  0.18726422996E+02  0.00000000000E+00 0. -1.
         11    1    3    3    0    0 -0.11640255275E+02  0.74036300033E+01 -0.61734037543E+01  0.15113576488E+02  0.51100000000E-03 0. -1.
        -11    1    3    3    0    0 -0.15940837434E+02  0.11275677626E+02  0.55828229509E+01  0.20308104697E+02  0.51100000000E-03 0.  1.
        -12    1    3    3    0    0  0.26482981904E+02 -0.17336734027E+02  0.19236507088E+02  0.37039895818E+02  0.00000000000E+00 0.  1.
</event>
<event>
 7    1  0.2876796E-013  0.7246153E+02  0.7816164E-02  0.1226708E+00
        -11   -1    0    0    0    0  0.00000000000E+00  0.00000000000E+00  0.45593999997E+02  0.45594000000E+02  0.51100000000E-03 0. -1.
         11   -1    0    0    0    0 -0.00000000000E+00 -0.00000000000E+00 -0.45593999997E+02  0.45594000000E+02  0.51100000000E-03 0.  1.
    9900012    2    1    2    0    0 -0.51980926136E+01 -0.14618774515E+02 -0.10485794318E+02  0.72461531630E+02  0.69999949633E+02 0.  0.
         12    1    1    2    0    0  0.51980926136E+01  0.14618774515E+02  0.10485794318E+02  0.18726468370E+02  0.00000000000E+00 0. -1.
         11    1    3    3    0    0  0.19657726607E+02  0.97792049020E+01  0.35003932369E+01  0.22233124318E+02  0.51100000000E-03 0.  1.
        -11    1    3    3    0    0 -0.10149844128E+01 -0.42236334758E+01  0.99648831157E+01  0.10870518335E+02  0.51100000000E-03 0. -1.
        -12    1    3    3    0    0 -0.23840834808E+02 -0.20174345941E+02 -0.23951070670E+02  0.39357888977E+02  0.00000000000E+00 0.  1.
</event>
<event>
 7    1  0.2876796E-013  0.7246160E+02  0.7816164E-02  0.1226708E+00
        -11   -1    0    0    0    0  0.00000000000E+00  0.00000000000E+00  0.45593999997E+02  0.45594000000E+02  0.51100000000E-03 0. -1.
         11   -1    0    0    0    0 -0.00000000000E+00 -0.00000000000E+00 -0.45593999997E+02  0.45594000000E+02  0.51100000000E-03 0.  1.
    9900012    2    1    2    0    0  0.23486196908E+01  0.14132450323E+02 -0.12059683914E+02  0.72461597711E+02  0.70000035716E+02 0.  0.
         12    1    1    2    0    0 -0.23486196908E+01 -0.14132450323E+02  0.12059683914E+02  0.18726402289E+02  0.00000000000E+00 0. -1.
         11    1    3    3    0    0  0.74277125669E+01 -0.11329258378E+02 -0.12889467465E+02  0.18699234774E+02  0.51100000000E-03 0. -1.
        -11    1    3    3    0    0 -0.22468043210E+02 -0.47982659406E+00 -0.82314205610E+00  0.22488236088E+02  0.51100000000E-03 0.  1.
         12    1    3    3    0    0  0.17388950334E+02  0.25941535294E+02  0.16529256071E+01  0.31274126849E+02  0.00000000000E+00 0. -1.
</event>
<event>
 7    1  0.2876796E-013  0.7246157E+02  0.7816164E-02  0.1226708E+00
        -11   -1    0    0    0    0  0.00000000000E+00  0.00000000000E+00  0.45593999997E+02  0.45594000000E+02  0.51100000000E-03 0. -1.
         11   -1    0    0    0    0 -0.00000000000E+00 -0.00000000000E+00 -0.45593999997E+02  0.45594000000E+02  0.51100000000E-03 0.  1.
    9900012    2    1    2    0    0  0.13936839032E+02 -0.12180662080E+02  0.28416823973E+01  0.72461570289E+02  0.69999999992E+02 0.  0.
         12    1    1    2    0    0 -0.13936839032E+02  0.12180662080E+02 -0.28416823973E+01  0.18726429711E+02  0.00000000000E+00 0. -1.
         11    1    3    3    0    0  0.71230527431E+01 -0.46409733678E+01 -0.11555430190E+02  0.14345887261E+02  0.51100000000E-03 0. -1.
        -11    1    3    3    0    0  0.14050845851E+02 -0.29620868269E+01 -0.18899318272E+02  0.23735721158E+02  0.51100000000E-03 0.  1.
         12    1    3    3    0    0 -0.72370595621E+01 -0.45776018850E+01  0.33296430859E+02  0.34379961869E+02  0.00000000000E+00 0. -1.
</event>
<event>
 7    1  0.2876796E-013  0.7246153E+02  0.7816164E-02  0.1226708E+00
        -11   -1    0    0    0    0  0.00000000000E+00  0.00000000000E+00  0.45593999997E+02  0.45594000000E+02  0.51100000000E-03 0.  1.
         11   -1    0    0    0    0 -0.00000000000E+00 -0.00000000000E+00 -0.45593999997E+02  0.45594000000E+02  0.51100000000E-03 0. -1.
    9900012    2    1    2    0    0  0.80617837193E+01  0.54142802303E+01  0.16011675990E+02  0.72461533298E+02  0.69999951805E+02 0.  0.
         12    1    1    2    0    0 -0.80617837193E+01 -0.54142802303E+01 -0.16011675990E+02  0.18726466702E+02  0.00000000000E+00 0. -1.
         11    1    3    3    0    0 -0.14522631019E+01 -0.92050295872E+01 -0.25546746270E+02  0.27193342624E+02  0.51100000000E-03 0. -1.
        -11    1    3    3    0    0 -0.14179996543E+00  0.55858902643E+00  0.37012758945E+01  0.37458740554E+01  0.51100000000E-03 0.  1.
        -12    1    3    3    0    0  0.96558467866E+01  0.14060720791E+02  0.37857146366E+02  0.41522316618E+02  0.00000000000E+00 0.  1.
</event>
<event>
 7    1  0.2876796E-013  0.7246148E+02  0.7816164E-02  0.1226708E+00
        -11   -1    0    0    0    0  0.00000000000E+00  0.00000000000E+00  0.45593999997E+02  0.45594000000E+02  0.51100000000E-03 0. -1.
         11   -1    0    0    0    0 -0.00000000000E+00 -0.00000000000E+00 -0.45593999997E+02  0.45594000000E+02  0.51100000000E-03 0.  1.
    9900012    2    1    2    0    0  0.99611675929E+01 -0.12747318197E+02 -0.94320572612E+01  0.72461476425E+02  0.69999877718E+02 0.  0.
         12    1    1    2    0    0 -0.99611675929E+01  0.12747318197E+02  0.94320572612E+01  0.18726523575E+02  0.00000000000E+00 0. -1.
         11    1    3    3    0    0  0.28052792081E+02 -0.58563990916E+01  0.97355935658E+01  0.30266125226E+02  0.51100000000E-03 0. -1.
        -11    1    3    3    0    0  0.79996105903E+01  0.44304319450E+01 -0.43877971123E+01  0.10142744233E+02  0.51100000000E-03 0.  1.
        -12    1    3    3    0    0 -0.26091235078E+02 -0.11321351050E+02 -0.14779853715E+02  0.32052606966E+02  0.00000000000E+00 0.  1.
</event>
<event>
 7    1  0.2876796E-013  0.7246158E+02  0.7816164E-02  0.1226708E+00
        -11   -1    0    0    0    0  0.00000000000E+00  0.00000000000E+00  0.45593999997E+02  0.45594000000E+02  0.51100000000E-03 0.  1.
         11   -1    0    0    0    0 -0.00000000000E+00 -0.00000000000E+00 -0.45593999997E+02  0.45594000000E+02  0.51100000000E-03 0. -1.
    9900012    2    1    2    0    0  0.17440388502E+02  0.32021283648E+01  0.60214611580E+01  0.72461580918E+02  0.70000013839E+02 0.  0.
         12    1    1    2    0    0 -0.17440388502E+02 -0.32021283648E+01 -0.60214611580E+01  0.18726419082E+02  0.00000000000E+00 0. -1.
         11    1    3    3    0    0  0.10687240956E+02  0.10525874150E+02  0.32928989949E+02  0.36184658700E+02  0.51100000000E-03 0. -1.
        -11    1    3    3    0    0  0.47689390637E+01 -0.19185940386E+01  0.29110980090E+01  0.59074761750E+01  0.51100000000E-03 0.  1.
         12    1    3    3    0    0  0.19842084819E+01 -0.54051517466E+01 -0.29818626800E+02  0.30369446043E+02  0.00000000000E+00 0. -1.
</event>
<event>
 7    1  0.2876796E-013  0.7246158E+02  0.7816164E-02  0.1226708E+00
        -11   -1    0    0    0    0  0.00000000000E+00  0.00000000000E+00  0.45593999997E+02  0.45594000000E+02  0.51100000000E-03 0.  1.
         11   -1    0    0    0    0 -0.00000000000E+00 -0.00000000000E+00 -0.45593999997E+02  0.45594000000E+02  0.51100000000E-03 0. -1.
    9900012    2    1    2    0    0  0.61218762182E+01  0.13092475859E+02  0.11907494680E+02  0.72461582240E+02  0.70000015562E+02 0.  0.
         12    1    1    2    0    0 -0.61218762182E+01 -0.13092475859E+02 -0.11907494680E+02  0.18726417760E+02  0.00000000000E+00 0. -1.
         11    1    3    3    0    0  0.12844843996E+02  0.16945841442E+01  0.22551525345E+02  0.26008324213E+02  0.51100000000E-03 0. -1.
        -11    1    3    3    0    0  0.33647155871E-02  0.57678648444E+00  0.16477708770E+02  0.16487800962E+02  0.51100000000E-03 0.  1.
        -12    1    3    3    0    0 -0.67263324929E+01  0.10821105230E+02 -0.27121739435E+02  0.29965457066E+02  0.00000000000E+00 0.  1.
</event>
<event>
 7    1  0.2876796E-013  0.7246155E+02  0.7816164E-02  0.1226708E+00
        -11   -1    0    0    0    0  0.00000000000E+00  0.00000000000E+00  0.45593999997E+02  0.45594000000E+02  0.51100000000E-03 0. -1.
         11   -1    0    0    0    0 -0.00000000000E+00 -0.00000000000E+00 -0.45593999997E+02  0.45594000000E+02  0.51100000000E-03 0.  1.
    9900012    2    1    2    0    0  0.62668373265E+01  0.16068406440E+02 -0.72947169039E+01  0.72461552651E+02  0.69999977016E+02 0.  0.
         12    1    1    2    0    0 -0.62668373265E+01 -0.16068406440E+02  0.72947169039E+01  0.18726447349E+02  0.00000000000E+00 0. -1.
         11    1    3    3    0    0 -0.81321876548E+01  0.26814089275E+02  0.54456325889E+01  0.28544400051E+02  0.51100000000E-03 0. -1.
        -11    1    3    3    0    0 -0.11953302888E+02  0.24801051154E+01 -0.12476278152E+01  0.12271468809E+02  0.51100000000E-03 0.  1.
         12    1    3    3    0    0  0.26352327869E+02 -0.13225787950E+02 -0.11492721678E+02  0.31645683791E+02  0.00000000000E+00 0. -1.
</event>
<event>
 7    1  0.2876796E-013  0.7246158E+02  0.7816164E-02  0.1226708E+00
        -11   -1    0    0    0    0  0.00000000000E+00  0.00000000000E+00  0.45593999997E+02  0.45594000000E+02  0.51100000000E-03 0. -1.
         11   -1    0    0    0    0 -0.00000000000E+00 -0.00000000000E+00 -0.45593999997E+02  0.45594000000E+02  0.51100000000E-03 0.  1.
    9900012    2    1    2    0    0 -0.93996410630E+00 -0.43032879668E+01 -0.18201015140E+02  0.72461580909E+02  0.70000013827E+02 0.  0.
         12    1    1    2    0    0  0.93996410630E+00  0.43032879668E+01  0.18201015140E+02  0.18726419091E+02  0.00000000000E+00 0. -1.
         11    1    3    3    0    0  0.71078599721E+01  0.10872973602E+02 -0.59229133541E+01  0.14276698890E+02  0.51100000000E-03 0. -1.
        -11    1    3    3    0    0 -0.10152186777E+01  0.90254432235E+01 -0.27350422199E+02  0.28819002222E+02  0.51100000000E-03 0.  1.
         12    1    3    3    0    0 -0.70326054007E+01 -0.24201704793E+02  0.15072320413E+02  0.29365879796E+02  0.00000000000E+00 0. -1.
</event>
<event>
 7    1  0.2876796E-013  0.7246143E+02  0.7816164E-02  0.1226708E+00
        -11   -1    0    0    0    0  0.00000000000E+00  0.00000000000E+00  0.45593999997E+02  0.45594000000E+02  0.51100000000E-03 0.  1.
         11   -1    0    0    0    0 -0.00000000000E+00 -0.00000000000E+00 -0.45593999997E+02  0.45594000000E+02  0.51100000000E-03 0. -1.
    9900012    2    1    2    0    0 -0.81620486508E+01  0.14525225039E+02  0.85488697490E+01  0.72461431318E+02  0.69999818957E+02 0.  0.
         12    1    1    2    0    0  0.81620486508E+01 -0.14525225039E+02 -0.85488697490E+01  0.18726568682E+02  0.00000000000E+00 0. -1.
         11    1    3    3    0    0  0.96991226737E+01 -0.44114106981E+01 -0.16444679908E+02  0.19594923386E+02  0.51100000000E-03 0. -1.
        -11    1    3    3    0    0 -0.11856502536E+02  0.15898782039E+02 -0.63374842736E+01  0.20820942099E+02  0.51100000000E-03 0.  1.
        -12    1    3    3    0    0 -0.60046687883E+01  0.30378536981E+01  0.31331033930E+02  0.32045565832E+02  0.00000000000E+00 0.  1.
</event>
<event>
 7    1  0.2876796E-013  0.7246159E+02  0.7816164E-02  0.1226708E+00
        -11   -1    0    0    0    0  0.00000000000E+00  0.00000000000E+00  0.45593999997E+02  0.45594000000E+02  0.51100000000E-03 0.  1.
         11   -1    0    0    0    0 -0.00000000000E+00 -0.00000000000E+00 -0.45593999997E+02  0.45594000000E+02  0.51100000000E-03 0. -1.
    9900012    2    1    2    0    0 -0.17221897835E+01  0.18588261028E+02 -0.14795246295E+01  0.72461591406E+02  0.70000027502E+02 0.  0.
         12    1    1    2    0    0  0.17221897835E+01 -0.18588261028E+02  0.14795246295E+01  0.18726408594E+02  0.00000000000E+00 0. -1.
         11    1    3    3    0    0  0.14600496031E+02  0.28224154395E+02 -0.17675799392E+02  0.36362222980E+02  0.51100000000E-03 0. -1.
        -11    1    3    3    0    0 -0.17093975938E+01  0.79716228035E+01  0.89294092736E+01  0.12091449892E+02  0.51100000000E-03 0.  1.
        -12    1    3    3    0    0 -0.14613288220E+02 -0.17607516170E+02  0.72668654891E+01  0.24007918534E+02  0.00000000000E+00 0.  1.
</event>
<event>
 7    1  0.2876796E-013  0.7246159E+02  0.7816164E-02  0.1226708E+00
        -11   -1    0    0    0    0  0.00000000000E+00  0.00000000000E+00  0.45593999997E+02  0.45594000000E+02  0.51100000000E-03 0.  1.
         11   -1    0    0    0    0 -0.00000000000E+00 -0.00000000000E+00 -0.45593999997E+02  0.45594000000E+02  0.51100000000E-03 0. -1.
    9900012    2    1    2    0    0 -0.41165978721E+01 -0.11214849140E+02  0.14420795752E+02  0.72461586318E+02  0.70000020873E+02 0.  0.
         12    1    1    2    0    0  0.41165978721E+01  0.11214849140E+02 -0.14420795752E+02  0.18726413682E+02  0.00000000000E+00 0. -1.
         11    1    3    3    0    0 -0.20024127074E+02  0.68667961814E+01  0.23576985078E+02  0.31685845112E+02  0.51100000000E-03 0. -1.
        -11    1    3    3    0    0 -0.96404852939E+01 -0.48677729616E+01 -0.82833915619E+00  0.10831450333E+02  0.51100000000E-03 0.  1.
        -12    1    3    3    0    0  0.25548014495E+02 -0.13213872359E+02 -0.83278501692E+01  0.29944290872E+02  0.00000000000E+00 0.  1.
</event>
<event>
 7    1  0.2876796E-013  0.7246157E+02  0.7816164E-02  0.1226708E+00
        -11   -1    0    0    0    0  0.00000000000E+00  0.00000000000E+00  0.45593999997E+02  0.45594000000E+02  0.51100000000E-03 0.  1.
         11   -1    0    0    0    0 -0.00000000000E+00 -0.00000000000E+00 -0.45593999997E+02  0.45594000000E+02  0.51100000000E-03 0. -1.
    9900012    2    1    2    0    0  0.17163198347E+02 -0.64765008753E+01  0.37628018509E+01  0.72461571647E+02  0.70000001762E+02 0.  0.
         12    1    1    2    0    0 -0.17163198347E+02  0.64765008753E+01 -0.37628018509E+01  0.18726428353E+02  0.00000000000E+00 0. -1.
         11    1    3    3    0    0 -0.11156775034E+01  0.58888577013E+01 -0.18153974651E+02  0.19117797394E+02  0.51100000000E-03 0. -1.
        -11    1    3    3    0    0  0.22031334364E+02  0.10808441424E+02  0.69576310761E+01  0.25507072163E+02  0.51100000000E-03 0.  1.
        -12    1    3    3    0    0 -0.37524585137E+01 -0.23173800000E+02  0.14959145426E+02  0.27836702089E+02  0.00000000000E+00 0.  1.
</event>
<event>
 7    1  0.2876796E-013  0.7246158E+02  0.7816164E-02  0.1226708E+00
        -11   -1    0    0    0    0  0.00000000000E+00  0.00000000000E+00  0.45593999997E+02  0.45594000000E+02  0.51100000000E-03 0. -1.
         11   -1    0    0    0    0 -0.00000000000E+00 -0.00000000000E+00 -0.45593999997E+02  0.45594000000E+02  0.51100000000E-03 0.  1.
    9900012    2    1    2    0    0 -0.13276114968E+01  0.17576500004E+02 -0.63232080913E+01  0.72461578418E+02  0.70000010583E+02 0.  0.
         12    1    1    2    0    0  0.13276114968E+01 -0.17576500004E+02  0.63232080913E+01  0.18726421582E+02  0.00000000000E+00 0. -1.
         11    1    3    3    0    0  0.11296977848E+02 -0.72454526395E+01  0.13709966389E+02  0.19185449463E+02  0.51100000000E-03 0. -1.
        -11    1    3    3    0    0  0.30525763258E+01  0.29865833791E+02 -0.39909517584E+01  0.30285540221E+02  0.51100000000E-03 0.  1.
        -12    1    3    3    0    0 -0.15677165670E+02 -0.50438811476E+01 -0.16042222722E+02  0.22990588734E+02  0.00000000000E+00 0.  1.
</event>
<event>
 7    1  0.2876796E-013  0.7246158E+02  0.7816164E-02  0.1226708E+00
        -11   -1    0    0    0    0  0.00000000000E+00  0.00000000000E+00  0.45593999997E+02  0.45594000000E+02  0.51100000000E-03 0. -1.
         11   -1    0    0    0    0 -0.00000000000E+00 -0.00000000000E+00 -0.45593999997E+02  0.45594000000E+02  0.51100000000E-03 0.  1.
    9900012    2    1    2    0    0 -0.18539984589E+01  0.16013018245E+02 -0.95302021693E+01  0.72461579707E+02  0.70000012262E+02 0.  0.
         12    1    1    2    0    0  0.18539984589E+01 -0.16013018245E+02  0.95302021693E+01  0.18726420293E+02  0.00000000000E+00 0. -1.
         11    1    3    3    0    0  0.19635529639E+02  0.57665171940E+01 -0.45185694643E+01  0.20957676756E+02  0.51100000000E-03 0. -1.
        -11    1    3    3    0    0  0.88516852923E+01 -0.88523650927E+01 -0.90184415766E+01  0.15428836281E+02  0.51100000000E-03 0.  1.
        -12    1    3    3    0    0 -0.30341213390E+02  0.19098866144E+02  0.40068088716E+01  0.36075066670E+02  0.00000000000E+00 0.  1.
</event>
<event>
 7    1  0.2876796E-013  0.7246159E+02  0.7816164E-02  0.1226708E+00
        -11   -1    0    0    0    0  0.00000000000E+00  0.00000000000E+00  0.45593999997E+02  0.45594000000E+02  0.51100000000E-03 0.  1.
         11   -1    0    0    0    0 -0.00000000000E+00 -0.00000000000E+00 -0.45593999997E+02  0.45594000000E+02  0.51100000000E-03 0. -1.
    9900012    2    1    2    0    0  0.54067225448E+01 -0.53710878199E+01  0.17105474213E+02  0.72461588675E+02  0.70000023944E+02 0.  0.
         12    1    1    2    0    0 -0.54067225448E+01  0.53710878199E+01 -0.17105474213E+02  0.18726411325E+02  0.00000000000E+00 0. -1.
         11    1    3    3    0    0 -0.18461405398E+00 -0.13439331259E+02  0.13034368227E+02  0.18722832648E+02  0.51100000000E-03 0. -1.
        -11    1    3    3    0    0  0.19736132446E+02 -0.29211344909E+01  0.21089388164E+02  0.29031194327E+02  0.51100000000E-03 0.  1.
         12    1    3    3    0    0 -0.14144795847E+02  0.10989377930E+02 -0.17018282178E+02  0.24707561700E+02  0.00000000000E+00 0. -1.
</event>
<event>
 7    1  0.2876796E-013  0.7246153E+02  0.7816164E-02  0.1226708E+00
        -11   -1    0    0    0    0  0.00000000000E+00  0.00000000000E+00  0.45593999997E+02  0.45594000000E+02  0.51100000000E-03 0.  1.
         11   -1    0    0    0    0 -0.00000000000E+00 -0.00000000000E+00 -0.45593999997E+02  0.45594000000E+02  0.51100000000E-03 0. -1.
    9900012    2    1    2    0    0  0.91119619687E+01 -0.28086291989E+01  0.16117206964E+02  0.72461531855E+02  0.69999949925E+02 0.  0.
         12    1    1    2    0    0 -0.91119619687E+01  0.28086291989E+01 -0.16117206964E+02  0.18726468145E+02  0.00000000000E+00 0. -1.
         11    1    3    3    0    0 -0.91156287775E+01 -0.29928026189E+01  0.11081636189E+02  0.14657906277E+02  0.51100000000E-03 0. -1.
        -11    1    3    3    0    0 -0.32069685138E+01 -0.23047331176E+02  0.10832494636E+02  0.25667237126E+02  0.51100000000E-03 0.  1.
         12    1    3    3    0    0  0.21434559260E+02  0.23231504596E+02 -0.57969238618E+01  0.32136388452E+02  0.00000000000E+00 0. -1.
</event>
<event>
 7    1  0.2876796E-013  0.7246142E+02  0.7816164E-02  0.1226708E+00
        -11   -1    0    0    0    0  0.00000000000E+00  0.00000000000E+00  0.45593999997E+02  0.45594000000E+02  0.51100000000E-03 0. -1.
         11   -1    0    0    0    0 -0.00000000000E+00 -0.00000000000E+00 -0.45593999997E+02  0.45594000000E+02  0.51100000000E-03 0.  1.
    9900012    2    1    2    0    0  0.17970045981E+02  0.45370681784E+01  0.26790679624E+01  0.72461416079E+02  0.69999799105E+02 0.  0.
         12    1    1    2    0    0 -0.17970045981E+02 -0.45370681784E+01 -0.26790679624E+01  0.18726583921E+02  0.00000000000E+00 0. -1.
         11    1    3    3    0    0 -0.72620711609E+01  0.29904377053E+01  0.85267082126E+00  0.78998381633E+01  0.51100000000E-03 0. -1.
        -11    1    3    3    0    0  0.37160861462E+02  0.14126205123E+02 -0.12920053713E+02  0.41801998565E+02  0.51100000000E-03 0.  1.
         12    1    3    3    0    0 -0.11928744321E+02 -0.12579574650E+02  0.14746450854E+02  0.22759579351E+02  0.00000000000E+00 0. -1.
</event>
<event>
 7    1  0.2876796E-013  0.7246216E+02  0.7816164E-02  0.1226706E+00
        -11   -1    0    0    0    0  0.00000000000E+00  0.00000000000E+00  0.45593999997E+02  0.45594000000E+02  0.51100000000E-03 0. -1.
         11   -1    0    0    0    0 -0.00000000000E+00 -0.00000000000E+00 -0.45593999997E+02  0.45594000000E+02  0.51100000000E-03 0.  1.
    9900012    2    1    2    0    0 -0.73005256839E+01  0.53126439889E+01 -0.16405346492E+02  0.72462155428E+02  0.70000762241E+02 0.  0.
         12    1    1    2    0    0  0.73005256839E+01 -0.53126439889E+01  0.16405346492E+02  0.18725844572E+02  0.00000000000E+00 0. -1.
         11    1    3    3    0    0  0.22840031366E+02  0.11314858314E+02 -0.63450580763E+01  0.26266952882E+02  0.51100000000E-03 0. -1.
        -11    1    3    3    0    0 -0.41826301219E+01  0.83015871196E+01 -0.13465209218E+02  0.16362230991E+02  0.51100000000E-03 0.  1.
        -12    1    3    3    0    0 -0.25957926928E+02 -0.14303801444E+02  0.34049208018E+01  0.29832971555E+02  0.00000000000E+00 0.  1.
</event>
<event>
 7    1  0.2876796E-013  0.7246151E+02  0.7816164E-02  0.1226708E+00
        -11   -1    0    0    0    0  0.00000000000E+00  0.00000000000E+00  0.45593999997E+02  0.45594000000E+02  0.51100000000E-03 0.  1.
         11   -1    0    0    0    0 -0.00000000000E+00 -0.00000000000E+00 -0.45593999997E+02  0.45594000000E+02  0.51100000000E-03 0. -1.
    9900012    2    1    2    0    0 -0.13089012243E+02  0.73794477517E+01  0.11175990905E+02  0.72461514389E+02  0.69999927173E+02 0.  0.
         12    1    1    2    0    0  0.13089012243E+02 -0.73794477517E+01 -0.11175990905E+02  0.18726485611E+02  0.00000000000E+00 0. -1.
         11    1    3    3    0    0  0.20722788087E+01  0.31442678904E+02  0.10658666850E+02  0.33264749742E+02  0.51100000000E-03 0. -1.
        -11    1    3    3    0    0  0.68144379684E+01 -0.11663990302E+02 -0.26505463906E+01  0.13766286028E+02  0.51100000000E-03 0.  1.
        -12    1    3    3    0    0 -0.21975729020E+02 -0.12399240850E+02  0.31678704459E+01  0.25430478619E+02  0.00000000000E+00 0.  1.
</event>
<event>
 7    1  0.2876796E-013  0.7246157E+02  0.7816164E-02  0.1226708E+00
        -11   -1    0    0    0    0  0.00000000000E+00  0.00000000000E+00  0.45593999997E+02  0.45594000000E+02  0.51100000000E-03 0. -1.
         11   -1    0    0    0    0 -0.00000000000E+00 -0.00000000000E+00 -0.45593999997E+02  0.45594000000E+02  0.51100000000E-03 0.  1.
    9900012    2    1    2    0    0  0.68777778015E+01  0.16813601422E+02 -0.45473304681E+01  0.72461568556E+02  0.69999997735E+02 0.  0.
         12    1    1    2    0    0 -0.68777778015E+01 -0.16813601422E+02  0.45473304681E+01  0.18726431444E+02  0.00000000000E+00 0. -1.
         11    1    3    3    0    0 -0.12302766959E+02 -0.88043087030E+01 -0.97515521996E+01  0.17999074897E+02  0.51100000000E-03 0. -1.
        -11    1    3    3    0    0  0.11835819763E+02 -0.40821185527E+01  0.17476375932E+02  0.21498233354E+02  0.51100000000E-03 0.  1.
        -12    1    3    3    0    0  0.73447249969E+01  0.29700028677E+02 -0.12272154201E+02  0.32964260305E+02  0.00000000000E+00 0.  1.
</event>
<event>
 7    1  0.2876796E-013  0.7246129E+02  0.7816164E-02  0.1226709E+00
        -11   -1    0    0    0    0  0.00000000000E+00  0.00000000000E+00  0.45593999997E+02  0.45594000000E+02  0.51100000000E-03 0.  1.
         11   -1    0    0    0    0 -0.00000000000E+00 -0.00000000000E+00 -0.45593999997E+02  0.45594000000E+02  0.51100000000E-03 0. -1.
    9900012    2    1    2    0    0  0.13725989451E+02 -0.48354512763E+01  0.11785807618E+02  0.72461290821E+02  0.69999635933E+02 0.  0.
         12    1    1    2    0    0 -0.13725989451E+02  0.48354512763E+01 -0.11785807618E+02  0.18726709179E+02  0.00000000000E+00 0. -1.
         11    1    3    3    0    0  0.91702010574E+01 -0.27324211881E+02  0.34883160097E+01  0.29032283603E+02  0.51100000000E-03 0.  1.
        -11    1    3    3    0    0  0.19226523810E+02  0.71528585593E+01  0.84992188700E+01  0.22204939204E+02  0.51100000000E-03 0. -1.
         12    1    3    3    0    0 -0.14670735416E+02  0.15335902045E+02 -0.20172726134E+00  0.21224068015E+02  0.00000000000E+00 0. -1.
</event>
<event>
 7    1  0.2876796E-013  0.7246154E+02  0.7816164E-02  0.1226708E+00
        -11   -1    0    0    0    0  0.00000000000E+00  0.00000000000E+00  0.45593999997E+02  0.45594000000E+02  0.51100000000E-03 0. -1.
         11   -1    0    0    0    0 -0.00000000000E+00 -0.00000000000E+00 -0.45593999997E+02  0.45594000000E+02  0.51100000000E-03 0.  1.
    9900012    2    1    2    0    0  0.45496004989E+01 -0.53580808008E+01 -0.17357197546E+02  0.72461542748E+02  0.69999964116E+02 0.  0.
         12    1    1    2    0    0 -0.45496004989E+01  0.53580808008E+01  0.17357197546E+02  0.18726457252E+02  0.00000000000E+00 0. -1.
         11    1    3    3    0    0  0.16490076231E+02 -0.38939661496E+01  0.18709086096E+02  0.25241146750E+02  0.51100000000E-03 0. -1.
        -11    1    3    3    0    0  0.87301570897E+01 -0.29653188345E+01 -0.15421002927E+02  0.17967083518E+02  0.51100000000E-03 0.  1.
        -12    1    3    3    0    0 -0.20670632822E+02  0.15012041833E+01 -0.20645280714E+02  0.29253312479E+02  0.00000000000E+00 0.  1.
</event>
<event>
 7    1  0.2876796E-013  0.7246161E+02  0.7816164E-02  0.1226708E+00
        -11   -1    0    0    0    0  0.00000000000E+00  0.00000000000E+00  0.45593999997E+02  0.45594000000E+02  0.51100000000E-03 0. -1.
         11   -1    0    0    0    0 -0.00000000000E+00 -0.00000000000E+00 -0.45593999997E+02  0.45594000000E+02  0.51100000000E-03 0.  1.
    9900012    2    1    2    0    0 -0.81977716880E+01 -0.77339841216E+01 -0.14955252246E+02  0.72461613782E+02  0.70000056651E+02 0.  0.
         12    1    1    2    0    0  0.81977716880E+01  0.77339841216E+01  0.14955252246E+02  0.18726386218E+02  0.00000000000E+00 0. -1.
         11    1    3    3    0    0 -0.15285768521E+02  0.13526384179E+02 -0.56203674998E+01  0.21170883764E+02  0.51100000000E-03 0. -1.
        -11    1    3    3    0    0 -0.22296957061E+01 -0.57121964716E+01 -0.25972386880E+02  0.26686431233E+02  0.51100000000E-03 0.  1.
         12    1    3    3    0    0  0.93176925388E+01 -0.15548171829E+02  0.16637502133E+02  0.24604298785E+02  0.00000000000E+00 0. -1.
</event>
<event>
 7    1  0.2876796E-013  0.7246124E+02  0.7816164E-02  0.1226709E+00
        -11   -1    0    0    0    0  0.00000000000E+00  0.00000000000E+00  0.45593999997E+02  0.45594000000E+02  0.51100000000E-03 0. -1.
         11   -1    0    0    0    0 -0.00000000000E+00 -0.00000000000E+00 -0.45593999997E+02  0.45594000000E+02  0.51100000000E-03 0.  1.
    9900012    2    1    2    0    0  0.38711618253E+01 -0.98194312638E+01 -0.15468826255E+02  0.72461235466E+02  0.69999563822E+02 0.  0.
         12    1    1    2    0    0 -0.38711618253E+01  0.98194312638E+01  0.15468826255E+02  0.18726764534E+02  0.00000000000E+00 0. -1.
         11    1    3    3    0    0  0.10788011995E+02 -0.13720813822E+02  0.16742527119E+02  0.24185825381E+02  0.51100000000E-03 0. -1.
        -11    1    3    3    0    0 -0.18905252241E+02  0.10597061478E+02 -0.15493804004E+02  0.26641400809E+02  0.51100000000E-03 0.  1.
        -12    1    3    3    0    0  0.11988402071E+02 -0.66956789202E+01 -0.16717549370E+02  0.21634009276E+02  0.00000000000E+00 0.  1.
</event>
<event>
 7    1  0.2876796E-013  0.7246161E+02  0.7816164E-02  0.1226708E+00
        -11   -1    0    0    0    0  0.00000000000E+00  0.00000000000E+00  0.45593999997E+02  0.45594000000E+02  0.51100000000E-03 0. -1.
         11   -1    0    0    0    0 -0.00000000000E+00 -0.00000000000E+00 -0.45593999997E+02  0.45594000000E+02  0.51100000000E-03 0.  1.
    9900012    2    1    2    0    0 -0.63936879984E+01 -0.15123563612E+02  0.90042404996E+01  0.72461607674E+02  0.70000048695E+02 0.  0.
         12    1    1    2    0    0  0.63936879984E+01  0.15123563612E+02 -0.90042404996E+01  0.18726392326E+02  0.00000000000E+00 0. -1.
         11    1    3    3    0    0  0.26035054000E+01  0.13115176149E+02  0.22789289743E+01  0.13563908113E+02  0.51100000000E-03 0. -1.
        -11    1    3    3    0    0 -0.79911533402E+01 -0.43890531070E+01 -0.20652056089E+02  0.22574980395E+02  0.51100000000E-03 0.  1.
        -12    1    3    3    0    0 -0.10060400582E+01 -0.23849686654E+02  0.27377367614E+02  0.36322719166E+02  0.00000000000E+00 0.  1.
</event>
<event>
 7    1  0.2876796E-013  0.7246187E+02  0.7816164E-02  0.1226707E+00
        -11   -1    0    0    0    0  0.00000000000E+00  0.00000000000E+00  0.45593999997E+02  0.45594000000E+02  0.51100000000E-03 0.  1.
         11   -1    0    0    0    0 -0.00000000000E+00 -0.00000000000E+00 -0.45593999997E+02  0.45594000000E+02  0.51100000000E-03 0. -1.
    9900012    2    1    2    0    0 -0.12091410885E+01  0.12800579212E+02  0.13614376243E+02  0.72461866101E+02  0.70000385342E+02 0.  0.
         12    1    1    2    0    0  0.12091410885E+01 -0.12800579212E+02 -0.13614376243E+02  0.18726133899E+02  0.00000000000E+00 0. -1.
         11    1    3    3    0    0 -0.53043440996E+01  0.21209380728E+02  0.18336899945E+01  0.21939378215E+02  0.51100000000E-03 0. -1.
        -11    1    3    3    0    0  0.13097415364E+02  0.13763563982E+02 -0.68483856390E+01  0.20195998832E+02  0.51100000000E-03 0.  1.
         12    1    3    3    0    0 -0.90022123525E+01 -0.22172365498E+02  0.18629071887E+02  0.30326489055E+02  0.00000000000E+00 0. -1.
</event>
<event>
 7    1  0.2876796E-013  0.7246157E+02  0.7816164E-02  0.1226708E+00
        -11   -1    0    0    0    0  0.00000000000E+00  0.00000000000E+00  0.45593999997E+02  0.45594000000E+02  0.51100000000E-03 0. -1.
         11   -1    0    0    0    0 -0.00000000000E+00 -0.00000000000E+00 -0.45593999997E+02  0.45594000000E+02  0.51100000000E-03 0.  1.
    9900012    2    1    2    0    0  0.12777017877E+02  0.13657245996E+02  0.95216167524E+00  0.72461570392E+02  0.70000000127E+02 0.  0.
         12    1    1    2    0    0 -0.12777017877E+02 -0.13657245996E+02 -0.95216167524E+00  0.18726429608E+02  0.00000000000E+00 0. -1.
         11    1    3    3    0    0 -0.66273446279E+01 -0.15795739393E+02 -0.76123011471E+01  0.18744978229E+02  0.51100000000E-03 0. -1.
        -11    1    3    3    0    0  0.25207963216E+01 -0.93580198914E+01  0.58167491956E+01  0.11303164241E+02  0.51100000000E-03 0.  1.
        -12    1    3    3    0    0  0.16883566183E+02  0.38811005280E+02  0.27477136267E+01  0.42413427922E+02  0.00000000000E+00 0.  1.
</event>
<event>
 7    1  0.2876796E-013  0.7246156E+02  0.7816164E-02  0.1226708E+00
        -11   -1    0    0    0    0  0.00000000000E+00  0.00000000000E+00  0.45593999997E+02  0.45594000000E+02  0.51100000000E-03 0.  1.
         11   -1    0    0    0    0 -0.00000000000E+00 -0.00000000000E+00 -0.45593999997E+02  0.45594000000E+02  0.51100000000E-03 0. -1.
    9900012    2    1    2    0    0 -0.18697554024E+02  0.28179740964E+00  0.10007857036E+01  0.72461561249E+02  0.69999988217E+02 0.  0.
         12    1    1    2    0    0  0.18697554024E+02 -0.28179740964E+00 -0.10007857036E+01  0.18726438751E+02  0.00000000000E+00 0. -1.
         11    1    3    3    0    0 -0.15473750734E+02  0.44027508047E+01 -0.21002575905E+01  0.16224434000E+02  0.51100000000E-03 0. -1.
        -11    1    3    3    0    0 -0.24867934705E+02  0.14556786986E+01  0.16777705518E+02  0.30033724039E+02  0.51100000000E-03 0.  1.
         12    1    3    3    0    0  0.21644131415E+02 -0.55766320937E+01 -0.13676662224E+02  0.26203403210E+02  0.00000000000E+00 0. -1.
</event>
<event>
 7    1  0.2876796E-013  0.7246160E+02  0.7816164E-02  0.1226708E+00
        -11   -1    0    0    0    0  0.00000000000E+00  0.00000000000E+00  0.45593999997E+02  0.45594000000E+02  0.51100000000E-03 0. -1.
         11   -1    0    0    0    0 -0.00000000000E+00 -0.00000000000E+00 -0.45593999997E+02  0.45594000000E+02  0.51100000000E-03 0.  1.
    9900012    2    1    2    0    0 -0.38907931002E+01  0.17521189401E+02  0.53430194953E+01  0.72461596013E+02  0.70000033503E+02 0.  0.
         12    1    1    2    0    0  0.38907931002E+01 -0.17521189401E+02 -0.53430194953E+01  0.18726403987E+02  0.00000000000E+00 0. -1.
         11    1    3    3    0    0 -0.83376487799E+01 -0.29213856430E+01  0.15476782404E+02  0.17820821393E+02  0.51100000000E-03 0. -1.
        -11    1    3    3    0    0 -0.32653915334E+01 -0.11477678759E+02  0.10468659918E+02  0.15874278954E+02  0.51100000000E-03 0.  1.
        -12    1    3    3    0    0  0.77122472131E+01  0.31920253803E+02 -0.20602422827E+02  0.38766495666E+02  0.00000000000E+00 0.  1.
</event>
<event>
 7    1  0.2876796E-013  0.7246156E+02  0.7816164E-02  0.1226708E+00
        -11   -1    0    0    0    0  0.00000000000E+00  0.00000000000E+00  0.45593999997E+02  0.45594000000E+02  0.51100000000E-03 0. -1.
         11   -1    0    0    0    0 -0.00000000000E+00 -0.00000000000E+00 -0.45593999997E+02  0.45594000000E+02  0.51100000000E-03 0.  1.
    9900012    2    1    2    0    0  0.67676810222E+00 -0.13525320534E+02 -0.12933951326E+02  0.72461563940E+02  0.69999991723E+02 0.  0.
         12    1    1    2    0    0 -0.67676810222E+00  0.13525320534E+02  0.12933951326E+02  0.18726436060E+02  0.00000000000E+00 0. -1.
         11    1    3    3    0    0  0.17440307920E+02 -0.17437463142E+01  0.57641538626E+01  0.18450757750E+02  0.51100000000E-03 0. -1.
        -11    1    3    3    0    0  0.38794915877E+01 -0.16579774510E+02 -0.26439247332E+02  0.31447943931E+02  0.51100000000E-03 0.  1.
        -12    1    3    3    0    0 -0.20643031405E+02  0.47982002899E+01  0.77411421434E+01  0.22562862259E+02  0.00000000000E+00 0.  1.
</event>
<event>
 7    1  0.2876796E-013  0.7246162E+02  0.7816164E-02  0.1226708E+00
        -11   -1    0    0    0    0  0.00000000000E+00  0.00000000000E+00  0.45593999997E+02  0.45594000000E+02  0.51100000000E-03 0.  1.
         11   -1    0    0    0    0 -0.00000000000E+00 -0.00000000000E+00 -0.45593999997E+02  0.45594000000E+02  0.51100000000E-03 0. -1.
    9900012    2    1    2    0    0 -0.99462062481E+01  0.14871480913E+02 -0.55307583463E+01  0.72461621515E+02  0.70000066724E+02 0.  0.
         12    1    1    2    0    0  0.99462062481E+01 -0.14871480913E+02  0.55307583463E+01  0.18726378485E+02  0.00000000000E+00 0. -1.
         11    1    3    3    0    0  0.18841906609E+02 -0.76105276697E+00 -0.26727891170E+01  0.19045746189E+02  0.51100000000E-03 0. -1.
        -11    1    3    3    0    0  0.56130429712E+01 -0.79485378784E+01 -0.62593727484E+01  0.11570015266E+02  0.51100000000E-03 0.  1.
        -12    1    3    3    0    0 -0.34401155829E+02  0.23581071558E+02  0.34014035191E+01  0.41845860059E+02  0.00000000000E+00 0.  1.
</event>
<event>
 7    1  0.2876796E-013  0.7246141E+02  0.7816164E-02  0.1226708E+00
        -11   -1    0    0    0    0  0.00000000000E+00  0.00000000000E+00  0.45593999997E+02  0.45594000000E+02  0.51100000000E-03 0. -1.
         11   -1    0    0    0    0 -0.00000000000E+00 -0.00000000000E+00 -0.45593999997E+02  0.45594000000E+02  0.51100000000E-03 0.  1.
    9900012    2    1    2    0    0 -0.70239953266E+00  0.17904824407E+02  0.54414312224E+01  0.72461407253E+02  0.69999787608E+02 0.  0.
         12    1    1    2    0    0  0.70239953266E+00 -0.17904824407E+02 -0.54414312224E+01  0.18726592747E+02  0.00000000000E+00 0. -1.
         11    1    3    3    0    0 -0.79705718790E+01 -0.84419277158E+01  0.13906633101E+02  0.18116031687E+02  0.51100000000E-03 0. -1.
        -11    1    3    3    0    0  0.80406268516E+01  0.19906933784E+02  0.17427672910E+02  0.27652513017E+02  0.51100000000E-03 0.  1.
        -12    1    3    3    0    0 -0.77245450518E+00  0.64398183388E+01 -0.25892874789E+02  0.26692862548E+02  0.00000000000E+00 0.  1.
</event>
<event>
 7    1  0.2876796E-013  0.7246160E+02  0.7816164E-02  0.1226708E+00
        -11   -1    0    0    0    0  0.00000000000E+00  0.00000000000E+00  0.45593999997E+02  0.45594000000E+02  0.51100000000E-03 0.  1.
         11   -1    0    0    0    0 -0.00000000000E+00 -0.00000000000E+00 -0.45593999997E+02  0.45594000000E+02  0.51100000000E-03 0. -1.
    9900012    2    1    2    0    0 -0.95235466800E+01  0.12595073056E+02  0.10066990235E+02  0.72461598876E+02  0.70000037233E+02 0.  0.
         12    1    1    2    0    0  0.95235466800E+01 -0.12595073056E+02 -0.10066990235E+02  0.18726401124E+02  0.00000000000E+00 0. -1.
         11    1    3    3    0    0 -0.10100472281E+02 -0.16851998044E+02  0.46908534972E+00  0.19652720415E+02  0.51100000000E-03 0. -1.
        -11    1    3    3    0    0 -0.15471095403E+02  0.21115941918E+02 -0.82060639767E+01  0.27433142042E+02  0.51100000000E-03 0.  1.
        -12    1    3    3    0    0  0.16048021004E+02  0.83311291822E+01  0.17803968862E+02  0.25375736420E+02  0.00000000000E+00 0.  1.
</event>
<event>
 7    1  0.2876796E-013  0.7246155E+02  0.7816164E-02  0.1226708E+00
        -11   -1    0    0    0    0  0.00000000000E+00  0.00000000000E+00  0.45593999997E+02  0.45594000000E+02  0.51100000000E-03 0.  1.
         11   -1    0    0    0    0 -0.00000000000E+00 -0.00000000000E+00 -0.45593999997E+02  0.45594000000E+02  0.51100000000E-03 0. -1.
    9900012    2    1    2    0    0  0.87834077410E+01  0.11018036248E+02  0.12334289867E+02  0.72461545963E+02  0.69999968303E+02 0.  0.
         12    1    1    2    0    0 -0.87834077410E+01 -0.11018036248E+02 -0.12334289867E+02  0.18726454037E+02  0.00000000000E+00 0. -1.
         11    1    3    3    0    0  0.13534215045E+02 -0.14379503611E+02  0.78242720822E+01  0.21240629342E+02  0.51100000000E-03 0. -1.
        -11    1    3    3    0    0 -0.14954393736E+02  0.11558869364E+02  0.20399290479E+02  0.27809573986E+02  0.51100000000E-03 0.  1.
         12    1    3    3    0    0  0.10203586433E+02  0.13838670495E+02 -0.15889272695E+02  0.23411342634E+02  0.00000000000E+00 0. -1.
</event>
<event>
 7    1  0.2876796E-013  0.7246154E+02  0.7816164E-02  0.1226708E+00
        -11   -1    0    0    0    0  0.00000000000E+00  0.00000000000E+00  0.45593999997E+02  0.45594000000E+02  0.51100000000E-03 0.  1.
         11   -1    0    0    0    0 -0.00000000000E+00 -0.00000000000E+00 -0.45593999997E+02  0.45594000000E+02  0.51100000000E-03 0. -1.
    9900012    2    1    2    0    0  0.10059773080E+02 -0.48169380254E+01  0.15042551687E+02  0.72461540441E+02  0.69999961110E+02 0.  0.
         12    1    1    2    0    0 -0.10059773080E+02  0.48169380254E+01 -0.15042551687E+02  0.18726459559E+02  0.00000000000E+00 0. -1.
         11    1    3    3    0    0 -0.52602899533E+01 -0.18544511639E+02 -0.46634399444E+01  0.19832227174E+02  0.51100000000E-03 0. -1.
        -11    1    3    3    0    0  0.22316625228E+02 -0.44673942999E+01  0.23560586366E+02  0.32758061658E+02  0.51100000000E-03 0.  1.
         12    1    3    3    0    0 -0.69965621952E+01  0.18194967913E+02 -0.38545947342E+01  0.19871251608E+02  0.00000000000E+00 0. -1.
</event>
<event>
 7    1  0.2876796E-013  0.7246173E+02  0.7816164E-02  0.1226708E+00
        -11   -1    0    0    0    0  0.00000000000E+00  0.00000000000E+00  0.45593999997E+02  0.45594000000E+02  0.51100000000E-03 0.  1.
         11   -1    0    0    0    0 -0.00000000000E+00 -0.00000000000E+00 -0.45593999997E+02  0.45594000000E+02  0.51100000000E-03 0. -1.
    9900012    2    1    2    0    0 -0.92275574130E+01 -0.15292070299E+02  0.56283318421E+01  0.72461725700E+02  0.70000202444E+02 0.  0.
         12    1    1    2    0    0  0.92275574130E+01  0.15292070299E+02 -0.56283318421E+01  0.18726274300E+02  0.00000000000E+00 0. -1.
         11    1    3    3    0    0  0.13238093614E+01  0.34409920287E+01 -0.71808936989E+01  0.80720587177E+01  0.51100000000E-03 0. -1.
        -11    1    3    3    0    0 -0.22009231833E+02 -0.12696345399E+02 -0.17886992778E+02  0.31073267986E+02  0.51100000000E-03 0.  1.
        -12    1    3    3    0    0  0.11457865059E+02 -0.60367169286E+01  0.30696218319E+02  0.33316398996E+02  0.00000000000E+00 0.  1.
</event>
<event>
 7    1  0.2876796E-013  0.7246085E+02  0.7816164E-02  0.1226710E+00
        -11   -1    0    0    0    0  0.00000000000E+00  0.00000000000E+00  0.45593999997E+02  0.45594000000E+02  0.51100000000E-03 0. -1.
         11   -1    0    0    0    0 -0.00000000000E+00 -0.00000000000E+00 -0.45593999997E+02  0.45594000000E+02  0.51100000000E-03 0.  1.
    9900012    2    1    2    0    0 -0.14644502117E+02 -0.99102853249E+01 -0.61669158620E+01  0.72460852627E+02  0.69999065099E+02 0.  0.
         12    1    1    2    0    0  0.14644502117E+02  0.99102853249E+01  0.61669158620E+01  0.18727147373E+02  0.00000000000E+00 0. -1.
         11    1    3    3    0    0 -0.23523923118E+01  0.30613976164E+01  0.25683963890E+00  0.38693503092E+01  0.51100000000E-03 0. -1.
        -11    1    3    3    0    0  0.14554197363E+02  0.20019931832E+02 -0.80462281891E+01  0.26026219851E+02  0.51100000000E-03 0.  1.
        -12    1    3    3    0    0 -0.26846307168E+02 -0.32991614773E+02  0.16224726882E+01  0.42565282467E+02  0.00000000000E+00 0.  1.
</event>
<event>
 7    1  0.2876796E-013  0.7246160E+02  0.7816164E-02  0.1226708E+00
        -11   -1    0    0    0    0  0.00000000000E+00  0.00000000000E+00  0.45593999997E+02  0.45594000000E+02  0.51100000000E-03 0. -1.
         11   -1    0    0    0    0 -0.00000000000E+00 -0.00000000000E+00 -0.45593999997E+02  0.45594000000E+02  0.51100000000E-03 0.  1.
    9900012    2    1    2    0    0  0.87135355907E+01 -0.16479714464E+02 -0.17808303283E+01  0.72461600240E+02  0.70000039010E+02 0.  0.
         12    1    1    2    0    0 -0.87135355907E+01  0.16479714464E+02  0.17808303283E+01  0.18726399760E+02  0.00000000000E+00 0. -1.
         11    1    3    3    0    0 -0.18493646779E+02 -0.32120275223E+01  0.14946952228E+02  0.23994655096E+02  0.51100000000E-03 0. -1.
        -11    1    3    3    0    0 -0.79936915198E+01 -0.37475955247E+01 -0.15252875697E+01  0.89593570507E+01  0.51100000000E-03 0.  1.
        -12    1    3    3    0    0  0.35200873889E+02 -0.95200914173E+01 -0.15202494987E+02  0.39507588094E+02  0.00000000000E+00 0.  1.
</event>
<event>
 7    1  0.2876796E-013  0.7246162E+02  0.7816164E-02  0.1226708E+00
        -11   -1    0    0    0    0  0.00000000000E+00  0.00000000000E+00  0.45593999997E+02  0.45594000000E+02  0.51100000000E-03 0. -1.
         11   -1    0    0    0    0 -0.00000000000E+00 -0.00000000000E+00 -0.45593999997E+02  0.45594000000E+02  0.51100000000E-03 0.  1.
    9900012    2    1    2    0    0 -0.11935732516E+02  0.12299453844E+02 -0.75457897207E+01  0.72461622399E+02  0.70000067876E+02 0.  0.
         12    1    1    2    0    0  0.11935732516E+02 -0.12299453844E+02  0.75457897207E+01  0.18726377601E+02  0.00000000000E+00 0. -1.
         11    1    3    3    0    0 -0.16633915780E+02  0.21948667015E+02 -0.21772235224E+02  0.35106429109E+02  0.51100000000E-03 0. -1.
        -11    1    3    3    0    0 -0.65597437114E+01 -0.14521118108E+02 -0.29934727515E+01  0.16212772374E+02  0.51100000000E-03 0.  1.
        -12    1    3    3    0    0  0.11257926976E+02  0.48719049369E+01  0.17219918255E+02  0.21142420916E+02  0.00000000000E+00 0.  1.
</event>
<event>
 7    1  0.2876796E-013  0.7246158E+02  0.7816164E-02  0.1226708E+00
        -11   -1    0    0    0    0  0.00000000000E+00  0.00000000000E+00  0.45593999997E+02  0.45594000000E+02  0.51100000000E-03 0. -1.
         11   -1    0    0    0    0 -0.00000000000E+00 -0.00000000000E+00 -0.45593999997E+02  0.45594000000E+02  0.51100000000E-03 0.  1.
    9900012    2    1    2    0    0 -0.56250431608E+01 -0.73695575501E+01 -0.16270439741E+02  0.72461582873E+02  0.70000016386E+02 0.  0.
         12    1    1    2    0    0  0.56250431608E+01  0.73695575501E+01  0.16270439741E+02  0.18726417127E+02  0.00000000000E+00 0. -1.
         11    1    3    3    0    0  0.11399047631E+00  0.32735397506E+01 -0.22152806389E+01  0.39543046035E+01  0.51100000000E-03 0. -1.
        -11    1    3    3    0    0  0.16428138703E+02 -0.24769873300E+02 -0.26134909231E+02  0.39578578111E+02  0.51100000000E-03 0.  1.
         12    1    3    3    0    0 -0.22167172340E+02  0.14126775999E+02  0.12079750128E+02  0.28928700158E+02  0.00000000000E+00 0. -1.
</event>
<event>
 7    1  0.2876796E-013  0.7246158E+02  0.7816164E-02  0.1226708E+00
        -11   -1    0    0    0    0  0.00000000000E+00  0.00000000000E+00  0.45593999997E+02  0.45594000000E+02  0.51100000000E-03 0. -1.
         11   -1    0    0    0    0 -0.00000000000E+00 -0.00000000000E+00 -0.45593999997E+02  0.45594000000E+02  0.51100000000E-03 0.  1.
    9900012    2    1    2    0    0 -0.18276794466E+02 -0.37174020861E+01 -0.16788405723E+01  0.72461580164E+02  0.70000012857E+02 0.  0.
         12    1    1    2    0    0  0.18276794466E+02  0.37174020861E+01  0.16788405723E+01  0.18726419836E+02  0.00000000000E+00 0. -1.
         11    1    3    3    0    0  0.28976576837E+00  0.17036976362E+02  0.37345524406E+01  0.17443893200E+02  0.51100000000E-03 0. -1.
        -11    1    3    3    0    0 -0.10975110756E+02  0.12684548500E+02 -0.11302049884E+02  0.20225903159E+02  0.51100000000E-03 0.  1.
         12    1    3    3    0    0 -0.75914494788E+01 -0.33438926948E+02  0.58886568709E+01  0.34791783806E+02  0.00000000000E+00 0. -1.
</event>
<event>
 7    1  0.2876796E-013  0.7246154E+02  0.7816164E-02  0.1226708E+00
        -11   -1    0    0    0    0  0.00000000000E+00  0.00000000000E+00  0.45593999997E+02  0.45594000000E+02  0.51100000000E-03 0.  1.
         11   -1    0    0    0    0 -0.00000000000E+00 -0.00000000000E+00 -0.45593999997E+02  0.45594000000E+02  0.51100000000E-03 0. -1.
    9900012    2    1    2    0    0 -0.15044749430E+02 -0.71264206386E+01  0.85761271740E+01  0.72461539741E+02  0.69999960199E+02 0.  0.
         12    1    1    2    0    0  0.15044749430E+02  0.71264206386E+01 -0.85761271740E+01  0.18726460259E+02  0.00000000000E+00 0. -1.
         11    1    3    3    0    0 -0.75919527196E+01  0.14373944721E+02 -0.19471308444E+00  0.16256873820E+02  0.51100000000E-03 0. -1.
        -11    1    3    3    0    0 -0.26937114401E+02 -0.26017800167E+01  0.10447180675E+02  0.29008980951E+02  0.51100000000E-03 0.  1.
        -12    1    3    3    0    0  0.19484317690E+02 -0.18898585343E+02 -0.16763404166E+01  0.27195684971E+02  0.00000000000E+00 0.  1.
</event>
<event>
 7    1  0.2876796E-013  0.7246152E+02  0.7816164E-02  0.1226708E+00
        -11   -1    0    0    0    0  0.00000000000E+00  0.00000000000E+00  0.45593999997E+02  0.45594000000E+02  0.51100000000E-03 0.  1.
         11   -1    0    0    0    0 -0.00000000000E+00 -0.00000000000E+00 -0.45593999997E+02  0.45594000000E+02  0.51100000000E-03 0. -1.
    9900012    2    1    2    0    0 -0.12141441499E+02  0.14035147088E+02  0.25061754874E+01  0.72461524863E+02  0.69999940818E+02 0.  0.
         12    1    1    2    0    0  0.12141441499E+02 -0.14035147088E+02 -0.25061754874E+01  0.18726475137E+02  0.00000000000E+00 0. -1.
         11    1    3    3    0    0 -0.29154786304E+02  0.28055146677E+01  0.57788716791E+01  0.29854109183E+02  0.51100000000E-03 0. -1.
        -11    1    3    3    0    0 -0.26128758617E+01 -0.79865365780E+01  0.91834118903E+01  0.12447768514E+02  0.51100000000E-03 0.  1.
         12    1    3    3    0    0  0.19626220666E+02  0.19216168998E+02 -0.12456108082E+02  0.30159647166E+02  0.00000000000E+00 0. -1.
</event>
<event>
 7    1  0.2876796E-013  0.7246157E+02  0.7816164E-02  0.1226708E+00
        -11   -1    0    0    0    0  0.00000000000E+00  0.00000000000E+00  0.45593999997E+02  0.45594000000E+02  0.51100000000E-03 0. -1.
         11   -1    0    0    0    0 -0.00000000000E+00 -0.00000000000E+00 -0.45593999997E+02  0.45594000000E+02  0.51100000000E-03 0.  1.
    9900012    2    1    2    0    0  0.13833811053E+02  0.12275835982E+02 -0.29340888936E+01  0.72461565343E+02  0.69999993551E+02 0.  0.
         12    1    1    2    0    0 -0.13833811053E+02 -0.12275835982E+02  0.29340888936E+01  0.18726434657E+02  0.00000000000E+00 0. -1.
         11    1    3    3    0    0  0.71458068496E+01 -0.34583613692E+01 -0.87953504985E+00  0.79872649297E+01  0.51100000000E-03 0. -1.
        -11    1    3    3    0    0 -0.30326599553E+01  0.31510040655E+02 -0.20988557844E+02  0.37981564596E+02  0.51100000000E-03 0.  1.
         12    1    3    3    0    0  0.97206641591E+01 -0.15775843305E+02  0.18934004000E+02  0.26492735818E+02  0.00000000000E+00 0. -1.
</event>
<event>
 7    1  0.2876796E-013  0.7246157E+02  0.7816164E-02  0.1226708E+00
        -11   -1    0    0    0    0  0.00000000000E+00  0.00000000000E+00  0.45593999997E+02  0.45594000000E+02  0.51100000000E-03 0.  1.
         11   -1    0    0    0    0 -0.00000000000E+00 -0.00000000000E+00 -0.45593999997E+02  0.45594000000E+02  0.51100000000E-03 0. -1.
    9900012    2    1    2    0    0 -0.10743543038E+02 -0.20020170231E+01  0.15206821173E+02  0.72461569498E+02  0.69999998962E+02 0.  0.
         12    1    1    2    0    0  0.10743543038E+02  0.20020170231E+01 -0.15206821173E+02  0.18726430502E+02  0.00000000000E+00 0. -1.
         11    1    3    3    0    0 -0.18005899151E+02  0.74111287640E+01 -0.28122852732E+01  0.19673489333E+02  0.51100000000E-03 0. -1.
        -11    1    3    3    0    0 -0.10649959374E+02 -0.40990805385E+01  0.28966401069E+02  0.31133205538E+02  0.51100000000E-03 0.  1.
        -12    1    3    3    0    0  0.17912315487E+02 -0.53140652485E+01 -0.10947294622E+02  0.21654874627E+02  0.00000000000E+00 0.  1.
</event>
<event>
 7    1  0.2876796E-013  0.7246156E+02  0.7816164E-02  0.1226708E+00
        -11   -1    0    0    0    0  0.00000000000E+00  0.00000000000E+00  0.45593999997E+02  0.45594000000E+02  0.51100000000E-03 0. -1.
         11   -1    0    0    0    0 -0.00000000000E+00 -0.00000000000E+00 -0.45593999997E+02  0.45594000000E+02  0.51100000000E-03 0.  1.
    9900012    2    1    2    0    0 -0.17328341425E+02  0.70486889487E+01 -0.85084722424E+00  0.72461564850E+02  0.69999992908E+02 0.  0.
         12    1    1    2    0    0  0.17328341425E+02 -0.70486889487E+01  0.85084722424E+00  0.18726435150E+02  0.00000000000E+00 0. -1.
         11    1    3    3    0    0 -0.69873710027E+01 -0.16567195415E+01 -0.15272185861E+02  0.16876247639E+02  0.51100000000E-03 0. -1.
        -11    1    3    3    0    0 -0.10473500246E+02  0.16819558564E+02 -0.15136283608E+02  0.24933889376E+02  0.51100000000E-03 0.  1.
         12    1    3    3    0    0  0.13252982365E+00 -0.81141500742E+01  0.29557622244E+02  0.30651427834E+02  0.00000000000E+00 0. -1.
</event>
<event>
 7    1  0.2876796E-013  0.7246161E+02  0.7816164E-02  0.1226708E+00
        -11   -1    0    0    0    0  0.00000000000E+00  0.00000000000E+00  0.45593999997E+02  0.45594000000E+02  0.51100000000E-03 0. -1.
         11   -1    0    0    0    0 -0.00000000000E+00 -0.00000000000E+00 -0.45593999997E+02  0.45594000000E+02  0.51100000000E-03 0.  1.
    9900012    2    1    2    0    0  0.87826757586E+00  0.18678151175E+02  0.10164163495E+01  0.72461607196E+02  0.70000048071E+02 0.  0.
         12    1    1    2    0    0 -0.87826757586E+00 -0.18678151175E+02 -0.10164163495E+01  0.18726392804E+02  0.00000000000E+00 0. -1.
         11    1    3    3    0    0  0.13143091151E+02  0.71864664312E+01  0.37610560679E+01  0.15444471107E+02  0.51100000000E-03 0. -1.
        -11    1    3    3    0    0  0.13219424922E+02 -0.67605548813E+01 -0.17008919775E+02  0.22577901801E+02  0.51100000000E-03 0.  1.
         12    1    3    3    0    0 -0.25484248497E+02  0.18252239625E+02  0.14264280057E+02  0.34439234288E+02  0.00000000000E+00 0. -1.
</event>
<event>
 7    1  0.2876796E-013  0.7246157E+02  0.7816164E-02  0.1226708E+00
        -11   -1    0    0    0    0  0.00000000000E+00  0.00000000000E+00  0.45593999997E+02  0.45594000000E+02  0.51100000000E-03 0. -1.
         11   -1    0    0    0    0 -0.00000000000E+00 -0.00000000000E+00 -0.45593999997E+02  0.45594000000E+02  0.51100000000E-03 0.  1.
    9900012    2    1    2    0    0 -0.18627731963E+02  0.99291744706E+00  0.16434045359E+01  0.72461573175E+02  0.70000003753E+02 0.  0.
         12    1    1    2    0    0  0.18627731963E+02 -0.99291744706E+00 -0.16434045359E+01  0.18726426825E+02  0.00000000000E+00 0. -1.
         11    1    3    3    0    0  0.15973739821E+02  0.17437141678E+02  0.17500995198E+02  0.29419366189E+02  0.51100000000E-03 0. -1.
        -11    1    3    3    0    0 -0.53292239977E+01 -0.41116178883E+01  0.14259636683E+01  0.68803635603E+01  0.51100000000E-03 0.  1.
        -12    1    3    3    0    0 -0.29272247786E+02 -0.12332606343E+02 -0.17283554331E+02  0.36161843426E+02  0.00000000000E+00 0.  1.
</event>
<event>
 7    1  0.2876796E-013  0.7246153E+02  0.7816164E-02  0.1226708E+00
        -11   -1    0    0    0    0  0.00000000000E+00  0.00000000000E+00  0.45593999997E+02  0.45594000000E+02  0.51100000000E-03 0.  1.
         11   -1    0    0    0    0 -0.00000000000E+00 -0.00000000000E+00 -0.45593999997E+02  0.45594000000E+02  0.51100000000E-03 0. -1.
    9900012    2    1    2    0    0 -0.37541403712E+00  0.15293659943E+02  0.10800168303E+02  0.72461531953E+02  0.69999950054E+02 0.  0.
         12    1    1    2    0    0  0.37541403712E+00 -0.15293659943E+02 -0.10800168303E+02  0.18726468047E+02  0.00000000000E+00 0. -1.
         11    1    3    3    0    0 -0.14553861036E+02  0.20751505019E+02 -0.18910134434E+02  0.31623298629E+02  0.51100000000E-03 0. -1.
        -11    1    3    3    0    0 -0.26089547871E+01 -0.19915434008E+01  0.21647900801E+02  0.21895307706E+02  0.51100000000E-03 0.  1.
        -12    1    3    3    0    0  0.16787401786E+02 -0.34663016752E+01  0.80624019355E+01  0.18942925619E+02  0.00000000000E+00 0.  1.
</event>
<event>
 7    1  0.2876796E-013  0.7246160E+02  0.7816164E-02  0.1226708E+00
        -11   -1    0    0    0    0  0.00000000000E+00  0.00000000000E+00  0.45593999997E+02  0.45594000000E+02  0.51100000000E-03 0. -1.
         11   -1    0    0    0    0 -0.00000000000E+00 -0.00000000000E+00 -0.45593999997E+02  0.45594000000E+02  0.51100000000E-03 0.  1.
    9900012    2    1    2    0    0 -0.94052007284E+01 -0.11559826307E+02 -0.11339778512E+02  0.72461602544E+02  0.70000042011E+02 0.  0.
         12    1    1    2    0    0  0.94052007284E+01  0.11559826307E+02  0.11339778512E+02  0.18726397456E+02  0.00000000000E+00 0. -1.
         11    1    3    3    0    0  0.10963314568E+02  0.21261507971E+01 -0.17558837746E+02  0.20809314423E+02  0.51100000000E-03 0. -1.
        -11    1    3    3    0    0  0.27436777070E+01 -0.24807973888E+02 -0.10873482326E+01  0.24982907401E+02  0.51100000000E-03 0.  1.
        -12    1    3    3    0    0 -0.23112193003E+02  0.11121996783E+02  0.73064074661E+01  0.26669380719E+02  0.00000000000E+00 0.  1.
</event>
<event>
 7    1  0.2876796E-013  0.7246160E+02  0.7816164E-02  0.1226708E+00
        -11   -1    0    0    0    0  0.00000000000E+00  0.00000000000E+00  0.45593999997E+02  0.45594000000E+02  0.51100000000E-03 0.  1.
         11   -1    0    0    0    0 -0.00000000000E+00 -0.00000000000E+00 -0.45593999997E+02  0.45594000000E+02  0.51100000000E-03 0. -1.
    9900012    2    1    2    0    0  0.15141727647E+02  0.46215211653E+01  0.10002389915E+02  0.72461596768E+02  0.70000034486E+02 0.  0.
         12    1    1    2    0    0 -0.15141727647E+02 -0.46215211653E+01 -0.10002389915E+02  0.18726403232E+02  0.00000000000E+00 0. -1.
         11    1    3    3    0    0  0.47095278036E+01 -0.43882481781E+01  0.36878302167E+01  0.74186566286E+01  0.51100000000E-03 0. -1.
        -11    1    3    3    0    0  0.30591577143E+02 -0.12555458853E+02 -0.49697144025E+01  0.33439231460E+02  0.51100000000E-03 0.  1.
         12    1    3    3    0    0 -0.20159377300E+02  0.21565228196E+02  0.11284274100E+02  0.31603708679E+02  0.00000000000E+00 0. -1.
</event>
<event>
 7    1  0.2876796E-013  0.7246159E+02  0.7816164E-02  0.1226708E+00
        -11   -1    0    0    0    0  0.00000000000E+00  0.00000000000E+00  0.45593999997E+02  0.45594000000E+02  0.51100000000E-03 0.  1.
         11   -1    0    0    0    0 -0.00000000000E+00 -0.00000000000E+00 -0.45593999997E+02  0.45594000000E+02  0.51100000000E-03 0. -1.
    9900012    2    1    2    0    0  0.50444169915E+01  0.49035237517E+00  0.18027533245E+02  0.72461587019E+02  0.70000021787E+02 0.  0.
         12    1    1    2    0    0 -0.50444169915E+01 -0.49035237517E+00 -0.18027533245E+02  0.18726412981E+02  0.00000000000E+00 0. -1.
         11    1    3    3    0    0 -0.20105588007E+01  0.86911276525E+01  0.23774324474E+02  0.25392844485E+02  0.51100000000E-03 0. -1.
        -11    1    3    3    0    0  0.15269612166E+02 -0.89495979645E+00  0.16349344097E+02  0.22388904873E+02  0.51100000000E-03 0.  1.
         12    1    3    3    0    0 -0.82146363737E+01 -0.73058154809E+01 -0.22096135327E+02  0.24679837661E+02  0.00000000000E+00 0. -1.
</event>
<event>
 7    1  0.2876796E-013  0.7246154E+02  0.7816164E-02  0.1226708E+00
        -11   -1    0    0    0    0  0.00000000000E+00  0.00000000000E+00  0.45593999997E+02  0.45594000000E+02  0.51100000000E-03 0.  1.
         11   -1    0    0    0    0 -0.00000000000E+00 -0.00000000000E+00 -0.45593999997E+02  0.45594000000E+02  0.51100000000E-03 0. -1.
    9900012    2    1    2    0    0 -0.56277435279E+01  0.41001498972E+01  0.17383831985E+02  0.72461539019E+02  0.69999959258E+02 0.  0.
         12    1    1    2    0    0  0.56277435279E+01 -0.41001498972E+01 -0.17383831985E+02  0.18726460981E+02  0.00000000000E+00 0. -1.
         11    1    3    3    0    0  0.61405455061E+01 -0.16702320068E+02 -0.11324322208E+02  0.21092986240E+02  0.51100000000E-03 0. -1.
        -11    1    3    3    0    0 -0.23072492576E+02  0.57603291238E+01  0.16186690034E+02  0.28766825334E+02  0.51100000000E-03 0.  1.
         12    1    3    3    0    0  0.11304203542E+02  0.15042140842E+02  0.12521464159E+02  0.22601727445E+02  0.00000000000E+00 0. -1.
</event>
<event>
 7    1  0.2876796E-013  0.7246156E+02  0.7816164E-02  0.1226708E+00
        -11   -1    0    0    0    0  0.00000000000E+00  0.00000000000E+00  0.45593999997E+02  0.45594000000E+02  0.51100000000E-03 0.  1.
         11   -1    0    0    0    0 -0.00000000000E+00 -0.00000000000E+00 -0.45593999997E+02  0.45594000000E+02  0.51100000000E-03 0. -1.
    9900012    2    1    2    0    0 -0.65780238111E+01 -0.30688961643E+00  0.17530396661E+02  0.72461564526E+02  0.69999992485E+02 0.  0.
         12    1    1    2    0    0  0.65780238111E+01  0.30688961643E+00 -0.17530396661E+02  0.18726435474E+02  0.00000000000E+00 0. -1.
         11    1    3    3    0    0  0.20369846494E+02  0.14135375451E+02  0.24139878736E+01  0.24911178676E+02  0.51100000000E-03 0. -1.
        -11    1    3    3    0    0 -0.15446875350E+01  0.63042525139E+01  0.13183862927E+02  0.14695029815E+02  0.51100000000E-03 0.  1.
        -12    1    3    3    0    0 -0.25403182770E+02 -0.20746517581E+02  0.19325458605E+01  0.32855356034E+02  0.00000000000E+00 0.  1.
</event>
<event>
 7    1  0.2876796E-013  0.7246155E+02  0.7816164E-02  0.1226708E+00
        -11   -1    0    0    0    0  0.00000000000E+00  0.00000000000E+00  0.45593999997E+02  0.45594000000E+02  0.51100000000E-03 0.  1.
         11   -1    0    0    0    0 -0.00000000000E+00 -0.00000000000E+00 -0.45593999997E+02  0.45594000000E+02  0.51100000000E-03 0. -1.
    9900012    2    1    2    0    0 -0.53438093273E+01 -0.16944785592E+02  0.59159020072E+01  0.72461549363E+02  0.69999972733E+02 0.  0.
         12    1    1    2    0    0  0.53438093273E+01  0.16944785592E+02 -0.59159020072E+01  0.18726450637E+02  0.00000000000E+00 0. -1.
         11    1    3    3    0    0 -0.24340362956E+02 -0.26065495997E+01  0.54415390752E+01  0.25077035658E+02  0.51100000000E-03 0. -1.
        -11    1    3    3    0    0  0.77871387684E+01  0.37413410573E+01  0.17906572996E+02  0.19881713202E+02  0.51100000000E-03 0.  1.
         12    1    3    3    0    0  0.11209414860E+02 -0.18079577050E+02 -0.17432210064E+02  0.27502800503E+02  0.00000000000E+00 0. -1.
</event>
<event>
 7    1  0.2876796E-013  0.7246143E+02  0.7816164E-02  0.1226708E+00
        -11   -1    0    0    0    0  0.00000000000E+00  0.00000000000E+00  0.45593999997E+02  0.45594000000E+02  0.51100000000E-03 0.  1.
         11   -1    0    0    0    0 -0.00000000000E+00 -0.00000000000E+00 -0.45593999997E+02  0.45594000000E+02  0.51100000000E-03 0. -1.
    9900012    2    1    2    0    0  0.85524487986E+01  0.11821226731E+02  0.11738762865E+02  0.72461432362E+02  0.69999820317E+02 0.  0.
         12    1    1    2    0    0 -0.85524487986E+01 -0.11821226731E+02 -0.11738762865E+02  0.18726567638E+02  0.00000000000E+00 0. -1.
         11    1    3    3    0    0  0.16241080826E+02 -0.10879896931E+02  0.41391669964E+01  0.19981931020E+02  0.51100000000E-03 0.  1.
        -11    1    3    3    0    0 -0.10450448100E+02 -0.12420095806E+02  0.56825719696E+01  0.17197740252E+02  0.51100000000E-03 0. -1.
         12    1    3    3    0    0  0.27618160734E+01  0.35121219468E+02  0.19170238994E+01  0.35281761090E+02  0.00000000000E+00 0. -1.
</event>
<event>
 7    1  0.2876796E-013  0.7246159E+02  0.7816164E-02  0.1226708E+00
        -11   -1    0    0    0    0  0.00000000000E+00  0.00000000000E+00  0.45593999997E+02  0.45594000000E+02  0.51100000000E-03 0.  1.
         11   -1    0    0    0    0 -0.00000000000E+00 -0.00000000000E+00 -0.45593999997E+02  0.45594000000E+02  0.51100000000E-03 0. -1.
    9900012    2    1    2    0    0  0.16374591889E+02 -0.50682329562E+01 -0.75408406855E+01  0.72461587555E+02  0.70000022485E+02 0.  0.
         12    1    1    2    0    0 -0.16374591889E+02  0.50682329562E+01  0.75408406855E+01  0.18726412445E+02  0.00000000000E+00 0. -1.
         11    1    3    3    0    0 -0.50882620900E+01 -0.63481073113E+00  0.33077067603E+01  0.61019931198E+01  0.51100000000E-03 0. -1.
        -11    1    3    3    0    0 -0.58331481586E+01  0.10760233389E+02  0.19359004507E+02  0.22903696117E+02  0.51100000000E-03 0.  1.
         12    1    3    3    0    0  0.27296002137E+02 -0.15193655614E+02 -0.30207551953E+02  0.43455898318E+02  0.00000000000E+00 0. -1.
</event>
<event>
 7    1  0.2876796E-013  0.7246158E+02  0.7816164E-02  0.1226708E+00
        -11   -1    0    0    0    0  0.00000000000E+00  0.00000000000E+00  0.45593999997E+02  0.45594000000E+02  0.51100000000E-03 0.  1.
         11   -1    0    0    0    0 -0.00000000000E+00 -0.00000000000E+00 -0.45593999997E+02  0.45594000000E+02  0.51100000000E-03 0. -1.
    9900012    2    1    2    0    0 -0.96173256556E+01 -0.13867393311E+02  0.81167384565E+01  0.72461575003E+02  0.70000006134E+02 0.  0.
         12    1    1    2    0    0  0.96173256556E+01  0.13867393311E+02 -0.81167384565E+01  0.18726424997E+02  0.00000000000E+00 0. -1.
         11    1    3    3    0    0 -0.27881424097E+01 -0.25599315709E+02 -0.73603511088E+01  0.26781961682E+02  0.51100000000E-03 0. -1.
        -11    1    3    3    0    0  0.82961450967E+01 -0.70851002099E+01 -0.67784886618E+01  0.12844165105E+02  0.51100000000E-03 0.  1.
        -12    1    3    3    0    0 -0.15125328343E+02  0.18817022608E+02  0.22255578227E+02  0.32835448215E+02  0.00000000000E+00 0.  1.
</event>
<event>
 7    1  0.2876796E-013  0.7246145E+02  0.7816164E-02  0.1226708E+00
        -11   -1    0    0    0    0  0.00000000000E+00  0.00000000000E+00  0.45593999997E+02  0.45594000000E+02  0.51100000000E-03 0.  1.
         11   -1    0    0    0    0 -0.00000000000E+00 -0.00000000000E+00 -0.45593999997E+02  0.45594000000E+02  0.51100000000E-03 0. -1.
    9900012    2    1    2    0    0  0.49769189270E+01  0.17774220573E+02 -0.31608764962E+01  0.72461447215E+02  0.69999839667E+02 0.  0.
         12    1    1    2    0    0 -0.49769189270E+01 -0.17774220573E+02  0.31608764962E+01  0.18726552785E+02  0.00000000000E+00 0. -1.
         11    1    3    3    0    0 -0.60345981261E+00 -0.75654010648E+00  0.17910163586E+01  0.20357447129E+01  0.51100000000E-03 0. -1.
        -11    1    3    3    0    0 -0.34961233489E+01  0.27915082994E+02  0.25073350782E+02  0.37684846513E+02  0.51100000000E-03 0.  1.
         12    1    3    3    0    0  0.90765020886E+01 -0.93843223145E+01 -0.30025243637E+02  0.32740855989E+02  0.00000000000E+00 0. -1.
</event>
<event>
 7    1  0.2876796E-013  0.7246195E+02  0.7816164E-02  0.1226707E+00
        -11   -1    0    0    0    0  0.00000000000E+00  0.00000000000E+00  0.45593999997E+02  0.45594000000E+02  0.51100000000E-03 0. -1.
         11   -1    0    0    0    0 -0.00000000000E+00 -0.00000000000E+00 -0.45593999997E+02  0.45594000000E+02  0.51100000000E-03 0.  1.
    9900012    2    1    2    0    0 -0.27446399304E+01 -0.72845480689E+01 -0.17031364120E+02  0.72461947221E+02  0.70000491015E+02 0.  0.
         12    1    1    2    0    0  0.27446399304E+01  0.72845480689E+01  0.17031364120E+02  0.18726052779E+02  0.00000000000E+00 0. -1.
         11    1    3    3    0    0 -0.24334845708E+02  0.13420411889E+02  0.97556172921E+01  0.29452745880E+02  0.51100000000E-03 0. -1.
        -11    1    3    3    0    0  0.18079907550E+02 -0.73390228671E+01 -0.12735799915E+02  0.23301178369E+02  0.51100000000E-03 0.  1.
        -12    1    3    3    0    0  0.35102982270E+01 -0.13365937091E+02 -0.14051181497E+02  0.19708022971E+02  0.00000000000E+00 0.  1.
</event>
<event>
 7    1  0.2876796E-013  0.7246156E+02  0.7816164E-02  0.1226708E+00
        -11   -1    0    0    0    0  0.00000000000E+00  0.00000000000E+00  0.45593999997E+02  0.45594000000E+02  0.51100000000E-03 0. -1.
         11   -1    0    0    0    0 -0.00000000000E+00 -0.00000000000E+00 -0.45593999997E+02  0.45594000000E+02  0.51100000000E-03 0.  1.
    9900012    2    1    2    0    0  0.14711883614E+02 -0.60496459281E+01  0.98813870195E+01  0.72461560275E+02  0.69999986949E+02 0.  0.
         12    1    1    2    0    0 -0.14711883614E+02  0.60496459281E+01 -0.98813870195E+01  0.18726439725E+02  0.00000000000E+00 0. -1.
         11    1    3    3    0    0  0.15732743096E+02 -0.70463792708E+01  0.26152882103E+02  0.31323216768E+02  0.51100000000E-03 0. -1.
        -11    1    3    3    0    0  0.26909396190E+01  0.70958661455E+01  0.10767186020E+02  0.13172879998E+02  0.51100000000E-03 0.  1.
        -12    1    3    3    0    0 -0.37117991009E+01 -0.60991328027E+01 -0.27038681103E+02  0.27965463510E+02  0.00000000000E+00 0.  1.
</event>
<event>
 7    1  0.2876796E-013  0.7246161E+02  0.7816164E-02  0.1226708E+00
        -11   -1    0    0    0    0  0.00000000000E+00  0.00000000000E+00  0.45593999997E+02  0.45594000000E+02  0.51100000000E-03 0. -1.
         11   -1    0    0    0    0 -0.00000000000E+00 -0.00000000000E+00 -0.45593999997E+02  0.45594000000E+02  0.51100000000E-03 0.  1.
    9900012    2    1    2    0    0 -0.73109273692E+01  0.16650747824E+02  0.44699810305E+01  0.72461607061E+02  0.70000047895E+02 0.  0.
         12    1    1    2    0    0  0.73109273692E+01 -0.16650747824E+02 -0.44699810305E+01  0.18726392939E+02  0.00000000000E+00 0. -1.
         11    1    3    3    0    0 -0.22896659838E+02  0.23927052132E+01  0.15932785307E+02  0.27997066237E+02  0.51100000000E-03 0. -1.
        -11    1    3    3    0    0  0.45041364487E+01 -0.97170060182E+01  0.64950555630E+01  0.12525701503E+02  0.51100000000E-03 0.  1.
        -12    1    3    3    0    0  0.11081596021E+02  0.23975048629E+02 -0.17957859840E+02  0.31938839321E+02  0.00000000000E+00 0.  1.
</event>
<event>
 7    1  0.2876796E-013  0.7246155E+02  0.7816164E-02  0.1226708E+00
        -11   -1    0    0    0    0  0.00000000000E+00  0.00000000000E+00  0.45593999997E+02  0.45594000000E+02  0.51100000000E-03 0.  1.
         11   -1    0    0    0    0 -0.00000000000E+00 -0.00000000000E+00 -0.45593999997E+02  0.45594000000E+02  0.51100000000E-03 0. -1.
    9900012    2    1    2    0    0  0.10089276189E+02 -0.93499519252E+01  0.12706879831E+02  0.72461551056E+02  0.69999974938E+02 0.  0.
         12    1    1    2    0    0 -0.10089276189E+02  0.93499519252E+01 -0.12706879831E+02  0.18726448944E+02  0.00000000000E+00 0. -1.
         11    1    3    3    0    0 -0.94421080148E+01  0.63456416695E+01 -0.60097003751E+01  0.12866121048E+02  0.51100000000E-03 0. -1.
        -11    1    3    3    0    0 -0.39522883216E+01  0.88948153848E+01  0.23332252682E+02  0.25281066813E+02  0.51100000000E-03 0.  1.
        -12    1    3    3    0    0  0.23483672525E+02 -0.24590408979E+02 -0.46156724761E+01  0.34314363195E+02  0.00000000000E+00 0.  1.
</event>
<event>
 7    1  0.2876796E-013  0.7246157E+02  0.7816164E-02  0.1226708E+00
        -11   -1    0    0    0    0  0.00000000000E+00  0.00000000000E+00  0.45593999997E+02  0.45594000000E+02  0.51100000000E-03 0.  1.
         11   -1    0    0    0    0 -0.00000000000E+00 -0.00000000000E+00 -0.45593999997E+02  0.45594000000E+02  0.51100000000E-03 0. -1.
    9900012    2    1    2    0    0  0.16811493563E+02 -0.78604413057E+01 -0.25032363328E+01  0.72461573607E+02  0.70000004315E+02 0.  0.
         12    1    1    2    0    0 -0.16811493563E+02  0.78604413057E+01  0.25032363328E+01  0.18726426393E+02  0.00000000000E+00 0. -1.
         11    1    3    3    0    0  0.22877711213E+02 -0.12410855453E+02 -0.17908052295E+02  0.31592995120E+02  0.51100000000E-03 0. -1.
        -11    1    3    3    0    0  0.14734372228E+01  0.11796605750E+02 -0.86080548410E+01  0.14677517940E+02  0.51100000000E-03 0.  1.
        -12    1    3    3    0    0 -0.75396548727E+01 -0.72461916027E+01  0.24012870803E+02  0.26191060547E+02  0.00000000000E+00 0.  1.
</event>
<event>
 7    1  0.2876796E-013  0.7246155E+02  0.7816164E-02  0.1226708E+00
        -11   -1    0    0    0    0  0.00000000000E+00  0.00000000000E+00  0.45593999997E+02  0.45594000000E+02  0.51100000000E-03 0.  1.
         11   -1    0    0    0    0 -0.00000000000E+00 -0.00000000000E+00 -0.45593999997E+02  0.45594000000E+02  0.51100000000E-03 0. -1.
    9900012    2    1    2    0    0 -0.14466790051E+02  0.76302669432E+00 -0.11866323523E+02  0.72461551910E+02  0.69999976051E+02 0.  0.
         12    1    1    2    0    0  0.14466790051E+02 -0.76302669432E+00  0.11866323523E+02  0.18726448090E+02  0.00000000000E+00 0. -1.
         11    1    3    3    0    0 -0.23151058246E+02 -0.68883834548E+01 -0.11839708212E+02  0.26899814411E+02  0.51100000000E-03 0. -1.
        -11    1    3    3    0    0 -0.15271310524E+02 -0.36000541677E+01 -0.84070214055E+01  0.17800318095E+02  0.51100000000E-03 0.  1.
         12    1    3    3    0    0  0.23955578718E+02  0.11251464317E+02  0.83804060949E+01  0.27761419404E+02  0.00000000000E+00 0. -1.
</event>
<event>
 7    1  0.2876796E-013  0.7246161E+02  0.7816164E-02  0.1226708E+00
        -11   -1    0    0    0    0  0.00000000000E+00  0.00000000000E+00  0.45593999997E+02  0.45594000000E+02  0.51100000000E-03 0.  1.
         11   -1    0    0    0    0 -0.00000000000E+00 -0.00000000000E+00 -0.45593999997E+02  0.45594000000E+02  0.51100000000E-03 0. -1.
    9900012    2    1    2    0    0 -0.60806981744E+01  0.15228807887E+02  0.90435741097E+01  0.72461609194E+02  0.70000050674E+02 0.  0.
         12    1    1    2    0    0  0.60806981744E+01 -0.15228807887E+02 -0.90435741097E+01  0.18726390806E+02  0.00000000000E+00 0. -1.
         11    1    3    3    0    0 -0.16168640008E+02  0.46727003660E+01 -0.22299222511E+02  0.27937687329E+02  0.51100000000E-03 0. -1.
        -11    1    3    3    0    0  0.25431375679E+01  0.21892029576E+01 -0.52529228725E+01  0.62332461241E+01  0.51100000000E-03 0.  1.
        -12    1    3    3    0    0  0.75448042662E+01  0.83669045635E+01  0.36595719494E+02  0.38290675740E+02  0.00000000000E+00 0.  1.
</event>
<event>
 7    1  0.2876796E-013  0.7246153E+02  0.7816164E-02  0.1226708E+00
        -11   -1    0    0    0    0  0.00000000000E+00  0.00000000000E+00  0.45593999997E+02  0.45594000000E+02  0.51100000000E-03 0.  1.
         11   -1    0    0    0    0 -0.00000000000E+00 -0.00000000000E+00 -0.45593999997E+02  0.45594000000E+02  0.51100000000E-03 0. -1.
    9900012    2    1    2    0    0  0.22976698094E+01  0.18547681154E+02 -0.11767782261E+01  0.72461532908E+02  0.69999951297E+02 0.  0.
         12    1    1    2    0    0 -0.22976698094E+01 -0.18547681154E+02  0.11767782261E+01  0.18726467092E+02  0.00000000000E+00 0. -1.
         11    1    3    3    0    0  0.87304274062E+01 -0.77018582478E+01  0.14130373176E+02  0.18308643574E+02  0.51100000000E-03 0. -1.
        -11    1    3    3    0    0  0.31169229847E+01  0.12601020281E+02  0.14836074997E+02  0.19713194632E+02  0.51100000000E-03 0.  1.
        -12    1    3    3    0    0 -0.95496805815E+01  0.13648519121E+02 -0.30143226399E+02  0.34439694702E+02  0.00000000000E+00 0.  1.
</event>
<event>
 7    1  0.2876796E-013  0.7246165E+02  0.7816164E-02  0.1226708E+00
        -11   -1    0    0    0    0  0.00000000000E+00  0.00000000000E+00  0.45593999997E+02  0.45594000000E+02  0.51100000000E-03 0. -1.
         11   -1    0    0    0    0 -0.00000000000E+00 -0.00000000000E+00 -0.45593999997E+02  0.45594000000E+02  0.51100000000E-03 0.  1.
    9900012    2    1    2    0    0 -0.81816527683E+01  0.94225875941E+01 -0.13962502073E+02  0.72461653236E+02  0.70000108047E+02 0.  0.
         12    1    1    2    0    0  0.81816527683E+01 -0.94225875941E+01  0.13962502073E+02  0.18726346764E+02  0.00000000000E+00 0. -1.
         11    1    3    3    0    0  0.31344006438E+01 -0.10716419811E+02 -0.17515513233E+02  0.20771599001E+02  0.51100000000E-03 0. -1.
        -11    1    3    3    0    0  0.15135691238E+02  0.19585671241E+02 -0.13191636322E+01  0.24787655398E+02  0.51100000000E-03 0.  1.
         12    1    3    3    0    0 -0.26451744650E+02  0.55333616488E+00  0.48721747926E+01  0.26902398836E+02  0.00000000000E+00 0. -1.
</event>
<event>
 7    1  0.3419628E-013  0.7246163E+02  0.7816164E-02  0.1226708E+00
        -11   -1    0    0    0    0  0.00000000000E+00  0.00000000000E+00  0.45593999997E+02  0.45594000000E+02  0.51100000000E-03 0. -1.
         11   -1    0    0    0    0 -0.00000000000E+00 -0.00000000000E+00 -0.45593999997E+02  0.45594000000E+02  0.51100000000E-03 0.  1.
    9900012    2    1    2    0    0  0.40781777468E+01  0.86211101609E+01 -0.16115892112E+02  0.72461626814E+02  0.70000073627E+02 0.  0.
         12    1    1    2    0    0 -0.40781777468E+01 -0.86211101609E+01  0.16115892112E+02  0.18726373186E+02  0.00000000000E+00 0. -1.
         11    1    3    3    0    0  0.12422921831E+02  0.22875374408E+01 -0.62415669267E+00  0.12647188866E+02  0.51100000000E-03 0. -1.
        -11    1    3    3    0    0  0.16825083486E+02  0.11426988394E+02 -0.25179638980E+02  0.32367788270E+02  0.51100000000E-03 0.  1.
         12    1    3    3    0    0 -0.25169827570E+02 -0.50934156737E+01  0.96879035603E+01  0.27446649678E+02  0.00000000000E+00 0. -1.
</event>
<event>
 7    1  0.2876796E-013  0.7246162E+02  0.7816164E-02  0.1226708E+00
        -11   -1    0    0    0    0  0.00000000000E+00  0.00000000000E+00  0.45593999997E+02  0.45594000000E+02  0.51100000000E-03 0. -1.
         11   -1    0    0    0    0 -0.00000000000E+00 -0.00000000000E+00 -0.45593999997E+02  0.45594000000E+02  0.51100000000E-03 0.  1.
    9900012    2    1    2    0    0  0.81537470404E+01 -0.38060542131E+01 -0.16422784622E+02  0.72461615025E+02  0.70000058270E+02 0.  0.
         12    1    1    2    0    0 -0.81537470404E+01  0.38060542131E+01  0.16422784622E+02  0.18726384975E+02  0.00000000000E+00 0. -1.
         11    1    3    3    0    0 -0.76373191407E+00 -0.33764622328E+01  0.70724911111E+01  0.78742564363E+01  0.51100000000E-03 0. -1.
        -11    1    3    3    0    0  0.55839763577E+01  0.13712507229E+02  0.16420195315E+02  0.22109646332E+02  0.51100000000E-03 0.  1.
        -12    1    3    3    0    0  0.33335025967E+01 -0.14142099209E+02 -0.39915471049E+02  0.42477712257E+02  0.00000000000E+00 0.  1.
</event>
<event>
 7    1  0.2876796E-013  0.7246155E+02  0.7816164E-02  0.1226708E+00
        -11   -1    0    0    0    0  0.00000000000E+00  0.00000000000E+00  0.45593999997E+02  0.45594000000E+02  0.51100000000E-03 0.  1.
         11   -1    0    0    0    0 -0.00000000000E+00 -0.00000000000E+00 -0.45593999997E+02  0.45594000000E+02  0.51100000000E-03 0. -1.
    9900012    2    1    2    0    0  0.89415986003E+01 -0.48918739004E+01  0.15709778369E+02  0.72461554737E+02  0.69999979733E+02 0.  0.
         12    1    1    2    0    0 -0.89415986003E+01  0.48918739004E+01 -0.15709778369E+02  0.18726445263E+02  0.00000000000E+00 0. -1.
         11    1    3    3    0    0 -0.28117122117E+01 -0.76464231709E+01 -0.23976723939E+02  0.25323048869E+02  0.51100000000E-03 0. -1.
        -11    1    3    3    0    0 -0.52427858734E+01  0.40322589089E+01  0.43787747120E+01  0.79321865752E+01  0.51100000000E-03 0.  1.
        -12    1    3    3    0    0  0.16996096685E+02 -0.12777096385E+01  0.35307727597E+02  0.39206319293E+02  0.00000000000E+00 0.  1.
</event>
<event>
 7    1  0.2876796E-013  0.7246156E+02  0.7816164E-02  0.1226708E+00
        -11   -1    0    0    0    0  0.00000000000E+00  0.00000000000E+00  0.45593999997E+02  0.45594000000E+02  0.51100000000E-03 0. -1.
         11   -1    0    0    0    0 -0.00000000000E+00 -0.00000000000E+00 -0.45593999997E+02  0.45594000000E+02  0.51100000000E-03 0.  1.
    9900012    2    1    2    0    0 -0.16729431447E+02  0.62842830912E+01 -0.55958360135E+01  0.72461562239E+02  0.69999989507E+02 0.  0.
         12    1    1    2    0    0  0.16729431447E+02 -0.62842830912E+01  0.55958360135E+01  0.18726437761E+02  0.00000000000E+00 0. -1.
         11    1    3    3    0    0  0.51541252390E+01  0.12194578599E+02  0.10125672856E+02  0.16667393474E+02  0.51100000000E-03 0. -1.
        -11    1    3    3    0    0 -0.12414846912E+01  0.43751359007E+01  0.15966820211E+02  0.16601880806E+02  0.51100000000E-03 0.  1.
        -12    1    3    3    0    0 -0.20642071995E+02 -0.10285431408E+02 -0.31688329081E+02  0.39192287959E+02  0.00000000000E+00 0.  1.
</event>
<event>
 7    1  0.2876796E-013  0.7246154E+02  0.7816164E-02  0.1226708E+00
        -11   -1    0    0    0    0  0.00000000000E+00  0.00000000000E+00  0.45593999997E+02  0.45594000000E+02  0.51100000000E-03 0.  1.
         11   -1    0    0    0    0 -0.00000000000E+00 -0.00000000000E+00 -0.45593999997E+02  0.45594000000E+02  0.51100000000E-03 0. -1.
    9900012    2    1    2    0    0 -0.43699536780E+01  0.44447246800E+01  0.17658659468E+02  0.72461539394E+02  0.69999959747E+02 0.  0.
         12    1    1    2    0    0  0.43699536780E+01 -0.44447246800E+01 -0.17658659468E+02  0.18726460606E+02  0.00000000000E+00 0. -1.
         11    1    3    3    0    0 -0.10892014855E+02 -0.12936475989E+02  0.18436727498E+02  0.25018019900E+02  0.51100000000E-03 0. -1.
        -11    1    3    3    0    0  0.58491292737E+01 -0.14220056853E+02 -0.33291764429E+01  0.15732315348E+02  0.51100000000E-03 0.  1.
         12    1    3    3    0    0  0.67293190365E+00  0.31601257521E+02  0.25511084130E+01  0.31711204146E+02  0.00000000000E+00 0. -1.
</event>
<event>
 7    1  0.2876796E-013  0.7246155E+02  0.7816164E-02  0.1226708E+00
        -11   -1    0    0    0    0  0.00000000000E+00  0.00000000000E+00  0.45593999997E+02  0.45594000000E+02  0.51100000000E-03 0. -1.
         11   -1    0    0    0    0 -0.00000000000E+00 -0.00000000000E+00 -0.45593999997E+02  0.45594000000E+02  0.51100000000E-03 0.  1.
    9900012    2    1    2    0    0 -0.48955976325E+01  0.11623603259E+02 -0.13842137718E+02  0.72461553313E+02  0.69999977879E+02 0.  0.
         12    1    1    2    0    0  0.48955976325E+01 -0.11623603259E+02  0.13842137718E+02  0.18726446687E+02  0.00000000000E+00 0. -1.
         11    1    3    3    0    0  0.23243887825E+02  0.49504410161E+01  0.13434280603E+02  0.27299543642E+02  0.51100000000E-03 0. -1.
        -11    1    3    3    0    0 -0.89791320308E+01  0.24671125128E+01  0.23740744803E+01  0.96097703446E+01  0.51100000000E-03 0.  1.
        -12    1    3    3    0    0 -0.19160353427E+02  0.42060497300E+01 -0.29650492802E+02  0.35552239327E+02  0.00000000000E+00 0.  1.
</event>
<event>
 7    1  0.2876796E-013  0.7246158E+02  0.7816164E-02  0.1226708E+00
        -11   -1    0    0    0    0  0.00000000000E+00  0.00000000000E+00  0.45593999997E+02  0.45594000000E+02  0.51100000000E-03 0. -1.
         11   -1    0    0    0    0 -0.00000000000E+00 -0.00000000000E+00 -0.45593999997E+02  0.45594000000E+02  0.51100000000E-03 0.  1.
    9900012    2    1    2    0    0  0.16607667783E+02 -0.85812988722E+01 -0.11070188554E+01  0.72461579887E+02  0.70000012496E+02 0.  0.
         12    1    1    2    0    0 -0.16607667783E+02  0.85812988722E+01  0.11070188554E+01  0.18726420113E+02  0.00000000000E+00 0. -1.
         11    1    3    3    0    0  0.12047883705E+01  0.91908184565E+01  0.19174943534E+02  0.21297913482E+02  0.51100000000E-03 0. -1.
        -11    1    3    3    0    0 -0.58042578764E+01  0.13969320695E+00  0.90668953547E+01  0.10766499678E+02  0.51100000000E-03 0.  1.
        -12    1    3    3    0    0  0.21207137289E+02 -0.17911810536E+02 -0.29348857744E+02  0.40397166726E+02  0.00000000000E+00 0.  1.
</event>
<event>
 7    1  0.2876796E-013  0.7246171E+02  0.7816164E-02  0.1226708E+00
        -11   -1    0    0    0    0  0.00000000000E+00  0.00000000000E+00  0.45593999997E+02  0.45594000000E+02  0.51100000000E-03 0.  1.
         11   -1    0    0    0    0 -0.00000000000E+00 -0.00000000000E+00 -0.45593999997E+02  0.45594000000E+02  0.51100000000E-03 0. -1.
    9900012    2    1    2    0    0  0.10356623949E+02 -0.11782396277E+02  0.10226896592E+02  0.72461710044E+02  0.70000182049E+02 0.  0.
         12    1    1    2    0    0 -0.10356623949E+02  0.11782396277E+02 -0.10226896592E+02  0.18726289956E+02  0.00000000000E+00 0. -1.
         11    1    3    3    0    0 -0.64297860940E+01 -0.10239607149E+02  0.74635399134E+01  0.14209015873E+02  0.51100000000E-03 0. -1.
        -11    1    3    3    0    0  0.27674290409E+02  0.14349885413E+02  0.15842155664E+02  0.34967977599E+02  0.51100000000E-03 0.  1.
         12    1    3    3    0    0 -0.10887880367E+02 -0.15892674540E+02 -0.13078798985E+02  0.23284716571E+02  0.00000000000E+00 0. -1.
</event>
<event>
 7    1  0.2876796E-013  0.7246152E+02  0.7816164E-02  0.1226708E+00
        -11   -1    0    0    0    0  0.00000000000E+00  0.00000000000E+00  0.45593999997E+02  0.45594000000E+02  0.51100000000E-03 0.  1.
         11   -1    0    0    0    0 -0.00000000000E+00 -0.00000000000E+00 -0.45593999997E+02  0.45594000000E+02  0.51100000000E-03 0. -1.
    9900012    2    1    2    0    0 -0.10793860616E+02  0.11042150478E+02 -0.10594546841E+02  0.72461523104E+02  0.69999938525E+02 0.  0.
         12    1    1    2    0    0  0.10793860616E+02 -0.11042150478E+02  0.10594546841E+02  0.18726476896E+02  0.00000000000E+00 0. -1.
         11    1    3    3    0    0 -0.22664358295E+01 -0.50591420129E+01 -0.33235595165E+01  0.64635669253E+01  0.51100000000E-03 0. -1.
        -11    1    3    3    0    0 -0.27946253646E+02  0.18138818570E+02  0.14863734583E+02  0.36482056383E+02  0.51100000000E-03 0.  1.
         12    1    3    3    0    0  0.19418828859E+02 -0.20375260786E+01 -0.22134721907E+02  0.29515899795E+02  0.00000000000E+00 0. -1.
</event>
<event>
 7    1  0.2876796E-013  0.7246155E+02  0.7816164E-02  0.1226708E+00
        -11   -1    0    0    0    0  0.00000000000E+00  0.00000000000E+00  0.45593999997E+02  0.45594000000E+02  0.51100000000E-03 0.  1.
         11   -1    0    0    0    0 -0.00000000000E+00 -0.00000000000E+00 -0.45593999997E+02  0.45594000000E+02  0.51100000000E-03 0. -1.
    9900012    2    1    2    0    0  0.16448465142E+02  0.69721308395E+01 -0.56140261864E+01  0.72461550684E+02  0.69999974454E+02 0.  0.
         12    1    1    2    0    0 -0.16448465142E+02 -0.69721308395E+01  0.56140261864E+01  0.18726449316E+02  0.00000000000E+00 0. -1.
         11    1    3    3    0    0 -0.22134183158E+01 -0.18733004617E+01 -0.13952940335E+02  0.14251070819E+02  0.51100000000E-03 0. -1.
        -11    1    3    3    0    0 -0.15619537458E+02  0.70862350518E+01  0.15530955986E+02  0.23138609979E+02  0.51100000000E-03 0.  1.
         12    1    3    3    0    0  0.34281420916E+02  0.17591962494E+01 -0.71920418383E+01  0.35071869886E+02  0.00000000000E+00 0. -1.
</event>
<event>
 7    1  0.2876796E-013  0.7246156E+02  0.7816164E-02  0.1226708E+00
        -11   -1    0    0    0    0  0.00000000000E+00  0.00000000000E+00  0.45593999997E+02  0.45594000000E+02  0.51100000000E-03 0. -1.
         11   -1    0    0    0    0 -0.00000000000E+00 -0.00000000000E+00 -0.45593999997E+02  0.45594000000E+02  0.51100000000E-03 0.  1.
    9900012    2    1    2    0    0 -0.10810379208E+02 -0.11718135536E+02 -0.98234788943E+01  0.72461555152E+02  0.69999980275E+02 0.  0.
         12    1    1    2    0    0  0.10810379208E+02  0.11718135536E+02  0.98234788943E+01  0.18726444848E+02  0.00000000000E+00 0. -1.
         11    1    3    3    0    0  0.19915353205E+01  0.14286386376E+01 -0.13737537081E+02  0.13954466905E+02  0.51100000000E-03 0. -1.
        -11    1    3    3    0    0 -0.12234355122E+02 -0.75410918477E+01 -0.25114983483E+02  0.28936307765E+02  0.51100000000E-03 0.  1.
         12    1    3    3    0    0 -0.56755940677E+00 -0.56056823255E+01  0.29029041670E+02  0.29570780481E+02  0.00000000000E+00 0. -1.
</event>
<event>
 7    1  0.2876796E-013  0.7246166E+02  0.7816164E-02  0.1226708E+00
        -11   -1    0    0    0    0  0.00000000000E+00  0.00000000000E+00  0.45593999997E+02  0.45594000000E+02  0.51100000000E-03 0.  1.
         11   -1    0    0    0    0 -0.00000000000E+00 -0.00000000000E+00 -0.45593999997E+02  0.45594000000E+02  0.51100000000E-03 0. -1.
    9900012    2    1    2    0    0  0.82790933397E+01 -0.13964933091E+02  0.93334389215E+01  0.72461659598E+02  0.70000116334E+02 0.  0.
         12    1    1    2    0    0 -0.82790933397E+01  0.13964933091E+02 -0.93334389215E+01  0.18726340402E+02  0.00000000000E+00 0. -1.
         11    1    3    3    0    0 -0.95861477919E+01 -0.48124294294E+01  0.25318042045E+02  0.27496489954E+02  0.51100000000E-03 0.  1.
        -11    1    3    3    0    0  0.94451313250E+01 -0.17460214976E+02 -0.23644595792E+02  0.30872909211E+02  0.51100000000E-03 0. -1.
         12    1    3    3    0    0  0.84201098066E+01  0.83077113141E+01  0.76599926680E+01  0.14092260433E+02  0.00000000000E+00 0. -1.
</event>
<event>
 7    1  0.2876796E-013  0.7246151E+02  0.7816164E-02  0.1226708E+00
        -11   -1    0    0    0    0  0.00000000000E+00  0.00000000000E+00  0.45593999997E+02  0.45594000000E+02  0.51100000000E-03 0.  1.
         11   -1    0    0    0    0 -0.00000000000E+00 -0.00000000000E+00 -0.45593999997E+02  0.45594000000E+02  0.51100000000E-03 0. -1.
    9900012    2    1    2    0    0  0.11903184939E+02  0.13275736609E+02  0.57228127002E+01  0.72461505950E+02  0.69999916179E+02 0.  0.
         12    1    1    2    0    0 -0.11903184939E+02 -0.13275736609E+02 -0.57228127002E+01  0.18726494050E+02  0.00000000000E+00 0. -1.
         11    1    3    3    0    0  0.78786324612E+01  0.10646192021E+02  0.12721227849E+01  0.13305357968E+02  0.51100000000E-03 0. -1.
        -11    1    3    3    0    0 -0.22335627253E+02  0.17742273932E+02  0.36801102866E+01  0.28761288932E+02  0.51100000000E-03 0.  1.
         12    1    3    3    0    0  0.26360179731E+02 -0.15112729344E+02  0.77057962875E+00  0.30394859050E+02  0.00000000000E+00 0. -1.
</event>
<event>
 7    1  0.2876796E-013  0.7246159E+02  0.7816164E-02  0.1226708E+00
        -11   -1    0    0    0    0  0.00000000000E+00  0.00000000000E+00  0.45593999997E+02  0.45594000000E+02  0.51100000000E-03 0.  1.
         11   -1    0    0    0    0 -0.00000000000E+00 -0.00000000000E+00 -0.45593999997E+02  0.45594000000E+02  0.51100000000E-03 0. -1.
    9900012    2    1    2    0    0  0.62292063205E+01  0.88978172119E+01  0.15254647863E+02  0.72461589667E+02  0.70000025237E+02 0.  0.
         12    1    1    2    0    0 -0.62292063205E+01 -0.88978172119E+01 -0.15254647863E+02  0.18726410333E+02  0.00000000000E+00 0. -1.
         11    1    3    3    0    0 -0.44383012284E+01 -0.20463266201E+02 -0.39863566744E+01  0.21315131274E+02  0.51100000000E-03 0. -1.
        -11    1    3    3    0    0  0.17093795206E+02  0.12744582652E+01  0.12684117135E+01  0.17188104810E+02  0.51100000000E-03 0.  1.
        -12    1    3    3    0    0 -0.64262876576E+01  0.28086625148E+02  0.17972592824E+02  0.33958353583E+02  0.00000000000E+00 0.  1.
</event>
<event>
 7    1  0.2876796E-013  0.7246160E+02  0.7816164E-02  0.1226708E+00
        -11   -1    0    0    0    0  0.00000000000E+00  0.00000000000E+00  0.45593999997E+02  0.45594000000E+02  0.51100000000E-03 0.  1.
         11   -1    0    0    0    0 -0.00000000000E+00 -0.00000000000E+00 -0.45593999997E+02  0.45594000000E+02  0.51100000000E-03 0. -1.
    9900012    2    1    2    0    0  0.15494231161E+02 -0.10211972224E+02 -0.25144360051E+01  0.72461602472E+02  0.70000041917E+02 0.  0.
         12    1    1    2    0    0 -0.15494231161E+02  0.10211972224E+02  0.25144360051E+01  0.18726397528E+02  0.00000000000E+00 0. -1.
         11    1    3    3    0    0 -0.13656738112E+00 -0.29354782334E+01  0.87416550864E+01  0.92223758880E+01  0.51100000000E-03 0. -1.
        -11    1    3    3    0    0  0.28329165768E+02  0.13519444104E+02  0.77553983973E+01  0.32333623467E+02  0.51100000000E-03 0.  1.
         12    1    3    3    0    0 -0.12698367226E+02 -0.20795938094E+02 -0.19011489489E+02  0.30905603116E+02  0.00000000000E+00 0. -1.
</event>
<event>
 7    1  0.2876796E-013  0.7246149E+02  0.7816164E-02  0.1226708E+00
        -11   -1    0    0    0    0  0.00000000000E+00  0.00000000000E+00  0.45593999997E+02  0.45594000000E+02  0.51100000000E-03 0.  1.
         11   -1    0    0    0    0 -0.00000000000E+00 -0.00000000000E+00 -0.45593999997E+02  0.45594000000E+02  0.51100000000E-03 0. -1.
    9900012    2    1    2    0    0  0.51212507412E+00  0.11280001456E+02  0.14939265634E+02  0.72461485038E+02  0.69999888938E+02 0.  0.
         12    1    1    2    0    0 -0.51212507412E+00 -0.11280001456E+02 -0.14939265634E+02  0.18726514962E+02  0.00000000000E+00 0. -1.
         11    1    3    3    0    0 -0.68804814560E+01 -0.29790636483E+01 -0.53598590861E+00  0.75168561541E+01  0.51100000000E-03 0. -1.
        -11    1    3    3    0    0 -0.83420511219E+01 -0.21298741416E+02  0.12197562049E+02  0.25923092467E+02  0.51100000000E-03 0.  1.
         12    1    3    3    0    0  0.15734657652E+02  0.35557806520E+02  0.32776894937E+01  0.39021536417E+02  0.00000000000E+00 0. -1.
</event>
<event>
 7    1  0.2876796E-013  0.7246155E+02  0.7816164E-02  0.1226708E+00
        -11   -1    0    0    0    0  0.00000000000E+00  0.00000000000E+00  0.45593999997E+02  0.45594000000E+02  0.51100000000E-03 0.  1.
         11   -1    0    0    0    0 -0.00000000000E+00 -0.00000000000E+00 -0.45593999997E+02  0.45594000000E+02  0.51100000000E-03 0. -1.
    9900012    2    1    2    0    0  0.71627259941E+01 -0.15336236134E+02  0.80109415846E+01  0.72461548989E+02  0.69999972245E+02 0.  0.
         12    1    1    2    0    0 -0.71627259941E+01  0.15336236134E+02 -0.80109415846E+01  0.18726451011E+02  0.00000000000E+00 0. -1.
         11    1    3    3    0    0 -0.15777166056E+02  0.11887762981E+02  0.34177730559E+01  0.20047918855E+02  0.51100000000E-03 0. -1.
        -11    1    3    3    0    0 -0.58556372641E+01  0.34452442134E+01 -0.59640602631E+01  0.90403656199E+01  0.51100000000E-03 0.  1.
        -12    1    3    3    0    0  0.28795529315E+02 -0.30669243328E+02  0.10557228792E+02  0.43373264514E+02  0.00000000000E+00 0.  1.
</event>
<event>
 7    1  0.2876796E-013  0.7246159E+02  0.7816164E-02  0.1226708E+00
        -11   -1    0    0    0    0  0.00000000000E+00  0.00000000000E+00  0.45593999997E+02  0.45594000000E+02  0.51100000000E-03 0.  1.
         11   -1    0    0    0    0 -0.00000000000E+00 -0.00000000000E+00 -0.45593999997E+02  0.45594000000E+02  0.51100000000E-03 0. -1.
    9900012    2    1    2    0    0  0.16197713285E+02 -0.19893605748E+00  0.93953606404E+01  0.72461593704E+02  0.70000030495E+02 0.  0.
         12    1    1    2    0    0 -0.16197713285E+02  0.19893605748E+00 -0.93953606404E+01  0.18726406296E+02  0.00000000000E+00 0. -1.
         11    1    3    3    0    0  0.11617036240E+01  0.12733403834E+02  0.15474809931E+02  0.20073835488E+02  0.51100000000E-03 0.  1.
        -11    1    3    3    0    0 -0.17139308995E+02 -0.31229492943E+01  0.26852138785E+01  0.17627226071E+02  0.51100000000E-03 0. -1.
        -12    1    3    3    0    0  0.32175318656E+02 -0.98093905974E+01 -0.87646631693E+01  0.34760532145E+02  0.00000000000E+00 0.  1.
</event>
<event>
 7    1  0.2876796E-013  0.7246163E+02  0.7816164E-02  0.1226708E+00
        -11   -1    0    0    0    0  0.00000000000E+00  0.00000000000E+00  0.45593999997E+02  0.45594000000E+02  0.51100000000E-03 0. -1.
         11   -1    0    0    0    0 -0.00000000000E+00 -0.00000000000E+00 -0.45593999997E+02  0.45594000000E+02  0.51100000000E-03 0.  1.
    9900012    2    1    2    0    0 -0.39928488449E+01  0.17290617178E+02 -0.59807004397E+01  0.72461626565E+02  0.70000073303E+02 0.  0.
         12    1    1    2    0    0  0.39928488449E+01 -0.17290617178E+02  0.59807004397E+01  0.18726373435E+02  0.00000000000E+00 0. -1.
         11    1    3    3    0    0 -0.80995564323E+00 -0.12407492116E+01  0.76043738642E+00  0.16654585044E+01  0.51100000000E-03 0. -1.
        -11    1    3    3    0    0  0.27458226912E+02 -0.15424277559E+01  0.11578575391E+02  0.29839516030E+02  0.51100000000E-03 0.  1.
         12    1    3    3    0    0 -0.30641120114E+02  0.20073794145E+02 -0.18319713217E+02  0.40956652031E+02  0.00000000000E+00 0. -1.
</event>
<event>
 7    1  0.2876796E-013  0.7246151E+02  0.7816164E-02  0.1226708E+00
        -11   -1    0    0    0    0  0.00000000000E+00  0.00000000000E+00  0.45593999997E+02  0.45594000000E+02  0.51100000000E-03 0. -1.
         11   -1    0    0    0    0 -0.00000000000E+00 -0.00000000000E+00 -0.45593999997E+02  0.45594000000E+02  0.51100000000E-03 0.  1.
    9900012    2    1    2    0    0 -0.14150277568E+01  0.16965287689E+02 -0.78011644837E+01  0.72461509212E+02  0.69999920429E+02 0.  0.
         12    1    1    2    0    0  0.14150277568E+01 -0.16965287689E+02  0.78011644837E+01  0.18726490788E+02  0.00000000000E+00 0. -1.
         11    1    3    3    0    0 -0.17226556855E+02 -0.11275510607E+02  0.61629550254E+01  0.21491240435E+02  0.51100000000E-03 0. -1.
        -11    1    3    3    0    0  0.15482880137E+02  0.50383800015E+00  0.61907456469E+01  0.16682288871E+02  0.51100000000E-03 0.  1.
        -12    1    3    3    0    0  0.32864896182E+00  0.27736960295E+02 -0.20154865156E+02  0.34287979906E+02  0.00000000000E+00 0.  1.
</event>
<event>
 7    1  0.2876796E-013  0.7246150E+02  0.7816164E-02  0.1226708E+00
        -11   -1    0    0    0    0  0.00000000000E+00  0.00000000000E+00  0.45593999997E+02  0.45594000000E+02  0.51100000000E-03 0. -1.
         11   -1    0    0    0    0 -0.00000000000E+00 -0.00000000000E+00 -0.45593999997E+02  0.45594000000E+02  0.51100000000E-03 0.  1.
    9900012    2    1    2    0    0  0.52453759655E+01 -0.15215355015E+02 -0.95739636440E+01  0.72461500671E+02  0.69999909303E+02 0.  0.
         12    1    1    2    0    0 -0.52453759655E+01  0.15215355015E+02  0.95739636440E+01  0.18726499329E+02  0.00000000000E+00 0. -1.
         11    1    3    3    0    0  0.21418092739E+02  0.13222824539E+02  0.10347781302E+02  0.27214965800E+02  0.51100000000E-03 0. -1.
        -11    1    3    3    0    0  0.40299375992E+01 -0.89945421954E+01 -0.13092290209E+02  0.16387502846E+02  0.51100000000E-03 0.  1.
        -12    1    3    3    0    0 -0.20202654373E+02 -0.19443637358E+02 -0.68294547369E+01  0.28859032025E+02  0.00000000000E+00 0.  1.
</event>
<event>
 7    1  0.2876796E-013  0.7246176E+02  0.7816164E-02  0.1226708E+00
        -11   -1    0    0    0    0  0.00000000000E+00  0.00000000000E+00  0.45593999997E+02  0.45594000000E+02  0.51100000000E-03 0. -1.
         11   -1    0    0    0    0 -0.00000000000E+00 -0.00000000000E+00 -0.45593999997E+02  0.45594000000E+02  0.51100000000E-03 0.  1.
    9900012    2    1    2    0    0 -0.72085168826E+01 -0.16982591053E+02  0.32094919568E+01  0.72461762974E+02  0.70000251001E+02 0.  0.
         12    1    1    2    0    0  0.72085168826E+01  0.16982591053E+02 -0.32094919568E+01  0.18726237026E+02  0.00000000000E+00 0. -1.
         11    1    3    3    0    0  0.72016908799E+01  0.32842424513E+01  0.17338767948E+02  0.19059996700E+02  0.51100000000E-03 0. -1.
        -11    1    3    3    0    0  0.50433392355E+01 -0.14025430285E+02  0.12767597768E+02  0.19625481354E+02  0.51100000000E-03 0.  1.
         12    1    3    3    0    0 -0.19453546998E+02 -0.62414032193E+01 -0.26896873759E+02  0.33776284920E+02  0.00000000000E+00 0. -1.
</event>
<event>
 7    1  0.2876796E-013  0.7246162E+02  0.7816164E-02  0.1226708E+00
        -11   -1    0    0    0    0  0.00000000000E+00  0.00000000000E+00  0.45593999997E+02  0.45594000000E+02  0.51100000000E-03 0.  1.
         11   -1    0    0    0    0 -0.00000000000E+00 -0.00000000000E+00 -0.45593999997E+02  0.45594000000E+02  0.51100000000E-03 0. -1.
    9900012    2    1    2    0    0 -0.43831378627E+01 -0.15531006691E+02  0.95001615058E+01  0.72461624617E+02  0.70000070765E+02 0.  0.
         12    1    1    2    0    0  0.43831378627E+01  0.15531006691E+02 -0.95001615058E+01  0.18726375383E+02  0.00000000000E+00 0. -1.
         11    1    3    3    0    0  0.48881848690E+01 -0.95674766373E+01 -0.37151449654E+00  0.10750301568E+02  0.51100000000E-03 0. -1.
        -11    1    3    3    0    0 -0.20661837006E+01 -0.29857214937E+02  0.18640846037E+02  0.35259091595E+02  0.51100000000E-03 0.  1.
         12    1    3    3    0    0 -0.72051390311E+01  0.23893684884E+02 -0.87691700345E+01  0.26452231454E+02  0.00000000000E+00 0. -1.
</event>
<event>
 7    1  0.2876796E-013  0.7246165E+02  0.7816164E-02  0.1226708E+00
        -11   -1    0    0    0    0  0.00000000000E+00  0.00000000000E+00  0.45593999997E+02  0.45594000000E+02  0.51100000000E-03 0. -1.
         11   -1    0    0    0    0 -0.00000000000E+00 -0.00000000000E+00 -0.45593999997E+02  0.45594000000E+02  0.51100000000E-03 0.  1.
    9900012    2    1    2    0    0 -0.37207412186E+00  0.15758451878E+02 -0.10109843248E+02  0.72461650242E+02  0.70000104147E+02 0.  0.
         12    1    1    2    0    0  0.37207412186E+00 -0.15758451878E+02  0.10109843248E+02  0.18726349758E+02  0.00000000000E+00 0. -1.
         11    1    3    3    0    0  0.61079173150E+01  0.10720657570E+01 -0.21206739422E+02  0.22094835960E+02  0.51100000000E-03 0. -1.
        -11    1    3    3    0    0 -0.33241623812E+01 -0.48725066315E+01 -0.15855004433E+02  0.16916635074E+02  0.51100000000E-03 0.  1.
         12    1    3    3    0    0 -0.31558290556E+01  0.19558892753E+02  0.26951900607E+02  0.33450179208E+02  0.00000000000E+00 0. -1.
</event>
<event>
 7    1  0.2876796E-013  0.7246162E+02  0.7816164E-02  0.1226708E+00
        -11   -1    0    0    0    0  0.00000000000E+00  0.00000000000E+00  0.45593999997E+02  0.45594000000E+02  0.51100000000E-03 0. -1.
         11   -1    0    0    0    0 -0.00000000000E+00 -0.00000000000E+00 -0.45593999997E+02  0.45594000000E+02  0.51100000000E-03 0.  1.
    9900012    2    1    2    0    0 -0.15028461583E+02 -0.64917745236E+01 -0.90928350216E+01  0.72461616399E+02  0.70000060060E+02 0.  0.
         12    1    1    2    0    0  0.15028461583E+02  0.64917745236E+01  0.90928350216E+01  0.18726383601E+02  0.00000000000E+00 0. -1.
         11    1    3    3    0    0  0.31150241716E+01 -0.43743073779E+01  0.37762461610E+01  0.65649048703E+01  0.51100000000E-03 0. -1.
        -11    1    3    3    0    0 -0.66827914515E+01 -0.29654427842E+02  0.54653707271E+01  0.30885515532E+02  0.51100000000E-03 0.  1.
        -12    1    3    3    0    0 -0.11460694303E+02  0.27536960697E+02 -0.18334451910E+02  0.35011195997E+02  0.00000000000E+00 0.  1.
</event>
<event>
 7    1  0.2876796E-013  0.7246224E+02  0.7816164E-02  0.1226706E+00
        -11   -1    0    0    0    0  0.00000000000E+00  0.00000000000E+00  0.45593999997E+02  0.45594000000E+02  0.51100000000E-03 0.  1.
         11   -1    0    0    0    0 -0.00000000000E+00 -0.00000000000E+00 -0.45593999997E+02  0.45594000000E+02  0.51100000000E-03 0. -1.
    9900012    2    1    2    0    0 -0.48997215948E+01  0.74850325513E+01  0.16450569800E+02  0.72462236177E+02  0.70000867430E+02 0.  0.
         12    1    1    2    0    0  0.48997215948E+01 -0.74850325513E+01 -0.16450569800E+02  0.18725763823E+02  0.00000000000E+00 0. -1.
         11    1    3    3    0    0  0.42768893298E+01 -0.25794331314E+02  0.30277786249E+00  0.26148250132E+02  0.51100000000E-03 0. -1.
        -11    1    3    3    0    0  0.67954147854E+01  0.25730887121E+01  0.78989566010E+01  0.10732751897E+02  0.51100000000E-03 0.  1.
        -12    1    3    3    0    0 -0.15972025710E+02  0.30706275153E+02  0.82488353369E+01  0.35581234148E+02  0.00000000000E+00 0.  1.
</event>
<event>
 7    1  0.2876796E-013  0.7246161E+02  0.7816164E-02  0.1226708E+00
        -11   -1    0    0    0    0  0.00000000000E+00  0.00000000000E+00  0.45593999997E+02  0.45594000000E+02  0.51100000000E-03 0.  1.
         11   -1    0    0    0    0 -0.00000000000E+00 -0.00000000000E+00 -0.45593999997E+02  0.45594000000E+02  0.51100000000E-03 0. -1.
    9900012    2    1    2    0    0  0.10382396180E+02  0.35591859152E+01  0.15172866714E+02  0.72461605816E+02  0.70000046273E+02 0.  0.
         12    1    1    2    0    0 -0.10382396180E+02 -0.35591859152E+01 -0.15172866714E+02  0.18726394184E+02  0.00000000000E+00 0. -1.
         11    1    3    3    0    0  0.85470876961E+01  0.10634925797E+02 -0.16534964952E+02  0.21437337078E+02  0.51100000000E-03 0.  1.
        -11    1    3    3    0    0  0.99477756522E+01 -0.12274096985E+02 -0.20378819318E+01  0.15929992475E+02  0.51100000000E-03 0. -1.
        -12    1    3    3    0    0 -0.81124671686E+01  0.51983571031E+01  0.33745713598E+02  0.35094276262E+02  0.00000000000E+00 0.  1.
</event>
<event>
 7    1  0.2876796E-013  0.7246159E+02  0.7816164E-02  0.1226708E+00
        -11   -1    0    0    0    0  0.00000000000E+00  0.00000000000E+00  0.45593999997E+02  0.45594000000E+02  0.51100000000E-03 0.  1.
         11   -1    0    0    0    0 -0.00000000000E+00 -0.00000000000E+00 -0.45593999997E+02  0.45594000000E+02  0.51100000000E-03 0. -1.
    9900012    2    1    2    0    0 -0.10978220340E+02  0.13512689790E+02  0.68966881539E+01  0.72461590449E+02  0.70000026255E+02 0.  0.
         12    1    1    2    0    0  0.10978220340E+02 -0.13512689790E+02 -0.68966881539E+01  0.18726409551E+02  0.00000000000E+00 0. -1.
         11    1    3    3    0    0  0.29658507675E+01  0.80160943712E+00  0.48867173343E+01  0.57722486980E+01  0.51100000000E-03 0. -1.
        -11    1    3    3    0    0 -0.15595182181E+02 -0.19850622926E+01  0.30655548595E+02  0.34451601406E+02  0.51100000000E-03 0.  1.
         12    1    3    3    0    0  0.16511110731E+01  0.14696142645E+02 -0.28645577775E+02  0.32237740344E+02  0.00000000000E+00 0. -1.
</event>
<event>
 7    1  0.2876796E-013  0.7246147E+02  0.7816164E-02  0.1226708E+00
        -11   -1    0    0    0    0  0.00000000000E+00  0.00000000000E+00  0.45593999997E+02  0.45594000000E+02  0.51100000000E-03 0. -1.
         11   -1    0    0    0    0 -0.00000000000E+00 -0.00000000000E+00 -0.45593999997E+02  0.45594000000E+02  0.51100000000E-03 0.  1.
    9900012    2    1    2    0    0  0.83721158908E+01 -0.33358403533E+01 -0.16415324280E+02  0.72461467310E+02  0.69999865844E+02 0.  0.
         12    1    1    2    0    0 -0.83721158908E+01  0.33358403533E+01  0.16415324280E+02  0.18726532690E+02  0.00000000000E+00 0. -1.
         11    1    3    3    0    0  0.91001794082E+01  0.81399787306E+01  0.40612926698E+01  0.12867269229E+02  0.51100000000E-03 0. -1.
        -11    1    3    3    0    0  0.23191301516E+02  0.75448481693E+01 -0.35068064382E+01  0.24638565128E+02  0.51100000000E-03 0.  1.
        -12    1    3    3    0    0 -0.23919365033E+02 -0.19020667253E+02 -0.16969810512E+02  0.34955632953E+02  0.00000000000E+00 0.  1.
</event>
<event>
 7    1  0.2876796E-013  0.7246156E+02  0.7816164E-02  0.1226708E+00
        -11   -1    0    0    0    0  0.00000000000E+00  0.00000000000E+00  0.45593999997E+02  0.45594000000E+02  0.51100000000E-03 0. -1.
         11   -1    0    0    0    0 -0.00000000000E+00 -0.00000000000E+00 -0.45593999997E+02  0.45594000000E+02  0.51100000000E-03 0.  1.
    9900012    2    1    2    0    0 -0.13579834753E+02  0.43716059730E+01 -0.12130821266E+02  0.72461556790E+02  0.69999982408E+02 0.  0.
         12    1    1    2    0    0  0.13579834753E+02 -0.43716059730E+01  0.12130821266E+02  0.18726443210E+02  0.00000000000E+00 0. -1.
         11    1    3    3    0    0  0.97706199927E+01  0.57332321305E+01 -0.43236547226E+01  0.12125549725E+02  0.51100000000E-03 0. -1.
        -11    1    3    3    0    0 -0.19256470840E+02  0.20239482702E+02 -0.20771707712E+02  0.34812528934E+02  0.51100000000E-03 0.  1.
        -12    1    3    3    0    0 -0.40939839062E+01 -0.21601108859E+02  0.12964541169E+02  0.25523478131E+02  0.00000000000E+00 0.  1.
</event>
<event>
 7    1  0.2876796E-013  0.7246161E+02  0.7816164E-02  0.1226708E+00
        -11   -1    0    0    0    0  0.00000000000E+00  0.00000000000E+00  0.45593999997E+02  0.45594000000E+02  0.51100000000E-03 0. -1.
         11   -1    0    0    0    0 -0.00000000000E+00 -0.00000000000E+00 -0.45593999997E+02  0.45594000000E+02  0.51100000000E-03 0.  1.
    9900012    2    1    2    0    0  0.17144451735E+02  0.22449834592E+01 -0.71906587592E+01  0.72461608212E+02  0.70000049394E+02 0.  0.
         12    1    1    2    0    0 -0.17144451735E+02 -0.22449834592E+01  0.71906587592E+01  0.18726391788E+02  0.00000000000E+00 0. -1.
         11    1    3    3    0    0  0.20927436332E+02  0.98089394027E+01  0.12131369855E+02  0.26102548122E+02  0.51100000000E-03 0. -1.
        -11    1    3    3    0    0  0.91956548020E+01 -0.60529590485E+01  0.96099858346E+01  0.14613357194E+02  0.51100000000E-03 0.  1.
        -12    1    3    3    0    0 -0.12978639400E+02 -0.15109968949E+01 -0.28932014448E+02  0.31745702896E+02  0.00000000000E+00 0.  1.
</event>
<event>
 7    1  0.2876796E-013  0.7246157E+02  0.7816164E-02  0.1226708E+00
        -11   -1    0    0    0    0  0.00000000000E+00  0.00000000000E+00  0.45593999997E+02  0.45594000000E+02  0.51100000000E-03 0.  1.
         11   -1    0    0    0    0 -0.00000000000E+00 -0.00000000000E+00 -0.45593999997E+02  0.45594000000E+02  0.51100000000E-03 0. -1.
    9900012    2    1    2    0    0  0.15649211777E+02 -0.54063944131E+01  0.87494126692E+01  0.72461570766E+02  0.70000000615E+02 0.  0.
         12    1    1    2    0    0 -0.15649211777E+02  0.54063944131E+01 -0.87494126692E+01  0.18726429234E+02  0.00000000000E+00 0. -1.
         11    1    3    3    0    0 -0.18468458907E+01  0.46076504625E+00  0.11610035442E+02  0.11765035801E+02  0.51100000000E-03 0. -1.
        -11    1    3    3    0    0 -0.13007790187E+02 -0.12531480457E+02  0.16075475844E+02  0.24179775265E+02  0.51100000000E-03 0.  1.
         12    1    3    3    0    0  0.30503847854E+02  0.66643209972E+01 -0.18936098616E+02  0.36516759701E+02  0.00000000000E+00 0. -1.
</event>
<event>
 7    1  0.2876796E-013  0.7246159E+02  0.7816164E-02  0.1226708E+00
        -11   -1    0    0    0    0  0.00000000000E+00  0.00000000000E+00  0.45593999997E+02  0.45594000000E+02  0.51100000000E-03 0.  1.
         11   -1    0    0    0    0 -0.00000000000E+00 -0.00000000000E+00 -0.45593999997E+02  0.45594000000E+02  0.51100000000E-03 0. -1.
    9900012    2    1    2    0    0  0.13713268836E+02 -0.12121235231E+02  0.39623504454E+01  0.72461593330E+02  0.70000030009E+02 0.  0.
         12    1    1    2    0    0 -0.13713268836E+02  0.12121235231E+02 -0.39623504454E+01  0.18726406670E+02  0.00000000000E+00 0. -1.
         11    1    3    3    0    0  0.18777564770E+02 -0.23534625039E+01 -0.49583856713E+01  0.19563264379E+02  0.51100000000E-03 0. -1.
        -11    1    3    3    0    0  0.19337149071E+02 -0.14352036845E+02 -0.47646729249E+01  0.24548083512E+02  0.51100000000E-03 0.  1.
        -12    1    3    3    0    0 -0.24401445005E+02  0.45842641172E+01  0.13685409042E+02  0.28350245439E+02  0.00000000000E+00 0.  1.
</event>
<event>
 7    1  0.2876796E-013  0.7246152E+02  0.7816164E-02  0.1226708E+00
        -11   -1    0    0    0    0  0.00000000000E+00  0.00000000000E+00  0.45593999997E+02  0.45594000000E+02  0.51100000000E-03 0.  1.
         11   -1    0    0    0    0 -0.00000000000E+00 -0.00000000000E+00 -0.45593999997E+02  0.45594000000E+02  0.51100000000E-03 0. -1.
    9900012    2    1    2    0    0  0.73189748668E+01 -0.16029192656E+02  0.63386760787E+01  0.72461515420E+02  0.69999928515E+02 0.  0.
         12    1    1    2    0    0 -0.73189748668E+01  0.16029192656E+02 -0.63386760787E+01  0.18726484580E+02  0.00000000000E+00 0. -1.
         11    1    3    3    0    0 -0.51025629798E+00  0.10822443854E+02 -0.34883069055E+01  0.11382176320E+02  0.51100000000E-03 0. -1.
        -11    1    3    3    0    0  0.14781183106E+02 -0.15313535050E+02 -0.19462588717E+02  0.28840597940E+02  0.51100000000E-03 0.  1.
        -12    1    3    3    0    0 -0.69519519412E+01 -0.11538101460E+02  0.29289571701E+02  0.32238741159E+02  0.00000000000E+00 0.  1.
</event>
<event>
 7    1  0.2876796E-013  0.7246167E+02  0.7816164E-02  0.1226708E+00
        -11   -1    0    0    0    0  0.00000000000E+00  0.00000000000E+00  0.45593999997E+02  0.45594000000E+02  0.51100000000E-03 0.  1.
         11   -1    0    0    0    0 -0.00000000000E+00 -0.00000000000E+00 -0.45593999997E+02  0.45594000000E+02  0.51100000000E-03 0. -1.
    9900012    2    1    2    0    0  0.13234904900E+02  0.28258289357E+01  0.12943243606E+02  0.72461666351E+02  0.70000125132E+02 0.  0.
         12    1    1    2    0    0 -0.13234904900E+02 -0.28258289357E+01 -0.12943243606E+02  0.18726333649E+02  0.00000000000E+00 0. -1.
         11    1    3    3    0    0 -0.38692018439E+01 -0.17584412638E+01  0.63069328921E+01  0.76052772043E+01  0.51100000000E-03 0. -1.
        -11    1    3    3    0    0  0.35339006308E+02 -0.25206506877E+01  0.20445204298E+02  0.40904833770E+02  0.51100000000E-03 0.  1.
         12    1    3    3    0    0 -0.18234899564E+02  0.71049208872E+01 -0.13808893584E+02  0.23951555376E+02  0.00000000000E+00 0. -1.
</event>
<event>
 7    1  0.2876796E-013  0.7246154E+02  0.7816164E-02  0.1226708E+00
        -11   -1    0    0    0    0  0.00000000000E+00  0.00000000000E+00  0.45593999997E+02  0.45594000000E+02  0.51100000000E-03 0. -1.
         11   -1    0    0    0    0 -0.00000000000E+00 -0.00000000000E+00 -0.45593999997E+02  0.45594000000E+02  0.51100000000E-03 0.  1.
    9900012    2    1    2    0    0  0.60359418437E+01  0.12473235529E+02 -0.12596270823E+02  0.72461541788E+02  0.69999962866E+02 0.  0.
         12    1    1    2    0    0 -0.60359418437E+01 -0.12473235529E+02  0.12596270823E+02  0.18726458212E+02  0.00000000000E+00 0. -1.
         11    1    3    3    0    0 -0.88510810236E+01 -0.15915139229E+02  0.18809915609E+01  0.18307687497E+02  0.51100000000E-03 0. -1.
        -11    1    3    3    0    0  0.74601265291E+01 -0.52631536559E+01  0.87097999446E+01  0.12618038262E+02  0.51100000000E-03 0.  1.
        -12    1    3    3    0    0  0.74268963381E+01  0.33651528414E+02 -0.23187062329E+02  0.41535816030E+02  0.00000000000E+00 0.  1.
</event>
<event>
 7    1  0.2876796E-013  0.7246164E+02  0.7816164E-02  0.1226708E+00
        -11   -1    0    0    0    0  0.00000000000E+00  0.00000000000E+00  0.45593999997E+02  0.45594000000E+02  0.51100000000E-03 0. -1.
         11   -1    0    0    0    0 -0.00000000000E+00 -0.00000000000E+00 -0.45593999997E+02  0.45594000000E+02  0.51100000000E-03 0.  1.
    9900012    2    1    2    0    0  0.36904265510E+01 -0.97663700605E+01 -0.15545906841E+02  0.72461642859E+02  0.70000094528E+02 0.  0.
         12    1    1    2    0    0 -0.36904265510E+01  0.97663700605E+01  0.15545906841E+02  0.18726357141E+02  0.00000000000E+00 0. -1.
         11    1    3    3    0    0 -0.24781792124E+02 -0.71091324908E+00  0.83185406723E+01  0.26150348711E+02  0.51100000000E-03 0. -1.
        -11    1    3    3    0    0  0.19761586717E+02 -0.71048483968E+01 -0.18020214674E+00  0.21000753639E+02  0.51100000000E-03 0.  1.
        -12    1    3    3    0    0  0.87106319575E+01 -0.19506084146E+01 -0.23684245366E+02  0.25310540509E+02  0.00000000000E+00 0.  1.
</event>
<event>
 7    1  0.2876796E-013  0.7246154E+02  0.7816164E-02  0.1226708E+00
        -11   -1    0    0    0    0  0.00000000000E+00  0.00000000000E+00  0.45593999997E+02  0.45594000000E+02  0.51100000000E-03 0. -1.
         11   -1    0    0    0    0 -0.00000000000E+00 -0.00000000000E+00 -0.45593999997E+02  0.45594000000E+02  0.51100000000E-03 0.  1.
    9900012    2    1    2    0    0 -0.13710681381E+02 -0.96988737230E+01 -0.82842833159E+01  0.72461540498E+02  0.69999961184E+02 0.  0.
         12    1    1    2    0    0  0.13710681381E+02  0.96988737230E+01  0.82842833159E+01  0.18726459502E+02  0.00000000000E+00 0. -1.
         11    1    3    3    0    0  0.16299054994E+02 -0.19618168373E+02  0.17300861359E+02  0.30819661388E+02  0.51100000000E-03 0. -1.
        -11    1    3    3    0    0 -0.39465444030E+01 -0.14889552429E+01 -0.19158790324E+01  0.46327953946E+01  0.51100000000E-03 0.  1.
        -12    1    3    3    0    0 -0.26063191972E+02  0.11408249893E+02 -0.23669265643E+02  0.37009083716E+02  0.00000000000E+00 0.  1.
</event>
<event>
 7    1  0.2876796E-013  0.7246232E+02  0.7816164E-02  0.1226706E+00
        -11   -1    0    0    0    0  0.00000000000E+00  0.00000000000E+00  0.45593999997E+02  0.45594000000E+02  0.51100000000E-03 0.  1.
         11   -1    0    0    0    0 -0.00000000000E+00 -0.00000000000E+00 -0.45593999997E+02  0.45594000000E+02  0.51100000000E-03 0. -1.
    9900012    2    1    2    0    0  0.19441437521E+01  0.17927057178E+02  0.50489604304E+01  0.72462320428E+02  0.70000977181E+02 0.  0.
         12    1    1    2    0    0 -0.19441437521E+01 -0.17927057178E+02 -0.50489604304E+01  0.18725679572E+02  0.00000000000E+00 0. -1.
         11    1    3    3    0    0 -0.11204529902E+02 -0.11789941212E+02  0.89192433950E+01  0.18549854639E+02  0.51100000000E-03 0. -1.
        -11    1    3    3    0    0 -0.13968179052E+02  0.98825570523E+00  0.13313608711E+01  0.14066243188E+02  0.51100000000E-03 0.  1.
        -12    1    3    3    0    0  0.27116852707E+02  0.28728742685E+02 -0.52016438358E+01  0.39846222602E+02  0.00000000000E+00 0.  1.
</event>
<event>
 7    1  0.2876796E-013  0.7246156E+02  0.7816164E-02  0.1226708E+00
        -11   -1    0    0    0    0  0.00000000000E+00  0.00000000000E+00  0.45593999997E+02  0.45594000000E+02  0.51100000000E-03 0.  1.
         11   -1    0    0    0    0 -0.00000000000E+00 -0.00000000000E+00 -0.45593999997E+02  0.45594000000E+02  0.51100000000E-03 0. -1.
    9900012    2    1    2    0    0  0.44666289552E+01 -0.18076637864E+02  0.19910085970E+01  0.72461555438E+02  0.69999980647E+02 0.  0.
         12    1    1    2    0    0 -0.44666289552E+01  0.18076637864E+02 -0.19910085970E+01  0.18726444562E+02  0.00000000000E+00 0. -1.
         11    1    3    3    0    0 -0.67943802888E+01 -0.48858026315E+01 -0.69618302017E+01  0.10885850949E+02  0.51100000000E-03 0. -1.
        -11    1    3    3    0    0  0.33221921650E+02 -0.73555006682E+01 -0.57527938052E+01  0.34509333593E+02  0.51100000000E-03 0.  1.
         12    1    3    3    0    0 -0.21960912406E+02 -0.58353345647E+01  0.14705632604E+02  0.27066370896E+02  0.00000000000E+00 0. -1.
</event>
<event>
 7    1  0.2876796E-013  0.7246155E+02  0.7816164E-02  0.1226708E+00
        -11   -1    0    0    0    0  0.00000000000E+00  0.00000000000E+00  0.45593999997E+02  0.45594000000E+02  0.51100000000E-03 0.  1.
         11   -1    0    0    0    0 -0.00000000000E+00 -0.00000000000E+00 -0.45593999997E+02  0.45594000000E+02  0.51100000000E-03 0. -1.
    9900012    2    1    2    0    0 -0.10400768730E+01  0.40060706088E+01  0.18263343165E+02  0.72461546380E+02  0.69999968848E+02 0.  0.
         12    1    1    2    0    0  0.10400768730E+01 -0.40060706088E+01 -0.18263343165E+02  0.18726453620E+02  0.00000000000E+00 0. -1.
         11    1    3    3    0    0 -0.50596006730E+01 -0.74447537178E+00 -0.19022911449E+02  0.19698349241E+02  0.51100000000E-03 0. -1.
        -11    1    3    3    0    0  0.79485042708E+01 -0.15039718810E+02  0.14756090089E+02  0.22519193080E+02  0.51100000000E-03 0.  1.
        -12    1    3    3    0    0 -0.39289804708E+01  0.19790264791E+02  0.22530164525E+02  0.30244004059E+02  0.00000000000E+00 0.  1.
</event>
<event>
 7    1  0.2876796E-013  0.7246158E+02  0.7816164E-02  0.1226708E+00
        -11   -1    0    0    0    0  0.00000000000E+00  0.00000000000E+00  0.45593999997E+02  0.45594000000E+02  0.51100000000E-03 0. -1.
         11   -1    0    0    0    0 -0.00000000000E+00 -0.00000000000E+00 -0.45593999997E+02  0.45594000000E+02  0.51100000000E-03 0.  1.
    9900012    2    1    2    0    0  0.14645861912E+02 -0.10439405056E+02 -0.52150151343E+01  0.72461579309E+02  0.70000011743E+02 0.  0.
         12    1    1    2    0    0 -0.14645861912E+02  0.10439405056E+02  0.52150151343E+01  0.18726420691E+02  0.00000000000E+00 0. -1.
         11    1    3    3    0    0  0.13251114881E+02 -0.17599097354E+02  0.10031429702E+02  0.24206401124E+02  0.51100000000E-03 0. -1.
        -11    1    3    3    0    0  0.13697354829E+02 -0.79008382040E+01 -0.22499150954E+02  0.27500046682E+02  0.51100000000E-03 0.  1.
        -12    1    3    3    0    0 -0.12302607798E+02  0.15060530502E+02  0.72527061177E+01  0.20755131502E+02  0.00000000000E+00 0.  1.
</event>
<event>
 7    1  0.2876796E-013  0.7246153E+02  0.7816164E-02  0.1226708E+00
        -11   -1    0    0    0    0  0.00000000000E+00  0.00000000000E+00  0.45593999997E+02  0.45594000000E+02  0.51100000000E-03 0. -1.
         11   -1    0    0    0    0 -0.00000000000E+00 -0.00000000000E+00 -0.45593999997E+02  0.45594000000E+02  0.51100000000E-03 0.  1.
    9900012    2    1    2    0    0 -0.40724617625E+01 -0.17436018345E+02 -0.54846255104E+01  0.72461526827E+02  0.69999943375E+02 0.  0.
         12    1    1    2    0    0  0.40724617625E+01  0.17436018345E+02  0.54846255104E+01  0.18726473173E+02  0.00000000000E+00 0. -1.
         11    1    3    3    0    0  0.92502180272E+01  0.57606079115E+01  0.21471403464E+01  0.11106815430E+02  0.51100000000E-03 0. -1.
        -11    1    3    3    0    0  0.12168569433E+02  0.10124772911E+02 -0.10983697044E+02  0.19267244473E+02  0.51100000000E-03 0.  1.
        -12    1    3    3    0    0 -0.25491249223E+02 -0.33321399168E+02  0.33519311868E+01  0.42087466924E+02  0.00000000000E+00 0.  1.
</event>
<event>
 7    1  0.2876796E-013  0.7246155E+02  0.7816164E-02  0.1226708E+00
        -11   -1    0    0    0    0  0.00000000000E+00  0.00000000000E+00  0.45593999997E+02  0.45594000000E+02  0.51100000000E-03 0. -1.
         11   -1    0    0    0    0 -0.00000000000E+00 -0.00000000000E+00 -0.45593999997E+02  0.45594000000E+02  0.51100000000E-03 0.  1.
    9900012    2    1    2    0    0  0.13653725076E+02  0.11478340945E+02 -0.57011669810E+01  0.72461552813E+02  0.69999977227E+02 0.  0.
         12    1    1    2    0    0 -0.13653725076E+02 -0.11478340945E+02  0.57011669810E+01  0.18726447187E+02  0.00000000000E+00 0. -1.
         11    1    3    3    0    0  0.19675530963E+02  0.21907902130E+02 -0.11918001941E+02  0.31766672236E+02  0.51100000000E-03 0. -1.
        -11    1    3    3    0    0  0.78410971155E+01 -0.95598444016E+01 -0.12371036083E+02  0.17490453481E+02  0.51100000000E-03 0.  1.
         12    1    3    3    0    0 -0.13862903002E+02 -0.86971678328E+00  0.18587871043E+02  0.23204427096E+02  0.00000000000E+00 0. -1.
</event>
<event>
 7    1  0.2876796E-013  0.7246156E+02  0.7816164E-02  0.1226708E+00
        -11   -1    0    0    0    0  0.00000000000E+00  0.00000000000E+00  0.45593999997E+02  0.45594000000E+02  0.51100000000E-03 0.  1.
         11   -1    0    0    0    0 -0.00000000000E+00 -0.00000000000E+00 -0.45593999997E+02  0.45594000000E+02  0.51100000000E-03 0. -1.
    9900012    2    1    2    0    0 -0.35248459729E+01  0.18257802085E+02 -0.22153047893E+01  0.72461562767E+02  0.69999990195E+02 0.  0.
         12    1    1    2    0    0  0.35248459729E+01 -0.18257802085E+02  0.22153047893E+01  0.18726437233E+02  0.00000000000E+00 0. -1.
         11    1    3    3    0    0 -0.90117529010E+01  0.32722156041E+02 -0.97507364261E+01  0.35313284292E+02  0.51100000000E-03 0. -1.
        -11    1    3    3    0    0 -0.13365468382E+02 -0.69547617106E+01 -0.10731301035E+01  0.15104835782E+02  0.51100000000E-03 0.  1.
        -12    1    3    3    0    0  0.18852375311E+02 -0.75095922456E+01  0.86085617402E+01  0.22043442693E+02  0.00000000000E+00 0.  1.
</event>
<event>
 7    1  0.2876796E-013  0.7246158E+02  0.7816164E-02  0.1226708E+00
        -11   -1    0    0    0    0  0.00000000000E+00  0.00000000000E+00  0.45593999997E+02  0.45594000000E+02  0.51100000000E-03 0. -1.
         11   -1    0    0    0    0 -0.00000000000E+00 -0.00000000000E+00 -0.45593999997E+02  0.45594000000E+02  0.51100000000E-03 0.  1.
    9900012    2    1    2    0    0  0.55953563957E+01 -0.26265202924E+01 -0.17676885041E+02  0.72461577843E+02  0.70000009834E+02 0.  0.
         12    1    1    2    0    0 -0.55953563957E+01  0.26265202924E+01  0.17676885041E+02  0.18726422157E+02  0.00000000000E+00 0. -1.
         11    1    3    3    0    0  0.19305448290E+02 -0.18046323609E+02  0.15737651096E+02  0.30757824887E+02  0.51100000000E-03 0. -1.
        -11    1    3    3    0    0 -0.15409686087E+01  0.10468219931E+02 -0.86369016951E+01  0.13658487615E+02  0.51100000000E-03 0.  1.
        -12    1    3    3    0    0 -0.12169123286E+02  0.49515833854E+01 -0.24777634441E+02  0.28045265342E+02  0.00000000000E+00 0.  1.
</event>
<event>
 7    1  0.2876796E-013  0.7246155E+02  0.7816164E-02  0.1226708E+00
        -11   -1    0    0    0    0  0.00000000000E+00  0.00000000000E+00  0.45593999997E+02  0.45594000000E+02  0.51100000000E-03 0. -1.
         11   -1    0    0    0    0 -0.00000000000E+00 -0.00000000000E+00 -0.45593999997E+02  0.45594000000E+02  0.51100000000E-03 0.  1.
    9900012    2    1    2    0    0 -0.11354464783E+01 -0.46921432032E+01 -0.18093495545E+02  0.72461547384E+02  0.69999970155E+02 0.  0.
         12    1    1    2    0    0  0.11354464783E+01  0.46921432032E+01  0.18093495545E+02  0.18726452616E+02  0.00000000000E+00 0. -1.
         11    1    3    3    0    0  0.10715397636E+02  0.42735318397E+01 -0.19918437228E+02  0.23017970431E+02  0.51100000000E-03 0. -1.
        -11    1    3    3    0    0 -0.20749298210E+02 -0.15492603188E+02 -0.14545700887E+02  0.29700699390E+02  0.51100000000E-03 0.  1.
         12    1    3    3    0    0  0.88984540959E+01  0.65269281448E+01  0.16370642570E+02  0.19742877563E+02  0.00000000000E+00 0. -1.
</event>
<event>
 7    1  0.2876796E-013  0.7246158E+02  0.7816164E-02  0.1226708E+00
        -11   -1    0    0    0    0  0.00000000000E+00  0.00000000000E+00  0.45593999997E+02  0.45594000000E+02  0.51100000000E-03 0.  1.
         11   -1    0    0    0    0 -0.00000000000E+00 -0.00000000000E+00 -0.45593999997E+02  0.45594000000E+02  0.51100000000E-03 0. -1.
    9900012    2    1    2    0    0 -0.91647972994E+01  0.97447440724E+01  0.13104398825E+02  0.72461579757E+02  0.70000012326E+02 0.  0.
         12    1    1    2    0    0  0.91647972994E+01 -0.97447440724E+01 -0.13104398825E+02  0.18726420243E+02  0.00000000000E+00 0. -1.
         11    1    3    3    0    0 -0.75187144767E+01  0.15991716630E+02  0.11195706902E+02  0.20919128124E+02  0.51100000000E-03 0. -1.
        -11    1    3    3    0    0  0.49376033972E+01 -0.26742329194E+02  0.93637089649E+01  0.28761278551E+02  0.51100000000E-03 0.  1.
         12    1    3    3    0    0 -0.65836862199E+01  0.20495356636E+02 -0.74550170423E+01  0.22781173082E+02  0.00000000000E+00 0. -1.
</event>
<event>
 7    1  0.2876796E-013  0.7246157E+02  0.7816164E-02  0.1226708E+00
        -11   -1    0    0    0    0  0.00000000000E+00  0.00000000000E+00  0.45593999997E+02  0.45594000000E+02  0.51100000000E-03 0.  1.
         11   -1    0    0    0    0 -0.00000000000E+00 -0.00000000000E+00 -0.45593999997E+02  0.45594000000E+02  0.51100000000E-03 0. -1.
    9900012    2    1    2    0    0 -0.10349084351E+02 -0.11138463445E+02  0.10932081739E+02  0.72461566117E+02  0.69999994558E+02 0.  0.
         12    1    1    2    0    0  0.10349084351E+02  0.11138463445E+02 -0.10932081739E+02  0.18726433883E+02  0.00000000000E+00 0. -1.
         11    1    3    3    0    0 -0.35666500357E+01  0.20633448677E+02  0.12235557049E+02  0.24252196877E+02  0.51100000000E-03 0. -1.
        -11    1    3    3    0    0  0.46205485176E+01 -0.60744772203E+01 -0.15080169799E+02  0.16901487021E+02  0.51100000000E-03 0.  1.
         12    1    3    3    0    0 -0.11402982832E+02 -0.25697434902E+02  0.13776694489E+02  0.31307882219E+02  0.00000000000E+00 0. -1.
</event>
<event>
 7    1  0.2876796E-013  0.7246148E+02  0.7816164E-02  0.1226708E+00
        -11   -1    0    0    0    0  0.00000000000E+00  0.00000000000E+00  0.45593999997E+02  0.45594000000E+02  0.51100000000E-03 0. -1.
         11   -1    0    0    0    0 -0.00000000000E+00 -0.00000000000E+00 -0.45593999997E+02  0.45594000000E+02  0.51100000000E-03 0.  1.
    9900012    2    1    2    0    0 -0.12112058178E+02  0.57201703987E+01 -0.13086640908E+02  0.72461482092E+02  0.69999885100E+02 0.  0.
         12    1    1    2    0    0  0.12112058178E+02 -0.57201703987E+01  0.13086640908E+02  0.18726517908E+02  0.00000000000E+00 0. -1.
         11    1    3    3    0    0 -0.35490010975E+02 -0.93167373416E+01 -0.37531535224E+01  0.36883988875E+02  0.51100000000E-03 0. -1.
        -11    1    3    3    0    0 -0.35941346151E+01  0.28642107306E+01 -0.23984768948E+01  0.51840330262E+01  0.51100000000E-03 0.  1.
        -12    1    3    3    0    0  0.26972087412E+02  0.12172697010E+02 -0.69350104909E+01  0.30393460191E+02  0.00000000000E+00 0.  1.
</event>
<event>
 7    1  0.2876796E-013  0.7246151E+02  0.7816164E-02  0.1226708E+00
        -11   -1    0    0    0    0  0.00000000000E+00  0.00000000000E+00  0.45593999997E+02  0.45594000000E+02  0.51100000000E-03 0. -1.
         11   -1    0    0    0    0 -0.00000000000E+00 -0.00000000000E+00 -0.45593999997E+02  0.45594000000E+02  0.51100000000E-03 0.  1.
    9900012    2    1    2    0    0 -0.54210446179E+01 -0.96676106417E+00 -0.17898581658E+02  0.72461506012E+02  0.69999916260E+02 0.  0.
         12    1    1    2    0    0  0.54210446179E+01  0.96676106417E+00  0.17898581658E+02  0.18726493988E+02  0.00000000000E+00 0. -1.
         11    1    3    3    0    0  0.72941137881E+01  0.13569337479E+02 -0.95355756847E+01  0.18117897766E+02  0.51100000000E-03 0. -1.
        -11    1    3    3    0    0  0.16218738206E+01  0.15574917731E+02 -0.13406803617E+02  0.20614337741E+02  0.51100000000E-03 0.  1.
        -12    1    3    3    0    0 -0.14337032227E+02 -0.30111016274E+02  0.50437976437E+01  0.33729270505E+02  0.00000000000E+00 0.  1.
</event>
<event>
 7    1  0.2876796E-013  0.7246136E+02  0.7816164E-02  0.1226709E+00
        -11   -1    0    0    0    0  0.00000000000E+00  0.00000000000E+00  0.45593999997E+02  0.45594000000E+02  0.51100000000E-03 0.  1.
         11   -1    0    0    0    0 -0.00000000000E+00 -0.00000000000E+00 -0.45593999997E+02  0.45594000000E+02  0.51100000000E-03 0. -1.
    9900012    2    1    2    0    0 -0.41316156434E+01 -0.18135912767E+02 -0.21691717170E+01  0.72461364273E+02  0.69999731618E+02 0.  0.
         12    1    1    2    0    0  0.41316156434E+01  0.18135912767E+02  0.21691717170E+01  0.18726635727E+02  0.00000000000E+00 0. -1.
         11    1    3    3    0    0  0.22161719204E+01 -0.65087502343E+01  0.33539455973E+00  0.68838751707E+01  0.51100000000E-03 0. -1.
        -11    1    3    3    0    0  0.94794298857E+01 -0.33570284235E+02  0.92350817625E+01  0.36084765622E+02  0.51100000000E-03 0.  1.
         12    1    3    3    0    0 -0.15827217449E+02  0.21943121702E+02 -0.11739648039E+02  0.29492723480E+02  0.00000000000E+00 0. -1.
</event>
<event>
 7    1  0.2876796E-013  0.7246158E+02  0.7816164E-02  0.1226708E+00
        -11   -1    0    0    0    0  0.00000000000E+00  0.00000000000E+00  0.45593999997E+02  0.45594000000E+02  0.51100000000E-03 0.  1.
         11   -1    0    0    0    0 -0.00000000000E+00 -0.00000000000E+00 -0.45593999997E+02  0.45594000000E+02  0.51100000000E-03 0. -1.
    9900012    2    1    2    0    0 -0.12821674008E+02  0.11499373217E+02 -0.73517344480E+01  0.72461577273E+02  0.70000009091E+02 0.  0.
         12    1    1    2    0    0  0.12821674008E+02 -0.11499373217E+02  0.73517344480E+01  0.18726422727E+02  0.00000000000E+00 0. -1.
         11    1    3    3    0    0  0.15239805590E+01  0.44708484879E+01 -0.12205577694E+01  0.48786027175E+01  0.51100000000E-03 0. -1.
        -11    1    3    3    0    0 -0.32455319157E+01  0.23187285300E+02  0.22770358814E+02  0.32659958937E+02  0.51100000000E-03 0.  1.
         12    1    3    3    0    0 -0.11100122652E+02 -0.16158760571E+02 -0.28901535493E+02  0.34923015619E+02  0.00000000000E+00 0. -1.
</event>
<event>
 7    1  0.2876796E-013  0.7246157E+02  0.7816164E-02  0.1226708E+00
        -11   -1    0    0    0    0  0.00000000000E+00  0.00000000000E+00  0.45593999997E+02  0.45594000000E+02  0.51100000000E-03 0. -1.
         11   -1    0    0    0    0 -0.00000000000E+00 -0.00000000000E+00 -0.45593999997E+02  0.45594000000E+02  0.51100000000E-03 0.  1.
    9900012    2    1    2    0    0  0.11106058932E+02 -0.15069792602E+02 -0.48571655548E+00  0.72461571760E+02  0.70000001909E+02 0.  0.
         12    1    1    2    0    0 -0.11106058932E+02  0.15069792602E+02  0.48571655548E+00  0.18726428240E+02  0.00000000000E+00 0. -1.
         11    1    3    3    0    0  0.10374025769E+02 -0.11935704330E+02 -0.42636601754E+01  0.16378652168E+02  0.51100000000E-03 0. -1.
        -11    1    3    3    0    0  0.41305682826E+01 -0.28832725101E+02 -0.30221391435E+01  0.29283458750E+02  0.51100000000E-03 0.  1.
         12    1    3    3    0    0 -0.33985351199E+01  0.25698636829E+02  0.68000827634E+01  0.26799460842E+02  0.00000000000E+00 0. -1.
</event>
<event>
 7    1  0.2876796E-013  0.7246154E+02  0.7816164E-02  0.1226708E+00
        -11   -1    0    0    0    0  0.00000000000E+00  0.00000000000E+00  0.45593999997E+02  0.45594000000E+02  0.51100000000E-03 0.  1.
         11   -1    0    0    0    0 -0.00000000000E+00 -0.00000000000E+00 -0.45593999997E+02  0.45594000000E+02  0.51100000000E-03 0. -1.
    9900012    2    1    2    0    0 -0.17192465752E+02 -0.39441435288E+01 -0.62883282528E+01  0.72461542272E+02  0.69999963496E+02 0.  0.
         12    1    1    2    0    0  0.17192465752E+02  0.39441435288E+01  0.62883282528E+01  0.18726457728E+02  0.00000000000E+00 0. -1.
         11    1    3    3    0    0  0.17278575642E+01 -0.72783024173E+01  0.77024656295E+00  0.75201368251E+01  0.51100000000E-03 0. -1.
        -11    1    3    3    0    0  0.21345681764E+02  0.98916743726E+01  0.72731348001E-01  0.23526339324E+02  0.51100000000E-03 0.  1.
         12    1    3    3    0    0 -0.40266005080E+02 -0.65575154840E+01 -0.71313061638E+01  0.41415066124E+02  0.00000000000E+00 0. -1.
</event>
<event>
 7    1  0.2876796E-013  0.7246157E+02  0.7816164E-02  0.1226708E+00
        -11   -1    0    0    0    0  0.00000000000E+00  0.00000000000E+00  0.45593999997E+02  0.45594000000E+02  0.51100000000E-03 0.  1.
         11   -1    0    0    0    0 -0.00000000000E+00 -0.00000000000E+00 -0.45593999997E+02  0.45594000000E+02  0.51100000000E-03 0. -1.
    9900012    2    1    2    0    0  0.15321505509E+02 -0.10633702894E+02  0.16897216560E+01  0.72461566074E+02  0.69999994503E+02 0.  0.
         12    1    1    2    0    0 -0.15321505509E+02  0.10633702894E+02 -0.16897216560E+01  0.18726433926E+02  0.00000000000E+00 0. -1.
         11    1    3    3    0    0 -0.96463553076E+01 -0.28150795292E+01  0.51519778349E+01  0.11292462944E+02  0.51100000000E-03 0. -1.
        -11    1    3    3    0    0  0.17038734250E+01 -0.20296145803E+02 -0.21173380986E+02  0.29379393829E+02  0.51100000000E-03 0.  1.
         12    1    3    3    0    0  0.23263987392E+02  0.12477522438E+02  0.17711124807E+02  0.31789709302E+02  0.00000000000E+00 0. -1.
</event>
<event>
 7    1  0.2876796E-013  0.7246137E+02  0.7816164E-02  0.1226709E+00
        -11   -1    0    0    0    0  0.00000000000E+00  0.00000000000E+00  0.45593999997E+02  0.45594000000E+02  0.51100000000E-03 0. -1.
         11   -1    0    0    0    0 -0.00000000000E+00 -0.00000000000E+00 -0.45593999997E+02  0.45594000000E+02  0.51100000000E-03 0.  1.
    9900012    2    1    2    0    0 -0.13241549327E+02 -0.47695338025E+01  0.12353125012E+02  0.72461367125E+02  0.69999735334E+02 0.  0.
         12    1    1    2    0    0  0.13241549327E+02  0.47695338025E+01 -0.12353125012E+02  0.18726632875E+02  0.00000000000E+00 0. -1.
         11    1    3    3    0    0 -0.16048619185E+02 -0.33041216545E+02  0.11374658768E+02  0.38453387768E+02  0.51100000000E-03 0. -1.
        -11    1    3    3    0    0 -0.73754832194E+01  0.13358111961E+02 -0.29146870531E+01  0.15534873954E+02  0.51100000000E-03 0.  1.
        -12    1    3    3    0    0  0.10182553077E+02  0.14913570781E+02  0.38931532973E+01  0.18473105403E+02  0.00000000000E+00 0.  1.
</event>
<event>
 7    1  0.2876796E-013  0.7246153E+02  0.7816164E-02  0.1226708E+00
        -11   -1    0    0    0    0  0.00000000000E+00  0.00000000000E+00  0.45593999997E+02  0.45594000000E+02  0.51100000000E-03 0.  1.
         11   -1    0    0    0    0 -0.00000000000E+00 -0.00000000000E+00 -0.45593999997E+02  0.45594000000E+02  0.51100000000E-03 0. -1.
    9900012    2    1    2    0    0 -0.18587474683E+02 -0.53306885585E+00 -0.22141049503E+01  0.72461531080E+02  0.69999948916E+02 0.  0.
         12    1    1    2    0    0  0.18587474683E+02  0.53306885585E+00  0.22141049503E+01  0.18726468920E+02  0.00000000000E+00 0. -1.
         11    1    3    3    0    0  0.10019934604E+02 -0.18679706378E+02  0.74359997497E+01  0.22463851236E+02  0.51100000000E-03 0. -1.
        -11    1    3    3    0    0 -0.47743772805E+01 -0.98903876855E+01 -0.71710283431E+01  0.13116329317E+02  0.51100000000E-03 0.  1.
        -12    1    3    3    0    0 -0.23833032006E+02  0.28037025207E+02 -0.24790763568E+01  0.36881350527E+02  0.00000000000E+00 0.  1.
</event>
<event>
 7    1  0.2876796E-013  0.7246156E+02  0.7816164E-02  0.1226708E+00
        -11   -1    0    0    0    0  0.00000000000E+00  0.00000000000E+00  0.45593999997E+02  0.45594000000E+02  0.51100000000E-03 0. -1.
         11   -1    0    0    0    0 -0.00000000000E+00 -0.00000000000E+00 -0.45593999997E+02  0.45594000000E+02  0.51100000000E-03 0.  1.
    9900012    2    1    2    0    0  0.14181659318E+02  0.12113894181E+02 -0.16773582845E+01  0.72461563498E+02  0.69999991146E+02 0.  0.
         12    1    1    2    0    0 -0.14181659318E+02 -0.12113894181E+02  0.16773582845E+01  0.18726436502E+02  0.00000000000E+00 0. -1.
         11    1    3    3    0    0  0.87975526710E+01  0.29648487563E+02  0.11555742544E+02  0.33014616972E+02  0.51100000000E-03 0. -1.
        -11    1    3    3    0    0  0.17720262623E+00 -0.13673066989E+02  0.89455360886E+01  0.16340342035E+02  0.51100000000E-03 0.  1.
        -12    1    3    3    0    0  0.52069040209E+01 -0.38615263930E+01 -0.22178636917E+02  0.23106604491E+02  0.00000000000E+00 0.  1.
</event>
<event>
 7    1  0.2876796E-013  0.7246155E+02  0.7816164E-02  0.1226708E+00
        -11   -1    0    0    0    0  0.00000000000E+00  0.00000000000E+00  0.45593999997E+02  0.45594000000E+02  0.51100000000E-03 0.  1.
         11   -1    0    0    0    0 -0.00000000000E+00 -0.00000000000E+00 -0.45593999997E+02  0.45594000000E+02  0.51100000000E-03 0. -1.
    9900012    2    1    2    0    0 -0.59099840327E+01  0.37864605058E+01  0.17361298891E+02  0.72461550961E+02  0.69999974815E+02 0.  0.
         12    1    1    2    0    0  0.59099840327E+01 -0.37864605058E+01 -0.17361298891E+02  0.18726449039E+02  0.00000000000E+00 0. -1.
         11    1    3    3    0    0 -0.23779148395E+01 -0.21882171465E+02  0.53775373082E+01  0.22658371847E+02  0.51100000000E-03 0. -1.
        -11    1    3    3    0    0  0.18693294446E+02  0.12761604725E+02  0.59537726522E+01  0.23403957389E+02  0.51100000000E-03 0.  1.
        -12    1    3    3    0    0 -0.22225363639E+02  0.12907027245E+02  0.60299889302E+01  0.26399221725E+02  0.00000000000E+00 0.  1.
</event>
<event>
 7    1  0.2876796E-013  0.7246154E+02  0.7816164E-02  0.1226708E+00
        -11   -1    0    0    0    0  0.00000000000E+00  0.00000000000E+00  0.45593999997E+02  0.45594000000E+02  0.51100000000E-03 0.  1.
         11   -1    0    0    0    0 -0.00000000000E+00 -0.00000000000E+00 -0.45593999997E+02  0.45594000000E+02  0.51100000000E-03 0. -1.
    9900012    2    1    2    0    0 -0.64423175543E+01  0.43408353336E+01  0.17039185144E+02  0.72461544456E+02  0.69999966341E+02 0.  0.
         12    1    1    2    0    0  0.64423175543E+01 -0.43408353336E+01 -0.17039185144E+02  0.18726455544E+02  0.00000000000E+00 0. -1.
         11    1    3    3    0    0  0.25248541381E+02 -0.53430090333E+01  0.14237234715E+02  0.29474318312E+02  0.51100000000E-03 0. -1.
        -11    1    3    3    0    0 -0.10139508221E+02  0.10495963059E+02  0.12617593351E+02  0.19291929135E+02  0.51100000000E-03 0.  1.
        -12    1    3    3    0    0 -0.21551350714E+02 -0.81211869179E+00 -0.98156429218E+01  0.23695297009E+02  0.00000000000E+00 0.  1.
</event>
<event>
 7    1  0.2876796E-013  0.7246157E+02  0.7816164E-02  0.1226708E+00
        -11   -1    0    0    0    0  0.00000000000E+00  0.00000000000E+00  0.45593999997E+02  0.45594000000E+02  0.51100000000E-03 0.  1.
         11   -1    0    0    0    0 -0.00000000000E+00 -0.00000000000E+00 -0.45593999997E+02  0.45594000000E+02  0.51100000000E-03 0. -1.
    9900012    2    1    2    0    0  0.18415933790E+02  0.30333925593E+01 -0.15268331782E+01  0.72461566615E+02  0.69999995207E+02 0.  0.
         12    1    1    2    0    0 -0.18415933790E+02 -0.30333925593E+01  0.15268331782E+01  0.18726433385E+02  0.00000000000E+00 0. -1.
         11    1    3    3    0    0  0.12383748984E+02  0.31429091761E+00 -0.61880485088E+01  0.13847308846E+02  0.51100000000E-03 0.  1.
        -11    1    3    3    0    0  0.11536213499E+02 -0.26032258730E+02  0.67610603594E+01  0.29265588221E+02  0.51100000000E-03 0. -1.
        -12    1    3    3    0    0 -0.55040286936E+01  0.28751360372E+02 -0.20998450288E+01  0.29348669548E+02  0.00000000000E+00 0.  1.
</event>
<event>
 7    1  0.2876796E-013  0.7246155E+02  0.7816164E-02  0.1226708E+00
        -11   -1    0    0    0    0  0.00000000000E+00  0.00000000000E+00  0.45593999997E+02  0.45594000000E+02  0.51100000000E-03 0. -1.
         11   -1    0    0    0    0 -0.00000000000E+00 -0.00000000000E+00 -0.45593999997E+02  0.45594000000E+02  0.51100000000E-03 0.  1.
    9900012    2    1    2    0    0 -0.12994888780E+02  0.69063386659E+01 -0.11580810715E+02  0.72461552793E+02  0.69999977202E+02 0.  0.
         12    1    1    2    0    0  0.12994888780E+02 -0.69063386659E+01  0.11580810715E+02  0.18726447207E+02  0.00000000000E+00 0. -1.
         11    1    3    3    0    0 -0.14666822032E+02  0.31614830673E+02 -0.13066820961E+01  0.34875788240E+02  0.51100000000E-03 0. -1.
        -11    1    3    3    0    0 -0.72438546825E+01 -0.65417745307E+01  0.61383071649E+01  0.11530267117E+02  0.51100000000E-03 0.  1.
        -12    1    3    3    0    0  0.89157879337E+01 -0.18166717476E+02 -0.16412435783E+02  0.26055497437E+02  0.00000000000E+00 0.  1.
</event>
<event>
 7    1  0.2876796E-013  0.7246147E+02  0.7816164E-02  0.1226708E+00
        -11   -1    0    0    0    0  0.00000000000E+00  0.00000000000E+00  0.45593999997E+02  0.45594000000E+02  0.51100000000E-03 0.  1.
         11   -1    0    0    0    0 -0.00000000000E+00 -0.00000000000E+00 -0.45593999997E+02  0.45594000000E+02  0.51100000000E-03 0. -1.
    9900012    2    1    2    0    0  0.11460681645E+02  0.62909993312E+01  0.13407426813E+02  0.72461468284E+02  0.69999867113E+02 0.  0.
         12    1    1    2    0    0 -0.11460681645E+02 -0.62909993312E+01 -0.13407426813E+02  0.18726531716E+02  0.00000000000E+00 0. -1.
         11    1    3    3    0    0 -0.46050382387E+01  0.14103359372E+02  0.13425944940E+02  0.20009175909E+02  0.51100000000E-03 0. -1.
        -11    1    3    3    0    0  0.19210564514E+02  0.17754535387E+02 -0.37425435403E+01  0.26424911507E+02  0.51100000000E-03 0.  1.
         12    1    3    3    0    0 -0.31448446299E+01 -0.25566895428E+02  0.37240254128E+01  0.26027380868E+02  0.00000000000E+00 0. -1.
</event>
<event>
 7    1  0.2876796E-013  0.7246149E+02  0.7816164E-02  0.1226708E+00
        -11   -1    0    0    0    0  0.00000000000E+00  0.00000000000E+00  0.45593999997E+02  0.45594000000E+02  0.51100000000E-03 0.  1.
         11   -1    0    0    0    0 -0.00000000000E+00 -0.00000000000E+00 -0.45593999997E+02  0.45594000000E+02  0.51100000000E-03 0. -1.
    9900012    2    1    2    0    0 -0.55352307850E+01  0.30931807679E+01  0.17620313731E+02  0.72461494637E+02  0.69999901443E+02 0.  0.
         12    1    1    2    0    0  0.55352307850E+01 -0.30931807679E+01 -0.17620313731E+02  0.18726505363E+02  0.00000000000E+00 0. -1.
         11    1    3    3    0    0  0.75273484084E+01  0.51739922206E+01 -0.52555724827E+01  0.10538131331E+02  0.51100000000E-03 0. -1.
        -11    1    3    3    0    0 -0.57580990272E+01 -0.22496205875E+01  0.41478859846E+02  0.41937004084E+02  0.51100000000E-03 0.  1.
         12    1    3    3    0    0 -0.73044801661E+01  0.16880913483E+00 -0.18602973632E+02  0.19986359222E+02  0.00000000000E+00 0. -1.
</event>
<event>
 7    1  0.2876796E-013  0.7246137E+02  0.7816164E-02  0.1226709E+00
        -11   -1    0    0    0    0  0.00000000000E+00  0.00000000000E+00  0.45593999997E+02  0.45594000000E+02  0.51100000000E-03 0.  1.
         11   -1    0    0    0    0 -0.00000000000E+00 -0.00000000000E+00 -0.45593999997E+02  0.45594000000E+02  0.51100000000E-03 0. -1.
    9900012    2    1    2    0    0 -0.94700548810E+01  0.24798744739E+01  0.15964174804E+02  0.72461372060E+02  0.69999741762E+02 0.  0.
         12    1    1    2    0    0  0.94700548810E+01 -0.24798744739E+01 -0.15964174804E+02  0.18726627940E+02  0.00000000000E+00 0. -1.
         11    1    3    3    0    0 -0.77630848260E+01  0.79890692322E+01  0.32862501667E+02  0.34699203583E+02  0.51100000000E-03 0. -1.
        -11    1    3    3    0    0 -0.16556682331E+00  0.12366511977E+02  0.10142217641E+01  0.12409136832E+02  0.51100000000E-03 0.  1.
         12    1    3    3    0    0 -0.15414032317E+01 -0.17875706736E+02 -0.17912548628E+02  0.25353031645E+02  0.00000000000E+00 0. -1.
</event>
<event>
 7    1  0.2876796E-013  0.7246155E+02  0.7816164E-02  0.1226708E+00
        -11   -1    0    0    0    0  0.00000000000E+00  0.00000000000E+00  0.45593999997E+02  0.45594000000E+02  0.51100000000E-03 0.  1.
         11   -1    0    0    0    0 -0.00000000000E+00 -0.00000000000E+00 -0.45593999997E+02  0.45594000000E+02  0.51100000000E-03 0. -1.
    9900012    2    1    2    0    0 -0.10170727750E+02  0.13125355224E+02  0.86580108512E+01  0.72461553337E+02  0.69999977910E+02 0.  0.
         12    1    1    2    0    0  0.10170727750E+02 -0.13125355224E+02 -0.86580108512E+01  0.18726446663E+02  0.00000000000E+00 0. -1.
         11    1    3    3    0    0 -0.10543410429E+02 -0.71217469436E+01 -0.78709553623E+01  0.14961106964E+02  0.51100000000E-03 0. -1.
        -11    1    3    3    0    0 -0.21243972506E+02 -0.47350725764E+01  0.37875991816E+01  0.22092378504E+02  0.51100000000E-03 0.  1.
        -12    1    3    3    0    0  0.21616655185E+02  0.24982174744E+02  0.12741367032E+02  0.35408067869E+02  0.00000000000E+00 0.  1.
</event>
<event>
 7    1  0.2876796E-013  0.7246154E+02  0.7816164E-02  0.1226708E+00
        -11   -1    0    0    0    0  0.00000000000E+00  0.00000000000E+00  0.45593999997E+02  0.45594000000E+02  0.51100000000E-03 0.  1.
         11   -1    0    0    0    0 -0.00000000000E+00 -0.00000000000E+00 -0.45593999997E+02  0.45594000000E+02  0.51100000000E-03 0. -1.
    9900012    2    1    2    0    0 -0.15628036059E+02 -0.23950329677E+01  0.10035368632E+02  0.72461539641E+02  0.69999960069E+02 0.  0.
         12    1    1    2    0    0  0.15628036059E+02  0.23950329677E+01 -0.10035368632E+02  0.18726460359E+02  0.00000000000E+00 0. -1.
         11    1    3    3    0    0 -0.14034802909E+02 -0.26548320407E+02  0.38040637378E+01  0.30269785435E+02  0.51100000000E-03 0. -1.
        -11    1    3    3    0    0  0.63780852075E+01 -0.12779498602E+01 -0.92970010929E+01  0.11346689224E+02  0.51100000000E-03 0.  1.
        -12    1    3    3    0    0 -0.79713183574E+01  0.25431237299E+02  0.15528305987E+02  0.30845064982E+02  0.00000000000E+00 0.  1.
</event>
<event>
 7    1  0.2876796E-013  0.7246124E+02  0.7816164E-02  0.1226709E+00
        -11   -1    0    0    0    0  0.00000000000E+00  0.00000000000E+00  0.45593999997E+02  0.45594000000E+02  0.51100000000E-03 0.  1.
         11   -1    0    0    0    0 -0.00000000000E+00 -0.00000000000E+00 -0.45593999997E+02  0.45594000000E+02  0.51100000000E-03 0. -1.
    9900012    2    1    2    0    0 -0.13081611918E+01  0.16769707957E+02  0.82314656398E+01  0.72461243280E+02  0.69999574002E+02 0.  0.
         12    1    1    2    0    0  0.13081611918E+01 -0.16769707957E+02 -0.82314656398E+01  0.18726756720E+02  0.00000000000E+00 0. -1.
         11    1    3    3    0    0  0.99083068065E+01 -0.63983851889E+01 -0.88526864002E+00  0.11827830639E+02  0.51100000000E-03 0. -1.
        -11    1    3    3    0    0 -0.27067607911E+02 -0.30569813570E+01 -0.35603172117E+01  0.27471374046E+02  0.51100000000E-03 0.  1.
         12    1    3    3    0    0  0.15851139913E+02  0.26225074503E+02  0.12677051491E+02  0.33162038595E+02  0.00000000000E+00 0. -1.
</event>
<event>
 7    1  0.2876796E-013  0.7246134E+02  0.7816164E-02  0.1226709E+00
        -11   -1    0    0    0    0  0.00000000000E+00  0.00000000000E+00  0.45593999997E+02  0.45594000000E+02  0.51100000000E-03 0.  1.
         11   -1    0    0    0    0 -0.00000000000E+00 -0.00000000000E+00 -0.45593999997E+02  0.45594000000E+02  0.51100000000E-03 0. -1.
    9900012    2    1    2    0    0  0.46273516520E+01  0.34841148313E+01  0.17808319777E+02  0.72461342724E+02  0.69999703546E+02 0.  0.
         12    1    1    2    0    0 -0.46273516520E+01 -0.34841148313E+01 -0.17808319777E+02  0.18726657276E+02  0.00000000000E+00 0. -1.
         11    1    3    3    0    0  0.14858984291E+02 -0.24865782209E+02  0.85336418767E+01  0.30198006274E+02  0.51100000000E-03 0. -1.
        -11    1    3    3    0    0 -0.50058453250E+01  0.53841963631E+01  0.16135721723E+02  0.17731598170E+02  0.51100000000E-03 0.  1.
         12    1    3    3    0    0 -0.52257873136E+01  0.22965700677E+02 -0.68610438225E+01  0.24531738279E+02  0.00000000000E+00 0. -1.
</event>
<event>
 7    1  0.2876796E-013  0.7246155E+02  0.7816164E-02  0.1226708E+00
        -11   -1    0    0    0    0  0.00000000000E+00  0.00000000000E+00  0.45593999997E+02  0.45594000000E+02  0.51100000000E-03 0. -1.
         11   -1    0    0    0    0 -0.00000000000E+00 -0.00000000000E+00 -0.45593999997E+02  0.45594000000E+02  0.51100000000E-03 0.  1.
    9900012    2    1    2    0    0  0.57866144909E+01 -0.15952099210E+02 -0.79199464355E+01  0.72461550043E+02  0.69999973619E+02 0.  0.
         12    1    1    2    0    0 -0.57866144909E+01  0.15952099210E+02  0.79199464355E+01  0.18726449957E+02  0.00000000000E+00 0. -1.
         11    1    3    3    0    0  0.17437363791E+02  0.53629493285E+01  0.38975782829E+01  0.18655133294E+02  0.51100000000E-03 0. -1.
        -11    1    3    3    0    0 -0.95424622093E+01  0.58514993532E+01 -0.22027218611E+02  0.24708237284E+02  0.51100000000E-03 0.  1.
         12    1    3    3    0    0 -0.21082870908E+01 -0.27166547891E+02  0.10209693892E+02  0.29098179465E+02  0.00000000000E+00 0. -1.
</event>
<event>
 7    1  0.2876796E-013  0.7246159E+02  0.7816164E-02  0.1226708E+00
        -11   -1    0    0    0    0  0.00000000000E+00  0.00000000000E+00  0.45593999997E+02  0.45594000000E+02  0.51100000000E-03 0. -1.
         11   -1    0    0    0    0 -0.00000000000E+00 -0.00000000000E+00 -0.45593999997E+02  0.45594000000E+02  0.51100000000E-03 0.  1.
    9900012    2    1    2    0    0  0.91496734043E+01 -0.70623063560E+01 -0.14733830069E+02  0.72461589694E+02  0.70000025271E+02 0.  0.
         12    1    1    2    0    0 -0.91496734043E+01  0.70623063560E+01  0.14733830069E+02  0.18726410306E+02  0.00000000000E+00 0. -1.
         11    1    3    3    0    0  0.14348024900E+02  0.26727765359E+02  0.37183191643E+01  0.30562479567E+02  0.51100000000E-03 0. -1.
        -11    1    3    3    0    0  0.28650151353E+01 -0.50356353333E+01 -0.87591149168E+01  0.10501810764E+02  0.51100000000E-03 0.  1.
        -12    1    3    3    0    0 -0.80633666308E+01 -0.28754436381E+02 -0.96930343162E+01  0.31397299363E+02  0.00000000000E+00 0.  1.
</event>
<event>
 7    1  0.2876796E-013  0.7246157E+02  0.7816164E-02  0.1226708E+00
        -11   -1    0    0    0    0  0.00000000000E+00  0.00000000000E+00  0.45593999997E+02  0.45594000000E+02  0.51100000000E-03 0.  1.
         11   -1    0    0    0    0 -0.00000000000E+00 -0.00000000000E+00 -0.45593999997E+02  0.45594000000E+02  0.51100000000E-03 0. -1.
    9900012    2    1    2    0    0  0.14657062476E+02  0.10660885760E+02  0.47111740087E+01  0.72461571452E+02  0.70000001508E+02 0.  0.
         12    1    1    2    0    0 -0.14657062476E+02 -0.10660885760E+02 -0.47111740087E+01  0.18726428548E+02  0.00000000000E+00 0. -1.
         11    1    3    3    0    0  0.31957523794E+01 -0.40491688761E+00 -0.17688421503E+02  0.17979350558E+02  0.51100000000E-03 0. -1.
        -11    1    3    3    0    0 -0.82597124742E+01  0.95490975932E+01 -0.10281071247E+02  0.16282154073E+02  0.51100000000E-03 0.  1.
        -12    1    3    3    0    0  0.19721022571E+02  0.15167050547E+01  0.32680666758E+02  0.38200066822E+02  0.00000000000E+00 0.  1.
</event>
<event>
 7    1  0.2876796E-013  0.7246160E+02  0.7816164E-02  0.1226708E+00
        -11   -1    0    0    0    0  0.00000000000E+00  0.00000000000E+00  0.45593999997E+02  0.45594000000E+02  0.51100000000E-03 0.  1.
         11   -1    0    0    0    0 -0.00000000000E+00 -0.00000000000E+00 -0.45593999997E+02  0.45594000000E+02  0.51100000000E-03 0. -1.
    9900012    2    1    2    0    0 -0.87686037384E+01 -0.82712876596E+01  0.14330922539E+02  0.72461602805E+02  0.70000042352E+02 0.  0.
         12    1    1    2    0    0  0.87686037384E+01  0.82712876596E+01 -0.14330922539E+02  0.18726397195E+02  0.00000000000E+00 0. -1.
         11    1    3    3    0    0 -0.95770341050E+01  0.18060408932E+01 -0.47342775584E+01  0.10834885796E+02  0.51100000000E-03 0. -1.
        -11    1    3    3    0    0  0.77631065653E+01 -0.19652563993E+01 -0.19779559653E+02  0.21339143295E+02  0.51100000000E-03 0.  1.
        -12    1    3    3    0    0 -0.69546761987E+01 -0.81120721536E+01  0.38844759750E+02  0.40287573714E+02  0.00000000000E+00 0.  1.
</event>
<event>
 7    1  0.2876796E-013  0.7246164E+02  0.7816164E-02  0.1226708E+00
        -11   -1    0    0    0    0  0.00000000000E+00  0.00000000000E+00  0.45593999997E+02  0.45594000000E+02  0.51100000000E-03 0.  1.
         11   -1    0    0    0    0 -0.00000000000E+00 -0.00000000000E+00 -0.45593999997E+02  0.45594000000E+02  0.51100000000E-03 0. -1.
    9900012    2    1    2    0    0 -0.91853513993E+01 -0.57778829860E+01  0.15261785636E+02  0.72461635886E+02  0.70000085445E+02 0.  0.
         12    1    1    2    0    0  0.91853513993E+01  0.57778829860E+01 -0.15261785636E+02  0.18726364114E+02  0.00000000000E+00 0. -1.
         11    1    3    3    0    0 -0.80868994870E+01 -0.14924439791E+02  0.77813813445E+01  0.18673155659E+02  0.51100000000E-03 0. -1.
        -11    1    3    3    0    0  0.14485986684E+01  0.14287136746E+02  0.28546580327E+02  0.31955092914E+02  0.51100000000E-03 0.  1.
         12    1    3    3    0    0 -0.25470505807E+01 -0.51405799411E+01 -0.21066176036E+02  0.21833387313E+02  0.00000000000E+00 0. -1.
</event>
<event>
 7    1  0.2876796E-013  0.7246159E+02  0.7816164E-02  0.1226708E+00
        -11   -1    0    0    0    0  0.00000000000E+00  0.00000000000E+00  0.45593999997E+02  0.45594000000E+02  0.51100000000E-03 0.  1.
         11   -1    0    0    0    0 -0.00000000000E+00 -0.00000000000E+00 -0.45593999997E+02  0.45594000000E+02  0.51100000000E-03 0. -1.
    9900012    2    1    2    0    0 -0.84769849894E+01 -0.10598651174E+02  0.12903008855E+02  0.72461593011E+02  0.70000029592E+02 0.  0.
         12    1    1    2    0    0  0.84769849894E+01  0.10598651174E+02 -0.12903008855E+02  0.18726406989E+02  0.00000000000E+00 0. -1.
         11    1    3    3    0    0 -0.31159105967E+01  0.45549316920E+01  0.69205568015E+01  0.88515765979E+01  0.51100000000E-03 0. -1.
        -11    1    3    3    0    0 -0.22140779696E+02 -0.21862857450E+02  0.23073044830E+02  0.38737114753E+02  0.51100000000E-03 0.  1.
         12    1    3    3    0    0  0.16779705303E+02  0.67092745839E+01 -0.17090592777E+02  0.24872901660E+02  0.00000000000E+00 0. -1.
</event>
<event>
 7    1  0.2876796E-013  0.7246155E+02  0.7816164E-02  0.1226708E+00
        -11   -1    0    0    0    0  0.00000000000E+00  0.00000000000E+00  0.45593999997E+02  0.45594000000E+02  0.51100000000E-03 0.  1.
         11   -1    0    0    0    0 -0.00000000000E+00 -0.00000000000E+00 -0.45593999997E+02  0.45594000000E+02  0.51100000000E-03 0. -1.
    9900012    2    1    2    0    0  0.36862574345E+01 -0.18360045542E+02 -0.10949937487E-01  0.72461551162E+02  0.69999975077E+02 0.  0.
         12    1    1    2    0    0 -0.36862574345E+01  0.18360045542E+02  0.10949937487E-01  0.18726448838E+02  0.00000000000E+00 0. -1.
         11    1    3    3    0    0  0.12403797584E+02 -0.15923494105E+02 -0.15372758061E+02  0.25371904731E+02  0.51100000000E-03 0. -1.
        -11    1    3    3    0    0  0.16770101452E+02 -0.76983859300E+01  0.54465593458E+01  0.19239710435E+02  0.51100000000E-03 0.  1.
        -12    1    3    3    0    0 -0.25487641602E+02  0.52618344929E+01  0.99152487778E+01  0.27849935996E+02  0.00000000000E+00 0.  1.
</event>
<event>
 7    1  0.2876796E-013  0.7246168E+02  0.7816164E-02  0.1226708E+00
        -11   -1    0    0    0    0  0.00000000000E+00  0.00000000000E+00  0.45593999997E+02  0.45594000000E+02  0.51100000000E-03 0.  1.
         11   -1    0    0    0    0 -0.00000000000E+00 -0.00000000000E+00 -0.45593999997E+02  0.45594000000E+02  0.51100000000E-03 0. -1.
    9900012    2    1    2    0    0 -0.19555193279E+01 -0.45298139092E+01  0.18064660167E+02  0.72461675832E+02  0.70000137482E+02 0.  0.
         12    1    1    2    0    0  0.19555193279E+01  0.45298139092E+01 -0.18064660167E+02  0.18726324168E+02  0.00000000000E+00 0. -1.
         11    1    3    3    0    0 -0.13942325341E+02 -0.11290308436E+02 -0.16920782034E+02  0.24661150934E+02  0.51100000000E-03 0. -1.
        -11    1    3    3    0    0  0.53922765358E+01  0.15224733048E+02  0.65876619784E+01  0.17443234598E+02  0.51100000000E-03 0.  1.
        -12    1    3    3    0    0  0.65945294777E+01 -0.84642385214E+01  0.28397780223E+02  0.30357290300E+02  0.00000000000E+00 0.  1.
</event>
<event>
 7    1  0.2876796E-013  0.7246160E+02  0.7816164E-02  0.1226708E+00
        -11   -1    0    0    0    0  0.00000000000E+00  0.00000000000E+00  0.45593999997E+02  0.45594000000E+02  0.51100000000E-03 0.  1.
         11   -1    0    0    0    0 -0.00000000000E+00 -0.00000000000E+00 -0.45593999997E+02  0.45594000000E+02  0.51100000000E-03 0. -1.
    9900012    2    1    2    0    0  0.30122993061E+01 -0.68647265801E+01  0.17160409989E+02  0.72461599141E+02  0.70000037579E+02 0.  0.
         12    1    1    2    0    0 -0.30122993061E+01  0.68647265801E+01 -0.17160409989E+02  0.18726400859E+02  0.00000000000E+00 0. -1.
         11    1    3    3    0    0 -0.23279817187E+02 -0.44071681779E+01  0.13876591127E+02  0.27457836790E+02  0.51100000000E-03 0.  1.
        -11    1    3    3    0    0  0.73160009688E+01  0.53438345833E+01 -0.14998810105E+02  0.17522692232E+02  0.51100000000E-03 0. -1.
        -12    1    3    3    0    0  0.18976115525E+02 -0.78013929856E+01  0.18282628968E+02  0.27481070119E+02  0.00000000000E+00 0.  1.
</event>
<event>
 7    1  0.2876796E-013  0.7246132E+02  0.7816164E-02  0.1226709E+00
        -11   -1    0    0    0    0  0.00000000000E+00  0.00000000000E+00  0.45593999997E+02  0.45594000000E+02  0.51100000000E-03 0. -1.
         11   -1    0    0    0    0 -0.00000000000E+00 -0.00000000000E+00 -0.45593999997E+02  0.45594000000E+02  0.51100000000E-03 0.  1.
    9900012    2    1    2    0    0  0.14188235008E+02  0.11505967644E+02  0.41225367653E+01  0.72461318141E+02  0.69999671523E+02 0.  0.
         12    1    1    2    0    0 -0.14188235008E+02 -0.11505967644E+02 -0.41225367653E+01  0.18726681859E+02  0.00000000000E+00 0. -1.
         11    1    3    3    0    0 -0.38294572719E+01 -0.77700558233E+01 -0.89338909283E+01  0.12443991236E+02  0.51100000000E-03 0. -1.
        -11    1    3    3    0    0  0.23716969759E+01 -0.17831667072E+02  0.11619855108E+01  0.18026189495E+02  0.51100000000E-03 0.  1.
         12    1    3    3    0    0  0.15645995304E+02  0.37107690539E+02  0.11894442183E+02  0.41991137411E+02  0.00000000000E+00 0. -1.
</event>
<event>
 7    1  0.2876796E-013  0.7246164E+02  0.7816164E-02  0.1226708E+00
        -11   -1    0    0    0    0  0.00000000000E+00  0.00000000000E+00  0.45593999997E+02  0.45594000000E+02  0.51100000000E-03 0.  1.
         11   -1    0    0    0    0 -0.00000000000E+00 -0.00000000000E+00 -0.45593999997E+02  0.45594000000E+02  0.51100000000E-03 0. -1.
    9900012    2    1    2    0    0 -0.15424478797E+02  0.31604960966E+01  0.10137712816E+02  0.72461641494E+02  0.70000092751E+02 0.  0.
         12    1    1    2    0    0  0.15424478797E+02 -0.31604960966E+01 -0.10137712816E+02  0.18726358506E+02  0.00000000000E+00 0. -1.
         11    1    3    3    0    0  0.53999028283E+01 -0.91592198460E+01 -0.95862767269E+01  0.14315968723E+02  0.51100000000E-03 0. -1.
        -11    1    3    3    0    0 -0.17785855599E+02  0.19661388475E+02 -0.92672013147E+01  0.28085367660E+02  0.51100000000E-03 0.  1.
         12    1    3    3    0    0 -0.30385260264E+01 -0.73416725325E+01  0.28991190858E+02  0.30060305111E+02  0.00000000000E+00 0. -1.
</event>
<event>
 7    1  0.2876796E-013  0.7246153E+02  0.7816164E-02  0.1226708E+00
        -11   -1    0    0    0    0  0.00000000000E+00  0.00000000000E+00  0.45593999997E+02  0.45594000000E+02  0.51100000000E-03 0. -1.
         11   -1    0    0    0    0 -0.00000000000E+00 -0.00000000000E+00 -0.45593999997E+02  0.45594000000E+02  0.51100000000E-03 0.  1.
    9900012    2    1    2    0    0 -0.11824496691E+02 -0.84113935530E+01 -0.11836819594E+02  0.72461533126E+02  0.69999951581E+02 0.  0.
         12    1    1    2    0    0  0.11824496691E+02  0.84113935530E+01  0.11836819594E+02  0.18726466874E+02  0.00000000000E+00 0. -1.
         11    1    3    3    0    0 -0.28958058007E+01  0.25325649357E+01 -0.38936094985E+01  0.54735520074E+01  0.51100000000E-03 0. -1.
        -11    1    3    3    0    0  0.51510812215E+01 -0.73180652081E+01 -0.35079045287E+02  0.36202584640E+02  0.51100000000E-03 0.  1.
         12    1    3    3    0    0 -0.14079772112E+02 -0.36258932807E+01  0.27135835191E+02  0.30785396478E+02  0.00000000000E+00 0. -1.
</event>
<event>
 7    1  0.2876796E-013  0.7246159E+02  0.7816164E-02  0.1226708E+00
        -11   -1    0    0    0    0  0.00000000000E+00  0.00000000000E+00  0.45593999997E+02  0.45594000000E+02  0.51100000000E-03 0. -1.
         11   -1    0    0    0    0 -0.00000000000E+00 -0.00000000000E+00 -0.45593999997E+02  0.45594000000E+02  0.51100000000E-03 0.  1.
    9900012    2    1    2    0    0  0.16355374525E+02  0.87180589006E-01 -0.91199061124E+01  0.72461586467E+02  0.70000021068E+02 0.  0.
         12    1    1    2    0    0 -0.16355374525E+02 -0.87180589006E-01  0.91199061124E+01  0.18726413533E+02  0.00000000000E+00 0. -1.
         11    1    3    3    0    0 -0.22759289987E+01  0.16090136151E+02 -0.74041664553E-01  0.16250471273E+02  0.51100000000E-03 0. -1.
        -11    1    3    3    0    0  0.25526764334E+02 -0.23746130359E+02  0.84503471765E+01  0.35873427102E+02  0.51100000000E-03 0.  1.
         12    1    3    3    0    0 -0.68954608103E+01  0.77431747964E+01 -0.17496211624E+02  0.20337688092E+02  0.00000000000E+00 0. -1.
</event>
<event>
 7    1  0.2876796E-013  0.7246157E+02  0.7816164E-02  0.1226708E+00
        -11   -1    0    0    0    0  0.00000000000E+00  0.00000000000E+00  0.45593999997E+02  0.45594000000E+02  0.51100000000E-03 0. -1.
         11   -1    0    0    0    0 -0.00000000000E+00 -0.00000000000E+00 -0.45593999997E+02  0.45594000000E+02  0.51100000000E-03 0.  1.
    9900012    2    1    2    0    0 -0.11637819062E+02  0.83393980813E+01 -0.12070404263E+02  0.72461573433E+02  0.70000004089E+02 0.  0.
         12    1    1    2    0    0  0.11637819062E+02 -0.83393980813E+01  0.12070404263E+02  0.18726426567E+02  0.00000000000E+00 0. -1.
         11    1    3    3    0    0 -0.21714390993E+01 -0.12334057403E+01 -0.21783187731E+02  0.21925868409E+02  0.51100000000E-03 0.  1.
        -11    1    3    3    0    0  0.11465897935E+02 -0.61058398113E+01 -0.11119718773E+02  0.17099597688E+02  0.51100000000E-03 0. -1.
         12    1    3    3    0    0 -0.20932277898E+02  0.15678643633E+02  0.20832502241E+02  0.33436107336E+02  0.00000000000E+00 0. -1.
</event>
<event>
 7    1  0.2876796E-013  0.7246155E+02  0.7816164E-02  0.1226708E+00
        -11   -1    0    0    0    0  0.00000000000E+00  0.00000000000E+00  0.45593999997E+02  0.45594000000E+02  0.51100000000E-03 0. -1.
         11   -1    0    0    0    0 -0.00000000000E+00 -0.00000000000E+00 -0.45593999997E+02  0.45594000000E+02  0.51100000000E-03 0.  1.
    9900012    2    1    2    0    0  0.90498609344E+01  0.15471728773E+02 -0.54226978324E+01  0.72461547428E+02  0.69999970212E+02 0.  0.
         12    1    1    2    0    0 -0.90498609344E+01 -0.15471728773E+02  0.54226978324E+01  0.18726452572E+02  0.00000000000E+00 0. -1.
         11    1    3    3    0    0  0.20501688299E+02  0.42070086552E+00  0.61806333838E+01  0.21417199668E+02  0.51100000000E-03 0. -1.
        -11    1    3    3    0    0  0.11576982861E+02 -0.93350019693E+01  0.16849458474E+01  0.14966891351E+02  0.51100000000E-03 0.  1.
        -12    1    3    3    0    0 -0.23028810226E+02  0.24386029877E+02 -0.13288277064E+02  0.36077456409E+02  0.00000000000E+00 0.  1.
</event>
<event>
 7    1  0.2876796E-013  0.7246155E+02  0.7816164E-02  0.1226708E+00
        -11   -1    0    0    0    0  0.00000000000E+00  0.00000000000E+00  0.45593999997E+02  0.45594000000E+02  0.51100000000E-03 0.  1.
         11   -1    0    0    0    0 -0.00000000000E+00 -0.00000000000E+00 -0.45593999997E+02  0.45594000000E+02  0.51100000000E-03 0. -1.
    9900012    2    1    2    0    0 -0.14791528918E+02 -0.44566540491E+01  0.10584375656E+02  0.72461545422E+02  0.69999967599E+02 0.  0.
         12    1    1    2    0    0  0.14791528918E+02  0.44566540491E+01 -0.10584375656E+02  0.18726454578E+02  0.00000000000E+00 0. -1.
         11    1    3    3    0    0  0.10054920284E+02  0.90127423224E+01 -0.23644374198E+02  0.27228429583E+02  0.51100000000E-03 0. -1.
        -11    1    3    3    0    0 -0.60788395002E+01 -0.19140695082E+01  0.13717385154E+02  0.15125561394E+02  0.51100000000E-03 0.  1.
        -12    1    3    3    0    0 -0.18767609702E+02 -0.11555326863E+02  0.20511364699E+02  0.30107554445E+02  0.00000000000E+00 0.  1.
</event>
<event>
 7    1  0.2876796E-013  0.7246158E+02  0.7816164E-02  0.1226708E+00
        -11   -1    0    0    0    0  0.00000000000E+00  0.00000000000E+00  0.45593999997E+02  0.45594000000E+02  0.51100000000E-03 0. -1.
         11   -1    0    0    0    0 -0.00000000000E+00 -0.00000000000E+00 -0.45593999997E+02  0.45594000000E+02  0.51100000000E-03 0.  1.
    9900012    2    1    2    0    0 -0.17345987013E+02 -0.55527792817E+01 -0.43545685650E+01  0.72461577741E+02  0.70000009701E+02 0.  0.
         12    1    1    2    0    0  0.17345987013E+02  0.55527792817E+01  0.43545685650E+01  0.18726422259E+02  0.00000000000E+00 0. -1.
         11    1    3    3    0    0 -0.12891175370E+02 -0.13851293589E+02  0.33826898697E+01  0.19221949108E+02  0.51100000000E-03 0. -1.
        -11    1    3    3    0    0 -0.10706680831E+02  0.82145691519E+01  0.20375942797E+02  0.24439541851E+02  0.51100000000E-03 0.  1.
        -12    1    3    3    0    0  0.62518691871E+01  0.83945155353E-01 -0.28113201232E+02  0.28800086782E+02  0.00000000000E+00 0.  1.
</event>
<event>
 7    1  0.2876796E-013  0.7246158E+02  0.7816164E-02  0.1226708E+00
        -11   -1    0    0    0    0  0.00000000000E+00  0.00000000000E+00  0.45593999997E+02  0.45594000000E+02  0.51100000000E-03 0.  1.
         11   -1    0    0    0    0 -0.00000000000E+00 -0.00000000000E+00 -0.45593999997E+02  0.45594000000E+02  0.51100000000E-03 0. -1.
    9900012    2    1    2    0    0  0.55439768641E+01  0.78859628378E+01  0.16054735740E+02  0.72461584726E+02  0.70000018800E+02 0.  0.
         12    1    1    2    0    0 -0.55439768641E+01 -0.78859628378E+01 -0.16054735740E+02  0.18726415274E+02  0.00000000000E+00 0. -1.
         11    1    3    3    0    0  0.83419055312E+01 -0.18593782476E+02  0.19171031985E+01  0.20469279899E+02  0.51100000000E-03 0. -1.
        -11    1    3    3    0    0 -0.51819671479E+01 -0.90740117102E+01 -0.49564910414E+01  0.11565348060E+02  0.51100000000E-03 0.  1.
        -12    1    3    3    0    0  0.23840384808E+01  0.35553757024E+02  0.19094123583E+02  0.40426956767E+02  0.00000000000E+00 0.  1.
</event>
<event>
 7    1  0.2876796E-013  0.7246157E+02  0.7816164E-02  0.1226708E+00
        -11   -1    0    0    0    0  0.00000000000E+00  0.00000000000E+00  0.45593999997E+02  0.45594000000E+02  0.51100000000E-03 0.  1.
         11   -1    0    0    0    0 -0.00000000000E+00 -0.00000000000E+00 -0.45593999997E+02  0.45594000000E+02  0.51100000000E-03 0. -1.
    9900012    2    1    2    0    0  0.11923223761E+02  0.13876016552E+02 -0.39965082634E+01  0.72461570054E+02  0.69999999687E+02 0.  0.
         12    1    1    2    0    0 -0.11923223761E+02 -0.13876016552E+02  0.39965082634E+01  0.18726429946E+02  0.00000000000E+00 0. -1.
         11    1    3    3    0    0  0.24838512073E+01  0.50436195916E+01 -0.32137993189E+02  0.32626035951E+02  0.51100000000E-03 0. -1.
        -11    1    3    3    0    0 -0.24743540675E+01  0.37247302016E+01 -0.34761614720E+01  0.56638981246E+01  0.51100000000E-03 0.  1.
        -12    1    3    3    0    0  0.11913726621E+02  0.51076667593E+01  0.31617646398E+02  0.34171635979E+02  0.00000000000E+00 0.  1.
</event>
<event>
 7    1  0.2876796E-013  0.7246158E+02  0.7816164E-02  0.1226708E+00
        -11   -1    0    0    0    0  0.00000000000E+00  0.00000000000E+00  0.45593999997E+02  0.45594000000E+02  0.51100000000E-03 0.  1.
         11   -1    0    0    0    0 -0.00000000000E+00 -0.00000000000E+00 -0.45593999997E+02  0.45594000000E+02  0.51100000000E-03 0. -1.
    9900012    2    1    2    0    0  0.63286705350E+01  0.68868403302E+01  0.16223379967E+02  0.72461582883E+02  0.70000016400E+02 0.  0.
         12    1    1    2    0    0 -0.63286705350E+01 -0.68868403302E+01 -0.16223379967E+02  0.18726417117E+02  0.00000000000E+00 0. -1.
         11    1    3    3    0    0  0.20694404023E+01  0.24124226140E+02  0.28283165485E+02  0.37231684363E+02  0.51100000000E-03 0. -1.
        -11    1    3    3    0    0  0.10488931917E+02  0.30261673547E+01 -0.82669938011E+01  0.13693741942E+02  0.51100000000E-03 0.  1.
        -12    1    3    3    0    0 -0.62297017842E+01 -0.20263553164E+02 -0.37927917168E+01  0.21536156578E+02  0.00000000000E+00 0.  1.
</event>
<event>
 7    1  0.2876796E-013  0.7246157E+02  0.7816164E-02  0.1226708E+00
        -11   -1    0    0    0    0  0.00000000000E+00  0.00000000000E+00  0.45593999997E+02  0.45594000000E+02  0.51100000000E-03 0.  1.
         11   -1    0    0    0    0 -0.00000000000E+00 -0.00000000000E+00 -0.45593999997E+02  0.45594000000E+02  0.51100000000E-03 0. -1.
    9900012    2    1    2    0    0  0.29257043725E+01  0.80402871014E+01  0.16657526515E+02  0.72461570753E+02  0.70000000598E+02 0.  0.
         12    1    1    2    0    0 -0.29257043725E+01 -0.80402871014E+01 -0.16657526515E+02  0.18726429247E+02  0.00000000000E+00 0. -1.
         11    1    3    3    0    0 -0.12855677901E+02  0.10284703537E+01 -0.10195365978E+02  0.16439942009E+02  0.51100000000E-03 0. -1.
        -11    1    3    3    0    0  0.18179224637E+02  0.52631466285E+01 -0.83556692485E+01  0.20688212337E+02  0.51100000000E-03 0.  1.
        -12    1    3    3    0    0 -0.23978423638E+01  0.17486701192E+01  0.35208561741E+02  0.35333416408E+02  0.00000000000E+00 0.  1.
</event>
<event>
 7    1  0.2876796E-013  0.7246164E+02  0.7816164E-02  0.1226708E+00
        -11   -1    0    0    0    0  0.00000000000E+00  0.00000000000E+00  0.45593999997E+02  0.45594000000E+02  0.51100000000E-03 0.  1.
         11   -1    0    0    0    0 -0.00000000000E+00 -0.00000000000E+00 -0.45593999997E+02  0.45594000000E+02  0.51100000000E-03 0. -1.
    9900012    2    1    2    0    0  0.90403855579E+01 -0.60771462532E+01  0.15232080220E+02  0.72461640358E+02  0.70000091271E+02 0.  0.
         12    1    1    2    0    0 -0.90403855579E+01  0.60771462532E+01 -0.15232080220E+02  0.18726359642E+02  0.00000000000E+00 0. -1.
         11    1    3    3    0    0 -0.10346146279E+02  0.58766905640E+01 -0.75656195492E+01  0.14100242347E+02  0.51100000000E-03 0. -1.
        -11    1    3    3    0    0 -0.96710228578E+01 -0.10484150862E+02  0.25420499440E+02  0.29148720289E+02  0.51100000000E-03 0.  1.
        -12    1    3    3    0    0  0.29057554694E+02 -0.14696859555E+01 -0.26227996714E+01  0.29212677723E+02  0.00000000000E+00 0.  1.
</event>
<event>
 7    1  0.2876796E-013  0.7246150E+02  0.7816164E-02  0.1226708E+00
        -11   -1    0    0    0    0  0.00000000000E+00  0.00000000000E+00  0.45593999997E+02  0.45594000000E+02  0.51100000000E-03 0. -1.
         11   -1    0    0    0    0 -0.00000000000E+00 -0.00000000000E+00 -0.45593999997E+02  0.45594000000E+02  0.51100000000E-03 0.  1.
    9900012    2    1    2    0    0 -0.94289501101E+01 -0.69869675607E+01 -0.14593113510E+02  0.72461500653E+02  0.69999909279E+02 0.  0.
         12    1    1    2    0    0  0.94289501101E+01  0.69869675607E+01  0.14593113510E+02  0.18726499347E+02  0.00000000000E+00 0. -1.
         11    1    3    3    0    0 -0.41567926313E+01  0.69337167082E+01  0.21202018858E+02  0.22690988438E+02  0.51100000000E-03 0. -1.
        -11    1    3    3    0    0 -0.95622118482E+00 -0.20243277760E+02 -0.94968231635E+01  0.22380668084E+02  0.51100000000E-03 0.  1.
        -12    1    3    3    0    0 -0.43159362939E+01  0.63225934915E+01 -0.26298309204E+02  0.27389844131E+02  0.00000000000E+00 0.  1.
</event>
<event>
 7    1  0.2876796E-013  0.7246158E+02  0.7816164E-02  0.1226708E+00
        -11   -1    0    0    0    0  0.00000000000E+00  0.00000000000E+00  0.45593999997E+02  0.45594000000E+02  0.51100000000E-03 0. -1.
         11   -1    0    0    0    0 -0.00000000000E+00 -0.00000000000E+00 -0.45593999997E+02  0.45594000000E+02  0.51100000000E-03 0.  1.
    9900012    2    1    2    0    0 -0.33077196463E+01  0.16063745154E+02 -0.90384713129E+01  0.72461577989E+02  0.70000010024E+02 0.  0.
         12    1    1    2    0    0  0.33077196463E+01 -0.16063745154E+02  0.90384713129E+01  0.18726422011E+02  0.00000000000E+00 0. -1.
         11    1    3    3    0    0 -0.74270159194E+01 -0.14579538781E+01  0.23117663132E+01  0.79139407836E+01  0.51100000000E-03 0. -1.
        -11    1    3    3    0    0  0.11736294968E+02 -0.20374206449E+02 -0.10838119911E+02  0.25890418140E+02  0.51100000000E-03 0.  1.
        -12    1    3    3    0    0 -0.76169986945E+01  0.37895905481E+02 -0.51211771492E+00  0.38657219066E+02  0.00000000000E+00 0.  1.
</event>
<event>
 7    1  0.2876796E-013  0.7246154E+02  0.7816164E-02  0.1226708E+00
        -11   -1    0    0    0    0  0.00000000000E+00  0.00000000000E+00  0.45593999997E+02  0.45594000000E+02  0.51100000000E-03 0.  1.
         11   -1    0    0    0    0 -0.00000000000E+00 -0.00000000000E+00 -0.45593999997E+02  0.45594000000E+02  0.51100000000E-03 0. -1.
    9900012    2    1    2    0    0 -0.51504708142E+00  0.17740935778E+02  0.59727896266E+01  0.72461540332E+02  0.69999960968E+02 0.  0.
         12    1    1    2    0    0  0.51504708142E+00 -0.17740935778E+02 -0.59727896266E+01  0.18726459668E+02  0.00000000000E+00 0. -1.
         11    1    3    3    0    0 -0.22424953728E+02  0.12290824137E+02 -0.19989022996E+02  0.32457725556E+02  0.51100000000E-03 0. -1.
        -11    1    3    3    0    0  0.18033259779E+01 -0.43081547210E+01 -0.12068724629E+01  0.48237664833E+01  0.51100000000E-03 0.  1.
        -12    1    3    3    0    0  0.20106580669E+02  0.97582663619E+01  0.27168685086E+02  0.35180048292E+02  0.00000000000E+00 0.  1.
</event>
<event>
 7    1  0.2876796E-013  0.7246157E+02  0.7816164E-02  0.1226708E+00
        -11   -1    0    0    0    0  0.00000000000E+00  0.00000000000E+00  0.45593999997E+02  0.45594000000E+02  0.51100000000E-03 0.  1.
         11   -1    0    0    0    0 -0.00000000000E+00 -0.00000000000E+00 -0.45593999997E+02  0.45594000000E+02  0.51100000000E-03 0. -1.
    9900012    2    1    2    0    0  0.48882979918E+01 -0.17989706349E+02 -0.17760167769E+01  0.72461568749E+02  0.69999997987E+02 0.  0.
         12    1    1    2    0    0 -0.48882979918E+01  0.17989706349E+02  0.17760167769E+01  0.18726431251E+02  0.00000000000E+00 0. -1.
         11    1    3    3    0    0  0.83197617817E+01 -0.21237640230E+02  0.24584135675E+02  0.33535585962E+02  0.51100000000E-03 0. -1.
        -11    1    3    3    0    0 -0.54217987347E+01 -0.21076875022E+01  0.46168090992E+01  0.74265183394E+01  0.51100000000E-03 0.  1.
        -12    1    3    3    0    0  0.19903349447E+01  0.53556213830E+01 -0.30976961551E+02  0.31499464448E+02  0.00000000000E+00 0.  1.
</event>
<event>
 7    1  0.2876796E-013  0.7246159E+02  0.7816164E-02  0.1226708E+00
        -11   -1    0    0    0    0  0.00000000000E+00  0.00000000000E+00  0.45593999997E+02  0.45594000000E+02  0.51100000000E-03 0. -1.
         11   -1    0    0    0    0 -0.00000000000E+00 -0.00000000000E+00 -0.45593999997E+02  0.45594000000E+02  0.51100000000E-03 0.  1.
    9900012    2    1    2    0    0  0.12811882817E+02  0.11355685178E+02 -0.75883184722E+01  0.72461588053E+02  0.70000023134E+02 0.  0.
         12    1    1    2    0    0 -0.12811882817E+02 -0.11355685178E+02  0.75883184722E+01  0.18726411947E+02  0.00000000000E+00 0. -1.
         11    1    3    3    0    0  0.32323769673E+01 -0.14275471034E+02  0.32496014361E+01  0.14993239939E+02  0.51100000000E-03 0. -1.
        -11    1    3    3    0    0  0.71518780527E+01 -0.10436654292E+02  0.96542102364E+01  0.15914675242E+02  0.51100000000E-03 0.  1.
        -12    1    3    3    0    0  0.24276277972E+01  0.36067810504E+02 -0.20492130145E+02  0.41553672872E+02  0.00000000000E+00 0.  1.
</event>
<event>
 7    1  0.2876796E-013  0.7246155E+02  0.7816164E-02  0.1226708E+00
        -11   -1    0    0    0    0  0.00000000000E+00  0.00000000000E+00  0.45593999997E+02  0.45594000000E+02  0.51100000000E-03 0.  1.
         11   -1    0    0    0    0 -0.00000000000E+00 -0.00000000000E+00 -0.45593999997E+02  0.45594000000E+02  0.51100000000E-03 0. -1.
    9900012    2    1    2    0    0  0.94430147395E+01  0.91782691797E+01  0.13314235863E+02  0.72461547343E+02  0.69999970101E+02 0.  0.
         12    1    1    2    0    0 -0.94430147395E+01 -0.91782691797E+01 -0.13314235863E+02  0.18726452657E+02  0.00000000000E+00 0. -1.
         11    1    3    3    0    0  0.75308942384E+00  0.19996136014E+02 -0.17927221286E+02  0.26866296032E+02  0.51100000000E-03 0. -1.
        -11    1    3    3    0    0 -0.31859747359E+01 -0.91747410391E+01 -0.22954855529E+01  0.99797576292E+01  0.51100000000E-03 0.  1.
         12    1    3    3    0    0  0.11875900052E+02 -0.16431257955E+01  0.33536942702E+02  0.35615493682E+02  0.00000000000E+00 0. -1.
</event>
<event>
 7    1  0.2876796E-013  0.7246154E+02  0.7816164E-02  0.1226708E+00
        -11   -1    0    0    0    0  0.00000000000E+00  0.00000000000E+00  0.45593999997E+02  0.45594000000E+02  0.51100000000E-03 0.  1.
         11   -1    0    0    0    0 -0.00000000000E+00 -0.00000000000E+00 -0.45593999997E+02  0.45594000000E+02  0.51100000000E-03 0. -1.
    9900012    2    1    2    0    0  0.10781849476E+02  0.14070519677E+02  0.60375961858E+01  0.72461538247E+02  0.69999958252E+02 0.  0.
         12    1    1    2    0    0 -0.10781849476E+02 -0.14070519677E+02 -0.60375961858E+01  0.18726461753E+02  0.00000000000E+00 0. -1.
         11    1    3    3    0    0  0.91830269961E+00  0.28013928715E+02 -0.19180381251E+02  0.33963370078E+02  0.51100000000E-03 0. -1.
        -11    1    3    3    0    0  0.92309410693E+01  0.37668563167E+01  0.37290770384E+01  0.10644505407E+02  0.51100000000E-03 0.  1.
        -12    1    3    3    0    0  0.63260570714E+00 -0.17710265355E+02  0.21488900398E+02  0.27853662762E+02  0.00000000000E+00 0.  1.
</event>
<event>
 7    1  0.2876796E-013  0.7246164E+02  0.7816164E-02  0.1226708E+00
        -11   -1    0    0    0    0  0.00000000000E+00  0.00000000000E+00  0.45593999997E+02  0.45594000000E+02  0.51100000000E-03 0.  1.
         11   -1    0    0    0    0 -0.00000000000E+00 -0.00000000000E+00 -0.45593999997E+02  0.45594000000E+02  0.51100000000E-03 0. -1.
    9900012    2    1    2    0    0 -0.84153444773E+01  0.64717439480E+01  0.15426436817E+02  0.72461643033E+02  0.70000094755E+02 0.  0.
         12    1    1    2    0    0  0.84153444773E+01 -0.64717439480E+01 -0.15426436817E+02  0.18726356967E+02  0.00000000000E+00 0. -1.
         11    1    3    3    0    0  0.57177061897E+00  0.11976177549E+02  0.21415924032E+00  0.11991731099E+02  0.51100000000E-03 0. -1.
        -11    1    3    3    0    0  0.13619445783E+02  0.61492911295E+01  0.28198139218E+02  0.31912977618E+02  0.51100000000E-03 0.  1.
         12    1    3    3    0    0 -0.22606560880E+02 -0.11653724730E+02 -0.12985861642E+02  0.28556934315E+02  0.00000000000E+00 0. -1.
</event>
<event>
 7    1  0.2876796E-013  0.7246162E+02  0.7816164E-02  0.1226708E+00
        -11   -1    0    0    0    0  0.00000000000E+00  0.00000000000E+00  0.45593999997E+02  0.45594000000E+02  0.51100000000E-03 0. -1.
         11   -1    0    0    0    0 -0.00000000000E+00 -0.00000000000E+00 -0.45593999997E+02  0.45594000000E+02  0.51100000000E-03 0.  1.
    9900012    2    1    2    0    0 -0.13335131264E+01  0.10852977946E+01 -0.18647281887E+02  0.72461621537E+02  0.70000066753E+02 0.  0.
         12    1    1    2    0    0  0.13335131264E+01 -0.10852977946E+01  0.18647281887E+02  0.18726378463E+02  0.00000000000E+00 0. -1.
         11    1    3    3    0    0 -0.63795054044E+01  0.26665369568E+02  0.25055260449E+01  0.27532120958E+02  0.51100000000E-03 0. -1.
        -11    1    3    3    0    0 -0.45843110196E+01 -0.17848979070E+01 -0.18476573852E+02  0.19120291568E+02  0.51100000000E-03 0.  1.
         12    1    3    3    0    0  0.96303032976E+01 -0.23795173867E+02 -0.26762340796E+01  0.25809209011E+02  0.00000000000E+00 0. -1.
</event>
<event>
 7    1  0.2876796E-013  0.7246158E+02  0.7816164E-02  0.1226708E+00
        -11   -1    0    0    0    0  0.00000000000E+00  0.00000000000E+00  0.45593999997E+02  0.45594000000E+02  0.51100000000E-03 0. -1.
         11   -1    0    0    0    0 -0.00000000000E+00 -0.00000000000E+00 -0.45593999997E+02  0.45594000000E+02  0.51100000000E-03 0.  1.
    9900012    2    1    2    0    0 -0.17555854560E+01 -0.17600578298E+02 -0.61494929583E+01  0.72461582821E+02  0.70000016319E+02 0.  0.
         12    1    1    2    0    0  0.17555854560E+01  0.17600578298E+02  0.61494929583E+01  0.18726417179E+02  0.00000000000E+00 0. -1.
         11    1    3    3    0    0 -0.71440466810E+01 -0.28468621875E+01  0.31009593005E+01  0.82920429412E+01  0.51100000000E-03 0. -1.
        -11    1    3    3    0    0 -0.23339657584E+02 -0.10452392323E+02 -0.20745222024E+02  0.32929566631E+02  0.51100000000E-03 0.  1.
         12    1    3    3    0    0  0.28728118809E+02 -0.43013237875E+01  0.11494769765E+02  0.31239973249E+02  0.00000000000E+00 0. -1.
</event>
<event>
 7    1  0.2876796E-013  0.7246127E+02  0.7816164E-02  0.1226709E+00
        -11   -1    0    0    0    0  0.00000000000E+00  0.00000000000E+00  0.45593999997E+02  0.45594000000E+02  0.51100000000E-03 0.  1.
         11   -1    0    0    0    0 -0.00000000000E+00 -0.00000000000E+00 -0.45593999997E+02  0.45594000000E+02  0.51100000000E-03 0. -1.
    9900012    2    1    2    0    0 -0.37937521638E+00 -0.16925370935E+01  0.18646224344E+02  0.72461273387E+02  0.69999613222E+02 0.  0.
         12    1    1    2    0    0  0.37937521638E+00  0.16925370935E+01 -0.18646224344E+02  0.18726726613E+02  0.00000000000E+00 0. -1.
         11    1    3    3    0    0  0.83842102792E+01  0.86623280738E+01 -0.13234396951E+02  0.17901960020E+02  0.51100000000E-03 0. -1.
        -11    1    3    3    0    0  0.25663693616E+01  0.12427580100E+02 -0.12884781426E+01  0.12755045081E+02  0.51100000000E-03 0.  1.
        -12    1    3    3    0    0 -0.11329954857E+02 -0.22782445267E+02  0.33169099437E+02  0.41804268285E+02  0.00000000000E+00 0.  1.
</event>
<event>
 7    1  0.2876796E-013  0.7246152E+02  0.7816164E-02  0.1226708E+00
        -11   -1    0    0    0    0  0.00000000000E+00  0.00000000000E+00  0.45593999997E+02  0.45594000000E+02  0.51100000000E-03 0. -1.
         11   -1    0    0    0    0 -0.00000000000E+00 -0.00000000000E+00 -0.45593999997E+02  0.45594000000E+02  0.51100000000E-03 0.  1.
    9900012    2    1    2    0    0  0.17147348808E+02 -0.58986366299E+01 -0.46749874744E+01  0.72461521604E+02  0.69999936572E+02 0.  0.
         12    1    1    2    0    0 -0.17147348808E+02  0.58986366299E+01  0.46749874744E+01  0.18726478396E+02  0.00000000000E+00 0. -1.
         11    1    3    3    0    0  0.16577670146E+02 -0.17849517474E+02 -0.12839985516E+02  0.27537059571E+02  0.51100000000E-03 0. -1.
        -11    1    3    3    0    0  0.67343533376E+01  0.13713187012E+02 -0.14685672621E+02  0.21191318823E+02  0.51100000000E-03 0.  1.
         12    1    3    3    0    0 -0.61646746761E+01 -0.17623061675E+01  0.22850670662E+02  0.23733143209E+02  0.00000000000E+00 0. -1.
</event>
<event>
 7    1  0.2876796E-013  0.7246185E+02  0.7816164E-02  0.1226707E+00
        -11   -1    0    0    0    0  0.00000000000E+00  0.00000000000E+00  0.45593999997E+02  0.45594000000E+02  0.51100000000E-03 0.  1.
         11   -1    0    0    0    0 -0.00000000000E+00 -0.00000000000E+00 -0.45593999997E+02  0.45594000000E+02  0.51100000000E-03 0. -1.
    9900012    2    1    2    0    0  0.96894522719E+01  0.15611622136E+02 -0.36139285577E+01  0.72461849550E+02  0.70000363781E+02 0.  0.
         12    1    1    2    0    0 -0.96894522719E+01 -0.15611622136E+02  0.36139285577E+01  0.18726150450E+02  0.00000000000E+00 0. -1.
         11    1    3    3    0    0  0.12150748095E+02  0.94163736359E+00  0.89258690964E+01  0.15106240419E+02  0.51100000000E-03 0. -1.
        -11    1    3    3    0    0 -0.14518534782E+02  0.29756086746E+01  0.17503878025E+02  0.22935296932E+02  0.51100000000E-03 0.  1.
         12    1    3    3    0    0  0.12057238958E+02  0.11694376098E+02 -0.30043675679E+02  0.34420312199E+02  0.00000000000E+00 0. -1.
</event>
<event>
 7    1  0.2876796E-013  0.7246117E+02  0.7816164E-02  0.1226709E+00
        -11   -1    0    0    0    0  0.00000000000E+00  0.00000000000E+00  0.45593999997E+02  0.45594000000E+02  0.51100000000E-03 0.  1.
         11   -1    0    0    0    0 -0.00000000000E+00 -0.00000000000E+00 -0.45593999997E+02  0.45594000000E+02  0.51100000000E-03 0. -1.
    9900012    2    1    2    0    0 -0.12336551732E+02 -0.12143370733E+02  0.71443935990E+01  0.72461165743E+02  0.69999472995E+02 0.  0.
         12    1    1    2    0    0  0.12336551732E+02  0.12143370733E+02 -0.71443935990E+01  0.18726834257E+02  0.00000000000E+00 0. -1.
         11    1    3    3    0    0  0.47700462106E+00 -0.10438404401E+01 -0.11303297419E+02  0.11361411403E+02  0.51100000000E-03 0. -1.
        -11    1    3    3    0    0 -0.16196610398E+02 -0.45332700916E+01 -0.17575824530E+02  0.24326741135E+02  0.51100000000E-03 0.  1.
        -12    1    3    3    0    0  0.33830540444E+01 -0.65662602012E+01  0.36023515548E+02  0.36773013204E+02  0.00000000000E+00 0.  1.
</event>
<event>
 7    1  0.2876796E-013  0.7246164E+02  0.7816164E-02  0.1226708E+00
        -11   -1    0    0    0    0  0.00000000000E+00  0.00000000000E+00  0.45593999997E+02  0.45594000000E+02  0.51100000000E-03 0.  1.
         11   -1    0    0    0    0 -0.00000000000E+00 -0.00000000000E+00 -0.45593999997E+02  0.45594000000E+02  0.51100000000E-03 0. -1.
    9900012    2    1    2    0    0  0.46022467922E+01  0.11278763325E+02  0.14222712018E+02  0.72461635835E+02  0.70000085379E+02 0.  0.
         12    1    1    2    0    0 -0.46022467922E+01 -0.11278763325E+02 -0.14222712018E+02  0.18726364165E+02  0.00000000000E+00 0. -1.
         11    1    3    3    0    0  0.75849238317E+01 -0.62886484269E+01  0.64216266795E+00  0.98737298790E+01  0.51100000000E-03 0. -1.
        -11    1    3    3    0    0  0.25188652514E+02 -0.30799212633E+01  0.10706119789E+02  0.27542242677E+02  0.51100000000E-03 0.  1.
         12    1    3    3    0    0 -0.28171329553E+02  0.20647333015E+02  0.28744295606E+01  0.35045663280E+02  0.00000000000E+00 0. -1.
</event>
<event>
 7    1  0.2876796E-013  0.7246176E+02  0.7816164E-02  0.1226708E+00
        -11   -1    0    0    0    0  0.00000000000E+00  0.00000000000E+00  0.45593999997E+02  0.45594000000E+02  0.51100000000E-03 0.  1.
         11   -1    0    0    0    0 -0.00000000000E+00 -0.00000000000E+00 -0.45593999997E+02  0.45594000000E+02  0.51100000000E-03 0. -1.
    9900012    2    1    2    0    0  0.16934717425E+02  0.26372456792E+01 -0.75453568752E+01  0.72461758268E+02  0.70000244870E+02 0.  0.
         12    1    1    2    0    0 -0.16934717425E+02 -0.26372456792E+01  0.75453568752E+01  0.18726241732E+02  0.00000000000E+00 0. -1.
         11    1    3    3    0    0  0.68210983600E+01 -0.16780348243E+02 -0.22504526891E+02  0.28888772920E+02  0.51100000000E-03 0. -1.
        -11    1    3    3    0    0  0.95549037478E+01 -0.85633106091E+01  0.32510480229E+01  0.13236154567E+02  0.51100000000E-03 0.  1.
        -12    1    3    3    0    0  0.55871531700E+00  0.27980904531E+02  0.11708121993E+02  0.30336830780E+02  0.00000000000E+00 0.  1.
</event>
<event>
 7    1  0.2876796E-013  0.7246163E+02  0.7816164E-02  0.1226708E+00
        -11   -1    0    0    0    0  0.00000000000E+00  0.00000000000E+00  0.45593999997E+02  0.45594000000E+02  0.51100000000E-03 0.  1.
         11   -1    0    0    0    0 -0.00000000000E+00 -0.00000000000E+00 -0.45593999997E+02  0.45594000000E+02  0.51100000000E-03 0. -1.
    9900012    2    1    2    0    0 -0.11431685856E+02 -0.83685382652E+01  0.12245860202E+02  0.72461629121E+02  0.70000076633E+02 0.  0.
         12    1    1    2    0    0  0.11431685856E+02  0.83685382652E+01 -0.12245860202E+02  0.18726370879E+02  0.00000000000E+00 0. -1.
         11    1    3    3    0    0  0.11380588292E+02 -0.16599435055E+02 -0.22165257673E+02  0.29939233156E+02  0.51100000000E-03 0. -1.
        -11    1    3    3    0    0 -0.20169222697E-01  0.83579177873E+00  0.23647211220E+01  0.25081588748E+01  0.51100000000E-03 0.  1.
        -12    1    3    3    0    0 -0.22792104925E+02  0.73951050116E+01  0.32046396753E+02  0.40014237090E+02  0.00000000000E+00 0.  1.
</event>
<event>
 7    1  0.2876796E-013  0.7246154E+02  0.7816164E-02  0.1226708E+00
        -11   -1    0    0    0    0  0.00000000000E+00  0.00000000000E+00  0.45593999997E+02  0.45594000000E+02  0.51100000000E-03 0.  1.
         11   -1    0    0    0    0 -0.00000000000E+00 -0.00000000000E+00 -0.45593999997E+02  0.45594000000E+02  0.51100000000E-03 0. -1.
    9900012    2    1    2    0    0  0.13016378699E+02  0.21094265006E+01  0.13296780675E+02  0.72461543557E+02  0.69999965169E+02 0.  0.
         12    1    1    2    0    0 -0.13016378699E+02 -0.21094265006E+01 -0.13296780675E+02  0.18726456443E+02  0.00000000000E+00 0. -1.
         11    1    3    3    0    0  0.10088581489E+02  0.79728250924E+01  0.35247260251E+01  0.13333008296E+02  0.51100000000E-03 0. -1.
        -11    1    3    3    0    0  0.74960279719E+01  0.25518066510E+02  0.49116724825E+01  0.27046010437E+02  0.51100000000E-03 0.  1.
         12    1    3    3    0    0 -0.45682307620E+01 -0.31381465101E+02  0.48603821675E+01  0.32082524823E+02  0.00000000000E+00 0. -1.
</event>
<event>
 7    1  0.2876796E-013  0.7246155E+02  0.7816164E-02  0.1226708E+00
        -11   -1    0    0    0    0  0.00000000000E+00  0.00000000000E+00  0.45593999997E+02  0.45594000000E+02  0.51100000000E-03 0.  1.
         11   -1    0    0    0    0 -0.00000000000E+00 -0.00000000000E+00 -0.45593999997E+02  0.45594000000E+02  0.51100000000E-03 0. -1.
    9900012    2    1    2    0    0 -0.53750347659E+01 -0.17813846353E+02 -0.21108406357E+01  0.72461554293E+02  0.69999979156E+02 0.  0.
         12    1    1    2    0    0  0.53750347659E+01  0.17813846353E+02  0.21108406357E+01  0.18726445707E+02  0.00000000000E+00 0. -1.
         11    1    3    3    0    0 -0.33583556261E+01 -0.65370974412E+00  0.31988506917E+01  0.46838589805E+01  0.51100000000E-03 0. -1.
        -11    1    3    3    0    0 -0.26004931222E+02 -0.28184855268E+02  0.64308566288E+01  0.38884424023E+02  0.51100000000E-03 0.  1.
         12    1    3    3    0    0  0.23988252082E+02  0.11024718660E+02 -0.11740547956E+02  0.28893271290E+02  0.00000000000E+00 0. -1.
</event>
<event>
 7    1  0.2876796E-013  0.7246157E+02  0.7816164E-02  0.1226708E+00
        -11   -1    0    0    0    0  0.00000000000E+00  0.00000000000E+00  0.45593999997E+02  0.45594000000E+02  0.51100000000E-03 0. -1.
         11   -1    0    0    0    0 -0.00000000000E+00 -0.00000000000E+00 -0.45593999997E+02  0.45594000000E+02  0.51100000000E-03 0.  1.
    9900012    2    1    2    0    0 -0.95439761442E+01 -0.21155841733E+01 -0.15972353367E+02  0.72461568169E+02  0.69999997231E+02 0.  0.
         12    1    1    2    0    0  0.95439761442E+01  0.21155841733E+01  0.15972353367E+02  0.18726431831E+02  0.00000000000E+00 0. -1.
         11    1    3    3    0    0 -0.23537449729E+02  0.56099782721E+00 -0.37199550328E+01  0.23836197767E+02  0.51100000000E-03 0. -1.
        -11    1    3    3    0    0 -0.27892555344E+01  0.15557127939E+02 -0.17195353147E+02  0.23355606313E+02  0.51100000000E-03 0.  1.
         12    1    3    3    0    0  0.16782729119E+02 -0.18233709939E+02  0.49429548123E+01  0.25269764089E+02  0.00000000000E+00 0. -1.
</event>
<event>
 7    1  0.2876796E-013  0.7246145E+02  0.7816164E-02  0.1226708E+00
        -11   -1    0    0    0    0  0.00000000000E+00  0.00000000000E+00  0.45593999997E+02  0.45594000000E+02  0.51100000000E-03 0. -1.
         11   -1    0    0    0    0 -0.00000000000E+00 -0.00000000000E+00 -0.45593999997E+02  0.45594000000E+02  0.51100000000E-03 0.  1.
    9900012    2    1    2    0    0  0.11745725801E+02 -0.14567541839E+02 -0.71289414678E+00  0.72461452858E+02  0.69999847017E+02 0.  0.
         12    1    1    2    0    0 -0.11745725801E+02  0.14567541839E+02  0.71289414678E+00  0.18726547142E+02  0.00000000000E+00 0. -1.
         11    1    3    3    0    0 -0.77850183436E+01 -0.77789519609E+01  0.20104382040E+02  0.22919528392E+02  0.51100000000E-03 0. -1.
        -11    1    3    3    0    0 -0.44825007019E+01  0.12780472091E+02 -0.32423709211E+01  0.13926458590E+02  0.51100000000E-03 0.  1.
        -12    1    3    3    0    0  0.24013244846E+02 -0.19569061969E+02 -0.17574905266E+02  0.35615465875E+02  0.00000000000E+00 0.  1.
</event>
<event>
 7    1  0.2876796E-013  0.7246155E+02  0.7816164E-02  0.1226708E+00
        -11   -1    0    0    0    0  0.00000000000E+00  0.00000000000E+00  0.45593999997E+02  0.45594000000E+02  0.51100000000E-03 0.  1.
         11   -1    0    0    0    0 -0.00000000000E+00 -0.00000000000E+00 -0.45593999997E+02  0.45594000000E+02  0.51100000000E-03 0. -1.
    9900012    2    1    2    0    0  0.15472054025E+02  0.12784268683E+00  0.10548890301E+02  0.72461551162E+02  0.69999975076E+02 0.  0.
         12    1    1    2    0    0 -0.15472054025E+02 -0.12784268683E+00 -0.10548890301E+02  0.18726448838E+02  0.00000000000E+00 0. -1.
         11    1    3    3    0    0 -0.83282259915E+01  0.65106399030E+01  0.26240747315E+02  0.28290008837E+02  0.51100000000E-03 0. -1.
        -11    1    3    3    0    0  0.42839829059E+01  0.45136759306E+01  0.89509587886E+01  0.10901625725E+02  0.51100000000E-03 0.  1.
        -12    1    3    3    0    0  0.19516297110E+02 -0.10896473147E+02 -0.24642815802E+02  0.33269916600E+02  0.00000000000E+00 0.  1.
</event>
<event>
 7    1  0.2876796E-013  0.7246153E+02  0.7816164E-02  0.1226708E+00
        -11   -1    0    0    0    0  0.00000000000E+00  0.00000000000E+00  0.45593999997E+02  0.45594000000E+02  0.51100000000E-03 0. -1.
         11   -1    0    0    0    0 -0.00000000000E+00 -0.00000000000E+00 -0.45593999997E+02  0.45594000000E+02  0.51100000000E-03 0.  1.
    9900012    2    1    2    0    0  0.16060842266E+02  0.35189224324E+01 -0.89636593439E+01  0.72461530546E+02  0.69999948220E+02 0.  0.
         12    1    1    2    0    0 -0.16060842266E+02 -0.35189224324E+01  0.89636593439E+01  0.18726469454E+02  0.00000000000E+00 0. -1.
         11    1    3    3    0    0  0.12426579458E+02 -0.84047845003E+01 -0.12455739435E+02  0.19498864702E+02  0.51100000000E-03 0. -1.
        -11    1    3    3    0    0  0.26833406505E+02  0.29796714962E+00  0.48064176870E+00  0.26839364855E+02  0.51100000000E-03 0.  1.
         12    1    3    3    0    0 -0.23199143697E+02  0.11625739783E+02  0.30114383226E+01  0.26123300989E+02  0.00000000000E+00 0. -1.
</event>
<event>
 7    1  0.2876796E-013  0.7246224E+02  0.7816164E-02  0.1226706E+00
        -11   -1    0    0    0    0  0.00000000000E+00  0.00000000000E+00  0.45593999997E+02  0.45594000000E+02  0.51100000000E-03 0.  1.
         11   -1    0    0    0    0 -0.00000000000E+00 -0.00000000000E+00 -0.45593999997E+02  0.45594000000E+02  0.51100000000E-03 0. -1.
    9900012    2    1    2    0    0 -0.75245296505E+01 -0.91641016583E+01  0.14493262089E+02  0.72462243630E+02  0.70000877139E+02 0.  0.
         12    1    1    2    0    0  0.75245296505E+01  0.91641016583E+01 -0.14493262089E+02  0.18725756370E+02  0.00000000000E+00 0. -1.
         11    1    3    3    0    0  0.61571733554E+01  0.99350374814E+01  0.25158406044E+02  0.27740965167E+02  0.51100000000E-03 0. -1.
        -11    1    3    3    0    0  0.18884403446E+01  0.94813012640E+01  0.18656405032E+01  0.98459075429E+01  0.51100000000E-03 0.  1.
         12    1    3    3    0    0 -0.15570143350E+02 -0.28580440404E+02 -0.12530784458E+02  0.34875370919E+02  0.00000000000E+00 0. -1.
</event>
<event>
 7    1  0.2876796E-013  0.7246158E+02  0.7816164E-02  0.1226708E+00
        -11   -1    0    0    0    0  0.00000000000E+00  0.00000000000E+00  0.45593999997E+02  0.45594000000E+02  0.51100000000E-03 0.  1.
         11   -1    0    0    0    0 -0.00000000000E+00 -0.00000000000E+00 -0.45593999997E+02  0.45594000000E+02  0.51100000000E-03 0. -1.
    9900012    2    1    2    0    0  0.34613608022E+01 -0.18366756234E+02 -0.11661665309E+01  0.72461582897E+02  0.70000016417E+02 0.  0.
         12    1    1    2    0    0 -0.34613608022E+01  0.18366756234E+02  0.11661665309E+01  0.18726417103E+02  0.00000000000E+00 0. -1.
         11    1    3    3    0    0  0.13511250071E+02  0.31495406838E+01 -0.47149403542E+01  0.14652786349E+02  0.51100000000E-03 0. -1.
        -11    1    3    3    0    0  0.75494911924E+01  0.10204120623E+02  0.15111285001E+02  0.19734989983E+02  0.51100000000E-03 0.  1.
         12    1    3    3    0    0 -0.17599380461E+02 -0.31720417541E+02 -0.11562511178E+02  0.38073806565E+02  0.00000000000E+00 0. -1.
</event>
<event>
 7    1  0.2876796E-013  0.7246156E+02  0.7816164E-02  0.1226708E+00
        -11   -1    0    0    0    0  0.00000000000E+00  0.00000000000E+00  0.45593999997E+02  0.45594000000E+02  0.51100000000E-03 0.  1.
         11   -1    0    0    0    0 -0.00000000000E+00 -0.00000000000E+00 -0.45593999997E+02  0.45594000000E+02  0.51100000000E-03 0. -1.
    9900012    2    1    2    0    0  0.17229565928E+02 -0.35736238189E+01 -0.64070883394E+01  0.72461561196E+02  0.69999988148E+02 0.  0.
         12    1    1    2    0    0 -0.17229565928E+02  0.35736238189E+01  0.64070883394E+01  0.18726438804E+02  0.00000000000E+00 0. -1.
         11    1    3    3    0    0  0.55833037855E+01  0.12646937259E+02  0.26779523053E+01  0.14081538695E+02  0.51100000000E-03 0. -1.
        -11    1    3    3    0    0 -0.18184751722E+02 -0.34915228298E+00  0.87369447811E+01  0.20177742859E+02  0.51100000000E-03 0.  1.
         12    1    3    3    0    0  0.29831013865E+02 -0.15871408795E+02 -0.17821985426E+02  0.38202279643E+02  0.00000000000E+00 0. -1.
</event>
<event>
 7    1  0.2876796E-013  0.7246171E+02  0.7816164E-02  0.1226708E+00
        -11   -1    0    0    0    0  0.00000000000E+00  0.00000000000E+00  0.45593999997E+02  0.45594000000E+02  0.51100000000E-03 0. -1.
         11   -1    0    0    0    0 -0.00000000000E+00 -0.00000000000E+00 -0.45593999997E+02  0.45594000000E+02  0.51100000000E-03 0.  1.
    9900012    2    1    2    0    0 -0.15741886370E+02 -0.95512357279E+01 -0.34118622605E+01  0.72461711139E+02  0.70000183476E+02 0.  0.
         12    1    1    2    0    0  0.15741886370E+02  0.95512357279E+01  0.34118622605E+01  0.18726288861E+02  0.00000000000E+00 0. -1.
         11    1    3    3    0    0 -0.10764222502E+02  0.11459427942E+02  0.87415930325E+00  0.15746464034E+02  0.51100000000E-03 0. -1.
        -11    1    3    3    0    0  0.69672295462E+01  0.15557324153E+02 -0.63498761498E+01  0.18190479645E+02  0.51100000000E-03 0.  1.
         12    1    3    3    0    0 -0.11944893414E+02 -0.36567987823E+02  0.20638545861E+01  0.38524767460E+02  0.00000000000E+00 0. -1.
</event>
<event>
 7    1  0.2876796E-013  0.7246155E+02  0.7816164E-02  0.1226708E+00
        -11   -1    0    0    0    0  0.00000000000E+00  0.00000000000E+00  0.45593999997E+02  0.45594000000E+02  0.51100000000E-03 0. -1.
         11   -1    0    0    0    0 -0.00000000000E+00 -0.00000000000E+00 -0.45593999997E+02  0.45594000000E+02  0.51100000000E-03 0.  1.
    9900012    2    1    2    0    0  0.18054712151E+02 -0.29734096133E+01 -0.39832100532E+01  0.72461554584E+02  0.69999979535E+02 0.  0.
         12    1    1    2    0    0 -0.18054712151E+02  0.29734096133E+01  0.39832100532E+01  0.18726445416E+02  0.00000000000E+00 0. -1.
         11    1    3    3    0    0  0.15337692734E+02  0.80387785417E+01  0.23284648953E+02  0.29017954028E+02  0.51100000000E-03 0. -1.
        -11    1    3    3    0    0 -0.34698693780E+01  0.55879881479E+01  0.38607069185E+01  0.76269694645E+01  0.51100000000E-03 0.  1.
        -12    1    3    3    0    0  0.61868887946E+01 -0.16600176303E+02 -0.31128565924E+02  0.35816631092E+02  0.00000000000E+00 0.  1.
</event>
<event>
 7    1  0.2876796E-013  0.7246156E+02  0.7816164E-02  0.1226708E+00
        -11   -1    0    0    0    0  0.00000000000E+00  0.00000000000E+00  0.45593999997E+02  0.45594000000E+02  0.51100000000E-03 0.  1.
         11   -1    0    0    0    0 -0.00000000000E+00 -0.00000000000E+00 -0.45593999997E+02  0.45594000000E+02  0.51100000000E-03 0. -1.
    9900012    2    1    2    0    0  0.75687865982E+01  0.16810669366E+02 -0.32854725309E+01  0.72461562409E+02  0.69999989728E+02 0.  0.
         12    1    1    2    0    0 -0.75687865982E+01 -0.16810669366E+02  0.32854725309E+01  0.18726437591E+02  0.00000000000E+00 0. -1.
         11    1    3    3    0    0 -0.10589221526E+01 -0.17014144243E+02 -0.14710007253E+02  0.22516365917E+02  0.51100000000E-03 0. -1.
        -11    1    3    3    0    0  0.56532691705E+00  0.27652199213E+02 -0.73348544007E+01  0.28614049088E+02  0.51100000000E-03 0.  1.
        -12    1    3    3    0    0  0.80623818337E+01  0.61726143959E+01  0.18759389123E+02  0.21331147404E+02  0.00000000000E+00 0.  1.
</event>
<event>
 7    1  0.2876796E-013  0.7246164E+02  0.7816164E-02  0.1226708E+00
        -11   -1    0    0    0    0  0.00000000000E+00  0.00000000000E+00  0.45593999997E+02  0.45594000000E+02  0.51100000000E-03 0.  1.
         11   -1    0    0    0    0 -0.00000000000E+00 -0.00000000000E+00 -0.45593999997E+02  0.45594000000E+02  0.51100000000E-03 0. -1.
    9900012    2    1    2    0    0 -0.89558489646E+01  0.13833168994E+02  0.88945365090E+01  0.72461639574E+02  0.70000090249E+02 0.  0.
         12    1    1    2    0    0  0.89558489646E+01 -0.13833168994E+02 -0.88945365090E+01  0.18726360426E+02  0.00000000000E+00 0. -1.
         11    1    3    3    0    0 -0.14407050069E+02 -0.13548111559E+02  0.11124031033E+02  0.22690493278E+02  0.51100000000E-03 0. -1.
        -11    1    3    3    0    0 -0.49335772558E+01  0.18410876218E+02  0.17408332177E+02  0.25813767201E+02  0.51100000000E-03 0.  1.
         12    1    3    3    0    0  0.10384778360E+02  0.89704043359E+01 -0.19637826701E+02  0.23957379095E+02  0.00000000000E+00 0. -1.
</event>
<event>
 7    1  0.2876796E-013  0.7246153E+02  0.7816164E-02  0.1226708E+00
        -11   -1    0    0    0    0  0.00000000000E+00  0.00000000000E+00  0.45593999997E+02  0.45594000000E+02  0.51100000000E-03 0.  1.
         11   -1    0    0    0    0 -0.00000000000E+00 -0.00000000000E+00 -0.45593999997E+02  0.45594000000E+02  0.51100000000E-03 0. -1.
    9900012    2    1    2    0    0 -0.18396559522E+02  0.33438928557E+01 -0.10322399050E+01  0.72461533679E+02  0.69999952301E+02 0.  0.
         12    1    1    2    0    0  0.18396559522E+02 -0.33438928557E+01  0.10322399050E+01  0.18726466321E+02  0.00000000000E+00 0. -1.
         11    1    3    3    0    0  0.27178999772E+01 -0.93839556344E+01 -0.29486776900E+00  0.97740754497E+01  0.51100000000E-03 0. -1.
        -11    1    3    3    0    0 -0.32470102720E+02  0.22228823656E+02  0.14029476267E+02  0.41776241769E+02  0.51100000000E-03 0.  1.
         12    1    3    3    0    0  0.11355643221E+02 -0.95009751657E+01 -0.14766848403E+02  0.20911216460E+02  0.00000000000E+00 0. -1.
</event>
<event>
 7    1  0.2876796E-013  0.7246154E+02  0.7816164E-02  0.1226708E+00
        -11   -1    0    0    0    0  0.00000000000E+00  0.00000000000E+00  0.45593999997E+02  0.45594000000E+02  0.51100000000E-03 0.  1.
         11   -1    0    0    0    0 -0.00000000000E+00 -0.00000000000E+00 -0.45593999997E+02  0.45594000000E+02  0.51100000000E-03 0. -1.
    9900012    2    1    2    0    0 -0.33055510100E+01  0.16672750766E+02  0.78595803475E+01  0.72461540409E+02  0.69999961069E+02 0.  0.
         12    1    1    2    0    0  0.33055510100E+01 -0.16672750766E+02 -0.78595803475E+01  0.18726459591E+02  0.00000000000E+00 0. -1.
         11    1    3    3    0    0  0.36750010077E+01  0.33648436769E+02  0.62363197173E+01  0.34418230827E+02  0.51100000000E-03 0. -1.
        -11    1    3    3    0    0 -0.45964565583E+01  0.87032559023E+01 -0.55176517575E+01  0.11283552516E+02  0.51100000000E-03 0.  1.
        -12    1    3    3    0    0 -0.23840954595E+01 -0.25678941905E+02  0.71409123878E+01  0.26759757066E+02  0.00000000000E+00 0.  1.
</event>
<event>
 7    1  0.2876796E-013  0.7246151E+02  0.7816164E-02  0.1226708E+00
        -11   -1    0    0    0    0  0.00000000000E+00  0.00000000000E+00  0.45593999997E+02  0.45594000000E+02  0.51100000000E-03 0.  1.
         11   -1    0    0    0    0 -0.00000000000E+00 -0.00000000000E+00 -0.45593999997E+02  0.45594000000E+02  0.51100000000E-03 0. -1.
    9900012    2    1    2    0    0  0.16449502635E+02  0.82160484954E+01 -0.35484851511E+01  0.72461512430E+02  0.69999924621E+02 0.  0.
         12    1    1    2    0    0 -0.16449502635E+02 -0.82160484954E+01  0.35484851511E+01  0.18726487570E+02  0.00000000000E+00 0. -1.
         11    1    3    3    0    0 -0.16167740211E+02 -0.10844935790E+02  0.52990026006E+01  0.20176419025E+02  0.51100000000E-03 0. -1.
        -11    1    3    3    0    0  0.78890017691E+01 -0.51968136664E+01 -0.14380656977E+02  0.17206002341E+02  0.51100000000E-03 0.  1.
        -12    1    3    3    0    0  0.24728241077E+02  0.24257797952E+02  0.55331692251E+01  0.35079091065E+02  0.00000000000E+00 0.  1.
</event>
<event>
 7    1  0.2876796E-013  0.7246158E+02  0.7816164E-02  0.1226708E+00
        -11   -1    0    0    0    0  0.00000000000E+00  0.00000000000E+00  0.45593999997E+02  0.45594000000E+02  0.51100000000E-03 0. -1.
         11   -1    0    0    0    0 -0.00000000000E+00 -0.00000000000E+00 -0.45593999997E+02  0.45594000000E+02  0.51100000000E-03 0.  1.
    9900012    2    1    2    0    0 -0.95647136202E+00  0.16060272938E+02  0.95828842113E+01  0.72461578181E+02  0.70000010274E+02 0.  0.
         12    1    1    2    0    0  0.95647136202E+00 -0.16060272938E+02 -0.95828842113E+01  0.18726421819E+02  0.00000000000E+00 0. -1.
         11    1    3    3    0    0 -0.12326222258E+02  0.32122504595E+02  0.37964487112E+01  0.34615084569E+02  0.51100000000E-03 0. -1.
        -11    1    3    3    0    0 -0.90868156550E+01  0.28108713611E+01  0.23892645483E+01  0.98071301561E+01  0.51100000000E-03 0.  1.
        -12    1    3    3    0    0  0.20456566551E+02 -0.18873103018E+02  0.33971709518E+01  0.28039363457E+02  0.00000000000E+00 0.  1.
</event>
<event>
 7    1  0.2876796E-013  0.7246173E+02  0.7816164E-02  0.1226708E+00
        -11   -1    0    0    0    0  0.00000000000E+00  0.00000000000E+00  0.45593999997E+02  0.45594000000E+02  0.51100000000E-03 0. -1.
         11   -1    0    0    0    0 -0.00000000000E+00 -0.00000000000E+00 -0.45593999997E+02  0.45594000000E+02  0.51100000000E-03 0.  1.
    9900012    2    1    2    0    0  0.12261151559E+02  0.13463733726E+02 -0.43663533746E+01  0.72461734884E+02  0.70000214409E+02 0.  0.
         12    1    1    2    0    0 -0.12261151559E+02 -0.13463733726E+02  0.43663533746E+01  0.18726265116E+02  0.00000000000E+00 0. -1.
         11    1    3    3    0    0 -0.75056109402E+01  0.46862719246E+01  0.18672830935E+02  0.20663251330E+02  0.51100000000E-03 0. -1.
        -11    1    3    3    0    0 -0.12542411757E+02  0.53613977341E+01 -0.93827676295E+01  0.16555754498E+02  0.51100000000E-03 0.  1.
         12    1    3    3    0    0  0.32309174256E+02  0.34160640672E+01 -0.13656416680E+02  0.35242729057E+02  0.00000000000E+00 0. -1.
</event>
<event>
 7    1  0.2876796E-013  0.7246157E+02  0.7816164E-02  0.1226708E+00
        -11   -1    0    0    0    0  0.00000000000E+00  0.00000000000E+00  0.45593999997E+02  0.45594000000E+02  0.51100000000E-03 0.  1.
         11   -1    0    0    0    0 -0.00000000000E+00 -0.00000000000E+00 -0.45593999997E+02  0.45594000000E+02  0.51100000000E-03 0. -1.
    9900012    2    1    2    0    0 -0.21758721085E+01  0.26667138500E+01  0.18407432202E+02  0.72461565677E+02  0.69999993985E+02 0.  0.
         12    1    1    2    0    0  0.21758721085E+01 -0.26667138500E+01 -0.18407432202E+02  0.18726434323E+02  0.00000000000E+00 0. -1.
         11    1    3    3    0    0  0.77197418161E+01  0.17155316622E+02  0.35477139520E+02  0.40156278847E+02  0.51100000000E-03 0. -1.
        -11    1    3    3    0    0 -0.54016595581E+01  0.16236074070E+01  0.28288831949E+01  0.63100402047E+01  0.51100000000E-03 0.  1.
        -12    1    3    3    0    0 -0.44939543666E+01 -0.16112210179E+02 -0.19898590513E+02  0.25995246625E+02  0.00000000000E+00 0.  1.
</event>
<event>
 7    1  0.2876796E-013  0.7246157E+02  0.7816164E-02  0.1226708E+00
        -11   -1    0    0    0    0  0.00000000000E+00  0.00000000000E+00  0.45593999997E+02  0.45594000000E+02  0.51100000000E-03 0.  1.
         11   -1    0    0    0    0 -0.00000000000E+00 -0.00000000000E+00 -0.45593999997E+02  0.45594000000E+02  0.51100000000E-03 0. -1.
    9900012    2    1    2    0    0  0.17200846431E+02 -0.67571414229E+01  0.30250959471E+01  0.72461567248E+02  0.69999996031E+02 0.  0.
         12    1    1    2    0    0 -0.17200846431E+02  0.67571414229E+01 -0.30250959471E+01  0.18726432752E+02  0.00000000000E+00 0. -1.
         11    1    3    3    0    0  0.12892337871E+02 -0.16864927701E+02  0.80067171281E+00  0.21243333957E+02  0.51100000000E-03 0.  1.
        -11    1    3    3    0    0 -0.24759777843E+01  0.44177749552E+01 -0.23485968009E+02  0.24025775640E+02  0.51100000000E-03 0. -1.
        -12    1    3    3    0    0  0.67844863441E+01  0.56900113232E+01  0.25710392243E+02  0.27192457651E+02  0.00000000000E+00 0.  1.
</event>
<event>
 7    1  0.2876796E-013  0.7246155E+02  0.7816164E-02  0.1226708E+00
        -11   -1    0    0    0    0  0.00000000000E+00  0.00000000000E+00  0.45593999997E+02  0.45594000000E+02  0.51100000000E-03 0.  1.
         11   -1    0    0    0    0 -0.00000000000E+00 -0.00000000000E+00 -0.45593999997E+02  0.45594000000E+02  0.51100000000E-03 0. -1.
    9900012    2    1    2    0    0 -0.17228719788E+02 -0.79583640320E+00 -0.72950448263E+01  0.72461552923E+02  0.69999977370E+02 0.  0.
         12    1    1    2    0    0  0.17228719788E+02  0.79583640320E+00  0.72950448263E+01  0.18726447077E+02  0.00000000000E+00 0. -1.
         11    1    3    3    0    0 -0.18375922538E+01  0.15200996874E+02 -0.42176523112E+00  0.15317471639E+02  0.51100000000E-03 0. -1.
        -11    1    3    3    0    0  0.15146746783E+02  0.40333005431E+00  0.10437257711E+02  0.18398993506E+02  0.51100000000E-03 0.  1.
         12    1    3    3    0    0 -0.30537874317E+02 -0.16400163331E+02 -0.17310537306E+02  0.38745087778E+02  0.00000000000E+00 0. -1.
</event>
<event>
 7    1  0.2876796E-013  0.7246158E+02  0.7816164E-02  0.1226708E+00
        -11   -1    0    0    0    0  0.00000000000E+00  0.00000000000E+00  0.45593999997E+02  0.45594000000E+02  0.51100000000E-03 0.  1.
         11   -1    0    0    0    0 -0.00000000000E+00 -0.00000000000E+00 -0.45593999997E+02  0.45594000000E+02  0.51100000000E-03 0. -1.
    9900012    2    1    2    0    0  0.43982475598E+01  0.17145836273E+02 -0.61118278058E+01  0.72461582238E+02  0.70000015558E+02 0.  0.
         12    1    1    2    0    0 -0.43982475598E+01 -0.17145836273E+02  0.61118278058E+01  0.18726417762E+02  0.00000000000E+00 0. -1.
         11    1    3    3    0    0 -0.27833330917E+02  0.11692601610E+02  0.68000408172E+01  0.30945949617E+02  0.51100000000E-03 0. -1.
        -11    1    3    3    0    0 -0.88146361547E+00 -0.41622434021E+01 -0.41401595430E+01  0.59365115638E+01  0.51100000000E-03 0.  1.
        -12    1    3    3    0    0  0.33113042092E+02  0.96154780651E+01 -0.87717090800E+01  0.35579121057E+02  0.00000000000E+00 0.  1.
</event>
<event>
 7    1  0.2876796E-013  0.7246159E+02  0.7816164E-02  0.1226708E+00
        -11   -1    0    0    0    0  0.00000000000E+00  0.00000000000E+00  0.45593999997E+02  0.45594000000E+02  0.51100000000E-03 0.  1.
         11   -1    0    0    0    0 -0.00000000000E+00 -0.00000000000E+00 -0.45593999997E+02  0.45594000000E+02  0.51100000000E-03 0. -1.
    9900012    2    1    2    0    0 -0.17892809220E+02 -0.39734557102E+01 -0.38389610624E+01  0.72461585658E+02  0.70000020014E+02 0.  0.
         12    1    1    2    0    0  0.17892809220E+02  0.39734557102E+01  0.38389610624E+01  0.18726414342E+02  0.00000000000E+00 0. -1.
         11    1    3    3    0    0  0.11504360726E+02  0.15481406938E+02  0.12881389006E+02  0.23193845293E+02  0.51100000000E-03 0. -1.
        -11    1    3    3    0    0 -0.17981597644E+02 -0.18335913392E+02  0.36008778019E+01  0.25932795741E+02  0.51100000000E-03 0.  1.
        -12    1    3    3    0    0 -0.11415572303E+02 -0.11189492559E+01 -0.20321227871E+02  0.23334944624E+02  0.00000000000E+00 0.  1.
</event>
<event>
 7    1  0.2876796E-013  0.7246159E+02  0.7816164E-02  0.1226708E+00
        -11   -1    0    0    0    0  0.00000000000E+00  0.00000000000E+00  0.45593999997E+02  0.45594000000E+02  0.51100000000E-03 0. -1.
         11   -1    0    0    0    0 -0.00000000000E+00 -0.00000000000E+00 -0.45593999997E+02  0.45594000000E+02  0.51100000000E-03 0.  1.
    9900012    2    1    2    0    0  0.89804136591E+01  0.16373201643E+02 -0.13959678307E+01  0.72461593838E+02  0.70000030670E+02 0.  0.
         12    1    1    2    0    0 -0.89804136591E+01 -0.16373201643E+02  0.13959678307E+01  0.18726406162E+02  0.00000000000E+00 0. -1.
         11    1    3    3    0    0 -0.10666454522E+02  0.68207198790E+01  0.21478937301E+02  0.24932713843E+02  0.51100000000E-03 0. -1.
        -11    1    3    3    0    0  0.43910246696E+01 -0.11533357693E+02  0.77127828745E+00  0.12365043784E+02  0.51100000000E-03 0.  1.
         12    1    3    3    0    0  0.15255843511E+02  0.21085839457E+02 -0.23646183419E+02  0.35163836212E+02  0.00000000000E+00 0. -1.
</event>
<event>
 7    1  0.2876796E-013  0.7246162E+02  0.7816164E-02  0.1226708E+00
        -11   -1    0    0    0    0  0.00000000000E+00  0.00000000000E+00  0.45593999997E+02  0.45594000000E+02  0.51100000000E-03 0. -1.
         11   -1    0    0    0    0 -0.00000000000E+00 -0.00000000000E+00 -0.45593999997E+02  0.45594000000E+02  0.51100000000E-03 0.  1.
    9900012    2    1    2    0    0  0.73992977998E+01 -0.11331077623E+02 -0.12943507133E+02  0.72461620079E+02  0.70000064854E+02 0.  0.
         12    1    1    2    0    0 -0.73992977998E+01  0.11331077623E+02  0.12943507133E+02  0.18726379921E+02  0.00000000000E+00 0. -1.
         11    1    3    3    0    0 -0.17640349603E+01 -0.11629249949E+02  0.17939254669E+02  0.21451529830E+02  0.51100000000E-03 0. -1.
        -11    1    3    3    0    0  0.15802295425E+02 -0.97130217234E+01 -0.74179659885E+00  0.18563555536E+02  0.51100000000E-03 0.  1.
         12    1    3    3    0    0 -0.66389626647E+01  0.10011194049E+02 -0.30140965202E+02  0.32446534713E+02  0.00000000000E+00 0. -1.
</event>
<event>
 7    1  0.2876796E-013  0.7246156E+02  0.7816164E-02  0.1226708E+00
        -11   -1    0    0    0    0  0.00000000000E+00  0.00000000000E+00  0.45593999997E+02  0.45594000000E+02  0.51100000000E-03 0. -1.
         11   -1    0    0    0    0 -0.00000000000E+00 -0.00000000000E+00 -0.45593999997E+02  0.45594000000E+02  0.51100000000E-03 0.  1.
    9900012    2    1    2    0    0  0.12866491998E+02 -0.11741611667E+02 -0.68751439496E+01  0.72461557060E+02  0.69999982760E+02 0.  0.
         12    1    1    2    0    0 -0.12866491998E+02  0.11741611667E+02  0.68751439496E+01  0.18726442940E+02  0.00000000000E+00 0. -1.
         11    1    3    3    0    0  0.22525655472E+02 -0.20614904558E+02  0.15337916841E+02  0.34170618046E+02  0.51100000000E-03 0. -1.
        -11    1    3    3    0    0  0.62783835137E+01  0.43888373319E+01  0.29172307386E+01  0.81969645671E+01  0.51100000000E-03 0.  1.
        -12    1    3    3    0    0 -0.15937546987E+02  0.44844555595E+01 -0.25130291529E+02  0.30093974447E+02  0.00000000000E+00 0.  1.
</event>
<event>
 7    1  0.2876796E-013  0.7246158E+02  0.7816164E-02  0.1226708E+00
        -11   -1    0    0    0    0  0.00000000000E+00  0.00000000000E+00  0.45593999997E+02  0.45594000000E+02  0.51100000000E-03 0.  1.
         11   -1    0    0    0    0 -0.00000000000E+00 -0.00000000000E+00 -0.45593999997E+02  0.45594000000E+02  0.51100000000E-03 0. -1.
    9900012    2    1    2    0    0 -0.99023759936E+01 -0.94014513555E+01  0.12815406641E+02  0.72461575214E+02  0.70000006408E+02 0.  0.
         12    1    1    2    0    0  0.99023759936E+01  0.94014513555E+01 -0.12815406641E+02  0.18726424786E+02  0.00000000000E+00 0. -1.
         11    1    3    3    0    0 -0.12677703559E+01  0.16963085618E+01 -0.11561492527E+02  0.11753842526E+02  0.51100000000E-03 0. -1.
        -11    1    3    3    0    0  0.10466072576E+02 -0.22461091287E+02 -0.35322066951E+01  0.25030297269E+02  0.51100000000E-03 0.  1.
        -12    1    3    3    0    0 -0.19100678214E+02  0.11363331369E+02  0.27909105863E+02  0.35677435419E+02  0.00000000000E+00 0.  1.
</event>
<event>
 7    1  0.2876796E-013  0.7246157E+02  0.7816164E-02  0.1226708E+00
        -11   -1    0    0    0    0  0.00000000000E+00  0.00000000000E+00  0.45593999997E+02  0.45594000000E+02  0.51100000000E-03 0.  1.
         11   -1    0    0    0    0 -0.00000000000E+00 -0.00000000000E+00 -0.45593999997E+02  0.45594000000E+02  0.51100000000E-03 0. -1.
    9900012    2    1    2    0    0 -0.37797905292E+01 -0.99837953199E+00  0.18313807757E+02  0.72461571278E+02  0.70000001281E+02 0.  0.
         12    1    1    2    0    0  0.37797905292E+01  0.99837953199E+00 -0.18313807757E+02  0.18726428722E+02  0.00000000000E+00 0. -1.
         11    1    3    3    0    0 -0.33864981584E+00 -0.23775024583E+01  0.21297860093E+01  0.32098583058E+01  0.51100000000E-03 0. -1.
        -11    1    3    3    0    0 -0.33854834193E+01  0.63584534320E+01  0.42176136681E+02  0.42786889740E+02  0.51100000000E-03 0.  1.
         12    1    3    3    0    0 -0.55657294110E-01 -0.49793305057E+01 -0.25992114933E+02  0.26464823232E+02  0.00000000000E+00 0. -1.
</event>
<event>
 7    1  0.2876796E-013  0.7246149E+02  0.7816164E-02  0.1226708E+00
        -11   -1    0    0    0    0  0.00000000000E+00  0.00000000000E+00  0.45593999997E+02  0.45594000000E+02  0.51100000000E-03 0.  1.
         11   -1    0    0    0    0 -0.00000000000E+00 -0.00000000000E+00 -0.45593999997E+02  0.45594000000E+02  0.51100000000E-03 0. -1.
    9900012    2    1    2    0    0 -0.12027299690E+02  0.11107719685E+02  0.90909171562E+01  0.72461490737E+02  0.69999896362E+02 0.  0.
         12    1    1    2    0    0  0.12027299690E+02 -0.11107719685E+02 -0.90909171562E+01  0.18726509263E+02  0.00000000000E+00 0. -1.
         11    1    3    3    0    0  0.68435761837E+01 -0.95026230308E+01 -0.20653427922E+02  0.23742334861E+02  0.51100000000E-03 0. -1.
        -11    1    3    3    0    0 -0.35469049374E+01  0.18587602424E+02  0.50483049225E+01  0.19584812517E+02  0.51100000000E-03 0.  1.
        -12    1    3    3    0    0 -0.15323970936E+02  0.20227402924E+01  0.24696040156E+02  0.29134343359E+02  0.00000000000E+00 0.  1.
</event>
<event>
 7    1  0.2876796E-013  0.7246168E+02  0.7816164E-02  0.1226708E+00
        -11   -1    0    0    0    0  0.00000000000E+00  0.00000000000E+00  0.45593999997E+02  0.45594000000E+02  0.51100000000E-03 0.  1.
         11   -1    0    0    0    0 -0.00000000000E+00 -0.00000000000E+00 -0.45593999997E+02  0.45594000000E+02  0.51100000000E-03 0. -1.
    9900012    2    1    2    0    0  0.13486015017E+02 -0.10888928300E+02  0.70875862011E+01  0.72461675248E+02  0.70000136721E+02 0.  0.
         12    1    1    2    0    0 -0.13486015017E+02  0.10888928300E+02 -0.70875862011E+01  0.18726324752E+02  0.00000000000E+00 0. -1.
         11    1    3    3    0    0  0.29065879609E+02  0.26246045865E+01  0.65865116669E+01  0.29918155740E+02  0.51100000000E-03 0. -1.
        -11    1    3    3    0    0  0.26925877854E+01  0.49408438789E+01 -0.12347242165E+02  0.13568948248E+02  0.51100000000E-03 0.  1.
        -12    1    3    3    0    0 -0.18272452377E+02 -0.18454376766E+02  0.12848316699E+02  0.28974571260E+02  0.00000000000E+00 0.  1.
</event>
<event>
 7    1  0.2876796E-013  0.7246170E+02  0.7816164E-02  0.1226708E+00
        -11   -1    0    0    0    0  0.00000000000E+00  0.00000000000E+00  0.45593999997E+02  0.45594000000E+02  0.51100000000E-03 0.  1.
         11   -1    0    0    0    0 -0.00000000000E+00 -0.00000000000E+00 -0.45593999997E+02  0.45594000000E+02  0.51100000000E-03 0. -1.
    9900012    2    1    2    0    0 -0.49719779209E+01  0.51179882453E+01  0.17313572188E+02  0.72461704316E+02  0.70000174589E+02 0.  0.
         12    1    1    2    0    0  0.49719779209E+01 -0.51179882453E+01 -0.17313572188E+02  0.18726295684E+02  0.00000000000E+00 0. -1.
         11    1    3    3    0    0 -0.13206881841E+02 -0.15004384385E+02 -0.88360502818E+01  0.21854726344E+02  0.51100000000E-03 0. -1.
        -11    1    3    3    0    0  0.10736082488E+02  0.22217196959E+02  0.42767011499E+00  0.24678942641E+02  0.51100000000E-03 0.  1.
        -12    1    3    3    0    0 -0.25011785684E+01 -0.20948243280E+01  0.25721952355E+02  0.25928035331E+02  0.00000000000E+00 0.  1.
</event>
<event>
 7    1  0.2876796E-013  0.7246155E+02  0.7816164E-02  0.1226708E+00
        -11   -1    0    0    0    0  0.00000000000E+00  0.00000000000E+00  0.45593999997E+02  0.45594000000E+02  0.51100000000E-03 0.  1.
         11   -1    0    0    0    0 -0.00000000000E+00 -0.00000000000E+00 -0.45593999997E+02  0.45594000000E+02  0.51100000000E-03 0. -1.
    9900012    2    1    2    0    0  0.22054351214E+01  0.17336700853E+02  0.67271599675E+01  0.72461552879E+02  0.69999977313E+02 0.  0.
         12    1    1    2    0    0 -0.22054351214E+01 -0.17336700853E+02 -0.67271599675E+01  0.18726447121E+02  0.00000000000E+00 0. -1.
         11    1    3    3    0    0  0.13764241478E+02 -0.14729724528E+02 -0.40534903201E+01  0.20563314717E+02  0.51100000000E-03 0. -1.
        -11    1    3    3    0    0 -0.10672734272E+02 -0.48480893920E+01 -0.36137196526E+01  0.12266629430E+02  0.51100000000E-03 0.  1.
        -12    1    3    3    0    0 -0.88607208431E+00  0.36914514773E+02  0.14394369940E+02  0.39631608731E+02  0.00000000000E+00 0.  1.
</event>
<event>
 7    1  0.2876796E-013  0.7246153E+02  0.7816164E-02  0.1226708E+00
        -11   -1    0    0    0    0  0.00000000000E+00  0.00000000000E+00  0.45593999997E+02  0.45594000000E+02  0.51100000000E-03 0. -1.
         11   -1    0    0    0    0 -0.00000000000E+00 -0.00000000000E+00 -0.45593999997E+02  0.45594000000E+02  0.51100000000E-03 0.  1.
    9900012    2    1    2    0    0 -0.14104631483E+02  0.37610773563E+01 -0.11730058520E+02  0.72461531966E+02  0.69999950070E+02 0.  0.
         12    1    1    2    0    0  0.14104631483E+02 -0.37610773563E+01  0.11730058520E+02  0.18726468034E+02  0.00000000000E+00 0. -1.
         11    1    3    3    0    0  0.12823393361E+01 -0.90582957816E+01 -0.20894434712E+02  0.22809526931E+02  0.51100000000E-03 0. -1.
        -11    1    3    3    0    0 -0.20611914227E+02  0.23937967786E+02 -0.37698604640E+01  0.31813348739E+02  0.51100000000E-03 0.  1.
         12    1    3    3    0    0  0.52249434080E+01 -0.11118594648E+02  0.12934236655E+02  0.17838656295E+02  0.00000000000E+00 0. -1.
</event>
<event>
 7    1  0.2876796E-013  0.7246168E+02  0.7816164E-02  0.1226708E+00
        -11   -1    0    0    0    0  0.00000000000E+00  0.00000000000E+00  0.45593999997E+02  0.45594000000E+02  0.51100000000E-03 0.  1.
         11   -1    0    0    0    0 -0.00000000000E+00 -0.00000000000E+00 -0.45593999997E+02  0.45594000000E+02  0.51100000000E-03 0. -1.
    9900012    2    1    2    0    0  0.42414904205E+01 -0.58398093847E+01  0.17279512151E+02  0.72461677488E+02  0.70000139640E+02 0.  0.
         12    1    1    2    0    0 -0.42414904205E+01  0.58398093847E+01 -0.17279512151E+02  0.18726322512E+02  0.00000000000E+00 0. -1.
         11    1    3    3    0    0 -0.29114881038E+01 -0.26141654650E+01 -0.70000408666E+01  0.80194261922E+01  0.51100000000E-03 0. -1.
        -11    1    3    3    0    0 -0.10676147843E+02  0.24439015646E+02  0.12835285863E+02  0.29597131313E+02  0.51100000000E-03 0.  1.
         12    1    3    3    0    0  0.17829126367E+02 -0.27664659566E+02  0.11444267154E+02  0.34845119983E+02  0.00000000000E+00 0. -1.
</event>
<event>
 7    1  0.2876796E-013  0.7246157E+02  0.7816164E-02  0.1226708E+00
        -11   -1    0    0    0    0  0.00000000000E+00  0.00000000000E+00  0.45593999997E+02  0.45594000000E+02  0.51100000000E-03 0.  1.
         11   -1    0    0    0    0 -0.00000000000E+00 -0.00000000000E+00 -0.45593999997E+02  0.45594000000E+02  0.51100000000E-03 0. -1.
    9900012    2    1    2    0    0  0.14870066505E+01 -0.17705438019E+02  0.59148427373E+01  0.72461572449E+02  0.70000002807E+02 0.  0.
         12    1    1    2    0    0 -0.14870066505E+01  0.17705438019E+02 -0.59148427373E+01  0.18726427551E+02  0.00000000000E+00 0. -1.
         11    1    3    3    0    0 -0.12779439990E+02 -0.21033207207E+02  0.84815798418E+01  0.26031655512E+02  0.51100000000E-03 0. -1.
        -11    1    3    3    0    0  0.35051424995E+01 -0.11423507047E+02 -0.18615171339E+02  0.22120288006E+02  0.51100000000E-03 0.  1.
         12    1    3    3    0    0  0.10761304141E+02  0.14751276235E+02  0.16048434235E+02  0.24309628931E+02  0.00000000000E+00 0. -1.
</event>
<event>
 7    1  0.2876796E-013  0.7246137E+02  0.7816164E-02  0.1226709E+00
        -11   -1    0    0    0    0  0.00000000000E+00  0.00000000000E+00  0.45593999997E+02  0.45594000000E+02  0.51100000000E-03 0.  1.
         11   -1    0    0    0    0 -0.00000000000E+00 -0.00000000000E+00 -0.45593999997E+02  0.45594000000E+02  0.51100000000E-03 0. -1.
    9900012    2    1    2    0    0  0.16529956644E+02 -0.44450108658E+01 -0.75953345753E+01  0.72461369348E+02  0.69999738230E+02 0.  0.
         12    1    1    2    0    0 -0.16529956644E+02  0.44450108658E+01  0.75953345753E+01  0.18726630652E+02  0.00000000000E+00 0. -1.
         11    1    3    3    0    0  0.39227155517E+01  0.39073331187E+01  0.91613867811E+01  0.10704483052E+02  0.51100000000E-03 0.  1.
        -11    1    3    3    0    0  0.23344430024E+02  0.70779164062E+01 -0.30070948958E+02  0.38721070302E+02  0.51100000000E-03 0. -1.
         12    1    3    3    0    0 -0.10737188932E+02 -0.15430260391E+02  0.13314227602E+02  0.23035815994E+02  0.00000000000E+00 0. -1.
</event>
<event>
 7    1  0.2876796E-013  0.7246160E+02  0.7816164E-02  0.1226708E+00
        -11   -1    0    0    0    0  0.00000000000E+00  0.00000000000E+00  0.45593999997E+02  0.45594000000E+02  0.51100000000E-03 0.  1.
         11   -1    0    0    0    0 -0.00000000000E+00 -0.00000000000E+00 -0.45593999997E+02  0.45594000000E+02  0.51100000000E-03 0. -1.
    9900012    2    1    2    0    0 -0.17863568537E+02 -0.17070987350E+01  0.53532173048E+01  0.72461596114E+02  0.70000033635E+02 0.  0.
         12    1    1    2    0    0  0.17863568537E+02  0.17070987350E+01 -0.53532173048E+01  0.18726403886E+02  0.00000000000E+00 0. -1.
         11    1    3    3    0    0  0.82211086911E+00  0.92548465502E+01 -0.15659382649E+02  0.18208358415E+02  0.51100000000E-03 0. -1.
        -11    1    3    3    0    0 -0.79107055052E+01  0.11427008712E+02 -0.80151259117E+01  0.16043629058E+02  0.51100000000E-03 0.  1.
        -12    1    3    3    0    0 -0.10774973901E+02 -0.22388953998E+02  0.29027725865E+02  0.38209608642E+02  0.00000000000E+00 0.  1.
</event>
<event>
 7    1  0.2876796E-013  0.7246157E+02  0.7816164E-02  0.1226708E+00
        -11   -1    0    0    0    0  0.00000000000E+00  0.00000000000E+00  0.45593999997E+02  0.45594000000E+02  0.51100000000E-03 0. -1.
         11   -1    0    0    0    0 -0.00000000000E+00 -0.00000000000E+00 -0.45593999997E+02  0.45594000000E+02  0.51100000000E-03 0.  1.
    9900012    2    1    2    0    0 -0.16853433188E+02 -0.30389128468E+01 -0.75766661428E+01  0.72461572915E+02  0.70000003414E+02 0.  0.
         12    1    1    2    0    0  0.16853433188E+02  0.30389128468E+01  0.75766661428E+01  0.18726427085E+02  0.00000000000E+00 0. -1.
         11    1    3    3    0    0 -0.29204333071E+02 -0.31757238749E+00  0.58966033392E+00  0.29212011603E+02  0.51100000000E-03 0.  1.
        -11    1    3    3    0    0  0.20698798969E+01  0.16890015154E+02  0.46824518831E+01  0.17648863153E+02  0.51100000000E-03 0. -1.
         12    1    3    3    0    0  0.10281019985E+02 -0.19611355613E+02 -0.12848778360E+02  0.25600698160E+02  0.00000000000E+00 0. -1.
</event>
<event>
 7    1  0.2876796E-013  0.7246156E+02  0.7816164E-02  0.1226708E+00
        -11   -1    0    0    0    0  0.00000000000E+00  0.00000000000E+00  0.45593999997E+02  0.45594000000E+02  0.51100000000E-03 0.  1.
         11   -1    0    0    0    0 -0.00000000000E+00 -0.00000000000E+00 -0.45593999997E+02  0.45594000000E+02  0.51100000000E-03 0. -1.
    9900012    2    1    2    0    0  0.15228462182E+02  0.29232740228E+01  0.10498951192E+02  0.72461559666E+02  0.69999986154E+02 0.  0.
         12    1    1    2    0    0 -0.15228462182E+02 -0.29232740228E+01 -0.10498951192E+02  0.18726440334E+02  0.00000000000E+00 0. -1.
         11    1    3    3    0    0  0.83085898022E+01  0.46455198342E+01  0.60673941511E+01  0.11288347580E+02  0.51100000000E-03 0. -1.
        -11    1    3    3    0    0  0.76788401803E+01  0.18706832940E+02  0.25012785781E+02  0.32164415710E+02  0.51100000000E-03 0.  1.
         12    1    3    3    0    0 -0.75896780008E+00 -0.20429078751E+02 -0.20581228740E+02  0.29008796376E+02  0.00000000000E+00 0. -1.
</event>
<event>
 7    1  0.2876796E-013  0.7246156E+02  0.7816164E-02  0.1226708E+00
        -11   -1    0    0    0    0  0.00000000000E+00  0.00000000000E+00  0.45593999997E+02  0.45594000000E+02  0.51100000000E-03 0.  1.
         11   -1    0    0    0    0 -0.00000000000E+00 -0.00000000000E+00 -0.45593999997E+02  0.45594000000E+02  0.51100000000E-03 0. -1.
    9900012    2    1    2    0    0  0.15074466095E+02  0.10595908794E+02  0.33416548212E+01  0.72461562321E+02  0.69999989613E+02 0.  0.
         12    1    1    2    0    0 -0.15074466095E+02 -0.10595908794E+02 -0.33416548212E+01  0.18726437679E+02  0.00000000000E+00 0. -1.
         11    1    3    3    0    0  0.86670976106E+01 -0.10647184643E+01  0.16310871844E+02  0.18501263389E+02  0.51100000000E-03 0. -1.
        -11    1    3    3    0    0  0.18371697418E+02  0.17997204885E+02  0.97572395992E+01  0.27506769613E+02  0.51100000000E-03 0.  1.
         12    1    3    3    0    0 -0.11964328934E+02 -0.63365776265E+01 -0.22726456622E+02  0.26453529319E+02  0.00000000000E+00 0. -1.
</event>
<event>
 7    1  0.2876796E-013  0.7246157E+02  0.7816164E-02  0.1226708E+00
        -11   -1    0    0    0    0  0.00000000000E+00  0.00000000000E+00  0.45593999997E+02  0.45594000000E+02  0.51100000000E-03 0. -1.
         11   -1    0    0    0    0 -0.00000000000E+00 -0.00000000000E+00 -0.45593999997E+02  0.45594000000E+02  0.51100000000E-03 0.  1.
    9900012    2    1    2    0    0  0.13676357810E+02  0.95472465551E+01 -0.85138971630E+01  0.72461571493E+02  0.70000001561E+02 0.  0.
         12    1    1    2    0    0 -0.13676357810E+02 -0.95472465551E+01  0.85138971630E+01  0.18726428507E+02  0.00000000000E+00 0. -1.
         11    1    3    3    0    0  0.13258803787E+02  0.82299363593E+01 -0.99044708332E+01  0.18483134828E+02  0.51100000000E-03 0. -1.
        -11    1    3    3    0    0  0.62642554096E+01  0.73026613445E+01 -0.24737851733E+02  0.26543004109E+02  0.51100000000E-03 0.  1.
         12    1    3    3    0    0 -0.58467013863E+01 -0.59853511487E+01  0.26128425403E+02  0.27435432555E+02  0.00000000000E+00 0. -1.
</event>
<event>
 7    1  0.2876796E-013  0.7246151E+02  0.7816164E-02  0.1226708E+00
        -11   -1    0    0    0    0  0.00000000000E+00  0.00000000000E+00  0.45593999997E+02  0.45594000000E+02  0.51100000000E-03 0. -1.
         11   -1    0    0    0    0 -0.00000000000E+00 -0.00000000000E+00 -0.45593999997E+02  0.45594000000E+02  0.51100000000E-03 0.  1.
    9900012    2    1    2    0    0 -0.33622348640E+01  0.18277941383E+02 -0.23008346645E+01  0.72461505276E+02  0.69999915301E+02 0.  0.
         12    1    1    2    0    0  0.33622348640E+01 -0.18277941383E+02  0.23008346645E+01  0.18726494724E+02  0.00000000000E+00 0. -1.
         11    1    3    3    0    0  0.14454298663E+02  0.39573712285E+01  0.10526065074E+02  0.18313535516E+02  0.51100000000E-03 0. -1.
        -11    1    3    3    0    0  0.13892786727E+02  0.87857546711E+01 -0.14495271268E+02  0.21916019200E+02  0.51100000000E-03 0.  1.
        -12    1    3    3    0    0 -0.31709320253E+02  0.55348154838E+01  0.16683715293E+01  0.32231950560E+02  0.00000000000E+00 0.  1.
</event>
<event>
 7    1  0.2876796E-013  0.7246156E+02  0.7816164E-02  0.1226708E+00
        -11   -1    0    0    0    0  0.00000000000E+00  0.00000000000E+00  0.45593999997E+02  0.45594000000E+02  0.51100000000E-03 0. -1.
         11   -1    0    0    0    0 -0.00000000000E+00 -0.00000000000E+00 -0.45593999997E+02  0.45594000000E+02  0.51100000000E-03 0.  1.
    9900012    2    1    2    0    0 -0.14023710562E+02 -0.66036750640E+01 -0.10507452555E+02  0.72461560363E+02  0.69999987063E+02 0.  0.
         12    1    1    2    0    0  0.14023710562E+02  0.66036750640E+01  0.10507452555E+02  0.18726439637E+02  0.00000000000E+00 0. -1.
         11    1    3    3    0    0  0.17769581750E+02  0.46950379435E+01 -0.15704583332E+02  0.24175097823E+02  0.51100000000E-03 0. -1.
        -11    1    3    3    0    0 -0.42795353077E+01  0.10674724904E+02 -0.34915678119E+01  0.12018952544E+02  0.51100000000E-03 0.  1.
         12    1    3    3    0    0 -0.27513757004E+02 -0.21973437911E+02  0.86886985893E+01  0.36267509996E+02  0.00000000000E+00 0. -1.
</event>
<event>
 7    1  0.2876796E-013  0.7246163E+02  0.7816164E-02  0.1226708E+00
        -11   -1    0    0    0    0  0.00000000000E+00  0.00000000000E+00  0.45593999997E+02  0.45594000000E+02  0.51100000000E-03 0.  1.
         11   -1    0    0    0    0 -0.00000000000E+00 -0.00000000000E+00 -0.45593999997E+02  0.45594000000E+02  0.51100000000E-03 0. -1.
    9900012    2    1    2    0    0  0.76496423473E+01  0.24544410780E+01  0.16915539572E+02  0.72461633880E+02  0.70000082832E+02 0.  0.
         12    1    1    2    0    0 -0.76496423473E+01 -0.24544410780E+01 -0.16915539572E+02  0.18726366120E+02  0.00000000000E+00 0. -1.
         11    1    3    3    0    0 -0.55310976108E+01 -0.11749170764E+02  0.59880696854E+01  0.14300106057E+02  0.51100000000E-03 0. -1.
        -11    1    3    3    0    0  0.40941271337E+01 -0.20486408063E+02  0.83558609932E+00  0.20908204052E+02  0.51100000000E-03 0.  1.
         12    1    3    3    0    0  0.90866128244E+01  0.34690019905E+02  0.10091883787E+02  0.37253323771E+02  0.00000000000E+00 0. -1.
</event>
<event>
 7    1  0.2876796E-013  0.7246159E+02  0.7816164E-02  0.1226708E+00
        -11   -1    0    0    0    0  0.00000000000E+00  0.00000000000E+00  0.45593999997E+02  0.45594000000E+02  0.51100000000E-03 0. -1.
         11   -1    0    0    0    0 -0.00000000000E+00 -0.00000000000E+00 -0.45593999997E+02  0.45594000000E+02  0.51100000000E-03 0.  1.
    9900012    2    1    2    0    0 -0.12559645246E+02  0.93685408739E+01 -0.10254953737E+02  0.72461592897E+02  0.70000029445E+02 0.  0.
         12    1    1    2    0    0  0.12559645246E+02 -0.93685408739E+01  0.10254953737E+02  0.18726407103E+02  0.00000000000E+00 0. -1.
         11    1    3    3    0    0  0.21623070111E+02  0.20076644302E+01  0.11986072110E+02  0.24804310157E+02  0.51100000000E-03 0. -1.
        -11    1    3    3    0    0  0.34308850251E+01  0.60585133349E-01 -0.16129176477E+00  0.34352085684E+01  0.51100000000E-03 0.  1.
        -12    1    3    3    0    0 -0.37613600382E+02  0.73002913103E+01 -0.22079734082E+02  0.44222074172E+02  0.00000000000E+00 0.  1.
</event>
<event>
 7    1  0.2876796E-013  0.7246157E+02  0.7816164E-02  0.1226708E+00
        -11   -1    0    0    0    0  0.00000000000E+00  0.00000000000E+00  0.45593999997E+02  0.45594000000E+02  0.51100000000E-03 0.  1.
         11   -1    0    0    0    0 -0.00000000000E+00 -0.00000000000E+00 -0.45593999997E+02  0.45594000000E+02  0.51100000000E-03 0. -1.
    9900012    2    1    2    0    0 -0.16781614654E+02 -0.56637097378E+01  0.60810355831E+01  0.72461569690E+02  0.69999999212E+02 0.  0.
         12    1    1    2    0    0  0.16781614654E+02  0.56637097378E+01 -0.60810355831E+01  0.18726430310E+02  0.00000000000E+00 0. -1.
         11    1    3    3    0    0 -0.14721845188E+02  0.17018581099E+02 -0.21473262548E+02  0.31104112800E+02  0.51100000000E-03 0. -1.
        -11    1    3    3    0    0  0.43504729132E+00 -0.30797767872E+01 -0.34160608445E+01  0.46199310773E+01  0.51100000000E-03 0.  1.
        -12    1    3    3    0    0 -0.24948167579E+01 -0.19602514049E+02  0.30970358976E+02  0.36737525812E+02  0.00000000000E+00 0.  1.
</event>
<event>
 7    1  0.2876796E-013  0.7246160E+02  0.7816164E-02  0.1226708E+00
        -11   -1    0    0    0    0  0.00000000000E+00  0.00000000000E+00  0.45593999997E+02  0.45594000000E+02  0.51100000000E-03 0.  1.
         11   -1    0    0    0    0 -0.00000000000E+00 -0.00000000000E+00 -0.45593999997E+02  0.45594000000E+02  0.51100000000E-03 0. -1.
    9900012    2    1    2    0    0  0.12230049549E+02 -0.12101093782E+02  0.73937550562E+01  0.72461596274E+02  0.70000033843E+02 0.  0.
         12    1    1    2    0    0 -0.12230049549E+02  0.12101093782E+02 -0.73937550562E+01  0.18726403726E+02  0.00000000000E+00 0. -1.
         11    1    3    3    0    0 -0.18327673864E+02 -0.13602928717E+02 -0.25542817830E+01  0.22966663986E+02  0.51100000000E-03 0. -1.
        -11    1    3    3    0    0  0.22865409187E+01  0.13550551363E+02 -0.58559172916E+01  0.14937786958E+02  0.51100000000E-03 0.  1.
        -12    1    3    3    0    0  0.28271182494E+02 -0.12048716428E+02  0.15803954131E+02  0.34557145330E+02  0.00000000000E+00 0.  1.
</event>
<event>
 7    1  0.2876796E-013  0.7246157E+02  0.7816164E-02  0.1226708E+00
        -11   -1    0    0    0    0  0.00000000000E+00  0.00000000000E+00  0.45593999997E+02  0.45594000000E+02  0.51100000000E-03 0. -1.
         11   -1    0    0    0    0 -0.00000000000E+00 -0.00000000000E+00 -0.45593999997E+02  0.45594000000E+02  0.51100000000E-03 0.  1.
    9900012    2    1    2    0    0 -0.44742613750E+01  0.27915608158E+01 -0.17968509883E+02  0.72461570174E+02  0.69999999843E+02 0.  0.
         12    1    1    2    0    0  0.44742613750E+01 -0.27915608158E+01  0.17968509883E+02  0.18726429826E+02  0.00000000000E+00 0. -1.
         11    1    3    3    0    0  0.77143092952E+01  0.15917268135E+02 -0.20897224225E+02  0.27378165997E+02  0.51100000000E-03 0. -1.
        -11    1    3    3    0    0 -0.19790424759E+02  0.51483717883E+01 -0.85937408914E+01  0.22181501910E+02  0.51100000000E-03 0.  1.
         12    1    3    3    0    0  0.76018540891E+01 -0.18274079107E+02  0.11522455234E+02  0.22901902267E+02  0.00000000000E+00 0. -1.
</event>
<event>
 7    1  0.2876796E-013  0.7246155E+02  0.7816164E-02  0.1226708E+00
        -11   -1    0    0    0    0  0.00000000000E+00  0.00000000000E+00  0.45593999997E+02  0.45594000000E+02  0.51100000000E-03 0. -1.
         11   -1    0    0    0    0 -0.00000000000E+00 -0.00000000000E+00 -0.45593999997E+02  0.45594000000E+02  0.51100000000E-03 0.  1.
    9900012    2    1    2    0    0  0.99403155541E+01  0.13017012158E+02  0.90789548394E+01  0.72461550795E+02  0.69999974599E+02 0.  0.
         12    1    1    2    0    0 -0.99403155541E+01 -0.13017012158E+02 -0.90789548394E+01  0.18726449205E+02  0.00000000000E+00 0. -1.
         11    1    3    3    0    0  0.18119946071E+02 -0.67982962629E+01  0.24129600519E+02  0.30931972119E+02  0.51100000000E-03 0. -1.
        -11    1    3    3    0    0  0.39330046432E+01  0.10512022964E+02  0.80672215449E+01  0.13822127768E+02  0.51100000000E-03 0.  1.
        -12    1    3    3    0    0 -0.12112635160E+02  0.93032854576E+01 -0.23117867225E+02  0.27707450908E+02  0.00000000000E+00 0.  1.
</event>
<event>
 7    1  0.2876796E-013  0.7246159E+02  0.7816164E-02  0.1226708E+00
        -11   -1    0    0    0    0  0.00000000000E+00  0.00000000000E+00  0.45593999997E+02  0.45594000000E+02  0.51100000000E-03 0.  1.
         11   -1    0    0    0    0 -0.00000000000E+00 -0.00000000000E+00 -0.45593999997E+02  0.45594000000E+02  0.51100000000E-03 0. -1.
    9900012    2    1    2    0    0  0.49963525384E+01 -0.99483460904E+01  0.15058069874E+02  0.72461585582E+02  0.70000019915E+02 0.  0.
         12    1    1    2    0    0 -0.49963525384E+01  0.99483460904E+01 -0.15058069874E+02  0.18726414418E+02  0.00000000000E+00 0. -1.
         11    1    3    3    0    0 -0.11017164383E+02 -0.37507986573E+01 -0.12430386784E+02  0.17028238825E+02  0.51100000000E-03 0. -1.
        -11    1    3    3    0    0  0.97430552720E+01  0.18821467433E+02  0.64649048703E+01  0.22157837386E+02  0.51100000000E-03 0.  1.
         12    1    3    3    0    0  0.62704616497E+01 -0.25019014866E+02  0.21023551787E+02  0.33275509372E+02  0.00000000000E+00 0. -1.
</event>
<event>
 7    1  0.2876796E-013  0.7246157E+02  0.7816164E-02  0.1226708E+00
        -11   -1    0    0    0    0  0.00000000000E+00  0.00000000000E+00  0.45593999997E+02  0.45594000000E+02  0.51100000000E-03 0. -1.
         11   -1    0    0    0    0 -0.00000000000E+00 -0.00000000000E+00 -0.45593999997E+02  0.45594000000E+02  0.51100000000E-03 0.  1.
    9900012    2    1    2    0    0  0.14446390711E+02 -0.11502595064E+02 -0.31098426234E+01  0.72461574315E+02  0.70000005238E+02 0.  0.
         12    1    1    2    0    0 -0.14446390711E+02  0.11502595064E+02  0.31098426234E+01  0.18726425685E+02  0.00000000000E+00 0. -1.
         11    1    3    3    0    0 -0.62585162320E+01 -0.79968033919E+01  0.92235788432E+00  0.10196501078E+02  0.51100000000E-03 0. -1.
        -11    1    3    3    0    0  0.14977024716E+02 -0.19633423352E+02  0.20677067976E+02  0.32207510338E+02  0.51100000000E-03 0.  1.
         12    1    3    3    0    0  0.57278822268E+01  0.16127631680E+02 -0.24709268483E+02  0.30057562898E+02  0.00000000000E+00 0. -1.
</event>
<event>
 7    1  0.2876796E-013  0.7246154E+02  0.7816164E-02  0.1226708E+00
        -11   -1    0    0    0    0  0.00000000000E+00  0.00000000000E+00  0.45593999997E+02  0.45594000000E+02  0.51100000000E-03 0. -1.
         11   -1    0    0    0    0 -0.00000000000E+00 -0.00000000000E+00 -0.45593999997E+02  0.45594000000E+02  0.51100000000E-03 0.  1.
    9900012    2    1    2    0    0 -0.12514806358E+02 -0.12376166478E+02  0.63945642055E+01  0.72461539410E+02  0.69999959767E+02 0.  0.
         12    1    1    2    0    0  0.12514806358E+02  0.12376166478E+02 -0.63945642055E+01  0.18726460590E+02  0.00000000000E+00 0. -1.
         11    1    3    3    0    0  0.12361813410E+02  0.72182747976E+00  0.36510213253E+01  0.12909896307E+02  0.51100000000E-03 0. -1.
        -11    1    3    3    0    0 -0.11735892771E+02  0.10344245041E+00 -0.24142248963E+02  0.26843808685E+02  0.51100000000E-03 0.  1.
         12    1    3    3    0    0 -0.13140726996E+02 -0.13201436408E+02  0.26885791843E+02  0.32707834417E+02  0.00000000000E+00 0. -1.
</event>
<event>
 7    1  0.2876796E-013  0.7246154E+02  0.7816164E-02  0.1226708E+00
        -11   -1    0    0    0    0  0.00000000000E+00  0.00000000000E+00  0.45593999997E+02  0.45594000000E+02  0.51100000000E-03 0.  1.
         11   -1    0    0    0    0 -0.00000000000E+00 -0.00000000000E+00 -0.45593999997E+02  0.45594000000E+02  0.51100000000E-03 0. -1.
    9900012    2    1    2    0    0  0.20181179263E+01 -0.11639559374E+01  0.18580981085E+02  0.72461536066E+02  0.69999955411E+02 0.  0.
         12    1    1    2    0    0 -0.20181179263E+01  0.11639559374E+01 -0.18580981085E+02  0.18726463934E+02  0.00000000000E+00 0. -1.
         11    1    3    3    0    0 -0.46870547999E+01  0.12163541145E+02  0.31063288026E+01  0.13400354278E+02  0.51100000000E-03 0. -1.
        -11    1    3    3    0    0 -0.93470498630E+01 -0.10366600956E+02 -0.17430054963E+02  0.22330261369E+02  0.51100000000E-03 0.  1.
         12    1    3    3    0    0  0.16052222589E+02 -0.29608961259E+01  0.32904707245E+02  0.36730920419E+02  0.00000000000E+00 0. -1.
</event>
<event>
 7    1  0.2876796E-013  0.7246157E+02  0.7816164E-02  0.1226708E+00
        -11   -1    0    0    0    0  0.00000000000E+00  0.00000000000E+00  0.45593999997E+02  0.45594000000E+02  0.51100000000E-03 0. -1.
         11   -1    0    0    0    0 -0.00000000000E+00 -0.00000000000E+00 -0.45593999997E+02  0.45594000000E+02  0.51100000000E-03 0.  1.
    9900012    2    1    2    0    0 -0.70163014737E+01 -0.14802132252E+02 -0.90745617938E+01  0.72461567416E+02  0.69999996251E+02 0.  0.
         12    1    1    2    0    0  0.70163014737E+01  0.14802132252E+02  0.90745617938E+01  0.18726432584E+02  0.00000000000E+00 0. -1.
         11    1    3    3    0    0 -0.36019093011E+01  0.19222924165E+01 -0.16422643614E+01  0.44006807702E+01  0.51100000000E-03 0. -1.
        -11    1    3    3    0    0  0.25127182770E+02 -0.55442036069E+01 -0.22247078614E+02  0.34015379091E+02  0.51100000000E-03 0.  1.
         12    1    3    3    0    0 -0.28541574943E+02 -0.11180221061E+02  0.14814781181E+02  0.34045507555E+02  0.00000000000E+00 0. -1.
</event>
<event>
 7    1  0.2876796E-013  0.7246138E+02  0.7816164E-02  0.1226709E+00
        -11   -1    0    0    0    0  0.00000000000E+00  0.00000000000E+00  0.45593999997E+02  0.45594000000E+02  0.51100000000E-03 0.  1.
         11   -1    0    0    0    0 -0.00000000000E+00 -0.00000000000E+00 -0.45593999997E+02  0.45594000000E+02  0.51100000000E-03 0. -1.
    9900012    2    1    2    0    0  0.16433921784E+02 -0.54194801341E+01  0.71583298488E+01  0.72461381609E+02  0.69999754202E+02 0.  0.
         12    1    1    2    0    0 -0.16433921784E+02  0.54194801341E+01 -0.71583298488E+01  0.18726618391E+02  0.00000000000E+00 0. -1.
         11    1    3    3    0    0  0.37169350760E+01 -0.13712621914E+02  0.34849339671E+01  0.14628614806E+02  0.51100000000E-03 0. -1.
        -11    1    3    3    0    0  0.65175171456E+01 -0.10163410018E+02  0.25724105376E+02  0.28416589004E+02  0.51100000000E-03 0.  1.
        -12    1    3    3    0    0  0.61994695623E+01  0.18456551798E+02 -0.22050709495E+02  0.29416177800E+02  0.00000000000E+00 0.  1.
</event>
<event>
 7    1  0.2876796E-013  0.7246152E+02  0.7816164E-02  0.1226708E+00
        -11   -1    0    0    0    0  0.00000000000E+00  0.00000000000E+00  0.45593999997E+02  0.45594000000E+02  0.51100000000E-03 0. -1.
         11   -1    0    0    0    0 -0.00000000000E+00 -0.00000000000E+00 -0.45593999997E+02  0.45594000000E+02  0.51100000000E-03 0.  1.
    9900012    2    1    2    0    0 -0.77106394759E+01 -0.43670966790E+01 -0.16497137654E+02  0.72461520210E+02  0.69999934756E+02 0.  0.
         12    1    1    2    0    0  0.77106394759E+01  0.43670966790E+01  0.16497137654E+02  0.18726479790E+02  0.00000000000E+00 0. -1.
         11    1    3    3    0    0  0.10832848769E+01  0.81559420625E+01 -0.22882068378E+02  0.24316289819E+02  0.51100000000E-03 0. -1.
        -11    1    3    3    0    0  0.11481461045E+02 -0.17535068480E+02 -0.83746239398E+01  0.22570708910E+02  0.51100000000E-03 0.  1.
         12    1    3    3    0    0 -0.20275385398E+02  0.50120297386E+01  0.14759554664E+02  0.25574521481E+02  0.00000000000E+00 0. -1.
</event>
<event>
 7    1  0.2876796E-013  0.7246159E+02  0.7816164E-02  0.1226708E+00
        -11   -1    0    0    0    0  0.00000000000E+00  0.00000000000E+00  0.45593999997E+02  0.45594000000E+02  0.51100000000E-03 0.  1.
         11   -1    0    0    0    0 -0.00000000000E+00 -0.00000000000E+00 -0.45593999997E+02  0.45594000000E+02  0.51100000000E-03 0. -1.
    9900012    2    1    2    0    0  0.11633102498E+02 -0.14258692911E+02  0.34697420914E+01  0.72461587972E+02  0.70000023029E+02 0.  0.
         12    1    1    2    0    0 -0.11633102498E+02  0.14258692911E+02 -0.34697420914E+01  0.18726412028E+02  0.00000000000E+00 0. -1.
         11    1    3    3    0    0 -0.21492099420E+01 -0.12143254798E+02 -0.16337294967E+02  0.20469121807E+02  0.51100000000E-03 0. -1.
        -11    1    3    3    0    0  0.30138738729E+01 -0.11394875699E+01 -0.15104768928E+02  0.15444607871E+02  0.51100000000E-03 0.  1.
        -12    1    3    3    0    0  0.10768438567E+02 -0.97595054332E+00  0.34911805987E+02  0.36547858294E+02  0.00000000000E+00 0.  1.
</event>
<event>
 7    1  0.2876796E-013  0.7246156E+02  0.7816164E-02  0.1226708E+00
        -11   -1    0    0    0    0  0.00000000000E+00  0.00000000000E+00  0.45593999997E+02  0.45594000000E+02  0.51100000000E-03 0.  1.
         11   -1    0    0    0    0 -0.00000000000E+00 -0.00000000000E+00 -0.45593999997E+02  0.45594000000E+02  0.51100000000E-03 0. -1.
    9900012    2    1    2    0    0 -0.53981579651E+01 -0.87928340759E+01 -0.15627721760E+02  0.72461555385E+02  0.69999980578E+02 0.  0.
         12    1    1    2    0    0  0.53981579651E+01  0.87928340759E+01  0.15627721760E+02  0.18726444615E+02  0.00000000000E+00 0. -1.
         11    1    3    3    0    0 -0.77934848594E+01 -0.56300907306E+01 -0.85111992489E+01  0.12840437719E+02  0.51100000000E-03 0. -1.
        -11    1    3    3    0    0 -0.19190359474E+02 -0.17593267780E+02 -0.17806670127E+02  0.31541567323E+02  0.51100000000E-03 0.  1.
         12    1    3    3    0    0  0.21585686368E+02  0.14430524435E+02  0.10690147615E+02  0.28079550343E+02  0.00000000000E+00 0. -1.
</event>
<event>
 7    1  0.2876796E-013  0.7246156E+02  0.7816164E-02  0.1226708E+00
        -11   -1    0    0    0    0  0.00000000000E+00  0.00000000000E+00  0.45593999997E+02  0.45594000000E+02  0.51100000000E-03 0.  1.
         11   -1    0    0    0    0 -0.00000000000E+00 -0.00000000000E+00 -0.45593999997E+02  0.45594000000E+02  0.51100000000E-03 0. -1.
    9900012    2    1    2    0    0 -0.77032444507E+01 -0.17018246412E+02 -0.13110244464E+01  0.72461562242E+02  0.69999989510E+02 0.  0.
         12    1    1    2    0    0  0.77032444507E+01  0.17018246412E+02  0.13110244464E+01  0.18726437758E+02  0.00000000000E+00 0. -1.
         11    1    3    3    0    0  0.14518346921E+01 -0.30269732254E+02  0.49796769538E+01  0.30710937751E+02  0.51100000000E-03 0. -1.
        -11    1    3    3    0    0 -0.49735318837E+01 -0.11359880054E+02  0.61682337603E+01  0.13850270836E+02  0.51100000000E-03 0.  1.
         12    1    3    3    0    0 -0.41815472591E+01  0.24611365896E+02 -0.12458935161E+02  0.27900353655E+02  0.00000000000E+00 0. -1.
</event>
<event>
 7    1  0.2876796E-013  0.7246151E+02  0.7816164E-02  0.1226708E+00
        -11   -1    0    0    0    0  0.00000000000E+00  0.00000000000E+00  0.45593999997E+02  0.45594000000E+02  0.51100000000E-03 0.  1.
         11   -1    0    0    0    0 -0.00000000000E+00 -0.00000000000E+00 -0.45593999997E+02  0.45594000000E+02  0.51100000000E-03 0. -1.
    9900012    2    1    2    0    0 -0.18314568008E+02  0.18339016217E+01  0.34488887115E+01  0.72461509944E+02  0.69999921383E+02 0.  0.
         12    1    1    2    0    0  0.18314568008E+02 -0.18339016217E+01 -0.34488887115E+01  0.18726490056E+02  0.00000000000E+00 0. -1.
         11    1    3    3    0    0  0.54082222292E+01  0.13569854892E+02 -0.12593552649E+00  0.14608411600E+02  0.51100000000E-03 0. -1.
        -11    1    3    3    0    0 -0.63641162810E+01 -0.18695818124E+02  0.23385612174E+02  0.30609188953E+02  0.51100000000E-03 0.  1.
         12    1    3    3    0    0 -0.17358673956E+02  0.69598648536E+01 -0.19810787936E+02  0.27243909391E+02  0.00000000000E+00 0. -1.
</event>
<event>
 7    1  0.2876796E-013  0.7246155E+02  0.7816164E-02  0.1226708E+00
        -11   -1    0    0    0    0  0.00000000000E+00  0.00000000000E+00  0.45593999997E+02  0.45594000000E+02  0.51100000000E-03 0.  1.
         11   -1    0    0    0    0 -0.00000000000E+00 -0.00000000000E+00 -0.45593999997E+02  0.45594000000E+02  0.51100000000E-03 0. -1.
    9900012    2    1    2    0    0 -0.66546692788E+01  0.60404154495E+01  0.16428893141E+02  0.72461554212E+02  0.69999979049E+02 0.  0.
         12    1    1    2    0    0  0.66546692788E+01 -0.60404154495E+01 -0.16428893141E+02  0.18726445788E+02  0.00000000000E+00 0. -1.
         11    1    3    3    0    0  0.99151966009E+01  0.30362734193E+01 -0.79287980316E+01  0.13053578758E+02  0.51100000000E-03 0. -1.
        -11    1    3    3    0    0  0.10847196312E+02 -0.12388876309E+02  0.22538290329E+02  0.27912729269E+02  0.51100000000E-03 0.  1.
         12    1    3    3    0    0 -0.27417062192E+02  0.15393018339E+02  0.18194008443E+01  0.31495246185E+02  0.00000000000E+00 0. -1.
</event>
<event>
 7    1  0.2876796E-013  0.7246158E+02  0.7816164E-02  0.1226708E+00
        -11   -1    0    0    0    0  0.00000000000E+00  0.00000000000E+00  0.45593999997E+02  0.45594000000E+02  0.51100000000E-03 0.  1.
         11   -1    0    0    0    0 -0.00000000000E+00 -0.00000000000E+00 -0.45593999997E+02  0.45594000000E+02  0.51100000000E-03 0. -1.
    9900012    2    1    2    0    0 -0.28172804968E+01  0.53411453388E+01  0.17726076270E+02  0.72461583289E+02  0.70000016927E+02 0.  0.
         12    1    1    2    0    0  0.28172804968E+01 -0.53411453388E+01 -0.17726076270E+02  0.18726416711E+02  0.00000000000E+00 0. -1.
         11    1    3    3    0    0  0.17048318520E+02  0.74964850470E+01  0.78528672525E+00  0.18640255575E+02  0.51100000000E-03 0. -1.
        -11    1    3    3    0    0  0.23215443004E+01 -0.21308769620E+02  0.41106567753E+01  0.21825460592E+02  0.51100000000E-03 0.  1.
         12    1    3    3    0    0 -0.22187143317E+02  0.19153429912E+02  0.12830132769E+02  0.31995867121E+02  0.00000000000E+00 0. -1.
</event>
<event>
 7    1  0.2876796E-013  0.7246164E+02  0.7816164E-02  0.1226708E+00
        -11   -1    0    0    0    0  0.00000000000E+00  0.00000000000E+00  0.45593999997E+02  0.45594000000E+02  0.51100000000E-03 0.  1.
         11   -1    0    0    0    0 -0.00000000000E+00 -0.00000000000E+00 -0.45593999997E+02  0.45594000000E+02  0.51100000000E-03 0. -1.
    9900012    2    1    2    0    0 -0.16541453507E+02  0.15289099483E+00 -0.87768666275E+01  0.72461642971E+02  0.70000094674E+02 0.  0.
         12    1    1    2    0    0  0.16541453507E+02 -0.15289099483E+00  0.87768666275E+01  0.18726357029E+02  0.00000000000E+00 0. -1.
         11    1    3    3    0    0 -0.18939658891E+02 -0.24325074686E+02  0.45574849494E+01  0.31163931182E+02  0.51100000000E-03 0. -1.
        -11    1    3    3    0    0 -0.11253390511E+02  0.83974742497E+00 -0.95587896847E+00  0.11325090666E+02  0.51100000000E-03 0.  1.
        -12    1    3    3    0    0  0.13651595895E+02  0.23638218256E+02 -0.12378472608E+02  0.29972621122E+02  0.00000000000E+00 0.  1.
</event>
<event>
 7    1  0.2876796E-013  0.7246158E+02  0.7816164E-02  0.1226708E+00
        -11   -1    0    0    0    0  0.00000000000E+00  0.00000000000E+00  0.45593999997E+02  0.45594000000E+02  0.51100000000E-03 0.  1.
         11   -1    0    0    0    0 -0.00000000000E+00 -0.00000000000E+00 -0.45593999997E+02  0.45594000000E+02  0.51100000000E-03 0. -1.
    9900012    2    1    2    0    0 -0.18826566085E+01 -0.10682456965E+02  0.15264971352E+02  0.72461584618E+02  0.70000018659E+02 0.  0.
         12    1    1    2    0    0  0.18826566085E+01  0.10682456965E+02 -0.15264971352E+02  0.18726415382E+02  0.00000000000E+00 0. -1.
         11    1    3    3    0    0  0.26100384946E+01 -0.78973663814E+00  0.40410120111E+01  0.48750141780E+01  0.51100000000E-03 0. -1.
        -11    1    3    3    0    0  0.51072910137E+00 -0.11261572398E+02  0.38348162268E+02  0.39970806930E+02  0.51100000000E-03 0.  1.
         12    1    3    3    0    0 -0.50034242045E+01  0.13688520717E+01 -0.27124202927E+02  0.27615763509E+02  0.00000000000E+00 0. -1.
</event>
<event>
 7    1  0.2876796E-013  0.7246148E+02  0.7816164E-02  0.1226708E+00
        -11   -1    0    0    0    0  0.00000000000E+00  0.00000000000E+00  0.45593999997E+02  0.45594000000E+02  0.51100000000E-03 0. -1.
         11   -1    0    0    0    0 -0.00000000000E+00 -0.00000000000E+00 -0.45593999997E+02  0.45594000000E+02  0.51100000000E-03 0.  1.
    9900012    2    1    2    0    0 -0.11170829045E+02  0.95632477060E+01 -0.11594797713E+02  0.72461482378E+02  0.69999885473E+02 0.  0.
         12    1    1    2    0    0  0.11170829045E+02 -0.95632477060E+01  0.11594797713E+02  0.18726517622E+02  0.00000000000E+00 0. -1.
         11    1    3    3    0    0 -0.24675085918E+02 -0.24662256987E+01 -0.65715603556E+01  0.25653996570E+02  0.51100000000E-03 0. -1.
        -11    1    3    3    0    0 -0.35082582092E+00  0.26498868109E+02 -0.31165244111E+01  0.26683811844E+02  0.51100000000E-03 0.  1.
         12    1    3    3    0    0  0.13855082694E+02 -0.14469394705E+02 -0.19067129463E+01  0.20123673965E+02  0.00000000000E+00 0. -1.
</event>
<event>
 7    1  0.2876796E-013  0.7246154E+02  0.7816164E-02  0.1226708E+00
        -11   -1    0    0    0    0  0.00000000000E+00  0.00000000000E+00  0.45593999997E+02  0.45594000000E+02  0.51100000000E-03 0.  1.
         11   -1    0    0    0    0 -0.00000000000E+00 -0.00000000000E+00 -0.45593999997E+02  0.45594000000E+02  0.51100000000E-03 0. -1.
    9900012    2    1    2    0    0 -0.12830736297E+02  0.13576829274E+02  0.13123490393E+01  0.72461538854E+02  0.69999959043E+02 0.  0.
         12    1    1    2    0    0  0.12830736297E+02 -0.13576829274E+02 -0.13123490393E+01  0.18726461146E+02  0.00000000000E+00 0. -1.
         11    1    3    3    0    0 -0.11867544413E+01  0.21967064004E+02  0.59327989176E+01  0.22785047516E+02  0.51100000000E-03 0. -1.
        -11    1    3    3    0    0 -0.76049057948E+00 -0.16799125874E+02  0.17090033436E+02  0.23976201099E+02  0.51100000000E-03 0.  1.
         12    1    3    3    0    0 -0.10883491276E+02  0.84088911443E+01 -0.21710483314E+02  0.25700290239E+02  0.00000000000E+00 0. -1.
</event>
<event>
 7    1  0.2876796E-013  0.7246157E+02  0.7816164E-02  0.1226708E+00
        -11   -1    0    0    0    0  0.00000000000E+00  0.00000000000E+00  0.45593999997E+02  0.45594000000E+02  0.51100000000E-03 0.  1.
         11   -1    0    0    0    0 -0.00000000000E+00 -0.00000000000E+00 -0.45593999997E+02  0.45594000000E+02  0.51100000000E-03 0. -1.
    9900012    2    1    2    0    0 -0.59824092586E+01  0.14826112791E+02  0.97507067183E+01  0.72461571549E+02  0.70000001634E+02 0.  0.
         12    1    1    2    0    0  0.59824092586E+01 -0.14826112791E+02 -0.97507067183E+01  0.18726428451E+02  0.00000000000E+00 0. -1.
         11    1    3    3    0    0 -0.10457117649E+02 -0.50161971980E+00 -0.39290892092E+01  0.11182158742E+02  0.51100000000E-03 0. -1.
        -11    1    3    3    0    0 -0.86190618944E+00  0.34591506748E+02 -0.36890022510E+01  0.34798332708E+02  0.51100000000E-03 0.  1.
        -12    1    3    3    0    0  0.53366145797E+01 -0.19263774237E+02  0.17368798178E+02  0.26481080099E+02  0.00000000000E+00 0.  1.
</event>
<event>
 7    1  0.2876796E-013  0.7246170E+02  0.7816164E-02  0.1226708E+00
        -11   -1    0    0    0    0  0.00000000000E+00  0.00000000000E+00  0.45593999997E+02  0.45594000000E+02  0.51100000000E-03 0.  1.
         11   -1    0    0    0    0 -0.00000000000E+00 -0.00000000000E+00 -0.45593999997E+02  0.45594000000E+02  0.51100000000E-03 0. -1.
    9900012    2    1    2    0    0 -0.83481205581E+01  0.33239631834E+01  0.16429679285E+02  0.72461702728E+02  0.70000172519E+02 0.  0.
         12    1    1    2    0    0  0.83481205581E+01 -0.33239631834E+01 -0.16429679285E+02  0.18726297272E+02  0.00000000000E+00 0. -1.
         11    1    3    3    0    0  0.35042158648E+01  0.21242434209E+02 -0.84059915293E+01  0.23112361061E+02  0.51100000000E-03 0. -1.
        -11    1    3    3    0    0 -0.25854098539E+01  0.11282991091E+02  0.10058909701E+02  0.15335315344E+02  0.51100000000E-03 0.  1.
        -12    1    3    3    0    0 -0.92669265690E+01 -0.29201462116E+02  0.14776761113E+02  0.34014026324E+02  0.00000000000E+00 0.  1.
</event>
<event>
 7    1  0.2876796E-013  0.7246159E+02  0.7816164E-02  0.1226708E+00
        -11   -1    0    0    0    0  0.00000000000E+00  0.00000000000E+00  0.45593999997E+02  0.45594000000E+02  0.51100000000E-03 0. -1.
         11   -1    0    0    0    0 -0.00000000000E+00 -0.00000000000E+00 -0.45593999997E+02  0.45594000000E+02  0.51100000000E-03 0.  1.
    9900012    2    1    2    0    0  0.14006937911E+02 -0.12703711714E+01 -0.12364079051E+02  0.72461585412E+02  0.70000019694E+02 0.  0.
         12    1    1    2    0    0 -0.14006937911E+02  0.12703711714E+01  0.12364079051E+02  0.18726414588E+02  0.00000000000E+00 0. -1.
         11    1    3    3    0    0  0.24094907932E+02 -0.34236609296E+00  0.43633526564E+01  0.24489194545E+02  0.51100000000E-03 0. -1.
        -11    1    3    3    0    0  0.16154717083E+02  0.12464386703E+01 -0.14154077191E+02  0.21514329987E+02  0.51100000000E-03 0.  1.
         12    1    3    3    0    0 -0.26242687104E+02 -0.21744437487E+01 -0.25733545160E+01  0.26458060880E+02  0.00000000000E+00 0. -1.
</event>
<event>
 7    1  0.2876796E-013  0.7246150E+02  0.7816164E-02  0.1226708E+00
        -11   -1    0    0    0    0  0.00000000000E+00  0.00000000000E+00  0.45593999997E+02  0.45594000000E+02  0.51100000000E-03 0. -1.
         11   -1    0    0    0    0 -0.00000000000E+00 -0.00000000000E+00 -0.45593999997E+02  0.45594000000E+02  0.51100000000E-03 0.  1.
    9900012    2    1    2    0    0  0.69654504715E+01  0.17012477345E+02  0.35692984214E+01  0.72461500677E+02  0.69999909310E+02 0.  0.
         12    1    1    2    0    0 -0.69654504715E+01 -0.17012477345E+02 -0.35692984214E+01  0.18726499323E+02  0.00000000000E+00 0. -1.
         11    1    3    3    0    0 -0.14926819241E+02  0.13874018024E+02 -0.10948183409E+02  0.23133547695E+02  0.51100000000E-03 0. -1.
        -11    1    3    3    0    0  0.14272354311E+02 -0.25666712006E+01 -0.13453916704E+02  0.19781197475E+02  0.51100000000E-03 0.  1.
        -12    1    3    3    0    0  0.76199154014E+01  0.57051305220E+01  0.27971398534E+02  0.29546755506E+02  0.00000000000E+00 0.  1.
</event>
<event>
 7    1  0.2876796E-013  0.7246160E+02  0.7816164E-02  0.1226708E+00
        -11   -1    0    0    0    0  0.00000000000E+00  0.00000000000E+00  0.45593999997E+02  0.45594000000E+02  0.51100000000E-03 0.  1.
         11   -1    0    0    0    0 -0.00000000000E+00 -0.00000000000E+00 -0.45593999997E+02  0.45594000000E+02  0.51100000000E-03 0. -1.
    9900012    2    1    2    0    0 -0.11985954321E+02 -0.14290815237E+02  0.16696120082E+01  0.72461598707E+02  0.70000037012E+02 0.  0.
         12    1    1    2    0    0  0.11985954321E+02  0.14290815237E+02 -0.16696120082E+01  0.18726401293E+02  0.00000000000E+00 0. -1.
         11    1    3    3    0    0 -0.85747095453E+01  0.92393980286E+01 -0.85685515475E+01  0.15241791089E+02  0.51100000000E-03 0. -1.
        -11    1    3    3    0    0  0.80184779279E+01  0.53357972657E+01  0.22003189271E+02  0.24018889631E+02  0.51100000000E-03 0.  1.
         12    1    3    3    0    0 -0.11429722704E+02 -0.28866010532E+02 -0.11765025715E+02  0.33200917987E+02  0.00000000000E+00 0. -1.
</event>
<event>
 7    1  0.2876796E-013  0.7246188E+02  0.7816164E-02  0.1226707E+00
        -11   -1    0    0    0    0  0.00000000000E+00  0.00000000000E+00  0.45593999997E+02  0.45594000000E+02  0.51100000000E-03 0. -1.
         11   -1    0    0    0    0 -0.00000000000E+00 -0.00000000000E+00 -0.45593999997E+02  0.45594000000E+02  0.51100000000E-03 0.  1.
    9900012    2    1    2    0    0 -0.17807603286E+02 -0.54448358681E+01 -0.19775674840E+01  0.72461875319E+02  0.70000397350E+02 0.  0.
         12    1    1    2    0    0  0.17807603286E+02  0.54448358681E+01  0.19775674840E+01  0.18726124681E+02  0.00000000000E+00 0. -1.
         11    1    3    3    0    0 -0.26298003892E+02  0.16248029411E+02  0.11314367362E+02  0.32918055494E+02  0.51100000000E-03 0. -1.
        -11    1    3    3    0    0 -0.76247552814E+01 -0.13767243489E+02  0.21184924845E+01  0.15879606325E+02  0.51100000000E-03 0.  1.
        -12    1    3    3    0    0  0.16115155887E+02 -0.79256217901E+01 -0.15410427331E+02  0.23664213500E+02  0.00000000000E+00 0.  1.
</event>
<event>
 7    1  0.2876796E-013  0.7246151E+02  0.7816164E-02  0.1226708E+00
        -11   -1    0    0    0    0  0.00000000000E+00  0.00000000000E+00  0.45593999997E+02  0.45594000000E+02  0.51100000000E-03 0.  1.
         11   -1    0    0    0    0 -0.00000000000E+00 -0.00000000000E+00 -0.45593999997E+02  0.45594000000E+02  0.51100000000E-03 0. -1.
    9900012    2    1    2    0    0 -0.15058679788E+02  0.25535493378E+01 -0.10834982629E+02  0.72461513417E+02  0.69999925907E+02 0.  0.
         12    1    1    2    0    0  0.15058679788E+02 -0.25535493378E+01  0.10834982629E+02  0.18726486583E+02  0.00000000000E+00 0. -1.
         11    1    3    3    0    0 -0.33923713124E+01  0.23699927505E+02  0.27024547453E+01  0.24093526284E+02  0.51100000000E-03 0. -1.
        -11    1    3    3    0    0 -0.22537648152E+02 -0.73665616354E+01  0.34273946447E+01  0.23957438278E+02  0.51100000000E-03 0.  1.
        -12    1    3    3    0    0  0.10871339676E+02 -0.13779816532E+02 -0.16964832019E+02  0.24410548855E+02  0.00000000000E+00 0.  1.
</event>
<event>
 7    1  0.2876796E-013  0.7246156E+02  0.7816164E-02  0.1226708E+00
        -11   -1    0    0    0    0  0.00000000000E+00  0.00000000000E+00  0.45593999997E+02  0.45594000000E+02  0.51100000000E-03 0. -1.
         11   -1    0    0    0    0 -0.00000000000E+00 -0.00000000000E+00 -0.45593999997E+02  0.45594000000E+02  0.51100000000E-03 0.  1.
    9900012    2    1    2    0    0 -0.10996217173E+02  0.92628148832E+01 -0.11998461296E+02  0.72461558663E+02  0.69999984848E+02 0.  0.
         12    1    1    2    0    0  0.10996217173E+02 -0.92628148832E+01  0.11998461296E+02  0.18726441337E+02  0.00000000000E+00 0. -1.
         11    1    3    3    0    0 -0.12569599794E+02  0.82571371447E+01 -0.14730976112E+02  0.21051765016E+02  0.51100000000E-03 0.  1.
        -11    1    3    3    0    0 -0.20627747299E+02  0.14584209836E+02  0.24811422467E+01  0.25384231370E+02  0.51100000000E-03 0. -1.
         12    1    3    3    0    0  0.22201129920E+02 -0.13578532098E+02  0.25137256913E+00  0.26025562277E+02  0.00000000000E+00 0. -1.
</event>
<event>
 7    1  0.2876796E-013  0.7246158E+02  0.7816164E-02  0.1226708E+00
        -11   -1    0    0    0    0  0.00000000000E+00  0.00000000000E+00  0.45593999997E+02  0.45594000000E+02  0.51100000000E-03 0. -1.
         11   -1    0    0    0    0 -0.00000000000E+00 -0.00000000000E+00 -0.45593999997E+02  0.45594000000E+02  0.51100000000E-03 0.  1.
    9900012    2    1    2    0    0  0.21930396906E+01 -0.10350742477E+02 -0.15450940058E+02  0.72461579050E+02  0.70000011406E+02 0.  0.
         12    1    1    2    0    0 -0.21930396906E+01  0.10350742477E+02  0.15450940058E+02  0.18726420950E+02  0.00000000000E+00 0. -1.
         11    1    3    3    0    0  0.44878021326E+01 -0.27078379694E+02  0.13027075560E+02  0.30382292750E+02  0.51100000000E-03 0. -1.
        -11    1    3    3    0    0  0.21510363837E+01 -0.67485790073E+01 -0.67114173079E+01  0.97577353255E+01  0.51100000000E-03 0.  1.
         12    1    3    3    0    0 -0.44457988257E+01  0.23476216224E+02 -0.21766598311E+02  0.32321550975E+02  0.00000000000E+00 0. -1.
</event>
<event>
 7    1  0.2876796E-013  0.7246157E+02  0.7816164E-02  0.1226708E+00
        -11   -1    0    0    0    0  0.00000000000E+00  0.00000000000E+00  0.45593999997E+02  0.45594000000E+02  0.51100000000E-03 0.  1.
         11   -1    0    0    0    0 -0.00000000000E+00 -0.00000000000E+00 -0.45593999997E+02  0.45594000000E+02  0.51100000000E-03 0. -1.
    9900012    2    1    2    0    0 -0.14323584943E+02 -0.12017083924E+02 -0.10506937038E+01  0.72461565505E+02  0.69999993760E+02 0.  0.
         12    1    1    2    0    0  0.14323584943E+02  0.12017083924E+02  0.10506937038E+01  0.18726434495E+02  0.00000000000E+00 0. -1.
         11    1    3    3    0    0  0.57370019505E+01 -0.28385266871E+01 -0.23545053493E+02  0.24399589533E+02  0.51100000000E-03 0. -1.
        -11    1    3    3    0    0 -0.34611906662E+01 -0.64997265222E+01 -0.94394492028E+01  0.11972029369E+02  0.51100000000E-03 0.  1.
        -12    1    3    3    0    0 -0.16599396227E+02 -0.26788307150E+01  0.31933808992E+02  0.36089946603E+02  0.00000000000E+00 0.  1.
</event>
<event>
 7    1  0.2876796E-013  0.7246155E+02  0.7816164E-02  0.1226708E+00
        -11   -1    0    0    0    0  0.00000000000E+00  0.00000000000E+00  0.45593999997E+02  0.45594000000E+02  0.51100000000E-03 0.  1.
         11   -1    0    0    0    0 -0.00000000000E+00 -0.00000000000E+00 -0.45593999997E+02  0.45594000000E+02  0.51100000000E-03 0. -1.
    9900012    2    1    2    0    0 -0.51512049737E+01 -0.35670267123E+01  0.17647135326E+02  0.72461548723E+02  0.69999971899E+02 0.  0.
         12    1    1    2    0    0  0.51512049737E+01  0.35670267123E+01 -0.17647135326E+02  0.18726451277E+02  0.00000000000E+00 0. -1.
         11    1    3    3    0    0 -0.11890139387E+02 -0.12750275066E+01 -0.13475430571E+02  0.18016335341E+02  0.51100000000E-03 0. -1.
        -11    1    3    3    0    0  0.15133546808E+01 -0.53882564291E+01 -0.10757854460E+02  0.12126622885E+02  0.51100000000E-03 0.  1.
        -12    1    3    3    0    0  0.52255797321E+01  0.30962572234E+01  0.41880420357E+02  0.42318590497E+02  0.00000000000E+00 0.  1.
</event>
<event>
 7    1  0.2876796E-013  0.7246132E+02  0.7816164E-02  0.1226709E+00
        -11   -1    0    0    0    0  0.00000000000E+00  0.00000000000E+00  0.45593999997E+02  0.45594000000E+02  0.51100000000E-03 0.  1.
         11   -1    0    0    0    0 -0.00000000000E+00 -0.00000000000E+00 -0.45593999997E+02  0.45594000000E+02  0.51100000000E-03 0. -1.
    9900012    2    1    2    0    0 -0.50442356013E+01 -0.87065043753E+00  0.18013500001E+02  0.72461320442E+02  0.69999674520E+02 0.  0.
         12    1    1    2    0    0  0.50442356013E+01  0.87065043753E+00 -0.18013500001E+02  0.18726679558E+02  0.00000000000E+00 0. -1.
         11    1    3    3    0    0 -0.10500677717E+02 -0.37539329535E+01 -0.62865946912E+00  0.11169219226E+02  0.51100000000E-03 0. -1.
        -11    1    3    3    0    0  0.64350582999E+01 -0.10721751398E+02  0.36636774869E+02  0.38712003324E+02  0.51100000000E-03 0.  1.
         12    1    3    3    0    0 -0.97861618407E+00  0.13605033914E+02 -0.17994615398E+02  0.22580097891E+02  0.00000000000E+00 0. -1.
</event>
<event>
 7    1  0.2876796E-013  0.7246158E+02  0.7816164E-02  0.1226708E+00
        -11   -1    0    0    0    0  0.00000000000E+00  0.00000000000E+00  0.45593999997E+02  0.45594000000E+02  0.51100000000E-03 0. -1.
         11   -1    0    0    0    0 -0.00000000000E+00 -0.00000000000E+00 -0.45593999997E+02  0.45594000000E+02  0.51100000000E-03 0.  1.
    9900012    2    1    2    0    0  0.36748412244E+01 -0.17719674559E+02 -0.48153386556E+01  0.72461579870E+02  0.70000012474E+02 0.  0.
         12    1    1    2    0    0 -0.36748412244E+01  0.17719674559E+02  0.48153386556E+01  0.18726420130E+02  0.00000000000E+00 0. -1.
         11    1    3    3    0    0  0.76885680112E+01 -0.12893287378E+02 -0.68877861659E+01  0.16516432302E+02  0.51100000000E-03 0. -1.
        -11    1    3    3    0    0  0.20831840740E+02  0.30557414834E+01 -0.14035145368E+02  0.25303921640E+02  0.51100000000E-03 0.  1.
         12    1    3    3    0    0 -0.24845567526E+02 -0.78821286653E+01  0.16107592879E+02  0.30641225928E+02  0.00000000000E+00 0. -1.
</event>
<event>
 7    1  0.2876796E-013  0.7246158E+02  0.7816164E-02  0.1226708E+00
        -11   -1    0    0    0    0  0.00000000000E+00  0.00000000000E+00  0.45593999997E+02  0.45594000000E+02  0.51100000000E-03 0.  1.
         11   -1    0    0    0    0 -0.00000000000E+00 -0.00000000000E+00 -0.45593999997E+02  0.45594000000E+02  0.51100000000E-03 0. -1.
    9900012    2    1    2    0    0 -0.18491748985E+02  0.28750902230E+01  0.68390960899E+00  0.72461583987E+02  0.70000017838E+02 0.  0.
         12    1    1    2    0    0  0.18491748985E+02 -0.28750902230E+01 -0.68390960899E+00  0.18726416013E+02  0.00000000000E+00 0. -1.
         11    1    3    3    0    0  0.65830270332E+01 -0.19727817497E+01  0.55914996316E+01  0.88596264675E+01  0.51100000000E-03 0. -1.
        -11    1    3    3    0    0  0.22499533401E+00 -0.24448657742E+02  0.86600470517E+00  0.24465025091E+02  0.51100000000E-03 0.  1.
         12    1    3    3    0    0 -0.25299771353E+02  0.29296529715E+02 -0.57735947278E+01  0.39136932429E+02  0.00000000000E+00 0. -1.
</event>
<event>
 7    1  0.2876796E-013  0.7246159E+02  0.7816164E-02  0.1226708E+00
        -11   -1    0    0    0    0  0.00000000000E+00  0.00000000000E+00  0.45593999997E+02  0.45594000000E+02  0.51100000000E-03 0.  1.
         11   -1    0    0    0    0 -0.00000000000E+00 -0.00000000000E+00 -0.45593999997E+02  0.45594000000E+02  0.51100000000E-03 0. -1.
    9900012    2    1    2    0    0  0.16523418853E+02  0.67235059824E+01 -0.56964403364E+01  0.72461592555E+02  0.70000028999E+02 0.  0.
         12    1    1    2    0    0 -0.16523418853E+02 -0.67235059824E+01  0.56964403364E+01  0.18726407445E+02  0.00000000000E+00 0. -1.
         11    1    3    3    0    0 -0.12319248303E+02  0.43420348696E+01 -0.16023750694E+02  0.20673116168E+02  0.51100000000E-03 0. -1.
        -11    1    3    3    0    0  0.53036178040E+01  0.14618174236E+02 -0.98937385651E+01  0.18431099882E+02  0.51100000000E-03 0.  1.
        -12    1    3    3    0    0  0.23539049352E+02 -0.12236703123E+02  0.20221048922E+02  0.33357376504E+02  0.00000000000E+00 0.  1.
</event>
<event>
 7    1  0.2876796E-013  0.7246155E+02  0.7816164E-02  0.1226708E+00
        -11   -1    0    0    0    0  0.00000000000E+00  0.00000000000E+00  0.45593999997E+02  0.45594000000E+02  0.51100000000E-03 0. -1.
         11   -1    0    0    0    0 -0.00000000000E+00 -0.00000000000E+00 -0.45593999997E+02  0.45594000000E+02  0.51100000000E-03 0.  1.
    9900012    2    1    2    0    0  0.81545161615E+01 -0.86408669420E+01 -0.14474778452E+02  0.72461550081E+02  0.69999973668E+02 0.  0.
         12    1    1    2    0    0 -0.81545161615E+01  0.86408669420E+01  0.14474778452E+02  0.18726449919E+02  0.00000000000E+00 0. -1.
         11    1    3    3    0    0 -0.15758968984E+02 -0.20994349513E+01  0.14974344897E+02  0.21839957324E+02  0.51100000000E-03 0. -1.
        -11    1    3    3    0    0 -0.35952091240E+01  0.80923570780E+01 -0.19583868562E+01  0.90690159919E+01  0.51100000000E-03 0.  1.
        -12    1    3    3    0    0  0.27508694269E+02 -0.14633789069E+02 -0.27490736493E+02  0.41552576765E+02  0.00000000000E+00 0.  1.
</event>
<event>
 7    1  0.2876796E-013  0.7246161E+02  0.7816164E-02  0.1226708E+00
        -11   -1    0    0    0    0  0.00000000000E+00  0.00000000000E+00  0.45593999997E+02  0.45594000000E+02  0.51100000000E-03 0.  1.
         11   -1    0    0    0    0 -0.00000000000E+00 -0.00000000000E+00 -0.45593999997E+02  0.45594000000E+02  0.51100000000E-03 0. -1.
    9900012    2    1    2    0    0 -0.22105282073E+01  0.14850440104E+02  0.11191763487E+02  0.72461612836E+02  0.70000055419E+02 0.  0.
         12    1    1    2    0    0  0.22105282073E+01 -0.14850440104E+02 -0.11191763487E+02  0.18726387164E+02  0.00000000000E+00 0. -1.
         11    1    3    3    0    0 -0.71428609311E+01  0.24794597111E+00 -0.73465523878E+01  0.10249574222E+02  0.51100000000E-03 0. -1.
        -11    1    3    3    0    0  0.11768599324E+02 -0.48299287801E+01  0.34099622552E+02  0.36395224969E+02  0.51100000000E-03 0.  1.
         12    1    3    3    0    0 -0.68362666000E+01  0.19432422913E+02 -0.15561306677E+02  0.25816813645E+02  0.00000000000E+00 0. -1.
</event>
<event>
 7    1  0.2876796E-013  0.7246157E+02  0.7816164E-02  0.1226708E+00
        -11   -1    0    0    0    0  0.00000000000E+00  0.00000000000E+00  0.45593999997E+02  0.45594000000E+02  0.51100000000E-03 0.  1.
         11   -1    0    0    0    0 -0.00000000000E+00 -0.00000000000E+00 -0.45593999997E+02  0.45594000000E+02  0.51100000000E-03 0. -1.
    9900012    2    1    2    0    0  0.17109089278E+02 -0.67981759658E+01  0.34268303925E+01  0.72461566839E+02  0.69999995499E+02 0.  0.
         12    1    1    2    0    0 -0.17109089278E+02  0.67981759658E+01 -0.34268303925E+01  0.18726433161E+02  0.00000000000E+00 0. -1.
         11    1    3    3    0    0  0.20155158030E+02 -0.16394385165E+01  0.14771402950E+02  0.25042214343E+02  0.51100000000E-03 0.  1.
        -11    1    3    3    0    0 -0.10328782752E+02  0.18242421994E+02 -0.89510707086E+01  0.22794547164E+02  0.51100000000E-03 0. -1.
         12    1    3    3    0    0  0.72827140008E+01 -0.23401159443E+02 -0.23935018490E+01  0.24624805331E+02  0.00000000000E+00 0. -1.
</event>
<event>
 7    1  0.2876796E-013  0.7246193E+02  0.7816164E-02  0.1226707E+00
        -11   -1    0    0    0    0  0.00000000000E+00  0.00000000000E+00  0.45593999997E+02  0.45594000000E+02  0.51100000000E-03 0.  1.
         11   -1    0    0    0    0 -0.00000000000E+00 -0.00000000000E+00 -0.45593999997E+02  0.45594000000E+02  0.51100000000E-03 0. -1.
    9900012    2    1    2    0    0 -0.11342427321E+02 -0.10552297697E+02 -0.10519701811E+02  0.72461928057E+02  0.70000466051E+02 0.  0.
         12    1    1    2    0    0  0.11342427321E+02  0.10552297697E+02  0.10519701811E+02  0.18726071943E+02  0.00000000000E+00 0. -1.
         11    1    3    3    0    0 -0.13549104088E+02 -0.97464946237E+01  0.28457798243E+01  0.16931356771E+02  0.51100000000E-03 0. -1.
        -11    1    3    3    0    0  0.52325428424E+01 -0.26068898211E+02  0.42041715487E+00  0.26592173837E+02  0.51100000000E-03 0.  1.
         12    1    3    3    0    0 -0.30258660753E+01  0.25263095138E+02 -0.13785898790E+02  0.28938397449E+02  0.00000000000E+00 0. -1.
</event>
<event>
 7    1  0.2876796E-013  0.7246158E+02  0.7816164E-02  0.1226708E+00
        -11   -1    0    0    0    0  0.00000000000E+00  0.00000000000E+00  0.45593999997E+02  0.45594000000E+02  0.51100000000E-03 0. -1.
         11   -1    0    0    0    0 -0.00000000000E+00 -0.00000000000E+00 -0.45593999997E+02  0.45594000000E+02  0.51100000000E-03 0.  1.
    9900012    2    1    2    0    0 -0.78759676653E+01  0.16268658718E+02 -0.48968028606E+01  0.72461580124E+02  0.70000012804E+02 0.  0.
         12    1    1    2    0    0  0.78759676653E+01 -0.16268658718E+02  0.48968028606E+01  0.18726419876E+02  0.00000000000E+00 0. -1.
         11    1    3    3    0    0 -0.12771317749E+02  0.14244403062E+02 -0.72397922647E+01  0.20455419036E+02  0.51100000000E-03 0. -1.
        -11    1    3    3    0    0 -0.93206435289E+01  0.79111235459E+00 -0.21934439161E+02  0.23845751741E+02  0.51100000000E-03 0.  1.
         12    1    3    3    0    0  0.14215993613E+02  0.12331433009E+01  0.24277428565E+02  0.28160409346E+02  0.00000000000E+00 0. -1.
</event>
<event>
 7    1  0.2876796E-013  0.7246174E+02  0.7816164E-02  0.1226708E+00
        -11   -1    0    0    0    0  0.00000000000E+00  0.00000000000E+00  0.45593999997E+02  0.45594000000E+02  0.51100000000E-03 0.  1.
         11   -1    0    0    0    0 -0.00000000000E+00 -0.00000000000E+00 -0.45593999997E+02  0.45594000000E+02  0.51100000000E-03 0. -1.
    9900012    2    1    2    0    0  0.63256135097E+01  0.17030430028E+02  0.45413529297E+01  0.72461739838E+02  0.70000220862E+02 0.  0.
         12    1    1    2    0    0 -0.63256135097E+01 -0.17030430028E+02 -0.45413529297E+01  0.18726260162E+02  0.00000000000E+00 0. -1.
         11    1    3    3    0    0 -0.12681043619E+02  0.17574946650E+02 -0.78898740046E+01  0.23063775257E+02  0.51100000000E-03 0. -1.
        -11    1    3    3    0    0 -0.13663063987E+02 -0.45865420322E+01  0.70426368666E+01  0.16041023023E+02  0.51100000000E-03 0.  1.
        -12    1    3    3    0    0  0.32669721116E+02  0.40420254104E+01  0.53885900677E+01  0.33356941558E+02  0.00000000000E+00 0.  1.
</event>
<event>
 7    1  0.2876796E-013  0.7246155E+02  0.7816164E-02  0.1226708E+00
        -11   -1    0    0    0    0  0.00000000000E+00  0.00000000000E+00  0.45593999997E+02  0.45594000000E+02  0.51100000000E-03 0. -1.
         11   -1    0    0    0    0 -0.00000000000E+00 -0.00000000000E+00 -0.45593999997E+02  0.45594000000E+02  0.51100000000E-03 0.  1.
    9900012    2    1    2    0    0  0.78993258208E+01  0.13509425084E+02 -0.10284753404E+02  0.72461546329E+02  0.69999968781E+02 0.  0.
         12    1    1    2    0    0 -0.78993258208E+01 -0.13509425084E+02  0.10284753404E+02  0.18726453671E+02  0.00000000000E+00 0. -1.
         11    1    3    3    0    0 -0.83133236756E+01 -0.44231690351E+01 -0.76230621205E+01  0.12115562356E+02  0.51100000000E-03 0. -1.
        -11    1    3    3    0    0  0.85420917969E+01  0.37297393284E+02 -0.74317091346E+01  0.38978111537E+02  0.51100000000E-03 0.  1.
         12    1    3    3    0    0  0.76705576995E+01 -0.19364799165E+02  0.47700178516E+01  0.21367872436E+02  0.00000000000E+00 0. -1.
</event>
<event>
 7    1  0.2876796E-013  0.7246156E+02  0.7816164E-02  0.1226708E+00
        -11   -1    0    0    0    0  0.00000000000E+00  0.00000000000E+00  0.45593999997E+02  0.45594000000E+02  0.51100000000E-03 0.  1.
         11   -1    0    0    0    0 -0.00000000000E+00 -0.00000000000E+00 -0.45593999997E+02  0.45594000000E+02  0.51100000000E-03 0. -1.
    9900012    2    1    2    0    0 -0.33355652125E+01  0.29530004449E+01  0.18188820181E+02  0.72461564501E+02  0.69999992453E+02 0.  0.
         12    1    1    2    0    0  0.33355652125E+01 -0.29530004449E+01 -0.18188820181E+02  0.18726435499E+02  0.00000000000E+00 0. -1.
         11    1    3    3    0    0  0.41250527139E+01  0.23407799059E+02  0.21141337824E+01  0.23862327602E+02  0.51100000000E-03 0. -1.
        -11    1    3    3    0    0  0.92065452608E+01  0.68268614636E+01 -0.23500855637E+01  0.11699975021E+02  0.51100000000E-03 0.  1.
        -12    1    3    3    0    0 -0.16667163187E+02 -0.27281660077E+02  0.18424771962E+02  0.36899261878E+02  0.00000000000E+00 0.  1.
</event>
<event>
 7    1  0.2876796E-013  0.7246187E+02  0.7816164E-02  0.1226707E+00
        -11   -1    0    0    0    0  0.00000000000E+00  0.00000000000E+00  0.45593999997E+02  0.45594000000E+02  0.51100000000E-03 0.  1.
         11   -1    0    0    0    0 -0.00000000000E+00 -0.00000000000E+00 -0.45593999997E+02  0.45594000000E+02  0.51100000000E-03 0. -1.
    9900012    2    1    2    0    0  0.20817910105E+01 -0.11133193279E+02  0.14912618631E+02  0.72461867435E+02  0.70000387080E+02 0.  0.
         12    1    1    2    0    0 -0.20817910105E+01  0.11133193279E+02 -0.14912618631E+02  0.18726132565E+02  0.00000000000E+00 0. -1.
         11    1    3    3    0    0 -0.46655025259E+01 -0.76019154773E+01  0.12542571389E+02  0.15390650735E+02  0.51100000000E-03 0. -1.
        -11    1    3    3    0    0  0.36405577628E+01  0.47808479148E+01  0.28681211024E+02  0.29303959352E+02  0.51100000000E-03 0.  1.
         12    1    3    3    0    0  0.31067357736E+01 -0.83121257166E+01 -0.26311163782E+02  0.27767257349E+02  0.00000000000E+00 0. -1.
</event>
<event>
 7    1  0.2876796E-013  0.7246157E+02  0.7816164E-02  0.1226708E+00
        -11   -1    0    0    0    0  0.00000000000E+00  0.00000000000E+00  0.45593999997E+02  0.45594000000E+02  0.51100000000E-03 0.  1.
         11   -1    0    0    0    0 -0.00000000000E+00 -0.00000000000E+00 -0.45593999997E+02  0.45594000000E+02  0.51100000000E-03 0. -1.
    9900012    2    1    2    0    0 -0.16123392916E+02 -0.51158789253E+01  0.80338816518E+01  0.72461567593E+02  0.69999996481E+02 0.  0.
         12    1    1    2    0    0  0.16123392916E+02  0.51158789253E+01 -0.80338816518E+01  0.18726432407E+02  0.00000000000E+00 0. -1.
         11    1    3    3    0    0 -0.90019859129E+01  0.64244427199E+01 -0.87579766109E+01  0.14107138945E+02  0.51100000000E-03 0. -1.
        -11    1    3    3    0    0 -0.23992970688E+02 -0.32684798903E+01 -0.95227315056E+01  0.26019762083E+02  0.51100000000E-03 0.  1.
        -12    1    3    3    0    0  0.16871563685E+02 -0.82718417549E+01  0.26314589768E+02  0.32334666565E+02  0.00000000000E+00 0.  1.
</event>
<event>
 7    1  0.2876796E-013  0.7246159E+02  0.7816164E-02  0.1226708E+00
        -11   -1    0    0    0    0  0.00000000000E+00  0.00000000000E+00  0.45593999997E+02  0.45594000000E+02  0.51100000000E-03 0.  1.
         11   -1    0    0    0    0 -0.00000000000E+00 -0.00000000000E+00 -0.45593999997E+02  0.45594000000E+02  0.51100000000E-03 0. -1.
    9900012    2    1    2    0    0  0.15237569719E+02  0.43981315478E+01  0.99574764549E+01  0.72461590055E+02  0.70000025742E+02 0.  0.
         12    1    1    2    0    0 -0.15237569719E+02 -0.43981315478E+01 -0.99574764549E+01  0.18726409945E+02  0.00000000000E+00 0. -1.
         11    1    3    3    0    0 -0.19774502272E+02  0.53648757379E+01 -0.43410587534E+01  0.20944154869E+02  0.51100000000E-03 0. -1.
        -11    1    3    3    0    0  0.11037392621E+02 -0.35967388392E+01 -0.11402462885E+02  0.16271961352E+02  0.51100000000E-03 0.  1.
        -12    1    3    3    0    0  0.23974679371E+02  0.26299946491E+01  0.25700998093E+02  0.35245473834E+02  0.00000000000E+00 0.  1.
</event>
<event>
 7    1  0.2876796E-013  0.7246176E+02  0.7816164E-02  0.1226707E+00
        -11   -1    0    0    0    0  0.00000000000E+00  0.00000000000E+00  0.45593999997E+02  0.45594000000E+02  0.51100000000E-03 0.  1.
         11   -1    0    0    0    0 -0.00000000000E+00 -0.00000000000E+00 -0.45593999997E+02  0.45594000000E+02  0.51100000000E-03 0. -1.
    9900012    2    1    2    0    0 -0.14327752955E+02 -0.62352981662E+01 -0.10320293156E+02  0.72461764426E+02  0.70000252892E+02 0.  0.
         12    1    1    2    0    0  0.14327752955E+02  0.62352981662E+01  0.10320293156E+02  0.18726235574E+02  0.00000000000E+00 0. -1.
         11    1    3    3    0    0 -0.13762858964E+02  0.74750236321E+01 -0.42682068532E+01  0.16232986637E+02  0.51100000000E-03 0. -1.
        -11    1    3    3    0    0  0.17251026086E+02 -0.19392371543E+02  0.13430435492E+02  0.29223938353E+02  0.51100000000E-03 0.  1.
         12    1    3    3    0    0 -0.17815920076E+02  0.56820497449E+01 -0.19482521795E+02  0.27004839436E+02  0.00000000000E+00 0. -1.
</event>
<event>
 7    1  0.2876796E-013  0.7246156E+02  0.7816164E-02  0.1226708E+00
        -11   -1    0    0    0    0  0.00000000000E+00  0.00000000000E+00  0.45593999997E+02  0.45594000000E+02  0.51100000000E-03 0. -1.
         11   -1    0    0    0    0 -0.00000000000E+00 -0.00000000000E+00 -0.45593999997E+02  0.45594000000E+02  0.51100000000E-03 0.  1.
    9900012    2    1    2    0    0 -0.55775202467E+01  0.89793205206E+01 -0.15457773434E+02  0.72461556434E+02  0.69999981944E+02 0.  0.
         12    1    1    2    0    0  0.55775202467E+01 -0.89793205206E+01  0.15457773434E+02  0.18726443566E+02  0.00000000000E+00 0. -1.
         11    1    3    3    0    0  0.20571301106E+02  0.81007617556E+00 -0.26414925919E+02  0.33490042762E+02  0.51100000000E-03 0. -1.
        -11    1    3    3    0    0 -0.34304031707E+01  0.11222449665E+02 -0.30280724115E+01  0.12119416867E+02  0.51100000000E-03 0.  1.
         12    1    3    3    0    0 -0.22718418182E+02 -0.30532053199E+01  0.13985224897E+02  0.26852096805E+02  0.00000000000E+00 0. -1.
</event>
<event>
 7    1  0.2876796E-013  0.7246150E+02  0.7816164E-02  0.1226708E+00
        -11   -1    0    0    0    0  0.00000000000E+00  0.00000000000E+00  0.45593999997E+02  0.45594000000E+02  0.51100000000E-03 0. -1.
         11   -1    0    0    0    0 -0.00000000000E+00 -0.00000000000E+00 -0.45593999997E+02  0.45594000000E+02  0.51100000000E-03 0.  1.
    9900012    2    1    2    0    0 -0.14441932258E+02  0.98375134058E+01 -0.67331671561E+01  0.72461504938E+02  0.69999914861E+02 0.  0.
         12    1    1    2    0    0  0.14441932258E+02 -0.98375134058E+01  0.67331671561E+01  0.18726495062E+02  0.00000000000E+00 0. -1.
         11    1    3    3    0    0 -0.18949515094E+02 -0.13566972922E+02  0.71347701787E+01  0.24373178338E+02  0.51100000000E-03 0. -1.
        -11    1    3    3    0    0  0.11572043413E+02 -0.76973730747E+01 -0.19222953457E+01  0.14030572357E+02  0.51100000000E-03 0.  1.
        -12    1    3    3    0    0 -0.70644605774E+01  0.31101859402E+02 -0.11945641989E+02  0.34057754243E+02  0.00000000000E+00 0.  1.
</event>
<event>
 7    1  0.2876796E-013  0.7246160E+02  0.7816164E-02  0.1226708E+00
        -11   -1    0    0    0    0  0.00000000000E+00  0.00000000000E+00  0.45593999997E+02  0.45594000000E+02  0.51100000000E-03 0.  1.
         11   -1    0    0    0    0 -0.00000000000E+00 -0.00000000000E+00 -0.45593999997E+02  0.45594000000E+02  0.51100000000E-03 0. -1.
    9900012    2    1    2    0    0 -0.13892924258E+02  0.11997029720E+02  0.37061883105E+01  0.72461604236E+02  0.70000044215E+02 0.  0.
         12    1    1    2    0    0  0.13892924258E+02 -0.11997029720E+02 -0.37061883105E+01  0.18726395764E+02  0.00000000000E+00 0. -1.
         11    1    3    3    0    0  0.49262718720E+01 -0.12014484730E+02 -0.17181982584E+02  0.21536864295E+02  0.51100000000E-03 0. -1.
        -11    1    3    3    0    0  0.26598510583E+01 -0.75264360258E+00 -0.72273743131E+01  0.77379725877E+01  0.51100000000E-03 0.  1.
        -12    1    3    3    0    0 -0.21479047188E+02  0.24764158052E+02  0.28115545208E+02  0.43186767353E+02  0.00000000000E+00 0.  1.
</event>
<event>
 7    1  0.2876796E-013  0.7246159E+02  0.7816164E-02  0.1226708E+00
        -11   -1    0    0    0    0  0.00000000000E+00  0.00000000000E+00  0.45593999997E+02  0.45594000000E+02  0.51100000000E-03 0. -1.
         11   -1    0    0    0    0 -0.00000000000E+00 -0.00000000000E+00 -0.45593999997E+02  0.45594000000E+02  0.51100000000E-03 0.  1.
    9900012    2    1    2    0    0 -0.13453979239E+02  0.58209665952E+01 -0.11652698810E+02  0.72461585527E+02  0.70000019843E+02 0.  0.
         12    1    1    2    0    0  0.13453979239E+02 -0.58209665952E+01  0.11652698810E+02  0.18726414473E+02  0.00000000000E+00 0. -1.
         11    1    3    3    0    0 -0.13379510533E+02  0.13482614761E+02 -0.38181834886E+01  0.19374486530E+02  0.51100000000E-03 0. -1.
        -11    1    3    3    0    0 -0.22426233819E+02 -0.15603129498E+00  0.89480265797E+01  0.24145962168E+02  0.51100000000E-03 0.  1.
        -12    1    3    3    0    0  0.22351765113E+02 -0.75056168709E+01 -0.16782541901E+02  0.28941136829E+02  0.00000000000E+00 0.  1.
</event>
<event>
 7    1  0.2876796E-013  0.7246155E+02  0.7816164E-02  0.1226708E+00
        -11   -1    0    0    0    0  0.00000000000E+00  0.00000000000E+00  0.45593999997E+02  0.45594000000E+02  0.51100000000E-03 0.  1.
         11   -1    0    0    0    0 -0.00000000000E+00 -0.00000000000E+00 -0.45593999997E+02  0.45594000000E+02  0.51100000000E-03 0. -1.
    9900012    2    1    2    0    0 -0.13397769233E+02 -0.10393968594E+02  0.79463832017E+01  0.72461553205E+02  0.69999977738E+02 0.  0.
         12    1    1    2    0    0  0.13397769233E+02  0.10393968594E+02 -0.79463832017E+01  0.18726446795E+02  0.00000000000E+00 0. -1.
         11    1    3    3    0    0  0.34148076722E+01 -0.31902595019E+02  0.18124326467E+02  0.36850070428E+02  0.51100000000E-03 0. -1.
        -11    1    3    3    0    0  0.24614433361E+01 -0.23807363663E+01 -0.12324485473E+01  0.36394420762E+01  0.51100000000E-03 0.  1.
        -12    1    3    3    0    0 -0.19274020241E+02  0.23889362791E+02 -0.89454947178E+01  0.31972040701E+02  0.00000000000E+00 0.  1.
</event>
<event>
 7    1  0.2876796E-013  0.7246156E+02  0.7816164E-02  0.1226708E+00
        -11   -1    0    0    0    0  0.00000000000E+00  0.00000000000E+00  0.45593999997E+02  0.45594000000E+02  0.51100000000E-03 0. -1.
         11   -1    0    0    0    0 -0.00000000000E+00 -0.00000000000E+00 -0.45593999997E+02  0.45594000000E+02  0.51100000000E-03 0.  1.
    9900012    2    1    2    0    0 -0.81399666514E+01  0.12327041877E+02 -0.11509321137E+02  0.72461561695E+02  0.69999988798E+02 0.  0.
         12    1    1    2    0    0  0.81399666514E+01 -0.12327041877E+02  0.11509321137E+02  0.18726438305E+02  0.00000000000E+00 0. -1.
         11    1    3    3    0    0 -0.30376824606E+02 -0.39939688749E+01  0.13616083672E+01  0.30668505639E+02  0.51100000000E-03 0.  1.
        -11    1    3    3    0    0  0.78120243770E+01 -0.40748207936E+01  0.58494151334E+01  0.10575800066E+02  0.51100000000E-03 0. -1.
        -12    1    3    3    0    0  0.14424833578E+02  0.20395831546E+02 -0.18720344638E+02  0.31217255990E+02  0.00000000000E+00 0.  1.
</event>
<event>
 7    1  0.2876796E-013  0.7246160E+02  0.7816164E-02  0.1226708E+00
        -11   -1    0    0    0    0  0.00000000000E+00  0.00000000000E+00  0.45593999997E+02  0.45594000000E+02  0.51100000000E-03 0.  1.
         11   -1    0    0    0    0 -0.00000000000E+00 -0.00000000000E+00 -0.45593999997E+02  0.45594000000E+02  0.51100000000E-03 0. -1.
    9900012    2    1    2    0    0  0.56232953781E-01  0.11681304698E+02  0.14636324280E+02  0.72461600719E+02  0.70000039634E+02 0.  0.
         12    1    1    2    0    0 -0.56232953781E-01 -0.11681304698E+02 -0.14636324280E+02  0.18726399281E+02  0.00000000000E+00 0. -1.
         11    1    3    3    0    0 -0.74194493946E+01 -0.34462054729E-01 -0.58616851833E+01  0.94556211008E+01  0.51100000000E-03 0. -1.
        -11    1    3    3    0    0 -0.23968340393E+02  0.13760311786E+01  0.17621678748E+02  0.29780838892E+02  0.51100000000E-03 0.  1.
         12    1    3    3    0    0  0.31444022741E+02  0.10339735574E+02  0.28763307157E+01  0.33225140726E+02  0.00000000000E+00 0. -1.
</event>
<event>
 7    1  0.2876796E-013  0.7246158E+02  0.7816164E-02  0.1226708E+00
        -11   -1    0    0    0    0  0.00000000000E+00  0.00000000000E+00  0.45593999997E+02  0.45594000000E+02  0.51100000000E-03 0.  1.
         11   -1    0    0    0    0 -0.00000000000E+00 -0.00000000000E+00 -0.45593999997E+02  0.45594000000E+02  0.51100000000E-03 0. -1.
    9900012    2    1    2    0    0 -0.54888922775E+01  0.16324911007E+02  0.73517401851E+01  0.72461581721E+02  0.70000014885E+02 0.  0.
         12    1    1    2    0    0  0.54888922775E+01 -0.16324911007E+02 -0.73517401851E+01  0.18726418279E+02  0.00000000000E+00 0. -1.
         11    1    3    3    0    0 -0.16011554422E+02  0.17200740510E+02  0.40270731624E+01  0.23842245440E+02  0.51100000000E-03 0. -1.
        -11    1    3    3    0    0 -0.30477968743E+01  0.17179933193E+02  0.15164735792E+02  0.23117274541E+02  0.51100000000E-03 0.  1.
         12    1    3    3    0    0  0.13570459019E+02 -0.18055762696E+02 -0.11840068769E+02  0.25502061740E+02  0.00000000000E+00 0. -1.
</event>
<event>
 7    1  0.2876796E-013  0.7246157E+02  0.7816164E-02  0.1226708E+00
        -11   -1    0    0    0    0  0.00000000000E+00  0.00000000000E+00  0.45593999997E+02  0.45594000000E+02  0.51100000000E-03 0.  1.
         11   -1    0    0    0    0 -0.00000000000E+00 -0.00000000000E+00 -0.45593999997E+02  0.45594000000E+02  0.51100000000E-03 0. -1.
    9900012    2    1    2    0    0 -0.33962731717E+01 -0.10157211419E+02  0.15361494042E+02  0.72461571764E+02  0.70000001914E+02 0.  0.
         12    1    1    2    0    0  0.33962731717E+01  0.10157211419E+02 -0.15361494042E+02  0.18726428236E+02  0.00000000000E+00 0. -1.
         11    1    3    3    0    0 -0.20657014780E+02  0.79313849180E+01 -0.66460974363E+01  0.23103890100E+02  0.51100000000E-03 0. -1.
        -11    1    3    3    0    0 -0.84759215629E+01 -0.12718024311E+02  0.16509605571E+02  0.22497921351E+02  0.51100000000E-03 0.  1.
         12    1    3    3    0    0  0.25736663171E+02 -0.53705720259E+01  0.54979859072E+01  0.26859760314E+02  0.00000000000E+00 0. -1.
</event>
<event>
 7    1  0.2876796E-013  0.7246155E+02  0.7816164E-02  0.1226708E+00
        -11   -1    0    0    0    0  0.00000000000E+00  0.00000000000E+00  0.45593999997E+02  0.45594000000E+02  0.51100000000E-03 0. -1.
         11   -1    0    0    0    0 -0.00000000000E+00 -0.00000000000E+00 -0.45593999997E+02  0.45594000000E+02  0.51100000000E-03 0.  1.
    9900012    2    1    2    0    0 -0.66133366464E+01  0.17456078971E+02 -0.14929468867E+01  0.72461553326E+02  0.69999977895E+02 0.  0.
         12    1    1    2    0    0  0.66133366464E+01 -0.17456078971E+02  0.14929468867E+01  0.18726446674E+02  0.00000000000E+00 0. -1.
         11    1    3    3    0    0  0.15752349691E+02  0.12669588796E+02  0.25642263698E+01  0.20377199469E+02  0.51100000000E-03 0. -1.
        -11    1    3    3    0    0  0.55317662654E+01 -0.15806623401E+02 -0.47340859187E+01  0.17402912144E+02  0.51100000000E-03 0.  1.
         12    1    3    3    0    0 -0.27897452603E+02  0.20593113576E+02  0.67691266223E+00  0.34681441713E+02  0.00000000000E+00 0. -1.
</event>
<event>
 7    1  0.2876796E-013  0.7246153E+02  0.7816164E-02  0.1226708E+00
        -11   -1    0    0    0    0  0.00000000000E+00  0.00000000000E+00  0.45593999997E+02  0.45594000000E+02  0.51100000000E-03 0. -1.
         11   -1    0    0    0    0 -0.00000000000E+00 -0.00000000000E+00 -0.45593999997E+02  0.45594000000E+02  0.51100000000E-03 0.  1.
    9900012    2    1    2    0    0 -0.10606678761E+01 -0.16868819079E+02 -0.80621807851E+01  0.72461525893E+02  0.69999942160E+02 0.  0.
         12    1    1    2    0    0  0.10606678761E+01  0.16868819079E+02  0.80621807851E+01  0.18726474107E+02  0.00000000000E+00 0. -1.
         11    1    3    3    0    0  0.82351968873E+01 -0.14032934443E+02  0.99111151606E+01  0.19051821982E+02  0.51100000000E-03 0. -1.
        -11    1    3    3    0    0  0.15657633878E+02  0.13157913236E+02 -0.49930326194E+01  0.21052851455E+02  0.51100000000E-03 0.  1.
        -12    1    3    3    0    0 -0.24953498642E+02 -0.15993797872E+02 -0.12980263326E+02  0.32356852456E+02  0.00000000000E+00 0.  1.
</event>
<event>
 7    1  0.2876796E-013  0.7246159E+02  0.7816164E-02  0.1226708E+00
        -11   -1    0    0    0    0  0.00000000000E+00  0.00000000000E+00  0.45593999997E+02  0.45594000000E+02  0.51100000000E-03 0. -1.
         11   -1    0    0    0    0 -0.00000000000E+00 -0.00000000000E+00 -0.45593999997E+02  0.45594000000E+02  0.51100000000E-03 0.  1.
    9900012    2    1    2    0    0 -0.15351810041E+02  0.21317676434E+01 -0.10509796616E+02  0.72461592717E+02  0.70000029209E+02 0.  0.
         12    1    1    2    0    0  0.15351810041E+02 -0.21317676434E+01  0.10509796616E+02  0.18726407283E+02  0.00000000000E+00 0. -1.
         11    1    3    3    0    0 -0.10343291520E+02 -0.14022465234E+01 -0.16069606986E+02  0.19161999993E+02  0.51100000000E-03 0. -1.
        -11    1    3    3    0    0  0.18013117774E+02  0.10591582075E+02 -0.11441291858E+02  0.23823458658E+02  0.51100000000E-03 0.  1.
         12    1    3    3    0    0 -0.23021636296E+02 -0.70575679087E+01  0.17001102228E+02  0.29476134066E+02  0.00000000000E+00 0. -1.
</event>
<event>
 7    1  0.2876796E-013  0.7246161E+02  0.7816164E-02  0.1226708E+00
        -11   -1    0    0    0    0  0.00000000000E+00  0.00000000000E+00  0.45593999997E+02  0.45594000000E+02  0.51100000000E-03 0. -1.
         11   -1    0    0    0    0 -0.00000000000E+00 -0.00000000000E+00 -0.45593999997E+02  0.45594000000E+02  0.51100000000E-03 0.  1.
    9900012    2    1    2    0    0  0.40975548244E+01  0.71789573834E+01 -0.16803287208E+02  0.72461605642E+02  0.70000046046E+02 0.  0.
         12    1    1    2    0    0 -0.40975548244E+01 -0.71789573834E+01  0.16803287208E+02  0.18726394358E+02  0.00000000000E+00 0. -1.
         11    1    3    3    0    0  0.71680187912E+01  0.18725361300E+02  0.81369195594E+01  0.21638602298E+02  0.51100000000E-03 0. -1.
        -11    1    3    3    0    0  0.54032339670E+01 -0.41320330637E+01  0.11125739514E+02  0.13040349479E+02  0.51100000000E-03 0.  1.
        -12    1    3    3    0    0 -0.84736979338E+01 -0.74143708534E+01 -0.36065946282E+02  0.37782653865E+02  0.00000000000E+00 0.  1.
</event>
<event>
 7    1  0.2876796E-013  0.7246155E+02  0.7816164E-02  0.1226708E+00
        -11   -1    0    0    0    0  0.00000000000E+00  0.00000000000E+00  0.45593999997E+02  0.45594000000E+02  0.51100000000E-03 0.  1.
         11   -1    0    0    0    0 -0.00000000000E+00 -0.00000000000E+00 -0.45593999997E+02  0.45594000000E+02  0.51100000000E-03 0. -1.
    9900012    2    1    2    0    0  0.11013016444E+02 -0.37855810844E+01  0.14665021853E+02  0.72461547552E+02  0.69999970374E+02 0.  0.
         12    1    1    2    0    0 -0.11013016444E+02  0.37855810844E+01 -0.14665021853E+02  0.18726452448E+02  0.00000000000E+00 0. -1.
         11    1    3    3    0    0 -0.13059060758E+01 -0.10434310191E+02  0.15603987528E+01  0.10630854358E+02  0.51100000000E-03 0. -1.
        -11    1    3    3    0    0  0.92145779513E+01 -0.22430679792E+02  0.20400741372E+02  0.31689652752E+02  0.51100000000E-03 0.  1.
        -12    1    3    3    0    0  0.31043445684E+01  0.29079408899E+02 -0.72961182717E+01  0.30141040442E+02  0.00000000000E+00 0.  1.
</event>
<event>
 7    1  0.2876796E-013  0.7246162E+02  0.7816164E-02  0.1226708E+00
        -11   -1    0    0    0    0  0.00000000000E+00  0.00000000000E+00  0.45593999997E+02  0.45594000000E+02  0.51100000000E-03 0. -1.
         11   -1    0    0    0    0 -0.00000000000E+00 -0.00000000000E+00 -0.45593999997E+02  0.45594000000E+02  0.51100000000E-03 0.  1.
    9900012    2    1    2    0    0 -0.12860442818E+02  0.13511358058E+02 -0.16521753893E+01  0.72461615683E+02  0.70000059128E+02 0.  0.
         12    1    1    2    0    0  0.12860442818E+02 -0.13511358058E+02  0.16521753893E+01  0.18726384317E+02  0.00000000000E+00 0. -1.
         11    1    3    3    0    0 -0.99655966057E+01  0.14538605037E+02  0.17541552172E+02  0.24867452725E+02  0.51100000000E-03 0. -1.
        -11    1    3    3    0    0 -0.22289293179E+02 -0.56131369537E+01 -0.14308296680E+02  0.27074845356E+02  0.51100000000E-03 0.  1.
         12    1    3    3    0    0  0.19394446967E+02  0.45858899745E+01 -0.48854308814E+01  0.20519317603E+02  0.00000000000E+00 0. -1.
</event>
<event>
 7    1  0.2876796E-013  0.7246158E+02  0.7816164E-02  0.1226708E+00
        -11   -1    0    0    0    0  0.00000000000E+00  0.00000000000E+00  0.45593999997E+02  0.45594000000E+02  0.51100000000E-03 0. -1.
         11   -1    0    0    0    0 -0.00000000000E+00 -0.00000000000E+00 -0.45593999997E+02  0.45594000000E+02  0.51100000000E-03 0.  1.
    9900012    2    1    2    0    0  0.43806709729E+01  0.31402777872E+01 -0.17933965252E+02  0.72461581965E+02  0.70000015204E+02 0.  0.
         12    1    1    2    0    0 -0.43806709729E+01 -0.31402777872E+01  0.17933965252E+02  0.18726418035E+02  0.00000000000E+00 0. -1.
         11    1    3    3    0    0 -0.10932389359E+02 -0.16547997710E+01 -0.22634238818E+02  0.25190559075E+02  0.51100000000E-03 0. -1.
        -11    1    3    3    0    0  0.34220434889E+01  0.23791345400E+02 -0.12978215897E+01  0.24071203516E+02  0.51100000000E-03 0.  1.
         12    1    3    3    0    0  0.11891016843E+02 -0.18996267842E+02  0.59980951557E+01  0.23199819374E+02  0.00000000000E+00 0. -1.
</event>
<event>
 7    1  0.2876796E-013  0.7246178E+02  0.7816164E-02  0.1226707E+00
        -11   -1    0    0    0    0  0.00000000000E+00  0.00000000000E+00  0.45593999997E+02  0.45594000000E+02  0.51100000000E-03 0.  1.
         11   -1    0    0    0    0 -0.00000000000E+00 -0.00000000000E+00 -0.45593999997E+02  0.45594000000E+02  0.51100000000E-03 0. -1.
    9900012    2    1    2    0    0  0.14666204907E+02 -0.10459068870E+02 -0.51168079503E+01  0.72461777434E+02  0.70000269837E+02 0.  0.
         12    1    1    2    0    0 -0.14666204907E+02  0.10459068870E+02  0.51168079503E+01  0.18726222566E+02  0.00000000000E+00 0. -1.
         11    1    3    3    0    0  0.96725978570E+01  0.13806548291E+02 -0.22505088944E+02  0.28118658461E+02  0.51100000000E-03 0. -1.
        -11    1    3    3    0    0 -0.38336068542E+01  0.37783918270E+01 -0.50327575621E+01  0.73689507564E+01  0.51100000000E-03 0.  1.
        -12    1    3    3    0    0  0.88272139038E+01 -0.28044008988E+02  0.22421038555E+02  0.36974168217E+02  0.00000000000E+00 0.  1.
</event>
<event>
 7    1  0.2876796E-013  0.7246157E+02  0.7816164E-02  0.1226708E+00
        -11   -1    0    0    0    0  0.00000000000E+00  0.00000000000E+00  0.45593999997E+02  0.45594000000E+02  0.51100000000E-03 0.  1.
         11   -1    0    0    0    0 -0.00000000000E+00 -0.00000000000E+00 -0.45593999997E+02  0.45594000000E+02  0.51100000000E-03 0. -1.
    9900012    2    1    2    0    0 -0.29695730344E+01  0.44787322726E+01  0.17938830428E+02  0.72461573648E+02  0.70000004369E+02 0.  0.
         12    1    1    2    0    0  0.29695730344E+01 -0.44787322726E+01 -0.17938830428E+02  0.18726426352E+02  0.00000000000E+00 0. -1.
         11    1    3    3    0    0  0.15306784112E+02  0.14322980252E+02 -0.16206696284E+02  0.26497215096E+02  0.51100000000E-03 0. -1.
        -11    1    3    3    0    0 -0.22789367509E+01  0.30956338203E+01 -0.20297149328E+01  0.43469810712E+01  0.51100000000E-03 0.  1.
        -12    1    3    3    0    0 -0.15997420395E+02 -0.12939881799E+02  0.36175241645E+02  0.41617377481E+02  0.00000000000E+00 0.  1.
</event>
<event>
 7    1  0.2876796E-013  0.7246157E+02  0.7816164E-02  0.1226708E+00
        -11   -1    0    0    0    0  0.00000000000E+00  0.00000000000E+00  0.45593999997E+02  0.45594000000E+02  0.51100000000E-03 0. -1.
         11   -1    0    0    0    0 -0.00000000000E+00 -0.00000000000E+00 -0.45593999997E+02  0.45594000000E+02  0.51100000000E-03 0.  1.
    9900012    2    1    2    0    0  0.76256042649E+01 -0.15586496754E+02 -0.70420398767E+01  0.72461573563E+02  0.70000004258E+02 0.  0.
         12    1    1    2    0    0 -0.76256042649E+01  0.15586496754E+02  0.70420398767E+01  0.18726426437E+02  0.00000000000E+00 0. -1.
         11    1    3    3    0    0 -0.65564658632E+01 -0.12370876101E+01 -0.69593628127E+00  0.67083498670E+01  0.51100000000E-03 0. -1.
        -11    1    3    3    0    0 -0.73994796892E+01 -0.42667126337E+01 -0.30592987719E+02  0.31762997878E+02  0.51100000000E-03 0.  1.
         12    1    3    3    0    0  0.21581549817E+02 -0.10082696510E+02  0.24246884124E+02  0.33990225818E+02  0.00000000000E+00 0. -1.
</event>
<event>
 7    1  0.2876796E-013  0.7246162E+02  0.7816164E-02  0.1226708E+00
        -11   -1    0    0    0    0  0.00000000000E+00  0.00000000000E+00  0.45593999997E+02  0.45594000000E+02  0.51100000000E-03 0. -1.
         11   -1    0    0    0    0 -0.00000000000E+00 -0.00000000000E+00 -0.45593999997E+02  0.45594000000E+02  0.51100000000E-03 0.  1.
    9900012    2    1    2    0    0  0.17804597047E+02 -0.47660937012E+01  0.33103066532E+01  0.72461616064E+02  0.70000059623E+02 0.  0.
         12    1    1    2    0    0 -0.17804597047E+02  0.47660937012E+01 -0.33103066532E+01  0.18726383936E+02  0.00000000000E+00 0. -1.
         11    1    3    3    0    0  0.14692850725E+02 -0.24953156372E+02  0.48156737666E+01  0.29355248074E+02  0.51100000000E-03 0. -1.
        -11    1    3    3    0    0  0.19840558717E+01 -0.94889875920E+01 -0.81612738441E+01  0.12672164544E+02  0.51100000000E-03 0.  1.
        -12    1    3    3    0    0  0.11276904501E+01  0.29676050263E+02  0.66559067307E+01  0.30434203446E+02  0.00000000000E+00 0.  1.
</event>
<event>
 7    1  0.2876796E-013  0.7246153E+02  0.7816164E-02  0.1226708E+00
        -11   -1    0    0    0    0  0.00000000000E+00  0.00000000000E+00  0.45593999997E+02  0.45594000000E+02  0.51100000000E-03 0.  1.
         11   -1    0    0    0    0 -0.00000000000E+00 -0.00000000000E+00 -0.45593999997E+02  0.45594000000E+02  0.51100000000E-03 0. -1.
    9900012    2    1    2    0    0  0.93423861457E+00 -0.12370164399E+02  0.14028070676E+02  0.72461533811E+02  0.69999952473E+02 0.  0.
         12    1    1    2    0    0 -0.93423861457E+00  0.12370164399E+02 -0.14028070676E+02  0.18726466189E+02  0.00000000000E+00 0. -1.
         11    1    3    3    0    0 -0.17710596934E+02 -0.99960753335E+01  0.56067009062E+01  0.21095541263E+02  0.51100000000E-03 0. -1.
        -11    1    3    3    0    0  0.19824378879E+02 -0.21695966282E+02  0.11883894752E+02  0.31700913324E+02  0.51100000000E-03 0.  1.
         12    1    3    3    0    0 -0.11795433298E+01  0.19321877216E+02 -0.34625249824E+01  0.19665079224E+02  0.00000000000E+00 0. -1.
</event>
<event>
 7    1  0.2876796E-013  0.7246158E+02  0.7816164E-02  0.1226708E+00
        -11   -1    0    0    0    0  0.00000000000E+00  0.00000000000E+00  0.45593999997E+02  0.45594000000E+02  0.51100000000E-03 0.  1.
         11   -1    0    0    0    0 -0.00000000000E+00 -0.00000000000E+00 -0.45593999997E+02  0.45594000000E+02  0.51100000000E-03 0. -1.
    9900012    2    1    2    0    0 -0.54782321507E+01 -0.10038677751E+02  0.14828783520E+02  0.72461577513E+02  0.70000009404E+02 0.  0.
         12    1    1    2    0    0  0.54782321507E+01  0.10038677751E+02 -0.14828783520E+02  0.18726422487E+02  0.00000000000E+00 0. -1.
         11    1    3    3    0    0 -0.14476287600E+02 -0.10876778036E+02 -0.71937228103E+01  0.19483758653E+02  0.51100000000E-03 0. -1.
        -11    1    3    3    0    0 -0.15062147441E+02 -0.11696588670E+02  0.16661670052E+02  0.25323698806E+02  0.51100000000E-03 0.  1.
         12    1    3    3    0    0  0.24060202890E+02  0.12534688955E+02  0.53608362782E+01  0.27654120053E+02  0.00000000000E+00 0. -1.
</event>
<event>
 7    1  0.2876796E-013  0.7246165E+02  0.7816164E-02  0.1226708E+00
        -11   -1    0    0    0    0  0.00000000000E+00  0.00000000000E+00  0.45593999997E+02  0.45594000000E+02  0.51100000000E-03 0. -1.
         11   -1    0    0    0    0 -0.00000000000E+00 -0.00000000000E+00 -0.45593999997E+02  0.45594000000E+02  0.51100000000E-03 0.  1.
    9900012    2    1    2    0    0 -0.30935408639E+01 -0.13319701194E+02 -0.12794212764E+02  0.72461646505E+02  0.70000099278E+02 0.  0.
         12    1    1    2    0    0  0.30935408639E+01  0.13319701194E+02  0.12794212764E+02  0.18726353495E+02  0.00000000000E+00 0. -1.
         11    1    3    3    0    0 -0.64651123135E+01  0.36821794322E+01 -0.11947374143E+02  0.14074653522E+02  0.51100000000E-03 0. -1.
        -11    1    3    3    0    0  0.17713726519E+01  0.18736303389E+02  0.95890013875E+01  0.21121926371E+02  0.51100000000E-03 0.  1.
         12    1    3    3    0    0  0.16001987977E+01 -0.35738184015E+02 -0.10435840009E+02  0.37265066612E+02  0.00000000000E+00 0. -1.
</event>
<event>
 7    1  0.2876796E-013  0.7246159E+02  0.7816164E-02  0.1226708E+00
        -11   -1    0    0    0    0  0.00000000000E+00  0.00000000000E+00  0.45593999997E+02  0.45594000000E+02  0.51100000000E-03 0. -1.
         11   -1    0    0    0    0 -0.00000000000E+00 -0.00000000000E+00 -0.45593999997E+02  0.45594000000E+02  0.51100000000E-03 0.  1.
    9900012    2    1    2    0    0  0.10218802818E+02 -0.12291431343E+02  0.97557757738E+01  0.72461591469E+02  0.70000027584E+02 0.  0.
         12    1    1    2    0    0 -0.10218802818E+02  0.12291431343E+02 -0.97557757738E+01  0.18726408531E+02  0.00000000000E+00 0. -1.
         11    1    3    3    0    0  0.25549026705E+02  0.23777254502E+01  0.28619121959E+02  0.38437748189E+02  0.51100000000E-03 0. -1.
        -11    1    3    3    0    0 -0.16397430568E+01 -0.13617440952E+02 -0.52437433196E+01  0.14684015106E+02  0.51100000000E-03 0.  1.
        -12    1    3    3    0    0 -0.13690480830E+02 -0.10517158410E+01 -0.13619602866E+02  0.19339828174E+02  0.00000000000E+00 0.  1.
</event>
<event>
 7    1  0.2876796E-013  0.7246152E+02  0.7816164E-02  0.1226708E+00
        -11   -1    0    0    0    0  0.00000000000E+00  0.00000000000E+00  0.45593999997E+02  0.45594000000E+02  0.51100000000E-03 0.  1.
         11   -1    0    0    0    0 -0.00000000000E+00 -0.00000000000E+00 -0.45593999997E+02  0.45594000000E+02  0.51100000000E-03 0. -1.
    9900012    2    1    2    0    0 -0.12180652035E+02  0.12682105768E+02 -0.64402666307E+01  0.72461518083E+02  0.69999931985E+02 0.  0.
         12    1    1    2    0    0  0.12180652035E+02 -0.12682105768E+02  0.64402666307E+01  0.18726481917E+02  0.00000000000E+00 0. -1.
         11    1    3    3    0    0  0.61805803340E+01  0.78492714390E+01 -0.29524860777E+01  0.10417668150E+02  0.51100000000E-03 0.  1.
        -11    1    3    3    0    0 -0.93578253152E+01  0.29889355806E+02 -0.12803797521E+02  0.33836071231E+02  0.51100000000E-03 0. -1.
        -12    1    3    3    0    0 -0.90034070540E+01 -0.25056521477E+02  0.93160169681E+01  0.28207778701E+02  0.00000000000E+00 0.  1.
</event>
<event>
 7    1  0.2876796E-013  0.7246153E+02  0.7816164E-02  0.1226708E+00
        -11   -1    0    0    0    0  0.00000000000E+00  0.00000000000E+00  0.45593999997E+02  0.45594000000E+02  0.51100000000E-03 0. -1.
         11   -1    0    0    0    0 -0.00000000000E+00 -0.00000000000E+00 -0.45593999997E+02  0.45594000000E+02  0.51100000000E-03 0.  1.
    9900012    2    1    2    0    0  0.72266743686E+01 -0.21957161049E+01 -0.17135776612E+02  0.72461525912E+02  0.69999942184E+02 0.  0.
         12    1    1    2    0    0 -0.72266743686E+01  0.21957161049E+01  0.17135776612E+02  0.18726474088E+02  0.00000000000E+00 0. -1.
         11    1    3    3    0    0 -0.24207735838E+01  0.40595479193E+01  0.35848536304E+01  0.59322213264E+01  0.51100000000E-03 0. -1.
        -11    1    3    3    0    0 -0.10288460917E+02 -0.20273486053E+02  0.12017793490E+02  0.25715637760E+02  0.51100000000E-03 0.  1.
         12    1    3    3    0    0  0.19935908869E+02  0.14018222029E+02 -0.32738423733E+02  0.40813666826E+02  0.00000000000E+00 0. -1.
</event>
<event>
 7    1  0.2876796E-013  0.7246164E+02  0.7816164E-02  0.1226708E+00
        -11   -1    0    0    0    0  0.00000000000E+00  0.00000000000E+00  0.45593999997E+02  0.45594000000E+02  0.51100000000E-03 0.  1.
         11   -1    0    0    0    0 -0.00000000000E+00 -0.00000000000E+00 -0.45593999997E+02  0.45594000000E+02  0.51100000000E-03 0. -1.
    9900012    2    1    2    0    0 -0.13016223540E+02  0.18258783197E+01  0.13338684553E+02  0.72461643908E+02  0.70000095895E+02 0.  0.
         12    1    1    2    0    0  0.13016223540E+02 -0.18258783197E+01 -0.13338684553E+02  0.18726356092E+02  0.00000000000E+00 0. -1.
         11    1    3    3    0    0  0.16207028924E+02  0.11283435387E+02  0.78942917132E+01  0.21267429149E+02  0.51100000000E-03 0. -1.
        -11    1    3    3    0    0  0.87594774434E+01 -0.92052038378E+01 -0.65650466026E+00  0.12723805304E+02  0.51100000000E-03 0.  1.
        -12    1    3    3    0    0 -0.37982729907E+02 -0.25235322971E+00  0.61008975004E+01  0.38470409455E+02  0.00000000000E+00 0.  1.
</event>
<event>
 7    1  0.2876796E-013  0.7246185E+02  0.7816164E-02  0.1226707E+00
        -11   -1    0    0    0    0  0.00000000000E+00  0.00000000000E+00  0.45593999997E+02  0.45594000000E+02  0.51100000000E-03 0.  1.
         11   -1    0    0    0    0 -0.00000000000E+00 -0.00000000000E+00 -0.45593999997E+02  0.45594000000E+02  0.51100000000E-03 0. -1.
    9900012    2    1    2    0    0  0.15367777226E+02  0.85337241079E+01  0.64556649861E+01  0.72461851586E+02  0.70000366433E+02 0.  0.
         12    1    1    2    0    0 -0.15367777226E+02 -0.85337241079E+01 -0.64556649861E+01  0.18726148414E+02  0.00000000000E+00 0. -1.
         11    1    3    3    0    0 -0.13920615044E+02 -0.19619200915E+01 -0.89451886453E+01  0.16662804500E+02  0.51100000000E-03 0. -1.
        -11    1    3    3    0    0  0.10461535967E+02  0.31042551364E+01 -0.15446425318E+02  0.18912223299E+02  0.51100000000E-03 0.  1.
        -12    1    3    3    0    0  0.18826856303E+02  0.73913890630E+01  0.30847278949E+02  0.36886823787E+02  0.00000000000E+00 0.  1.
</event>
<event>
 7    1  0.2876796E-013  0.7246159E+02  0.7816164E-02  0.1226708E+00
        -11   -1    0    0    0    0  0.00000000000E+00  0.00000000000E+00  0.45593999997E+02  0.45594000000E+02  0.51100000000E-03 0.  1.
         11   -1    0    0    0    0 -0.00000000000E+00 -0.00000000000E+00 -0.45593999997E+02  0.45594000000E+02  0.51100000000E-03 0. -1.
    9900012    2    1    2    0    0 -0.17177027195E+02 -0.65747260589E+01 -0.35215092684E+01  0.72461593149E+02  0.70000029773E+02 0.  0.
         12    1    1    2    0    0  0.17177027195E+02  0.65747260589E+01  0.35215092684E+01  0.18726406851E+02  0.00000000000E+00 0. -1.
         11    1    3    3    0    0  0.85852493086E+01  0.95473704637E+01  0.58139369001E+01  0.14094702941E+02  0.51100000000E-03 0. -1.
        -11    1    3    3    0    0 -0.89629695440E+01  0.59778414462E+01  0.16984310488E+02  0.20113085652E+02  0.51100000000E-03 0.  1.
         12    1    3    3    0    0 -0.16799306960E+02 -0.22099937969E+02 -0.26319756657E+02  0.38253804556E+02  0.00000000000E+00 0. -1.
</event>
<event>
 7    1  0.2876796E-013  0.7246158E+02  0.7816164E-02  0.1226708E+00
        -11   -1    0    0    0    0  0.00000000000E+00  0.00000000000E+00  0.45593999997E+02  0.45594000000E+02  0.51100000000E-03 0.  1.
         11   -1    0    0    0    0 -0.00000000000E+00 -0.00000000000E+00 -0.45593999997E+02  0.45594000000E+02  0.51100000000E-03 0. -1.
    9900012    2    1    2    0    0 -0.12035233914E+02 -0.76520728726E+01  0.12135808136E+02  0.72461577124E+02  0.70000008897E+02 0.  0.
         12    1    1    2    0    0  0.12035233914E+02  0.76520728726E+01 -0.12135808136E+02  0.18726422876E+02  0.00000000000E+00 0. -1.
         11    1    3    3    0    0 -0.55844009801E+01  0.49840582944E+01  0.11383008701E+02  0.13623481888E+02  0.51100000000E-03 0. -1.
        -11    1    3    3    0    0  0.57490318509E+01  0.16624270136E+02  0.15892807519E+02  0.23706519269E+02  0.51100000000E-03 0.  1.
         12    1    3    3    0    0 -0.12199864785E+02 -0.29260401303E+02 -0.15140008084E+02  0.35131575967E+02  0.00000000000E+00 0. -1.
</event>
<event>
 7    1  0.2876796E-013  0.7246157E+02  0.7816164E-02  0.1226708E+00
        -11   -1    0    0    0    0  0.00000000000E+00  0.00000000000E+00  0.45593999997E+02  0.45594000000E+02  0.51100000000E-03 0.  1.
         11   -1    0    0    0    0 -0.00000000000E+00 -0.00000000000E+00 -0.45593999997E+02  0.45594000000E+02  0.51100000000E-03 0. -1.
    9900012    2    1    2    0    0 -0.28045663191E+01 -0.68654996608E+01  0.17195303045E+02  0.72461571493E+02  0.70000001561E+02 0.  0.
         12    1    1    2    0    0  0.28045663191E+01  0.68654996608E+01 -0.17195303045E+02  0.18726428507E+02  0.00000000000E+00 0. -1.
         11    1    3    3    0    0  0.11755560297E+02  0.12596103413E+02  0.84588303987E+01  0.19193926931E+02  0.51100000000E-03 0. -1.
        -11    1    3    3    0    0 -0.43222576512E+01  0.79416932514E+01  0.19977946573E+02  0.21928765410E+02  0.51100000000E-03 0.  1.
         12    1    3    3    0    0 -0.10237868965E+02 -0.27403296325E+02 -0.11241473927E+02  0.31338879151E+02  0.00000000000E+00 0. -1.
</event>
<event>
 7    1  0.2876796E-013  0.7246166E+02  0.7816164E-02  0.1226708E+00
        -11   -1    0    0    0    0  0.00000000000E+00  0.00000000000E+00  0.45593999997E+02  0.45594000000E+02  0.51100000000E-03 0.  1.
         11   -1    0    0    0    0 -0.00000000000E+00 -0.00000000000E+00 -0.45593999997E+02  0.45594000000E+02  0.51100000000E-03 0. -1.
    9900012    2    1    2    0    0  0.71575537861E+01  0.16773127285E+01  0.17223005444E+02  0.72461658374E+02  0.70000114740E+02 0.  0.
         12    1    1    2    0    0 -0.71575537861E+01 -0.16773127285E+01 -0.17223005444E+02  0.18726341626E+02  0.00000000000E+00 0. -1.
         11    1    3    3    0    0  0.89121795382E+01 -0.30968271932E+01  0.18333837235E+02  0.20619089961E+02  0.51100000000E-03 0. -1.
        -11    1    3    3    0    0 -0.17455744632E+02  0.18520437787E+02  0.10987757771E+02  0.27720758604E+02  0.51100000000E-03 0.  1.
         12    1    3    3    0    0  0.15701118880E+02 -0.13746297866E+02 -0.12098589562E+02  0.24121809809E+02  0.00000000000E+00 0. -1.
</event>
<event>
 7    1  0.2876796E-013  0.7246159E+02  0.7816164E-02  0.1226708E+00
        -11   -1    0    0    0    0  0.00000000000E+00  0.00000000000E+00  0.45593999997E+02  0.45594000000E+02  0.51100000000E-03 0. -1.
         11   -1    0    0    0    0 -0.00000000000E+00 -0.00000000000E+00 -0.45593999997E+02  0.45594000000E+02  0.51100000000E-03 0.  1.
    9900012    2    1    2    0    0  0.15880410992E+02  0.19545217750E+01 -0.97298928000E+01  0.72461590239E+02  0.70000025981E+02 0.  0.
         12    1    1    2    0    0 -0.15880410992E+02 -0.19545217750E+01  0.97298928000E+01  0.18726409761E+02  0.00000000000E+00 0. -1.
         11    1    3    3    0    0 -0.51181405901E+01  0.67702872512E+01 -0.11618734568E+01  0.85663354332E+01  0.51100000000E-03 0. -1.
        -11    1    3    3    0    0 -0.11480991037E+00  0.24539585600E+02 -0.12468870780E+02  0.27525936524E+02  0.51100000000E-03 0.  1.
         12    1    3    3    0    0  0.21113361493E+02 -0.29355351076E+02  0.39008514365E+01  0.36369318281E+02  0.00000000000E+00 0. -1.
</event>
<event>
 7    1  0.2876796E-013  0.7246157E+02  0.7816164E-02  0.1226708E+00
        -11   -1    0    0    0    0  0.00000000000E+00  0.00000000000E+00  0.45593999997E+02  0.45594000000E+02  0.51100000000E-03 0. -1.
         11   -1    0    0    0    0 -0.00000000000E+00 -0.00000000000E+00 -0.45593999997E+02  0.45594000000E+02  0.51100000000E-03 0.  1.
    9900012    2    1    2    0    0  0.25184194856E+01  0.17005507615E+02 -0.74262660270E+01  0.72461570734E+02  0.70000000573E+02 0.  0.
         12    1    1    2    0    0 -0.25184194856E+01 -0.17005507615E+02  0.74262660270E+01  0.18726429266E+02  0.00000000000E+00 0. -1.
         11    1    3    3    0    0  0.12657005277E+02  0.26036628261E+00  0.21496183798E+02  0.24947013675E+02  0.51100000000E-03 0. -1.
        -11    1    3    3    0    0  0.11724761025E+02  0.56377233680E+01 -0.79497902833E+01  0.15246413076E+02  0.51100000000E-03 0.  1.
         12    1    3    3    0    0 -0.21863346816E+02  0.11107417965E+02 -0.20972659541E+02  0.32268143983E+02  0.00000000000E+00 0. -1.
</event>
<event>
 7    1  0.2876796E-013  0.7246108E+02  0.7816164E-02  0.1226709E+00
        -11   -1    0    0    0    0  0.00000000000E+00  0.00000000000E+00  0.45593999997E+02  0.45594000000E+02  0.51100000000E-03 0. -1.
         11   -1    0    0    0    0 -0.00000000000E+00 -0.00000000000E+00 -0.45593999997E+02  0.45594000000E+02  0.51100000000E-03 0.  1.
    9900012    2    1    2    0    0 -0.13612812193E+02 -0.12819718701E+02  0.10215942295E+01  0.72461080922E+02  0.69999362498E+02 0.  0.
         12    1    1    2    0    0  0.13612812193E+02  0.12819718701E+02 -0.10215942295E+01  0.18726919078E+02  0.00000000000E+00 0. -1.
         11    1    3    3    0    0  0.20508473004E+01 -0.27201160281E+02  0.13780809477E+02  0.30561737604E+02  0.51100000000E-03 0. -1.
        -11    1    3    3    0    0 -0.84948659294E+01 -0.72090059540E+01  0.57808204308E+01  0.12551908186E+02  0.51100000000E-03 0.  1.
        -12    1    3    3    0    0 -0.71687935644E+01  0.21590447533E+02 -0.18540035678E+02  0.29347435132E+02  0.00000000000E+00 0.  1.
</event>
<event>
 7    1  0.2876796E-013  0.7246155E+02  0.7816164E-02  0.1226708E+00
        -11   -1    0    0    0    0  0.00000000000E+00  0.00000000000E+00  0.45593999997E+02  0.45594000000E+02  0.51100000000E-03 0.  1.
         11   -1    0    0    0    0 -0.00000000000E+00 -0.00000000000E+00 -0.45593999997E+02  0.45594000000E+02  0.51100000000E-03 0. -1.
    9900012    2    1    2    0    0 -0.81654386680E+01 -0.98609121292E+01 -0.13666310786E+02  0.72461547396E+02  0.69999970170E+02 0.  0.
         12    1    1    2    0    0  0.81654386680E+01  0.98609121292E+01  0.13666310786E+02  0.18726452604E+02  0.00000000000E+00 0. -1.
         11    1    3    3    0    0  0.25011890138E+01 -0.17941464877E+02 -0.23606568073E+02  0.29756044173E+02  0.51100000000E-03 0. -1.
        -11    1    3    3    0    0  0.14835754123E+02  0.64197720594E+00  0.20302626860E+01  0.14987785092E+02  0.51100000000E-03 0.  1.
        -12    1    3    3    0    0 -0.25502381804E+02  0.74385755416E+01  0.79099946011E+01  0.27717718131E+02  0.00000000000E+00 0.  1.
</event>
<event>
 7    1  0.2876796E-013  0.7246157E+02  0.7816164E-02  0.1226708E+00
        -11   -1    0    0    0    0  0.00000000000E+00  0.00000000000E+00  0.45593999997E+02  0.45594000000E+02  0.51100000000E-03 0. -1.
         11   -1    0    0    0    0 -0.00000000000E+00 -0.00000000000E+00 -0.45593999997E+02  0.45594000000E+02  0.51100000000E-03 0.  1.
    9900012    2    1    2    0    0 -0.11199008992E+00 -0.13071876398E+02 -0.13408679120E+02  0.72461570279E+02  0.69999999980E+02 0.  0.
         12    1    1    2    0    0  0.11199008992E+00  0.13071876398E+02  0.13408679120E+02  0.18726429721E+02  0.00000000000E+00 0. -1.
         11    1    3    3    0    0 -0.13952167882E+02 -0.23645016180E+02  0.74825216745E+01  0.28455894110E+02  0.51100000000E-03 0. -1.
        -11    1    3    3    0    0 -0.73314250454E+01 -0.46320569270E+01 -0.14931339049E+02  0.17267038849E+02  0.51100000000E-03 0.  1.
        -12    1    3    3    0    0  0.21171602838E+02  0.15205196708E+02 -0.59598617456E+01  0.26738637319E+02  0.00000000000E+00 0.  1.
</event>
<event>
 7    1  0.2876796E-013  0.7246155E+02  0.7816164E-02  0.1226708E+00
        -11   -1    0    0    0    0  0.00000000000E+00  0.00000000000E+00  0.45593999997E+02  0.45594000000E+02  0.51100000000E-03 0. -1.
         11   -1    0    0    0    0 -0.00000000000E+00 -0.00000000000E+00 -0.45593999997E+02  0.45594000000E+02  0.51100000000E-03 0.  1.
    9900012    2    1    2    0    0  0.10612266518E+02 -0.11294317570E+02 -0.10511800663E+02  0.72461554443E+02  0.69999979350E+02 0.  0.
         12    1    1    2    0    0 -0.10612266518E+02  0.11294317570E+02  0.10511800663E+02  0.18726445557E+02  0.00000000000E+00 0. -1.
         11    1    3    3    0    0  0.12322576371E+02 -0.23900045308E+02  0.73184610988E+01  0.27867865495E+02  0.51100000000E-03 0. -1.
        -11    1    3    3    0    0 -0.11413831924E+01 -0.79685021993E+01 -0.22146306777E+02  0.23563927665E+02  0.51100000000E-03 0.  1.
         12    1    3    3    0    0 -0.56892665991E+00  0.20574229937E+02  0.43160450150E+01  0.21029761283E+02  0.00000000000E+00 0. -1.
</event>
<event>
 7    1  0.2876796E-013  0.7246122E+02  0.7816164E-02  0.1226709E+00
        -11   -1    0    0    0    0  0.00000000000E+00  0.00000000000E+00  0.45593999997E+02  0.45594000000E+02  0.51100000000E-03 0.  1.
         11   -1    0    0    0    0 -0.00000000000E+00 -0.00000000000E+00 -0.45593999997E+02  0.45594000000E+02  0.51100000000E-03 0. -1.
    9900012    2    1    2    0    0 -0.34528780098E+01 -0.17095401658E+02  0.68203472890E+01  0.72461220738E+02  0.69999544636E+02 0.  0.
         12    1    1    2    0    0  0.34528780098E+01  0.17095401658E+02 -0.68203472890E+01  0.18726779262E+02  0.00000000000E+00 0. -1.
         11    1    3    3    0    0 -0.11522017401E+02  0.20549811158E+01 -0.16813813422E+02  0.20486194240E+02  0.51100000000E-03 0. -1.
        -11    1    3    3    0    0 -0.94316627077E+01 -0.64931991881E+01 -0.77863476391E+01  0.13847205745E+02  0.51100000000E-03 0.  1.
        -12    1    3    3    0    0  0.17500802099E+02 -0.12657183585E+02  0.31420508350E+02  0.38127820753E+02  0.00000000000E+00 0.  1.
</event>
<event>
 7    1  0.2876796E-013  0.7246161E+02  0.7816164E-02  0.1226708E+00
        -11   -1    0    0    0    0  0.00000000000E+00  0.00000000000E+00  0.45593999997E+02  0.45594000000E+02  0.51100000000E-03 0. -1.
         11   -1    0    0    0    0 -0.00000000000E+00 -0.00000000000E+00 -0.45593999997E+02  0.45594000000E+02  0.51100000000E-03 0.  1.
    9900012    2    1    2    0    0 -0.75196527164E+01 -0.10060412330E+02 -0.13889580871E+02  0.72461614070E+02  0.70000057025E+02 0.  0.
         12    1    1    2    0    0  0.75196527164E+01  0.10060412330E+02  0.13889580871E+02  0.18726385930E+02  0.00000000000E+00 0. -1.
         11    1    3    3    0    0  0.61143457686E+01 -0.11188457577E+02  0.21883639376E+02  0.25327070098E+02  0.51100000000E-03 0. -1.
        -11    1    3    3    0    0  0.55107056112E+01  0.50890697045E+01 -0.14587829295E+01  0.76416329856E+01  0.51100000000E-03 0.  1.
        -12    1    3    3    0    0 -0.19144704096E+02 -0.39610244584E+01 -0.34314437318E+02  0.39492910986E+02  0.00000000000E+00 0.  1.
</event>
<event>
 7    1  0.2876796E-013  0.7246160E+02  0.7816164E-02  0.1226708E+00
        -11   -1    0    0    0    0  0.00000000000E+00  0.00000000000E+00  0.45593999997E+02  0.45594000000E+02  0.51100000000E-03 0. -1.
         11   -1    0    0    0    0 -0.00000000000E+00 -0.00000000000E+00 -0.45593999997E+02  0.45594000000E+02  0.51100000000E-03 0.  1.
    9900012    2    1    2    0    0  0.12591116428E+02 -0.85794425143E+01 -0.10887383143E+02  0.72461597290E+02  0.70000035166E+02 0.  0.
         12    1    1    2    0    0 -0.12591116428E+02  0.85794425143E+01  0.10887383143E+02  0.18726402710E+02  0.00000000000E+00 0. -1.
         11    1    3    3    0    0  0.59083801624E+01  0.20168611641E+01  0.21452647132E+02  0.22342621922E+02  0.51100000000E-03 0. -1.
        -11    1    3    3    0    0 -0.44081492950E+01  0.59244123520E+01  0.42123645785E+01  0.85014385563E+01  0.51100000000E-03 0.  1.
        -12    1    3    3    0    0  0.11090885561E+02 -0.16520716030E+02 -0.36552394854E+02  0.41617536811E+02  0.00000000000E+00 0.  1.
</event>
<event>
 7    1  0.2876796E-013  0.7246155E+02  0.7816164E-02  0.1226708E+00
        -11   -1    0    0    0    0  0.00000000000E+00  0.00000000000E+00  0.45593999997E+02  0.45594000000E+02  0.51100000000E-03 0.  1.
         11   -1    0    0    0    0 -0.00000000000E+00 -0.00000000000E+00 -0.45593999997E+02  0.45594000000E+02  0.51100000000E-03 0. -1.
    9900012    2    1    2    0    0 -0.14717175970E+02  0.11536628217E+02 -0.99543031578E+00  0.72461549705E+02  0.69999973178E+02 0.  0.
         12    1    1    2    0    0  0.14717175970E+02 -0.11536628217E+02  0.99543031578E+00  0.18726450295E+02  0.00000000000E+00 0. -1.
         11    1    3    3    0    0 -0.11297884115E+01 -0.85872576139E+01  0.78597067730E+01  0.11695828573E+02  0.51100000000E-03 0. -1.
        -11    1    3    3    0    0 -0.21092801283E+02 -0.87579728173E+01  0.10562771906E+02  0.25163078199E+02  0.51100000000E-03 0.  1.
         12    1    3    3    0    0  0.75054137247E+01  0.28881858648E+02 -0.19417908994E+02  0.35602642934E+02  0.00000000000E+00 0. -1.
</event>
<event>
 7    1  0.2876796E-013  0.7246157E+02  0.7816164E-02  0.1226708E+00
        -11   -1    0    0    0    0  0.00000000000E+00  0.00000000000E+00  0.45593999997E+02  0.45594000000E+02  0.51100000000E-03 0. -1.
         11   -1    0    0    0    0 -0.00000000000E+00 -0.00000000000E+00 -0.45593999997E+02  0.45594000000E+02  0.51100000000E-03 0.  1.
    9900012    2    1    2    0    0  0.42646916262E+01  0.27502901486E+01 -0.18025741523E+02  0.72461573539E+02  0.70000004226E+02 0.  0.
         12    1    1    2    0    0 -0.42646916262E+01 -0.27502901486E+01  0.18025741523E+02  0.18726426461E+02  0.00000000000E+00 0. -1.
         11    1    3    3    0    0 -0.13659749601E+02 -0.84759605825E+01 -0.91854853853E+01  0.18514961760E+02  0.51100000000E-03 0. -1.
        -11    1    3    3    0    0  0.13681024534E+02 -0.12498511927E+01 -0.27711305901E+02  0.30929743537E+02  0.51100000000E-03 0.  1.
         12    1    3    3    0    0  0.42434166935E+01  0.12476101924E+02  0.18871049763E+02  0.23016868241E+02  0.00000000000E+00 0. -1.
</event>
<event>
 7    1  0.2876796E-013  0.7246156E+02  0.7816164E-02  0.1226708E+00
        -11   -1    0    0    0    0  0.00000000000E+00  0.00000000000E+00  0.45593999997E+02  0.45594000000E+02  0.51100000000E-03 0.  1.
         11   -1    0    0    0    0 -0.00000000000E+00 -0.00000000000E+00 -0.45593999997E+02  0.45594000000E+02  0.51100000000E-03 0. -1.
    9900012    2    1    2    0    0 -0.82734051935E+01 -0.36432798823E+01  0.16399900026E+02  0.72461563002E+02  0.69999990500E+02 0.  0.
         12    1    1    2    0    0  0.82734051935E+01  0.36432798823E+01 -0.16399900026E+02  0.18726436998E+02  0.00000000000E+00 0. -1.
         11    1    3    3    0    0 -0.67525564749E+01  0.12503979285E+02  0.89496527965E+01  0.16794129997E+02  0.51100000000E-03 0. -1.
        -11    1    3    3    0    0  0.18560691651E+02  0.84732790467E+01  0.11846387156E+02  0.23593062990E+02  0.51100000000E-03 0.  1.
         12    1    3    3    0    0 -0.20081540369E+02 -0.24620538214E+02 -0.43961399264E+01  0.32074370014E+02  0.00000000000E+00 0. -1.
</event>
<event>
 7    1  0.2876796E-013  0.7246157E+02  0.7816164E-02  0.1226708E+00
        -11   -1    0    0    0    0  0.00000000000E+00  0.00000000000E+00  0.45593999997E+02  0.45594000000E+02  0.51100000000E-03 0.  1.
         11   -1    0    0    0    0 -0.00000000000E+00 -0.00000000000E+00 -0.45593999997E+02  0.45594000000E+02  0.51100000000E-03 0. -1.
    9900012    2    1    2    0    0 -0.78094614096E+01  0.17002635731E+02 -0.77573549442E+00  0.72461572822E+02  0.70000003293E+02 0.  0.
         12    1    1    2    0    0  0.78094614096E+01 -0.17002635731E+02  0.77573549442E+00  0.18726427178E+02  0.00000000000E+00 0. -1.
         11    1    3    3    0    0  0.38680505212E+01 -0.23816766152E+00  0.55500522906E+01  0.67691668142E+01  0.51100000000E-03 0. -1.
        -11    1    3    3    0    0  0.25416357843E+02  0.28411035776E+01 -0.16498055600E+01  0.25627816414E+02  0.51100000000E-03 0.  1.
        -12    1    3    3    0    0 -0.37093869773E+02  0.14399699815E+02 -0.46759822251E+01  0.40064589593E+02  0.00000000000E+00 0.  1.
</event>
<event>
 7    1  0.2876796E-013  0.7246166E+02  0.7816164E-02  0.1226708E+00
        -11   -1    0    0    0    0  0.00000000000E+00  0.00000000000E+00  0.45593999997E+02  0.45594000000E+02  0.51100000000E-03 0.  1.
         11   -1    0    0    0    0 -0.00000000000E+00 -0.00000000000E+00 -0.45593999997E+02  0.45594000000E+02  0.51100000000E-03 0. -1.
    9900012    2    1    2    0    0  0.60853323037E+01  0.14868217518E+02  0.96218907155E+01  0.72461656460E+02  0.70000112247E+02 0.  0.
         12    1    1    2    0    0 -0.60853323037E+01 -0.14868217518E+02 -0.96218907155E+01  0.18726343540E+02  0.00000000000E+00 0. -1.
         11    1    3    3    0    0 -0.81591482069E+01 -0.30943131271E+01 -0.46595586592E+00  0.87386262262E+01  0.51100000000E-03 0. -1.
        -11    1    3    3    0    0 -0.26205832511E+01  0.26639653744E+01  0.31943449731E+02  0.32161283387E+02  0.51100000000E-03 0.  1.
         12    1    3    3    0    0  0.16865063762E+02  0.15298565271E+02 -0.21855603150E+02  0.31561746848E+02  0.00000000000E+00 0. -1.
</event>
<event>
 7    1  0.2876796E-013  0.7246158E+02  0.7816164E-02  0.1226708E+00
        -11   -1    0    0    0    0  0.00000000000E+00  0.00000000000E+00  0.45593999997E+02  0.45594000000E+02  0.51100000000E-03 0. -1.
         11   -1    0    0    0    0 -0.00000000000E+00 -0.00000000000E+00 -0.45593999997E+02  0.45594000000E+02  0.51100000000E-03 0.  1.
    9900012    2    1    2    0    0  0.13172314934E+02  0.97152619839E+01 -0.90985044349E+01  0.72461575379E+02  0.70000006624E+02 0.  0.
         12    1    1    2    0    0 -0.13172314934E+02 -0.97152619839E+01  0.90985044349E+01  0.18726424621E+02  0.00000000000E+00 0. -1.
         11    1    3    3    0    0  0.30591043615E+02 -0.34108223563E+01 -0.20610911412E+02  0.37043964800E+02  0.51100000000E-03 0. -1.
        -11    1    3    3    0    0  0.32674644496E+01  0.62312188152E+01 -0.45113871249E+01  0.83580515615E+01  0.51100000000E-03 0.  1.
        -12    1    3    3    0    0 -0.20686193130E+02  0.68948655249E+01  0.16023794102E+02  0.27059559018E+02  0.00000000000E+00 0.  1.
</event>
<event>
 7    1  0.2876796E-013  0.7246152E+02  0.7816164E-02  0.1226708E+00
        -11   -1    0    0    0    0  0.00000000000E+00  0.00000000000E+00  0.45593999997E+02  0.45594000000E+02  0.51100000000E-03 0. -1.
         11   -1    0    0    0    0 -0.00000000000E+00 -0.00000000000E+00 -0.45593999997E+02  0.45594000000E+02  0.51100000000E-03 0.  1.
    9900012    2    1    2    0    0 -0.14073398223E+02 -0.64045669107E+01 -0.10564178955E+02  0.72461524308E+02  0.69999940094E+02 0.  0.
         12    1    1    2    0    0  0.14073398223E+02  0.64045669107E+01  0.10564178955E+02  0.18726475692E+02  0.00000000000E+00 0. -1.
         11    1    3    3    0    0  0.32422592610E+01 -0.77467131809E+01  0.28349196066E+01  0.88634406220E+01  0.51100000000E-03 0. -1.
        -11    1    3    3    0    0  0.51038572917E+01  0.26511609131E+02 -0.12817351768E+02  0.29886439811E+02  0.51100000000E-03 0.  1.
         12    1    3    3    0    0 -0.22419514775E+02 -0.25169462861E+02 -0.58174679327E+00  0.33711643875E+02  0.00000000000E+00 0. -1.
</event>
<event>
 7    1  0.2876796E-013  0.7246173E+02  0.7816164E-02  0.1226708E+00
        -11   -1    0    0    0    0  0.00000000000E+00  0.00000000000E+00  0.45593999997E+02  0.45594000000E+02  0.51100000000E-03 0. -1.
         11   -1    0    0    0    0 -0.00000000000E+00 -0.00000000000E+00 -0.45593999997E+02  0.45594000000E+02  0.51100000000E-03 0.  1.
    9900012    2    1    2    0    0  0.13099254920E+02 -0.12364918095E+02  0.51177815658E+01  0.72461725221E+02  0.70000201821E+02 0.  0.
         12    1    1    2    0    0 -0.13099254920E+02  0.12364918095E+02 -0.51177815658E+01  0.18726274779E+02  0.00000000000E+00 0. -1.
         11    1    3    3    0    0  0.57602753171E+01 -0.87096457694E+01 -0.44154180304E+01  0.11337310872E+02  0.51100000000E-03 0. -1.
        -11    1    3    3    0    0  0.10675706101E+02 -0.72578036018E+01 -0.23990405847E+02  0.27243090626E+02  0.51100000000E-03 0.  1.
         12    1    3    3    0    0 -0.33367264985E+01  0.36025312765E+01  0.33523605444E+02  0.33881323724E+02  0.00000000000E+00 0. -1.
</event>
<event>
 7    1  0.2876796E-013  0.7246155E+02  0.7816164E-02  0.1226708E+00
        -11   -1    0    0    0    0  0.00000000000E+00  0.00000000000E+00  0.45593999997E+02  0.45594000000E+02  0.51100000000E-03 0.  1.
         11   -1    0    0    0    0 -0.00000000000E+00 -0.00000000000E+00 -0.45593999997E+02  0.45594000000E+02  0.51100000000E-03 0. -1.
    9900012    2    1    2    0    0  0.11959656765E+02  0.98167938914E+00  0.14376465461E+02  0.72461552299E+02  0.69999976558E+02 0.  0.
         12    1    1    2    0    0 -0.11959656765E+02 -0.98167938914E+00 -0.14376465461E+02  0.18726447701E+02  0.00000000000E+00 0. -1.
         11    1    3    3    0    0  0.32334484956E+01  0.13545073565E+02  0.13118426678E+02  0.19131579282E+02  0.51100000000E-03 0. -1.
        -11    1    3    3    0    0 -0.16114039180E+02  0.99969709147E+01  0.48744163572E+01  0.19579622602E+02  0.51100000000E-03 0.  1.
         12    1    3    3    0    0  0.24840247449E+02 -0.22560365090E+02 -0.36163775750E+01  0.33750350415E+02  0.00000000000E+00 0. -1.
</event>
<event>
 7    1  0.2876796E-013  0.7246218E+02  0.7816164E-02  0.1226706E+00
        -11   -1    0    0    0    0  0.00000000000E+00  0.00000000000E+00  0.45593999997E+02  0.45594000000E+02  0.51100000000E-03 0. -1.
         11   -1    0    0    0    0 -0.00000000000E+00 -0.00000000000E+00 -0.45593999997E+02  0.45594000000E+02  0.51100000000E-03 0.  1.
    9900012    2    1    2    0    0 -0.67724107998E+01  0.13304450319E+02 -0.11304083900E+02  0.72462182016E+02  0.70000796877E+02 0.  0.
         12    1    1    2    0    0  0.67724107998E+01 -0.13304450319E+02  0.11304083900E+02  0.18725817984E+02  0.00000000000E+00 0. -1.
         11    1    3    3    0    0 -0.22814365508E+02 -0.71601098962E+01 -0.72083432014E+01  0.24974440119E+02  0.51100000000E-03 0. -1.
        -11    1    3    3    0    0 -0.46754367659E+01  0.71981978176E+01  0.14362621369E+02  0.16731965026E+02  0.51100000000E-03 0.  1.
        -12    1    3    3    0    0  0.20717391474E+02  0.13266362398E+02 -0.18458362067E+02  0.30755776872E+02  0.00000000000E+00 0.  1.
</event>
<event>
 7    1  0.2876796E-013  0.7246159E+02  0.7816164E-02  0.1226708E+00
        -11   -1    0    0    0    0  0.00000000000E+00  0.00000000000E+00  0.45593999997E+02  0.45594000000E+02  0.51100000000E-03 0.  1.
         11   -1    0    0    0    0 -0.00000000000E+00 -0.00000000000E+00 -0.45593999997E+02  0.45594000000E+02  0.51100000000E-03 0. -1.
    9900012    2    1    2    0    0  0.36592091878E+01  0.12236763683E+02  0.13694898959E+02  0.72461589377E+02  0.70000024859E+02 0.  0.
         12    1    1    2    0    0 -0.36592091878E+01 -0.12236763683E+02 -0.13694898959E+02  0.18726410623E+02  0.00000000000E+00 0. -1.
         11    1    3    3    0    0 -0.11923799367E+02 -0.17234512418E+01  0.10574832538E+02  0.16030419801E+02  0.51100000000E-03 0.  1.
        -11    1    3    3    0    0  0.48116498896E+01 -0.13587251675E+02  0.18211252751E+02  0.23225311833E+02  0.51100000000E-03 0. -1.
        -12    1    3    3    0    0  0.10771358665E+02  0.27547466600E+02 -0.15091186330E+02  0.33205857743E+02  0.00000000000E+00 0.  1.
</event>
<event>
 7    1  0.2876796E-013  0.7246153E+02  0.7816164E-02  0.1226708E+00
        -11   -1    0    0    0    0  0.00000000000E+00  0.00000000000E+00  0.45593999997E+02  0.45594000000E+02  0.51100000000E-03 0.  1.
         11   -1    0    0    0    0 -0.00000000000E+00 -0.00000000000E+00 -0.45593999997E+02  0.45594000000E+02  0.51100000000E-03 0. -1.
    9900012    2    1    2    0    0 -0.14886240407E+01  0.74008113574E+01  0.17137466707E+02  0.72461527417E+02  0.69999944144E+02 0.  0.
         12    1    1    2    0    0  0.14886240407E+01 -0.74008113574E+01 -0.17137466707E+02  0.18726472583E+02  0.00000000000E+00 0. -1.
         11    1    3    3    0    0  0.11328967231E+02 -0.22116618087E+02  0.17287590609E+02  0.30271291407E+02  0.51100000000E-03 0. -1.
        -11    1    3    3    0    0 -0.44687317708E+01  0.63735895906E+01  0.12345993985E+02  0.14595059974E+02  0.51100000000E-03 0.  1.
         12    1    3    3    0    0 -0.83488595008E+01  0.23143839854E+02 -0.12496117887E+02  0.27595176035E+02  0.00000000000E+00 0. -1.
</event>
<event>
 7    1  0.2876796E-013  0.7246156E+02  0.7816164E-02  0.1226708E+00
        -11   -1    0    0    0    0  0.00000000000E+00  0.00000000000E+00  0.45593999997E+02  0.45594000000E+02  0.51100000000E-03 0.  1.
         11   -1    0    0    0    0 -0.00000000000E+00 -0.00000000000E+00 -0.45593999997E+02  0.45594000000E+02  0.51100000000E-03 0. -1.
    9900012    2    1    2    0    0 -0.12592122717E+02  0.13523069848E+02  0.30404768654E+01  0.72461562213E+02  0.69999989472E+02 0.  0.
         12    1    1    2    0    0  0.12592122717E+02 -0.13523069848E+02 -0.30404768654E+01  0.18726437787E+02  0.00000000000E+00 0. -1.
         11    1    3    3    0    0 -0.16884122885E+02 -0.13389597160E+00  0.14886723846E+02  0.22510132849E+02  0.51100000000E-03 0. -1.
        -11    1    3    3    0    0 -0.13073589537E+02  0.21452766452E+02  0.36755981220E+01  0.25389957732E+02  0.51100000000E-03 0.  1.
         12    1    3    3    0    0  0.17365589705E+02 -0.77958006330E+01 -0.15521845103E+02  0.24561471632E+02  0.00000000000E+00 0. -1.
</event>
<event>
 7    1  0.2876796E-013  0.7246160E+02  0.7816164E-02  0.1226708E+00
        -11   -1    0    0    0    0  0.00000000000E+00  0.00000000000E+00  0.45593999997E+02  0.45594000000E+02  0.51100000000E-03 0.  1.
         11   -1    0    0    0    0 -0.00000000000E+00 -0.00000000000E+00 -0.45593999997E+02  0.45594000000E+02  0.51100000000E-03 0. -1.
    9900012    2    1    2    0    0  0.16268062310E+02  0.91442264950E+01  0.15528821655E+01  0.72461596914E+02  0.70000034677E+02 0.  0.
         12    1    1    2    0    0 -0.16268062310E+02 -0.91442264950E+01 -0.15528821655E+01  0.18726403086E+02  0.00000000000E+00 0. -1.
         11    1    3    3    0    0  0.35659563966E+01  0.32703338374E+01 -0.15124416296E+02  0.15879518160E+02  0.51100000000E-03 0. -1.
        -11    1    3    3    0    0  0.22987315434E+02  0.18768647271E+02 -0.42035806849E+01  0.29972468735E+02  0.51100000000E-03 0.  1.
        -12    1    3    3    0    0 -0.10285209520E+02 -0.12894754614E+02  0.20880879146E+02  0.26609610019E+02  0.00000000000E+00 0.  1.
</event>
<event>
 7    1  0.2876796E-013  0.7246155E+02  0.7816164E-02  0.1226708E+00
        -11   -1    0    0    0    0  0.00000000000E+00  0.00000000000E+00  0.45593999997E+02  0.45594000000E+02  0.51100000000E-03 0.  1.
         11   -1    0    0    0    0 -0.00000000000E+00 -0.00000000000E+00 -0.45593999997E+02  0.45594000000E+02  0.51100000000E-03 0. -1.
    9900012    2    1    2    0    0 -0.53671109519E+01  0.14745727676E+02  0.10219478522E+02  0.72461545293E+02  0.69999967430E+02 0.  0.
         12    1    1    2    0    0  0.53671109519E+01 -0.14745727676E+02 -0.10219478522E+02  0.18726454707E+02  0.00000000000E+00 0. -1.
         11    1    3    3    0    0  0.19855578213E+01  0.16105763456E+02 -0.51026920587E+01  0.17011041205E+02  0.51100000000E-03 0. -1.
        -11    1    3    3    0    0  0.10982756710E+02  0.13679937388E+02 -0.10456450659E+02  0.20423001556E+02  0.51100000000E-03 0.  1.
         12    1    3    3    0    0 -0.18335425483E+02 -0.15039973169E+02  0.25778621239E+02  0.35027502531E+02  0.00000000000E+00 0. -1.
</event>
<event>
 7    1  0.2876796E-013  0.7246159E+02  0.7816164E-02  0.1226708E+00
        -11   -1    0    0    0    0  0.00000000000E+00  0.00000000000E+00  0.45593999997E+02  0.45594000000E+02  0.51100000000E-03 0.  1.
         11   -1    0    0    0    0 -0.00000000000E+00 -0.00000000000E+00 -0.45593999997E+02  0.45594000000E+02  0.51100000000E-03 0. -1.
    9900012    2    1    2    0    0 -0.10457459727E+02  0.14819692648E+02  0.46579752319E+01  0.72461588507E+02  0.70000023726E+02 0.  0.
         12    1    1    2    0    0  0.10457459727E+02 -0.14819692648E+02 -0.46579752319E+01  0.18726411493E+02  0.00000000000E+00 0. -1.
         11    1    3    3    0    0 -0.11609792353E+02 -0.95050812965E+01 -0.54351486046E+01  0.15958530307E+02  0.51100000000E-03 0.  1.
        -11    1    3    3    0    0 -0.19356834785E+02  0.11529221765E+02 -0.10397497299E+02  0.24813664738E+02  0.51100000000E-03 0. -1.
        -12    1    3    3    0    0  0.20509167411E+02  0.12795552180E+02  0.20490621135E+02  0.31689393462E+02  0.00000000000E+00 0.  1.
</event>
<event>
 7    1  0.2876796E-013  0.7246159E+02  0.7816164E-02  0.1226708E+00
        -11   -1    0    0    0    0  0.00000000000E+00  0.00000000000E+00  0.45593999997E+02  0.45594000000E+02  0.51100000000E-03 0. -1.
         11   -1    0    0    0    0 -0.00000000000E+00 -0.00000000000E+00 -0.45593999997E+02  0.45594000000E+02  0.51100000000E-03 0.  1.
    9900012    2    1    2    0    0  0.10043439136E+00  0.18518309410E+02  0.27821924698E+01  0.72461589094E+02  0.70000024491E+02 0.  0.
         12    1    1    2    0    0 -0.10043439136E+00 -0.18518309410E+02 -0.27821924698E+01  0.18726410906E+02  0.00000000000E+00 0. -1.
         11    1    3    3    0    0 -0.65777696492E+01 -0.90932642445E+01  0.42996847090E+01  0.12018394112E+02  0.51100000000E-03 0.  1.
        -11    1    3    3    0    0  0.33835389109E+01 -0.15932168732E+02  0.29305559823E+01  0.16549033044E+02  0.51100000000E-03 0. -1.
        -12    1    3    3    0    0  0.32946651297E+01  0.43543742386E+02 -0.44480482215E+01  0.43894161938E+02  0.00000000000E+00 0.  1.
</event>
<event>
 7    1  0.2876796E-013  0.7246159E+02  0.7816164E-02  0.1226708E+00
        -11   -1    0    0    0    0  0.00000000000E+00  0.00000000000E+00  0.45593999997E+02  0.45594000000E+02  0.51100000000E-03 0. -1.
         11   -1    0    0    0    0 -0.00000000000E+00 -0.00000000000E+00 -0.45593999997E+02  0.45594000000E+02  0.51100000000E-03 0.  1.
    9900012    2    1    2    0    0 -0.13740698680E+02 -0.18028352807E+01 -0.12594503946E+02  0.72461586972E+02  0.70000021725E+02 0.  0.
         12    1    1    2    0    0  0.13740698680E+02  0.18028352807E+01  0.12594503946E+02  0.18726413028E+02  0.00000000000E+00 0. -1.
         11    1    3    3    0    0 -0.14387765106E+02  0.15459163836E+02 -0.85571325118E+01  0.22786356627E+02  0.51100000000E-03 0. -1.
        -11    1    3    3    0    0  0.23144388482E+02 -0.60352477472E+01 -0.53077142576E+01  0.24500178866E+02  0.51100000000E-03 0.  1.
         12    1    3    3    0    0 -0.22497322057E+02 -0.11226751370E+02  0.12703428236E+01  0.25175051478E+02  0.00000000000E+00 0. -1.
</event>
<event>
 7    1  0.2876796E-013  0.7246161E+02  0.7816164E-02  0.1226708E+00
        -11   -1    0    0    0    0  0.00000000000E+00  0.00000000000E+00  0.45593999997E+02  0.45594000000E+02  0.51100000000E-03 0. -1.
         11   -1    0    0    0    0 -0.00000000000E+00 -0.00000000000E+00 -0.45593999997E+02  0.45594000000E+02  0.51100000000E-03 0.  1.
    9900012    2    1    2    0    0 -0.18844259334E+01 -0.17845291515E+02  0.53546503688E+01  0.72461607637E+02  0.70000048646E+02 0.  0.
         12    1    1    2    0    0  0.18844259334E+01  0.17845291515E+02 -0.53546503688E+01  0.18726392363E+02  0.00000000000E+00 0. -1.
         11    1    3    3    0    0 -0.21835435737E+02  0.98748958888E+01  0.16829057699E+01  0.24023571648E+02  0.51100000000E-03 0. -1.
        -11    1    3    3    0    0 -0.39008936264E+01  0.38453679396E+01  0.68220682068E+01  0.87489679709E+01  0.51100000000E-03 0.  1.
        -12    1    3    3    0    0  0.23851903430E+02 -0.31565555343E+02 -0.31503236079E+01  0.39689068019E+02  0.00000000000E+00 0.  1.
</event>
<event>
 7    1  0.2876796E-013  0.7246156E+02  0.7816164E-02  0.1226708E+00
        -11   -1    0    0    0    0  0.00000000000E+00  0.00000000000E+00  0.45593999997E+02  0.45594000000E+02  0.51100000000E-03 0. -1.
         11   -1    0    0    0    0 -0.00000000000E+00 -0.00000000000E+00 -0.45593999997E+02  0.45594000000E+02  0.51100000000E-03 0.  1.
    9900012    2    1    2    0    0  0.26694476500E+01  0.18533350018E+02 -0.26210060546E+00  0.72461555853E+02  0.69999981188E+02 0.  0.
         12    1    1    2    0    0 -0.26694476500E+01 -0.18533350018E+02  0.26210060546E+00  0.18726444147E+02  0.00000000000E+00 0. -1.
         11    1    3    3    0    0 -0.86900647656E+01  0.16341822983E+02  0.68169241744E+00  0.18521260995E+02  0.51100000000E-03 0. -1.
        -11    1    3    3    0    0  0.24265609440E+02 -0.11493301512E+02 -0.14724060711E+02  0.30622112031E+02  0.51100000000E-03 0.  1.
         12    1    3    3    0    0 -0.12906097025E+02  0.13684828547E+02  0.13780267689E+02  0.23318182827E+02  0.00000000000E+00 0. -1.
</event>
<event>
 7    1  0.2876796E-013  0.7246158E+02  0.7816164E-02  0.1226708E+00
        -11   -1    0    0    0    0  0.00000000000E+00  0.00000000000E+00  0.45593999997E+02  0.45594000000E+02  0.51100000000E-03 0. -1.
         11   -1    0    0    0    0 -0.00000000000E+00 -0.00000000000E+00 -0.45593999997E+02  0.45594000000E+02  0.51100000000E-03 0.  1.
    9900012    2    1    2    0    0  0.77652806542E+01  0.13794128064E+02 -0.10005066472E+02  0.72461577283E+02  0.70000009104E+02 0.  0.
         12    1    1    2    0    0 -0.77652806542E+01 -0.13794128064E+02  0.10005066472E+02  0.18726422717E+02  0.00000000000E+00 0. -1.
         11    1    3    3    0    0  0.11993865559E+01  0.16343867452E+02  0.19639202049E+02  0.25578482926E+02  0.51100000000E-03 0. -1.
        -11    1    3    3    0    0 -0.78469116900E+01  0.56447987638E+01  0.31245633207E+01  0.10158773172E+02  0.51100000000E-03 0.  1.
        -12    1    3    3    0    0  0.14412805788E+02 -0.81945381525E+01 -0.32768831842E+02  0.36724321185E+02  0.00000000000E+00 0.  1.
</event>
<event>
 7    1  0.2876796E-013  0.7246162E+02  0.7816164E-02  0.1226708E+00
        -11   -1    0    0    0    0  0.00000000000E+00  0.00000000000E+00  0.45593999997E+02  0.45594000000E+02  0.51100000000E-03 0. -1.
         11   -1    0    0    0    0 -0.00000000000E+00 -0.00000000000E+00 -0.45593999997E+02  0.45594000000E+02  0.51100000000E-03 0.  1.
    9900012    2    1    2    0    0 -0.11234411323E+02  0.11267991863E+02  0.98740989823E+01  0.72461615696E+02  0.70000059144E+02 0.  0.
         12    1    1    2    0    0  0.11234411323E+02 -0.11267991863E+02 -0.98740989823E+01  0.18726384304E+02  0.00000000000E+00 0. -1.
         11    1    3    3    0    0 -0.92792960302E+01 -0.17112483762E+02  0.23511179887E+02  0.30524056337E+02  0.51100000000E-03 0. -1.
        -11    1    3    3    0    0 -0.61483392273E+01 -0.33701219648E+01 -0.54525183083E+01  0.88819904006E+01  0.51100000000E-03 0.  1.
        -12    1    3    3    0    0  0.41932239350E+01  0.31750597590E+02 -0.81845625967E+01  0.33055568958E+02  0.00000000000E+00 0.  1.
</event>
<event>
 7    1  0.2876796E-013  0.7246148E+02  0.7816164E-02  0.1226708E+00
        -11   -1    0    0    0    0  0.00000000000E+00  0.00000000000E+00  0.45593999997E+02  0.45594000000E+02  0.51100000000E-03 0.  1.
         11   -1    0    0    0    0 -0.00000000000E+00 -0.00000000000E+00 -0.45593999997E+02  0.45594000000E+02  0.51100000000E-03 0. -1.
    9900012    2    1    2    0    0 -0.46479200321E+01  0.16271457027E+02  0.80199291237E+01  0.72461475027E+02  0.69999875897E+02 0.  0.
         12    1    1    2    0    0  0.46479200321E+01 -0.16271457027E+02 -0.80199291237E+01  0.18726524973E+02  0.00000000000E+00 0. -1.
         11    1    3    3    0    0  0.63597406964E+01 -0.50905868105E+01  0.48706320101E+01  0.94912292270E+01  0.51100000000E-03 0. -1.
        -11    1    3    3    0    0  0.48861263186E+01 -0.48402097301E+01  0.24612788492E+02  0.25555649439E+02  0.51100000000E-03 0.  1.
         12    1    3    3    0    0 -0.15893787047E+02  0.26202253568E+02 -0.21463491378E+02  0.37414596361E+02  0.00000000000E+00 0. -1.
</event>
<event>
 7    1  0.2876796E-013  0.7246158E+02  0.7816164E-02  0.1226708E+00
        -11   -1    0    0    0    0  0.00000000000E+00  0.00000000000E+00  0.45593999997E+02  0.45594000000E+02  0.51100000000E-03 0. -1.
         11   -1    0    0    0    0 -0.00000000000E+00 -0.00000000000E+00 -0.45593999997E+02  0.45594000000E+02  0.51100000000E-03 0.  1.
    9900012    2    1    2    0    0 -0.17926579187E+02 -0.22594911669E+01  0.49205013901E+01  0.72461578142E+02  0.70000010223E+02 0.  0.
         12    1    1    2    0    0  0.17926579187E+02  0.22594911669E+01 -0.49205013901E+01  0.18726421858E+02  0.00000000000E+00 0. -1.
         11    1    3    3    0    0 -0.19517443702E+02 -0.52940131369E+01 -0.58985877718E+01  0.21065386816E+02  0.51100000000E-03 0. -1.
        -11    1    3    3    0    0 -0.14329439995E+02  0.20126796947E+02 -0.19359313224E+01  0.24782425956E+02  0.51100000000E-03 0.  1.
        -12    1    3    3    0    0  0.15920304510E+02 -0.17092274977E+02  0.12755020484E+02  0.26613765370E+02  0.00000000000E+00 0.  1.
</event>
<event>
 7    1  0.2876796E-013  0.7246160E+02  0.7816164E-02  0.1226708E+00
        -11   -1    0    0    0    0  0.00000000000E+00  0.00000000000E+00  0.45593999997E+02  0.45594000000E+02  0.51100000000E-03 0. -1.
         11   -1    0    0    0    0 -0.00000000000E+00 -0.00000000000E+00 -0.45593999997E+02  0.45594000000E+02  0.51100000000E-03 0.  1.
    9900012    2    1    2    0    0 -0.82908800640E+01 -0.12277402245E+02  0.11454463956E+02  0.72461600382E+02  0.70000039195E+02 0.  0.
         12    1    1    2    0    0  0.82908800640E+01  0.12277402245E+02 -0.11454463956E+02  0.18726399618E+02  0.00000000000E+00 0. -1.
         11    1    3    3    0    0 -0.17480455800E+01 -0.17328461934E+01  0.13279739784E+02  0.13505921230E+02  0.51100000000E-03 0. -1.
        -11    1    3    3    0    0 -0.27519668257E+02  0.10266169963E+02 -0.13548196119E+01  0.29403433866E+02  0.51100000000E-03 0.  1.
         12    1    3    3    0    0  0.20976833773E+02 -0.20810726015E+02 -0.47045621671E+00  0.29552245286E+02  0.00000000000E+00 0. -1.
</event>
<event>
 7    1  0.2876796E-013  0.7246160E+02  0.7816164E-02  0.1226708E+00
        -11   -1    0    0    0    0  0.00000000000E+00  0.00000000000E+00  0.45593999997E+02  0.45594000000E+02  0.51100000000E-03 0. -1.
         11   -1    0    0    0    0 -0.00000000000E+00 -0.00000000000E+00 -0.45593999997E+02  0.45594000000E+02  0.51100000000E-03 0.  1.
    9900012    2    1    2    0    0  0.16637824269E+01  0.15116703671E+02 -0.10926802706E+02  0.72461603677E+02  0.70000043488E+02 0.  0.
         12    1    1    2    0    0 -0.16637824269E+01 -0.15116703671E+02  0.10926802706E+02  0.18726396323E+02  0.00000000000E+00 0. -1.
         11    1    3    3    0    0  0.25050301655E+01 -0.31047703723E+01  0.84749169618E+01  0.93669094671E+01  0.51100000000E-03 0. -1.
        -11    1    3    3    0    0  0.87145543454E+01 -0.10608169273E+02 -0.28293038568E+02  0.31447937046E+02  0.51100000000E-03 0.  1.
         12    1    3    3    0    0 -0.95558020840E+01  0.28829643317E+02  0.88913189001E+01  0.31646757165E+02  0.00000000000E+00 0. -1.
</event>
<event>
 7    1  0.2876796E-013  0.7246158E+02  0.7816164E-02  0.1226708E+00
        -11   -1    0    0    0    0  0.00000000000E+00  0.00000000000E+00  0.45593999997E+02  0.45594000000E+02  0.51100000000E-03 0. -1.
         11   -1    0    0    0    0 -0.00000000000E+00 -0.00000000000E+00 -0.45593999997E+02  0.45594000000E+02  0.51100000000E-03 0.  1.
    9900012    2    1    2    0    0 -0.18445902609E+02 -0.20410895370E+01 -0.25022531173E+01  0.72461584427E+02  0.70000018411E+02 0.  0.
         12    1    1    2    0    0  0.18445902609E+02  0.20410895370E+01  0.25022531173E+01  0.18726415573E+02  0.00000000000E+00 0. -1.
         11    1    3    3    0    0 -0.28642718756E+02  0.17668025070E+02  0.12662492426E+02  0.35956962640E+02  0.51100000000E-03 0. -1.
        -11    1    3    3    0    0  0.41299223181E+01  0.56252556616E+01 -0.17120073990E+01  0.71854526098E+01  0.51100000000E-03 0.  1.
        -12    1    3    3    0    0  0.60668938293E+01 -0.25334370269E+02 -0.13452738144E+02  0.29319169177E+02  0.00000000000E+00 0.  1.
</event>
<event>
 7    1  0.2876796E-013  0.7246157E+02  0.7816164E-02  0.1226708E+00
        -11   -1    0    0    0    0  0.00000000000E+00  0.00000000000E+00  0.45593999997E+02  0.45594000000E+02  0.51100000000E-03 0. -1.
         11   -1    0    0    0    0 -0.00000000000E+00 -0.00000000000E+00 -0.45593999997E+02  0.45594000000E+02  0.51100000000E-03 0.  1.
    9900012    2    1    2    0    0 -0.17016206812E+02 -0.60168455681E+01 -0.49925509714E+01  0.72461567075E+02  0.69999995807E+02 0.  0.
         12    1    1    2    0    0  0.17016206812E+02  0.60168455681E+01  0.49925509714E+01  0.18726432925E+02  0.00000000000E+00 0. -1.
         11    1    3    3    0    0 -0.19993953811E+02 -0.68290474026E+01 -0.19590721277E+01  0.21218671996E+02  0.51100000000E-03 0. -1.
        -11    1    3    3    0    0 -0.13773485396E+02 -0.20064844429E+02 -0.25646774848E+01  0.24472115821E+02  0.51100000000E-03 0.  1.
         12    1    3    3    0    0  0.16751232394E+02  0.20877046263E+02 -0.46880135888E+00  0.26770779258E+02  0.00000000000E+00 0. -1.
</event>
<event>
 7    1  0.2876796E-013  0.7246121E+02  0.7816164E-02  0.1226709E+00
        -11   -1    0    0    0    0  0.00000000000E+00  0.00000000000E+00  0.45593999997E+02  0.45594000000E+02  0.51100000000E-03 0.  1.
         11   -1    0    0    0    0 -0.00000000000E+00 -0.00000000000E+00 -0.45593999997E+02  0.45594000000E+02  0.51100000000E-03 0. -1.
    9900012    2    1    2    0    0  0.85769349216E+01 -0.12301917868E+01  0.16601672757E+02  0.72461208421E+02  0.69999528592E+02 0.  0.
         12    1    1    2    0    0 -0.85769349216E+01  0.12301917868E+01 -0.16601672757E+02  0.18726791579E+02  0.00000000000E+00 0. -1.
         11    1    3    3    0    0 -0.14091560430E+02 -0.98695516045E+01  0.15689225256E+01  0.17275463594E+02  0.51100000000E-03 0. -1.
        -11    1    3    3    0    0  0.29816225522E+01  0.17332567569E+02 -0.11506914539E+02  0.21017065782E+02  0.51100000000E-03 0.  1.
        -12    1    3    3    0    0  0.19686872799E+02 -0.86932077518E+01  0.26539664771E+02  0.34168679046E+02  0.00000000000E+00 0.  1.
</event>
<event>
 7    1  0.2876796E-013  0.7246158E+02  0.7816164E-02  0.1226708E+00
        -11   -1    0    0    0    0  0.00000000000E+00  0.00000000000E+00  0.45593999997E+02  0.45594000000E+02  0.51100000000E-03 0.  1.
         11   -1    0    0    0    0 -0.00000000000E+00 -0.00000000000E+00 -0.45593999997E+02  0.45594000000E+02  0.51100000000E-03 0. -1.
    9900012    2    1    2    0    0 -0.63883721768E+01  0.17534369531E+02  0.15534513236E+01  0.72461584835E+02  0.70000018942E+02 0.  0.
         12    1    1    2    0    0  0.63883721768E+01 -0.17534369531E+02 -0.15534513236E+01  0.18726415165E+02  0.00000000000E+00 0. -1.
         11    1    3    3    0    0  0.57061208105E+01 -0.18351400176E+02  0.73836223660E+01  0.20587656074E+02  0.51100000000E-03 0. -1.
        -11    1    3    3    0    0 -0.11667576766E+02  0.28863809533E+01  0.96573270556E+01  0.15418414598E+02  0.51100000000E-03 0.  1.
        -12    1    3    3    0    0 -0.42691622165E+00  0.32999388753E+02 -0.15487498098E+02  0.36455514163E+02  0.00000000000E+00 0.  1.
</event>
<event>
 7    1  0.2876796E-013  0.7246154E+02  0.7816164E-02  0.1226708E+00
        -11   -1    0    0    0    0  0.00000000000E+00  0.00000000000E+00  0.45593999997E+02  0.45594000000E+02  0.51100000000E-03 0. -1.
         11   -1    0    0    0    0 -0.00000000000E+00 -0.00000000000E+00 -0.45593999997E+02  0.45594000000E+02  0.51100000000E-03 0.  1.
    9900012    2    1    2    0    0 -0.17806313307E+02 -0.22982381987E+01 -0.53229324718E+01  0.72461540044E+02  0.69999960593E+02 0.  0.
         12    1    1    2    0    0  0.17806313307E+02  0.22982381987E+01  0.53229324718E+01  0.18726459956E+02  0.00000000000E+00 0. -1.
         11    1    3    3    0    0  0.27164262487E+01  0.26112682488E+02 -0.11948318986E+01  0.26280768288E+02  0.51100000000E-03 0. -1.
        -11    1    3    3    0    0  0.63830142864E+01 -0.95845653509E+01  0.42766621059E+01  0.12283997858E+02  0.51100000000E-03 0.  1.
         12    1    3    3    0    0 -0.26905753842E+02 -0.18826355336E+02 -0.84047626792E+01  0.33896773898E+02  0.00000000000E+00 0. -1.
</event>
<event>
 7    1  0.2876796E-013  0.7246156E+02  0.7816164E-02  0.1226708E+00
        -11   -1    0    0    0    0  0.00000000000E+00  0.00000000000E+00  0.45593999997E+02  0.45594000000E+02  0.51100000000E-03 0.  1.
         11   -1    0    0    0    0 -0.00000000000E+00 -0.00000000000E+00 -0.45593999997E+02  0.45594000000E+02  0.51100000000E-03 0. -1.
    9900012    2    1    2    0    0  0.15115123797E+02 -0.10190853474E+02  0.42847612421E+01  0.72461557711E+02  0.69999983607E+02 0.  0.
         12    1    1    2    0    0 -0.15115123797E+02  0.10190853474E+02 -0.42847612421E+01  0.18726442289E+02  0.00000000000E+00 0. -1.
         11    1    3    3    0    0  0.27351356185E+02 -0.87962169375E+01  0.14885422674E+02  0.32358089036E+02  0.51100000000E-03 0. -1.
        -11    1    3    3    0    0  0.48030019993E+01  0.10077429652E+00  0.11321061070E+02  0.12298187171E+02  0.51100000000E-03 0.  1.
         12    1    3    3    0    0 -0.17039234388E+02 -0.14954108330E+01 -0.21921722502E+02  0.27805281504E+02  0.00000000000E+00 0. -1.
</event>
<event>
 7    1  0.2876796E-013  0.7246152E+02  0.7816164E-02  0.1226708E+00
        -11   -1    0    0    0    0  0.00000000000E+00  0.00000000000E+00  0.45593999997E+02  0.45594000000E+02  0.51100000000E-03 0. -1.
         11   -1    0    0    0    0 -0.00000000000E+00 -0.00000000000E+00 -0.45593999997E+02  0.45594000000E+02  0.51100000000E-03 0.  1.
    9900012    2    1    2    0    0  0.99911168830E+01 -0.47633239372E+00 -0.15831348627E+02  0.72461523864E+02  0.69999939516E+02 0.  0.
         12    1    1    2    0    0 -0.99911168830E+01  0.47633239372E+00  0.15831348627E+02  0.18726476136E+02  0.00000000000E+00 0. -1.
         11    1    3    3    0    0  0.31371117293E+02  0.93056149130E+00 -0.12110072910E+02  0.33640255812E+02  0.51100000000E-03 0. -1.
        -11    1    3    3    0    0 -0.65270145184E+01 -0.52457207040E+00 -0.17411555070E+02  0.18602132797E+02  0.51100000000E-03 0.  1.
        -12    1    3    3    0    0 -0.14852985892E+02 -0.88232181463E+00  0.13690279353E+02  0.20219135255E+02  0.00000000000E+00 0.  1.
</event>
<event>
 7    1  0.2876796E-013  0.7246155E+02  0.7816164E-02  0.1226708E+00
        -11   -1    0    0    0    0  0.00000000000E+00  0.00000000000E+00  0.45593999997E+02  0.45594000000E+02  0.51100000000E-03 0.  1.
         11   -1    0    0    0    0 -0.00000000000E+00 -0.00000000000E+00 -0.45593999997E+02  0.45594000000E+02  0.51100000000E-03 0. -1.
    9900012    2    1    2    0    0  0.44676986570E+01  0.17415156589E+02  0.52375382656E+01  0.72461552996E+02  0.69999977466E+02 0.  0.
         12    1    1    2    0    0 -0.44676986570E+01 -0.17415156589E+02 -0.52375382656E+01  0.18726447004E+02  0.00000000000E+00 0. -1.
         11    1    3    3    0    0 -0.13282926559E+02 -0.12713309090E+02  0.33777142829E+01  0.18694205520E+02  0.51100000000E-03 0. -1.
        -11    1    3    3    0    0  0.25337473123E+00 -0.94251063246E+01  0.44768017684E+01  0.10437364721E+02  0.51100000000E-03 0.  1.
        -12    1    3    3    0    0  0.17497250485E+02  0.39553572004E+02 -0.26169777857E+01  0.43329982755E+02  0.00000000000E+00 0.  1.
</event>
<event>
 7    1  0.2876796E-013  0.7246160E+02  0.7816164E-02  0.1226708E+00
        -11   -1    0    0    0    0  0.00000000000E+00  0.00000000000E+00  0.45593999997E+02  0.45594000000E+02  0.51100000000E-03 0. -1.
         11   -1    0    0    0    0 -0.00000000000E+00 -0.00000000000E+00 -0.45593999997E+02  0.45594000000E+02  0.51100000000E-03 0.  1.
    9900012    2    1    2    0    0 -0.88014356589E+01  0.27650500592E+01 -0.16296236916E+02  0.72461598608E+02  0.70000036884E+02 0.  0.
         12    1    1    2    0    0  0.88014356589E+01 -0.27650500592E+01  0.16296236916E+02  0.18726401392E+02  0.00000000000E+00 0. -1.
         11    1    3    3    0    0 -0.42371594324E-01 -0.35267781575E+01 -0.12035322542E+01  0.37267210349E+01  0.51100000000E-03 0. -1.
        -11    1    3    3    0    0  0.36817141179E+01  0.34230451608E+02 -0.16377005822E+02  0.38124600406E+02  0.51100000000E-03 0.  1.
         12    1    3    3    0    0 -0.12440778182E+02 -0.27938623391E+02  0.12843011609E+01  0.30610277167E+02  0.00000000000E+00 0. -1.
</event>
<event>
 7    1  0.2876796E-013  0.7246155E+02  0.7816164E-02  0.1226708E+00
        -11   -1    0    0    0    0  0.00000000000E+00  0.00000000000E+00  0.45593999997E+02  0.45594000000E+02  0.51100000000E-03 0.  1.
         11   -1    0    0    0    0 -0.00000000000E+00 -0.00000000000E+00 -0.45593999997E+02  0.45594000000E+02  0.51100000000E-03 0. -1.
    9900012    2    1    2    0    0  0.80974407191E+01 -0.75136693662E+01  0.15121380520E+02  0.72461550193E+02  0.69999973814E+02 0.  0.
         12    1    1    2    0    0 -0.80974407191E+01  0.75136693662E+01 -0.15121380520E+02  0.18726449807E+02  0.00000000000E+00 0. -1.
         11    1    3    3    0    0  0.12064440893E+02  0.36792626860E+01 -0.21050163032E+01  0.12787447042E+02  0.51100000000E-03 0. -1.
        -11    1    3    3    0    0  0.18058699443E+02  0.10415607619E+02  0.19748225269E+02  0.28715743229E+02  0.51100000000E-03 0.  1.
         12    1    3    3    0    0 -0.22025699617E+02 -0.21608539671E+02 -0.25218284461E+01  0.30958359921E+02  0.00000000000E+00 0. -1.
</event>
<event>
 7    1  0.2876796E-013  0.7246158E+02  0.7816164E-02  0.1226708E+00
        -11   -1    0    0    0    0  0.00000000000E+00  0.00000000000E+00  0.45593999997E+02  0.45594000000E+02  0.51100000000E-03 0.  1.
         11   -1    0    0    0    0 -0.00000000000E+00 -0.00000000000E+00 -0.45593999997E+02  0.45594000000E+02  0.51100000000E-03 0. -1.
    9900012    2    1    2    0    0  0.93329043203E+01 -0.15599926555E+02  0.44964354638E+01  0.72461581670E+02  0.70000014819E+02 0.  0.
         12    1    1    2    0    0 -0.93329043203E+01  0.15599926555E+02 -0.44964354638E+01  0.18726418330E+02  0.00000000000E+00 0. -1.
         11    1    3    3    0    0 -0.13967473645E+00  0.33758377759E+00  0.14163597494E+01  0.14627190570E+01  0.51100000000E-03 0.  1.
        -11    1    3    3    0    0  0.13927517425E+02 -0.39569783921E+02  0.14489381247E+02  0.44381141382E+02  0.51100000000E-03 0. -1.
         12    1    3    3    0    0 -0.44549383683E+01  0.23632273588E+02 -0.11409305532E+02  0.26617721231E+02  0.00000000000E+00 0. -1.
</event>
<event>
 7    1  0.2876796E-013  0.7246158E+02  0.7816164E-02  0.1226708E+00
        -11   -1    0    0    0    0  0.00000000000E+00  0.00000000000E+00  0.45593999997E+02  0.45594000000E+02  0.51100000000E-03 0. -1.
         11   -1    0    0    0    0 -0.00000000000E+00 -0.00000000000E+00 -0.45593999997E+02  0.45594000000E+02  0.51100000000E-03 0.  1.
    9900012    2    1    2    0    0  0.16323637135E+02  0.54402999349E+01 -0.73905780255E+01  0.72461584533E+02  0.70000018548E+02 0.  0.
         12    1    1    2    0    0 -0.16323637135E+02 -0.54402999349E+01  0.73905780255E+01  0.18726415467E+02  0.00000000000E+00 0. -1.
         11    1    3    3    0    0 -0.81077022376E+01  0.28689730081E+02  0.48484683896E+01  0.30205017691E+02  0.51100000000E-03 0. -1.
        -11    1    3    3    0    0 -0.20285782869E+00  0.19877254423E+01 -0.61517850739E+01  0.64681267450E+01  0.51100000000E-03 0.  1.
        -12    1    3    3    0    0  0.24634197201E+02 -0.25237155589E+02 -0.60872613413E+01  0.35788440097E+02  0.00000000000E+00 0.  1.
</event>
<event>
 7    1  0.2876796E-013  0.7246153E+02  0.7816164E-02  0.1226708E+00
        -11   -1    0    0    0    0  0.00000000000E+00  0.00000000000E+00  0.45593999997E+02  0.45594000000E+02  0.51100000000E-03 0.  1.
         11   -1    0    0    0    0 -0.00000000000E+00 -0.00000000000E+00 -0.45593999997E+02  0.45594000000E+02  0.51100000000E-03 0. -1.
    9900012    2    1    2    0    0  0.33473520337E+01 -0.15524861544E+02 -0.99224253684E+01  0.72461531652E+02  0.69999949662E+02 0.  0.
         12    1    1    2    0    0 -0.33473520337E+01  0.15524861544E+02  0.99224253684E+01  0.18726468348E+02  0.00000000000E+00 0. -1.
         11    1    3    3    0    0 -0.94316839980E+01  0.18350714863E+01 -0.31354551558E+02  0.32793780722E+02  0.51100000000E-03 0. -1.
        -11    1    3    3    0    0  0.35239151187E+01 -0.14979165337E+02 -0.86152583600E+00  0.15412189948E+02  0.51100000000E-03 0.  1.
        -12    1    3    3    0    0  0.92551209129E+01 -0.23807676931E+01  0.22293652026E+02  0.24255560982E+02  0.00000000000E+00 0.  1.
</event>
<event>
 7    1  0.2876796E-013  0.7246150E+02  0.7816164E-02  0.1226708E+00
        -11   -1    0    0    0    0  0.00000000000E+00  0.00000000000E+00  0.45593999997E+02  0.45594000000E+02  0.51100000000E-03 0. -1.
         11   -1    0    0    0    0 -0.00000000000E+00 -0.00000000000E+00 -0.45593999997E+02  0.45594000000E+02  0.51100000000E-03 0.  1.
    9900012    2    1    2    0    0 -0.60089956899E+01  0.11825533819E+02 -0.13218560420E+02  0.72461504896E+02  0.69999914807E+02 0.  0.
         12    1    1    2    0    0  0.60089956899E+01 -0.11825533819E+02  0.13218560420E+02  0.18726495104E+02  0.00000000000E+00 0. -1.
         11    1    3    3    0    0  0.64930263089E+00  0.19992846440E+02  0.45991131949E+01  0.20525285507E+02  0.51100000000E-03 0. -1.
        -11    1    3    3    0    0 -0.26800316100E+02  0.46803261886E+00 -0.11131446303E+02  0.29023871118E+02  0.51100000000E-03 0.  1.
        -12    1    3    3    0    0  0.20142017779E+02 -0.86353452403E+01 -0.66862273118E+01  0.22912348271E+02  0.00000000000E+00 0.  1.
</event>
<event>
 7    1  0.2876796E-013  0.7246157E+02  0.7816164E-02  0.1226708E+00
        -11   -1    0    0    0    0  0.00000000000E+00  0.00000000000E+00  0.45593999997E+02  0.45594000000E+02  0.51100000000E-03 0.  1.
         11   -1    0    0    0    0 -0.00000000000E+00 -0.00000000000E+00 -0.45593999997E+02  0.45594000000E+02  0.51100000000E-03 0. -1.
    9900012    2    1    2    0    0  0.10864143462E+02  0.11767995728E+02  0.97038100766E+01  0.72461567702E+02  0.69999996623E+02 0.  0.
         12    1    1    2    0    0 -0.10864143462E+02 -0.11767995728E+02 -0.97038100766E+01  0.18726432298E+02  0.00000000000E+00 0. -1.
         11    1    3    3    0    0 -0.12644050704E+02 -0.37720565917E+01 -0.77372697508E+01  0.15295939742E+02  0.51100000000E-03 0. -1.
        -11    1    3    3    0    0 -0.76987828539E+01 -0.30553564360E+01  0.19081224558E+02  0.20801432433E+02  0.51100000000E-03 0.  1.
         12    1    3    3    0    0  0.31206977020E+02  0.18595408756E+02 -0.16401447308E+01  0.36364195526E+02  0.00000000000E+00 0. -1.
</event>
<event>
 7    1  0.2876796E-013  0.7246163E+02  0.7816164E-02  0.1226708E+00
        -11   -1    0    0    0    0  0.00000000000E+00  0.00000000000E+00  0.45593999997E+02  0.45594000000E+02  0.51100000000E-03 0. -1.
         11   -1    0    0    0    0 -0.00000000000E+00 -0.00000000000E+00 -0.45593999997E+02  0.45594000000E+02  0.51100000000E-03 0.  1.
    9900012    2    1    2    0    0  0.80089706413E+01 -0.58987899542E+01 -0.15866240162E+02  0.72461630610E+02  0.70000078572E+02 0.  0.
         12    1    1    2    0    0 -0.80089706413E+01  0.58987899542E+01  0.15866240162E+02  0.18726369390E+02  0.00000000000E+00 0. -1.
         11    1    3    3    0    0 -0.14493014342E+01  0.24327126588E+02  0.56052970394E+01  0.25006577491E+02  0.51100000000E-03 0. -1.
        -11    1    3    3    0    0 -0.62368623585E+01 -0.46968722460E+01  0.33950720574E+01  0.85138461057E+01  0.51100000000E-03 0.  1.
        -12    1    3    3    0    0  0.15695134434E+02 -0.25529044296E+02 -0.24866609259E+02  0.38941207013E+02  0.00000000000E+00 0.  1.
</event>
<event>
 7    1  0.2876796E-013  0.7246153E+02  0.7816164E-02  0.1226708E+00
        -11   -1    0    0    0    0  0.00000000000E+00  0.00000000000E+00  0.45593999997E+02  0.45594000000E+02  0.51100000000E-03 0.  1.
         11   -1    0    0    0    0 -0.00000000000E+00 -0.00000000000E+00 -0.45593999997E+02  0.45594000000E+02  0.51100000000E-03 0. -1.
    9900012    2    1    2    0    0  0.69653648631E+01 -0.10358660415E+02  0.13959316023E+02  0.72461530575E+02  0.69999948259E+02 0.  0.
         12    1    1    2    0    0 -0.69653648631E+01  0.10358660415E+02 -0.13959316023E+02  0.18726469425E+02  0.00000000000E+00 0. -1.
         11    1    3    3    0    0 -0.42015975493E+01 -0.24355709269E+02  0.26965849210E+01  0.24862131173E+02  0.51100000000E-03 0. -1.
        -11    1    3    3    0    0 -0.16376555337E+02  0.43874098919E+01  0.24819709086E+01  0.17134792387E+02  0.51100000000E-03 0.  1.
         12    1    3    3    0    0  0.27543517750E+02  0.96096389622E+01  0.87807601935E+01  0.30464607015E+02  0.00000000000E+00 0. -1.
</event>
<event>
 7    1  0.2876796E-013  0.7246156E+02  0.7816164E-02  0.1226708E+00
        -11   -1    0    0    0    0  0.00000000000E+00  0.00000000000E+00  0.45593999997E+02  0.45594000000E+02  0.51100000000E-03 0. -1.
         11   -1    0    0    0    0 -0.00000000000E+00 -0.00000000000E+00 -0.45593999997E+02  0.45594000000E+02  0.51100000000E-03 0.  1.
    9900012    2    1    2    0    0 -0.12633810897E+02 -0.16268043925E+01 -0.13726612433E+02  0.72461559890E+02  0.69999986446E+02 0.  0.
         12    1    1    2    0    0  0.12633810897E+02  0.16268043925E+01  0.13726612433E+02  0.18726440110E+02  0.00000000000E+00 0. -1.
         11    1    3    3    0    0 -0.89239431022E+01  0.12285321806E+02  0.33863316027E+01  0.15557414128E+02  0.51100000000E-03 0. -1.
        -11    1    3    3    0    0  0.97581572756E+00 -0.26035081442E+02  0.91400380113E+01  0.27610106432E+02  0.51100000000E-03 0.  1.
         12    1    3    3    0    0 -0.46856835225E+01  0.12122955244E+02 -0.26252982047E+02  0.29294039330E+02  0.00000000000E+00 0. -1.
</event>
<event>
 7    1  0.2876796E-013  0.7246152E+02  0.7816164E-02  0.1226708E+00
        -11   -1    0    0    0    0  0.00000000000E+00  0.00000000000E+00  0.45593999997E+02  0.45594000000E+02  0.51100000000E-03 0.  1.
         11   -1    0    0    0    0 -0.00000000000E+00 -0.00000000000E+00 -0.45593999997E+02  0.45594000000E+02  0.51100000000E-03 0. -1.
    9900012    2    1    2    0    0 -0.56895621689E+01  0.94054478077E+00  0.17816428487E+02  0.72461524993E+02  0.69999940986E+02 0.  0.
         12    1    1    2    0    0  0.56895621689E+01 -0.94054478077E+00 -0.17816428487E+02  0.18726475007E+02  0.00000000000E+00 0. -1.
         11    1    3    3    0    0 -0.52805098760E+01  0.94152498336E+01  0.97202497115E+01  0.14526319861E+02  0.51100000000E-03 0. -1.
        -11    1    3    3    0    0 -0.22147773396E+02 -0.81806303821E+00  0.21827778158E+02  0.31106992673E+02  0.51100000000E-03 0.  1.
         12    1    3    3    0    0  0.21738721103E+02 -0.76566420147E+01 -0.13731599383E+02  0.26828212459E+02  0.00000000000E+00 0. -1.
</event>
<event>
 7    1  0.2876796E-013  0.7246158E+02  0.7816164E-02  0.1226708E+00
        -11   -1    0    0    0    0  0.00000000000E+00  0.00000000000E+00  0.45593999997E+02  0.45594000000E+02  0.51100000000E-03 0. -1.
         11   -1    0    0    0    0 -0.00000000000E+00 -0.00000000000E+00 -0.45593999997E+02  0.45594000000E+02  0.51100000000E-03 0.  1.
    9900012    2    1    2    0    0  0.74430414628E+01 -0.12847875692E+02  0.11411051679E+02  0.72461578120E+02  0.70000010194E+02 0.  0.
         12    1    1    2    0    0 -0.74430414628E+01  0.12847875692E+02 -0.11411051679E+02  0.18726421880E+02  0.00000000000E+00 0. -1.
         11    1    3    3    0    0  0.81960451813E+01  0.63594572185E+01  0.59702566606E+01  0.11969202880E+02  0.51100000000E-03 0. -1.
        -11    1    3    3    0    0  0.22095222004E+02  0.84857629992E+01 -0.22517538371E+01  0.23775563183E+02  0.51100000000E-03 0.  1.
        -12    1    3    3    0    0 -0.22848225722E+02 -0.27693095910E+02  0.76925488555E+01  0.36716812057E+02  0.00000000000E+00 0.  1.
</event>
<event>
 7    1  0.2876796E-013  0.7246165E+02  0.7816164E-02  0.1226708E+00
        -11   -1    0    0    0    0  0.00000000000E+00  0.00000000000E+00  0.45593999997E+02  0.45594000000E+02  0.51100000000E-03 0.  1.
         11   -1    0    0    0    0 -0.00000000000E+00 -0.00000000000E+00 -0.45593999997E+02  0.45594000000E+02  0.51100000000E-03 0. -1.
    9900012    2    1    2    0    0 -0.14785458946E+02 -0.26614457133E+01  0.11179581074E+02  0.72461651650E+02  0.70000105981E+02 0.  0.
         12    1    1    2    0    0  0.14785458946E+02  0.26614457133E+01 -0.11179581074E+02  0.18726348350E+02  0.00000000000E+00 0. -1.
         11    1    3    3    0    0  0.55929573489E+01  0.12379215606E+02 -0.98793879304E+01  0.16796679941E+02  0.51100000000E-03 0. -1.
        -11    1    3    3    0    0  0.59855493237E+01  0.12168504960E+02  0.41982922395E+01  0.14195949129E+02  0.51100000000E-03 0.  1.
         12    1    3    3    0    0 -0.26363965619E+02 -0.27209166279E+02  0.16860676765E+02  0.41469022580E+02  0.00000000000E+00 0. -1.
</event>
<event>
 7    1  0.2876796E-013  0.7246178E+02  0.7816164E-02  0.1226707E+00
        -11   -1    0    0    0    0  0.00000000000E+00  0.00000000000E+00  0.45593999997E+02  0.45594000000E+02  0.51100000000E-03 0. -1.
         11   -1    0    0    0    0 -0.00000000000E+00 -0.00000000000E+00 -0.45593999997E+02  0.45594000000E+02  0.51100000000E-03 0.  1.
    9900012    2    1    2    0    0  0.21608338035E+01  0.13902383286E+02 -0.12358234319E+02  0.72461777230E+02  0.70000269571E+02 0.  0.
         12    1    1    2    0    0 -0.21608338035E+01 -0.13902383286E+02  0.12358234319E+02  0.18726222770E+02  0.00000000000E+00 0. -1.
         11    1    3    3    0    0 -0.17817466760E+02  0.91099279699E+01  0.20659234960E+01  0.20117677538E+02  0.51100000000E-03 0. -1.
        -11    1    3    3    0    0 -0.52595090078E+01 -0.78837583529E+01  0.10876618823E+02  0.14426257936E+02  0.51100000000E-03 0.  1.
         12    1    3    3    0    0  0.25237809571E+02  0.12676213669E+02 -0.25300776638E+02  0.37917841756E+02  0.00000000000E+00 0. -1.
</event>
<event>
 7    1  0.2876796E-013  0.7246156E+02  0.7816164E-02  0.1226708E+00
        -11   -1    0    0    0    0  0.00000000000E+00  0.00000000000E+00  0.45593999997E+02  0.45594000000E+02  0.51100000000E-03 0.  1.
         11   -1    0    0    0    0 -0.00000000000E+00 -0.00000000000E+00 -0.45593999997E+02  0.45594000000E+02  0.51100000000E-03 0. -1.
    9900012    2    1    2    0    0 -0.12003647438E+02 -0.14228129041E+02 -0.20377234011E+01  0.72461560817E+02  0.69999987654E+02 0.  0.
         12    1    1    2    0    0  0.12003647438E+02  0.14228129041E+02  0.20377234011E+01  0.18726439183E+02  0.00000000000E+00 0. -1.
         11    1    3    3    0    0  0.13158628083E+02  0.13216681072E+02 -0.68433347033E+01  0.19866086220E+02  0.51100000000E-03 0. -1.
        -11    1    3    3    0    0  0.94581688123E+01 -0.31808289263E+01  0.23256798137E+01  0.10246141557E+02  0.51100000000E-03 0.  1.
         12    1    3    3    0    0 -0.34620444333E+02 -0.24263981186E+02  0.24799314885E+01  0.42349333041E+02  0.00000000000E+00 0. -1.
</event>
<event>
 7    1  0.2876796E-013  0.7246155E+02  0.7816164E-02  0.1226708E+00
        -11   -1    0    0    0    0  0.00000000000E+00  0.00000000000E+00  0.45593999997E+02  0.45594000000E+02  0.51100000000E-03 0.  1.
         11   -1    0    0    0    0 -0.00000000000E+00 -0.00000000000E+00 -0.45593999997E+02  0.45594000000E+02  0.51100000000E-03 0. -1.
    9900012    2    1    2    0    0 -0.16177445677E+02  0.40268906781E+01 -0.85296157946E+01  0.72461549648E+02  0.69999973105E+02 0.  0.
         12    1    1    2    0    0  0.16177445677E+02 -0.40268906781E+01  0.85296157946E+01  0.18726450352E+02  0.00000000000E+00 0. -1.
         11    1    3    3    0    0  0.75343871129E+01  0.22814829507E+02  0.65793614500E+01  0.24911271183E+02  0.51100000000E-03 0. -1.
        -11    1    3    3    0    0 -0.91251181294E+01  0.20161116382E+01  0.86721673390E+01  0.12749077364E+02  0.51100000000E-03 0.  1.
         12    1    3    3    0    0 -0.14586714661E+02 -0.20804050467E+02 -0.23781144584E+02  0.34801201102E+02  0.00000000000E+00 0. -1.
</event>
<event>
 7    1  0.2876796E-013  0.7246150E+02  0.7816164E-02  0.1226708E+00
        -11   -1    0    0    0    0  0.00000000000E+00  0.00000000000E+00  0.45593999997E+02  0.45594000000E+02  0.51100000000E-03 0.  1.
         11   -1    0    0    0    0 -0.00000000000E+00 -0.00000000000E+00 -0.45593999997E+02  0.45594000000E+02  0.51100000000E-03 0. -1.
    9900012    2    1    2    0    0 -0.18206431165E+01  0.11189289378E+02  0.14905260973E+02  0.72461501587E+02  0.69999910496E+02 0.  0.
         12    1    1    2    0    0  0.18206431165E+01 -0.11189289378E+02 -0.14905260973E+02  0.18726498413E+02  0.00000000000E+00 0. -1.
         11    1    3    3    0    0  0.19068051307E+02 -0.14048520194E+02  0.23033108581E+02  0.33037487669E+02  0.51100000000E-03 0. -1.
        -11    1    3    3    0    0 -0.16719953383E+01  0.82248720710E-01 -0.75809560644E+01  0.77635834751E+01  0.51100000000E-03 0.  1.
        -12    1    3    3    0    0 -0.19216699086E+02  0.25155560851E+02 -0.54689154351E+00  0.31660430443E+02  0.00000000000E+00 0.  1.
</event>
<event>
 7    1  0.2876796E-013  0.7246159E+02  0.7816164E-02  0.1226708E+00
        -11   -1    0    0    0    0  0.00000000000E+00  0.00000000000E+00  0.45593999997E+02  0.45594000000E+02  0.51100000000E-03 0.  1.
         11   -1    0    0    0    0 -0.00000000000E+00 -0.00000000000E+00 -0.45593999997E+02  0.45594000000E+02  0.51100000000E-03 0. -1.
    9900012    2    1    2    0    0 -0.12203858346E+02 -0.62378791993E+01 -0.12760601895E+02  0.72461594681E+02  0.70000031769E+02 0.  0.
         12    1    1    2    0    0  0.12203858346E+02  0.62378791993E+01  0.12760601895E+02  0.18726405319E+02  0.00000000000E+00 0. -1.
         11    1    3    3    0    0 -0.22323963694E+02 -0.31587359172E+01 -0.20554070965E+02  0.30509126521E+02  0.51100000000E-03 0. -1.
        -11    1    3    3    0    0 -0.85363881075E+01 -0.16128803656E+02  0.13887627171E+01  0.18301281142E+02  0.51100000000E-03 0.  1.
        -12    1    3    3    0    0  0.18656493455E+02  0.13049660373E+02  0.64047063535E+01  0.23651187018E+02  0.00000000000E+00 0.  1.
</event>
<event>
 7    1  0.2876796E-013  0.7246152E+02  0.7816164E-02  0.1226708E+00
        -11   -1    0    0    0    0  0.00000000000E+00  0.00000000000E+00  0.45593999997E+02  0.45594000000E+02  0.51100000000E-03 0.  1.
         11   -1    0    0    0    0 -0.00000000000E+00 -0.00000000000E+00 -0.45593999997E+02  0.45594000000E+02  0.51100000000E-03 0. -1.
    9900012    2    1    2    0    0  0.70173338794E+01 -0.17194529984E+02 -0.24054608963E+01  0.72461519330E+02  0.69999933610E+02 0.  0.
         12    1    1    2    0    0 -0.70173338794E+01  0.17194529984E+02  0.24054608963E+01  0.18726480670E+02  0.00000000000E+00 0. -1.
         11    1    3    3    0    0 -0.45293421387E+01  0.27890352256E+01 -0.64087005316E+01  0.83285713339E+01  0.51100000000E-03 0. -1.
        -11    1    3    3    0    0 -0.21255603250E+02  0.49482008781E+01  0.67383105003E+01  0.22840538306E+02  0.51100000000E-03 0.  1.
         12    1    3    3    0    0  0.32802279268E+02 -0.24931766088E+02 -0.27350708650E+01  0.41292409691E+02  0.00000000000E+00 0. -1.
</event>
<event>
 7    1  0.2876796E-013  0.7246160E+02  0.7816164E-02  0.1226708E+00
        -11   -1    0    0    0    0  0.00000000000E+00  0.00000000000E+00  0.45593999997E+02  0.45594000000E+02  0.51100000000E-03 0. -1.
         11   -1    0    0    0    0 -0.00000000000E+00 -0.00000000000E+00 -0.45593999997E+02  0.45594000000E+02  0.51100000000E-03 0.  1.
    9900012    2    1    2    0    0  0.30297092959E+01  0.99522669967E+01 -0.15570848788E+02  0.72461599150E+02  0.70000037590E+02 0.  0.
         12    1    1    2    0    0 -0.30297092959E+01 -0.99522669967E+01  0.15570848788E+02  0.18726400850E+02  0.00000000000E+00 0. -1.
         11    1    3    3    0    0 -0.19180941749E+02 -0.13298749694E+02 -0.13450204946E+02  0.26938323689E+02  0.51100000000E-03 0.  1.
        -11    1    3    3    0    0  0.21912678152E+01 -0.27889989930E+01  0.99238127130E+01  0.10538606599E+02  0.51100000000E-03 0. -1.
        -12    1    3    3    0    0  0.20019383230E+02  0.26040015684E+02 -0.12044456556E+02  0.34984668863E+02  0.00000000000E+00 0.  1.
</event>
<event>
 7    1  0.2876796E-013  0.7246155E+02  0.7816164E-02  0.1226708E+00
        -11   -1    0    0    0    0  0.00000000000E+00  0.00000000000E+00  0.45593999997E+02  0.45594000000E+02  0.51100000000E-03 0.  1.
         11   -1    0    0    0    0 -0.00000000000E+00 -0.00000000000E+00 -0.45593999997E+02  0.45594000000E+02  0.51100000000E-03 0. -1.
    9900012    2    1    2    0    0  0.45095328347E+01  0.12334367998E+02  0.13349437283E+02  0.72461548225E+02  0.69999971251E+02 0.  0.
         12    1    1    2    0    0 -0.45095328347E+01 -0.12334367998E+02 -0.13349437283E+02  0.18726451775E+02  0.00000000000E+00 0. -1.
         11    1    3    3    0    0 -0.89523353007E+01  0.18649414395E+01 -0.34894122958E+01  0.97876612293E+01  0.51100000000E-03 0. -1.
        -11    1    3    3    0    0  0.27044065082E+02 -0.32247426564E+01 -0.10522600047E+02  0.29197697398E+02  0.51100000000E-03 0.  1.
         12    1    3    3    0    0 -0.13582196946E+02  0.13694169215E+02  0.27361449626E+02  0.33476189598E+02  0.00000000000E+00 0. -1.
</event>
<event>
 7    1  0.2876796E-013  0.7246147E+02  0.7816164E-02  0.1226708E+00
        -11   -1    0    0    0    0  0.00000000000E+00  0.00000000000E+00  0.45593999997E+02  0.45594000000E+02  0.51100000000E-03 0. -1.
         11   -1    0    0    0    0 -0.00000000000E+00 -0.00000000000E+00 -0.45593999997E+02  0.45594000000E+02  0.51100000000E-03 0.  1.
    9900012    2    1    2    0    0 -0.17652416916E+02 -0.62357581244E+01  0.43621299338E+00  0.72461473784E+02  0.69999874277E+02 0.  0.
         12    1    1    2    0    0  0.17652416916E+02  0.62357581244E+01 -0.43621299338E+00  0.18726526216E+02  0.00000000000E+00 0. -1.
         11    1    3    3    0    0 -0.13373516592E+02  0.73428037067E+01  0.13396825374E+02  0.20303759324E+02  0.51100000000E-03 0. -1.
        -11    1    3    3    0    0  0.58176901980E+01 -0.17274855605E+02  0.14096260946E+02  0.23042802094E+02  0.51100000000E-03 0.  1.
         12    1    3    3    0    0 -0.10096590522E+02  0.36962937743E+01 -0.27056873327E+02  0.29114912366E+02  0.00000000000E+00 0. -1.
</event>
<event>
 7    1  0.2876796E-013  0.7246153E+02  0.7816164E-02  0.1226708E+00
        -11   -1    0    0    0    0  0.00000000000E+00  0.00000000000E+00  0.45593999997E+02  0.45594000000E+02  0.51100000000E-03 0.  1.
         11   -1    0    0    0    0 -0.00000000000E+00 -0.00000000000E+00 -0.45593999997E+02  0.45594000000E+02  0.51100000000E-03 0. -1.
    9900012    2    1    2    0    0 -0.12847380427E+02 -0.13617501810E+02 -0.43474828650E+00  0.72461533557E+02  0.69999952143E+02 0.  0.
         12    1    1    2    0    0  0.12847380427E+02  0.13617501810E+02  0.43474828650E+00  0.18726466443E+02  0.00000000000E+00 0. -1.
         11    1    3    3    0    0 -0.99106329922E+01 -0.10979886797E+02 -0.83499931308E+01  0.16985315597E+02  0.51100000000E-03 0.  1.
        -11    1    3    3    0    0  0.24047532266E+01  0.84346101586E+01  0.29423352245E+02  0.30702754668E+02  0.51100000000E-03 0. -1.
         12    1    3    3    0    0 -0.53415006615E+01 -0.11072225172E+02 -0.21508107400E+02  0.24773463293E+02  0.00000000000E+00 0. -1.
</event>
<event>
 7    1  0.2876796E-013  0.7246156E+02  0.7816164E-02  0.1226708E+00
        -11   -1    0    0    0    0  0.00000000000E+00  0.00000000000E+00  0.45593999997E+02  0.45594000000E+02  0.51100000000E-03 0.  1.
         11   -1    0    0    0    0 -0.00000000000E+00 -0.00000000000E+00 -0.45593999997E+02  0.45594000000E+02  0.51100000000E-03 0. -1.
    9900012    2    1    2    0    0 -0.16496753778E+02 -0.49747493212E+01 -0.73340608933E+01  0.72461562400E+02  0.69999989716E+02 0.  0.
         12    1    1    2    0    0  0.16496753778E+02  0.49747493212E+01  0.73340608933E+01  0.18726437600E+02  0.00000000000E+00 0. -1.
         11    1    3    3    0    0 -0.13562398091E+02  0.29228586303E+01 -0.10453263485E+02  0.17371023640E+02  0.51100000000E-03 0. -1.
        -11    1    3    3    0    0 -0.69683708998E+01  0.22426968366E+02  0.63519993856E+01  0.24328481242E+02  0.51100000000E-03 0.  1.
         12    1    3    3    0    0  0.40340152132E+01 -0.30324576318E+02 -0.32327967937E+01  0.30762057517E+02  0.00000000000E+00 0. -1.
</event>
<event>
 7    1  0.2876796E-013  0.7246145E+02  0.7816164E-02  0.1226708E+00
        -11   -1    0    0    0    0  0.00000000000E+00  0.00000000000E+00  0.45593999997E+02  0.45594000000E+02  0.51100000000E-03 0.  1.
         11   -1    0    0    0    0 -0.00000000000E+00 -0.00000000000E+00 -0.45593999997E+02  0.45594000000E+02  0.51100000000E-03 0. -1.
    9900012    2    1    2    0    0 -0.44413034761E+01  0.15487284735E+02  0.95447706974E+01  0.72461446321E+02  0.69999838501E+02 0.  0.
         12    1    1    2    0    0  0.44413034761E+01 -0.15487284735E+02 -0.95447706974E+01  0.18726553679E+02  0.00000000000E+00 0. -1.
         11    1    3    3    0    0  0.67251222428E+01  0.25322688409E+02  0.37781561558E+01  0.26471499421E+02  0.51100000000E-03 0. -1.
        -11    1    3    3    0    0 -0.19620534698E+02  0.47226785683E+01  0.16463238944E+02  0.26044333577E+02  0.51100000000E-03 0.  1.
         12    1    3    3    0    0  0.84541089791E+01 -0.14558082242E+02 -0.10696624402E+02  0.19945613322E+02  0.00000000000E+00 0. -1.
</event>
<event>
 7    1  0.2876796E-013  0.7246159E+02  0.7816164E-02  0.1226708E+00
        -11   -1    0    0    0    0  0.00000000000E+00  0.00000000000E+00  0.45593999997E+02  0.45594000000E+02  0.51100000000E-03 0. -1.
         11   -1    0    0    0    0 -0.00000000000E+00 -0.00000000000E+00 -0.45593999997E+02  0.45594000000E+02  0.51100000000E-03 0.  1.
    9900012    2    1    2    0    0  0.68272070359E+01 -0.16090283895E+02 -0.67208934965E+01  0.72461590811E+02  0.70000026727E+02 0.  0.
         12    1    1    2    0    0 -0.68272070359E+01  0.16090283895E+02  0.67208934965E+01  0.18726409189E+02  0.00000000000E+00 0. -1.
         11    1    3    3    0    0 -0.49157557226E+00 -0.21094174410E+01 -0.68679051700E+01  0.72013478022E+01  0.51100000000E-03 0. -1.
        -11    1    3    3    0    0  0.21377844180E+02 -0.17123343076E+02 -0.24475910577E+02  0.36732700673E+02  0.51100000000E-03 0.  1.
         12    1    3    3    0    0 -0.14059061572E+02  0.31424766227E+01  0.24622922250E+02  0.28527542336E+02  0.00000000000E+00 0. -1.
</event>
<event>
 7    1  0.2876796E-013  0.7246154E+02  0.7816164E-02  0.1226708E+00
        -11   -1    0    0    0    0  0.00000000000E+00  0.00000000000E+00  0.45593999997E+02  0.45594000000E+02  0.51100000000E-03 0.  1.
         11   -1    0    0    0    0 -0.00000000000E+00 -0.00000000000E+00 -0.45593999997E+02  0.45594000000E+02  0.51100000000E-03 0. -1.
    9900012    2    1    2    0    0 -0.96791103456E+01  0.58833871264E+01  0.14912446133E+02  0.72461535549E+02  0.69999954738E+02 0.  0.
         12    1    1    2    0    0  0.96791103456E+01 -0.58833871264E+01 -0.14912446133E+02  0.18726464451E+02  0.00000000000E+00 0. -1.
         11    1    3    3    0    0 -0.40341911263E+01 -0.83514300947E+01 -0.58777442447E+01  0.10980389808E+02  0.51100000000E-03 0. -1.
        -11    1    3    3    0    0  0.21062615210E+02  0.21555781480E+02  0.98656939772E+01  0.31711470994E+02  0.51100000000E-03 0.  1.
         12    1    3    3    0    0 -0.26707534429E+02 -0.73209642590E+01  0.10924496400E+02  0.29769674747E+02  0.00000000000E+00 0. -1.
</event>
<event>
 7    1  0.2876796E-013  0.7246147E+02  0.7816164E-02  0.1226708E+00
        -11   -1    0    0    0    0  0.00000000000E+00  0.00000000000E+00  0.45593999997E+02  0.45594000000E+02  0.51100000000E-03 0.  1.
         11   -1    0    0    0    0 -0.00000000000E+00 -0.00000000000E+00 -0.45593999997E+02  0.45594000000E+02  0.51100000000E-03 0. -1.
    9900012    2    1    2    0    0  0.61563665839E+01  0.32573546184E+01  0.17383086037E+02  0.72461470989E+02  0.69999870637E+02 0.  0.
         12    1    1    2    0    0 -0.61563665839E+01 -0.32573546184E+01 -0.17383086037E+02  0.18726529011E+02  0.00000000000E+00 0. -1.
         11    1    3    3    0    0  0.69861344035E+01 -0.33268064830E+01 -0.18147140975E+02  0.19727960895E+02  0.51100000000E-03 0. -1.
        -11    1    3    3    0    0 -0.18069759056E-01 -0.31012732224E+01 -0.77646370454E+01  0.83610890932E+01  0.51100000000E-03 0.  1.
        -12    1    3    3    0    0 -0.81169806050E+00  0.96854343238E+01  0.43294864057E+02  0.44372421001E+02  0.00000000000E+00 0.  1.
</event>
<event>
 7    1  0.2876796E-013  0.7246131E+02  0.7816164E-02  0.1226709E+00
        -11   -1    0    0    0    0  0.00000000000E+00  0.00000000000E+00  0.45593999997E+02  0.45594000000E+02  0.51100000000E-03 0. -1.
         11   -1    0    0    0    0 -0.00000000000E+00 -0.00000000000E+00 -0.45593999997E+02  0.45594000000E+02  0.51100000000E-03 0.  1.
    9900012    2    1    2    0    0  0.21197272561E+01  0.12218633905E+02 -0.14032132024E+02  0.72461308160E+02  0.69999658521E+02 0.  0.
         12    1    1    2    0    0 -0.21197272561E+01 -0.12218633905E+02  0.14032132024E+02  0.18726691840E+02  0.00000000000E+00 0. -1.
         11    1    3    3    0    0  0.42172679382E+01 -0.62566217475E+01 -0.88954621043E+01  0.11664472164E+02  0.51100000000E-03 0. -1.
        -11    1    3    3    0    0 -0.19091290481E+02  0.17657734131E+01 -0.23774307137E+02  0.30541987625E+02  0.51100000000E-03 0.  1.
         12    1    3    3    0    0  0.16993749799E+02  0.16709482239E+02  0.18637637218E+02  0.30254848371E+02  0.00000000000E+00 0. -1.
</event>
<event>
 7    1  0.2876796E-013  0.7246173E+02  0.7816164E-02  0.1226708E+00
        -11   -1    0    0    0    0  0.00000000000E+00  0.00000000000E+00  0.45593999997E+02  0.45594000000E+02  0.51100000000E-03 0. -1.
         11   -1    0    0    0    0 -0.00000000000E+00 -0.00000000000E+00 -0.45593999997E+02  0.45594000000E+02  0.51100000000E-03 0.  1.
    9900012    2    1    2    0    0 -0.15503931780E+02  0.10008788523E+02 -0.31820708607E+01  0.72461726390E+02  0.70000203343E+02 0.  0.
         12    1    1    2    0    0  0.15503931780E+02 -0.10008788523E+02  0.31820708607E+01  0.18726273610E+02  0.00000000000E+00 0. -1.
         11    1    3    3    0    0  0.52106342498E+01  0.39334111225E+01 -0.62955374434E+01  0.90695217242E+01  0.51100000000E-03 0. -1.
        -11    1    3    3    0    0 -0.13035967323E+02  0.24965581044E+02 -0.18485242718E+02  0.33688586784E+02  0.51100000000E-03 0.  1.
         12    1    3    3    0    0 -0.76785987076E+01 -0.18890203643E+02  0.21598709301E+02  0.29703617882E+02  0.00000000000E+00 0. -1.
</event>
<event>
 7    1  0.2876796E-013  0.7246154E+02  0.7816164E-02  0.1226708E+00
        -11   -1    0    0    0    0  0.00000000000E+00  0.00000000000E+00  0.45593999997E+02  0.45594000000E+02  0.51100000000E-03 0.  1.
         11   -1    0    0    0    0 -0.00000000000E+00 -0.00000000000E+00 -0.45593999997E+02  0.45594000000E+02  0.51100000000E-03 0. -1.
    9900012    2    1    2    0    0  0.10807572146E+02 -0.14864358630E+02 -0.35954701376E+01  0.72461543350E+02  0.69999964900E+02 0.  0.
         12    1    1    2    0    0 -0.10807572146E+02  0.14864358630E+02  0.35954701376E+01  0.18726456650E+02  0.00000000000E+00 0. -1.
         11    1    3    3    0    0 -0.87885709717E+01  0.61066566997E+01 -0.18827006544E+01  0.10866222793E+02  0.51100000000E-03 0. -1.
        -11    1    3    3    0    0  0.29174169351E+01 -0.17219473368E+02 -0.26347261488E+02  0.31610121367E+02  0.51100000000E-03 0.  1.
        -12    1    3    3    0    0  0.16678726183E+02 -0.37515419610E+01  0.24634492004E+02  0.29985199190E+02  0.00000000000E+00 0.  1.
</event>
<event>
 7    1  0.2876796E-013  0.7246157E+02  0.7816164E-02  0.1226708E+00
        -11   -1    0    0    0    0  0.00000000000E+00  0.00000000000E+00  0.45593999997E+02  0.45594000000E+02  0.51100000000E-03 0. -1.
         11   -1    0    0    0    0 -0.00000000000E+00 -0.00000000000E+00 -0.45593999997E+02  0.45594000000E+02  0.51100000000E-03 0.  1.
    9900012    2    1    2    0    0  0.11242385038E+02 -0.12907285699E+02 -0.75953987872E+01  0.72461566058E+02  0.69999994482E+02 0.  0.
         12    1    1    2    0    0 -0.11242385038E+02  0.12907285699E+02  0.75953987872E+01  0.18726433942E+02  0.00000000000E+00 0. -1.
         11    1    3    3    0    0 -0.81061150102E+01 -0.13660553826E+02  0.13986440174E+02  0.21164601115E+02  0.51100000000E-03 0. -1.
        -11    1    3    3    0    0 -0.12008283331E+02  0.38919109586E+01  0.79303267410E+00  0.12648112134E+02  0.51100000000E-03 0.  1.
        -12    1    3    3    0    0  0.31356783379E+02 -0.31386428318E+01 -0.22374871635E+02  0.38648852808E+02  0.00000000000E+00 0.  1.
</event>
<event>
 7    1  0.2876796E-013  0.7246156E+02  0.7816164E-02  0.1226708E+00
        -11   -1    0    0    0    0  0.00000000000E+00  0.00000000000E+00  0.45593999997E+02  0.45594000000E+02  0.51100000000E-03 0. -1.
         11   -1    0    0    0    0 -0.00000000000E+00 -0.00000000000E+00 -0.45593999997E+02  0.45594000000E+02  0.51100000000E-03 0.  1.
    9900012    2    1    2    0    0  0.13426236398E+01 -0.18650798888E+02 -0.10121891388E+01  0.72461562425E+02  0.69999989749E+02 0.  0.
         12    1    1    2    0    0 -0.13426236398E+01  0.18650798888E+02  0.10121891388E+01  0.18726437575E+02  0.00000000000E+00 0. -1.
         11    1    3    3    0    0 -0.14654628773E+01 -0.30713477163E+02  0.21915570736E+02  0.37759204200E+02  0.51100000000E-03 0. -1.
        -11    1    3    3    0    0 -0.44249765424E+01 -0.33020164202E+01  0.74193811398E+00  0.55708349703E+01  0.51100000000E-03 0.  1.
        -12    1    3    3    0    0  0.72330630595E+01  0.15364694695E+02 -0.23669697988E+02  0.29131523255E+02  0.00000000000E+00 0.  1.
</event>
<event>
 7    1  0.2876796E-013  0.7246152E+02  0.7816164E-02  0.1226708E+00
        -11   -1    0    0    0    0  0.00000000000E+00  0.00000000000E+00  0.45593999997E+02  0.45594000000E+02  0.51100000000E-03 0.  1.
         11   -1    0    0    0    0 -0.00000000000E+00 -0.00000000000E+00 -0.45593999997E+02  0.45594000000E+02  0.51100000000E-03 0. -1.
    9900012    2    1    2    0    0 -0.85923772855E+01  0.11739616236E+02  0.11791252761E+02  0.72461516655E+02  0.69999930125E+02 0.  0.
         12    1    1    2    0    0  0.85923772855E+01 -0.11739616236E+02 -0.11791252761E+02  0.18726483345E+02  0.00000000000E+00 0. -1.
         11    1    3    3    0    0 -0.12341972030E+02  0.25062666013E+02  0.57016058252E+01  0.28512625458E+02  0.51100000000E-03 0. -1.
        -11    1    3    3    0    0  0.12791138734E+02  0.76812359054E+01  0.13283239787E+02  0.19976463017E+02  0.51100000000E-03 0.  1.
         12    1    3    3    0    0 -0.90415439890E+01 -0.21004285683E+02 -0.71935928511E+01  0.23972428180E+02  0.00000000000E+00 0. -1.
</event>
<event>
 7    1  0.2876796E-013  0.7246155E+02  0.7816164E-02  0.1226708E+00
        -11   -1    0    0    0    0  0.00000000000E+00  0.00000000000E+00  0.45593999997E+02  0.45594000000E+02  0.51100000000E-03 0. -1.
         11   -1    0    0    0    0 -0.00000000000E+00 -0.00000000000E+00 -0.45593999997E+02  0.45594000000E+02  0.51100000000E-03 0.  1.
    9900012    2    1    2    0    0 -0.92223085819E+01 -0.16230121583E+02 -0.14873305263E+01  0.72461548808E+02  0.69999972010E+02 0.  0.
         12    1    1    2    0    0  0.92223085819E+01  0.16230121583E+02  0.14873305263E+01  0.18726451192E+02  0.00000000000E+00 0. -1.
         11    1    3    3    0    0 -0.16961825146E+02 -0.53316007540E+01 -0.17309424649E+02  0.24814222955E+02  0.51100000000E-03 0. -1.
        -11    1    3    3    0    0  0.51742984111E+01  0.16024367766E+02  0.11483399050E+01  0.16878163738E+02  0.51100000000E-03 0.  1.
         12    1    3    3    0    0  0.25652181535E+01 -0.26922888595E+02  0.14673754218E+02  0.30769162116E+02  0.00000000000E+00 0. -1.
</event>
<event>
 7    1  0.2876796E-013  0.7246161E+02  0.7816164E-02  0.1226708E+00
        -11   -1    0    0    0    0  0.00000000000E+00  0.00000000000E+00  0.45593999997E+02  0.45594000000E+02  0.51100000000E-03 0. -1.
         11   -1    0    0    0    0 -0.00000000000E+00 -0.00000000000E+00 -0.45593999997E+02  0.45594000000E+02  0.51100000000E-03 0.  1.
    9900012    2    1    2    0    0  0.18700496119E+02 -0.72602724292E+00 -0.66485225727E+00  0.72461609553E+02  0.70000051142E+02 0.  0.
         12    1    1    2    0    0 -0.18700496119E+02  0.72602724292E+00  0.66485225727E+00  0.18726390447E+02  0.00000000000E+00 0. -1.
         11    1    3    3    0    0 -0.35207200627E+01 -0.10272258178E+02  0.70260384593E+01  0.12933675987E+02  0.51100000000E-03 0. -1.
        -11    1    3    3    0    0 -0.33896043194E+01  0.25723251471E+02  0.54442123616E+01  0.26510649411E+02  0.51100000000E-03 0.  1.
         12    1    3    3    0    0  0.25610820501E+02 -0.16177020535E+02 -0.13135103078E+02  0.33017284155E+02  0.00000000000E+00 0. -1.
</event>
<event>
 7    1  0.2876796E-013  0.7246160E+02  0.7816164E-02  0.1226708E+00
        -11   -1    0    0    0    0  0.00000000000E+00  0.00000000000E+00  0.45593999997E+02  0.45594000000E+02  0.51100000000E-03 0. -1.
         11   -1    0    0    0    0 -0.00000000000E+00 -0.00000000000E+00 -0.45593999997E+02  0.45594000000E+02  0.51100000000E-03 0.  1.
    9900012    2    1    2    0    0 -0.87237090882E+01  0.10919626533E+01 -0.16534283916E+02  0.72461600792E+02  0.70000039729E+02 0.  0.
         12    1    1    2    0    0  0.87237090882E+01 -0.10919626533E+01  0.16534283916E+02  0.18726399208E+02  0.00000000000E+00 0. -1.
         11    1    3    3    0    0 -0.14936195223E+02 -0.10981731214E+02  0.17601965648E+02  0.25563989186E+02  0.51100000000E-03 0. -1.
        -11    1    3    3    0    0 -0.75110993183E+01  0.41503560932E+01  0.71659445358E+00  0.86113632221E+01  0.51100000000E-03 0.  1.
        -12    1    3    3    0    0  0.13723585453E+02  0.79233377737E+01 -0.34852844017E+02  0.38286248383E+02  0.00000000000E+00 0.  1.
</event>
<event>
 7    1  0.2876796E-013  0.7246158E+02  0.7816164E-02  0.1226708E+00
        -11   -1    0    0    0    0  0.00000000000E+00  0.00000000000E+00  0.45593999997E+02  0.45594000000E+02  0.51100000000E-03 0. -1.
         11   -1    0    0    0    0 -0.00000000000E+00 -0.00000000000E+00 -0.45593999997E+02  0.45594000000E+02  0.51100000000E-03 0.  1.
    9900012    2    1    2    0    0  0.47304763303E+00  0.51067631442E+01 -0.18010437939E+02  0.72461583402E+02  0.70000017075E+02 0.  0.
         12    1    1    2    0    0 -0.47304763303E+00 -0.51067631442E+01  0.18010437939E+02  0.18726416598E+02  0.00000000000E+00 0. -1.
         11    1    3    3    0    0  0.23460170706E+02  0.98492476097E+01 -0.14779155769E+02  0.29424661995E+02  0.51100000000E-03 0.  1.
        -11    1    3    3    0    0 -0.43910561584E+01  0.14032158086E+02  0.47183337136E+01  0.15441680868E+02  0.51100000000E-03 0. -1.
         12    1    3    3    0    0 -0.18596066915E+02 -0.18774642552E+02 -0.79496158836E+01  0.27595240538E+02  0.00000000000E+00 0. -1.
</event>
<event>
 7    1  0.2876796E-013  0.7246156E+02  0.7816164E-02  0.1226708E+00
        -11   -1    0    0    0    0  0.00000000000E+00  0.00000000000E+00  0.45593999997E+02  0.45594000000E+02  0.51100000000E-03 0.  1.
         11   -1    0    0    0    0 -0.00000000000E+00 -0.00000000000E+00 -0.45593999997E+02  0.45594000000E+02  0.51100000000E-03 0. -1.
    9900012    2    1    2    0    0  0.77490133934E+01  0.13063685611E+02  0.10953200439E+02  0.72461556393E+02  0.69999981891E+02 0.  0.
         12    1    1    2    0    0 -0.77490133934E+01 -0.13063685611E+02 -0.10953200439E+02  0.18726443607E+02  0.00000000000E+00 0. -1.
         11    1    3    3    0    0  0.43531719909E+01  0.19842501690E+01  0.19900094814E+00  0.47882101827E+01  0.51100000000E-03 0. -1.
        -11    1    3    3    0    0 -0.23540221676E+02  0.14406683432E+02 -0.13993453618E+02  0.30943679621E+02  0.51100000000E-03 0.  1.
         12    1    3    3    0    0  0.26936063079E+02 -0.33272479906E+01  0.24747653109E+02  0.36729666589E+02  0.00000000000E+00 0. -1.
</event>
<event>
 7    1  0.2876796E-013  0.7246155E+02  0.7816164E-02  0.1226708E+00
        -11   -1    0    0    0    0  0.00000000000E+00  0.00000000000E+00  0.45593999997E+02  0.45594000000E+02  0.51100000000E-03 0.  1.
         11   -1    0    0    0    0 -0.00000000000E+00 -0.00000000000E+00 -0.45593999997E+02  0.45594000000E+02  0.51100000000E-03 0. -1.
    9900012    2    1    2    0    0 -0.71066437486E+01 -0.64754149421E+01  0.16069986342E+02  0.72461552257E+02  0.69999976503E+02 0.  0.
         12    1    1    2    0    0  0.71066437486E+01  0.64754149421E+01 -0.16069986342E+02  0.18726447743E+02  0.00000000000E+00 0. -1.
         11    1    3    3    0    0  0.22609782414E+02 -0.25644418619E+01  0.80272797104E+01  0.24129149232E+02  0.51100000000E-03 0. -1.
        -11    1    3    3    0    0  0.74892398443E+01  0.54180230350E+01  0.62784952528E+00  0.92648735739E+01  0.51100000000E-03 0.  1.
        -12    1    3    3    0    0 -0.37205666006E+02 -0.93289961152E+01  0.74148571063E+01  0.39067529451E+02  0.00000000000E+00 0.  1.
</event>
<event>
 7    1  0.2876796E-013  0.7246159E+02  0.7816164E-02  0.1226708E+00
        -11   -1    0    0    0    0  0.00000000000E+00  0.00000000000E+00  0.45593999997E+02  0.45594000000E+02  0.51100000000E-03 0.  1.
         11   -1    0    0    0    0 -0.00000000000E+00 -0.00000000000E+00 -0.45593999997E+02  0.45594000000E+02  0.51100000000E-03 0. -1.
    9900012    2    1    2    0    0  0.60403246088E+01 -0.32086801017E+01  0.17432653892E+02  0.72461586272E+02  0.70000020814E+02 0.  0.
         12    1    1    2    0    0 -0.60403246088E+01  0.32086801017E+01 -0.17432653892E+02  0.18726413728E+02  0.00000000000E+00 0. -1.
         11    1    3    3    0    0  0.95006314296E+00  0.11136654338E+02 -0.16550171299E+02  0.19970875297E+02  0.51100000000E-03 0. -1.
        -11    1    3    3    0    0  0.10464417529E+02 -0.23202864505E+02  0.11898935050E+02  0.28097359504E+02  0.51100000000E-03 0.  1.
         12    1    3    3    0    0 -0.53741560633E+01  0.88575300652E+01  0.22083890141E+02  0.24393351472E+02  0.00000000000E+00 0. -1.
</event>
<event>
 7    1  0.2876796E-013  0.7246155E+02  0.7816164E-02  0.1226708E+00
        -11   -1    0    0    0    0  0.00000000000E+00  0.00000000000E+00  0.45593999997E+02  0.45594000000E+02  0.51100000000E-03 0.  1.
         11   -1    0    0    0    0 -0.00000000000E+00 -0.00000000000E+00 -0.45593999997E+02  0.45594000000E+02  0.51100000000E-03 0. -1.
    9900012    2    1    2    0    0  0.15599808092E+02 -0.13693141438E+01  0.10268920404E+02  0.72461554528E+02  0.69999979462E+02 0.  0.
         12    1    1    2    0    0 -0.15599808092E+02  0.13693141438E+01 -0.10268920404E+02  0.18726445472E+02  0.00000000000E+00 0. -1.
         11    1    3    3    0    0  0.12783695815E+02  0.79586786021E+01  0.20926236689E+02  0.25781210716E+02  0.51100000000E-03 0. -1.
        -11    1    3    3    0    0 -0.56917257569E+01 -0.55287015929E+01  0.16315936625E+02  0.18143099835E+02  0.51100000000E-03 0.  1.
         12    1    3    3    0    0  0.85078380345E+01 -0.37992911530E+01 -0.26973252910E+02  0.28537243978E+02  0.00000000000E+00 0. -1.
</event>
<event>
 7    1  0.2876796E-013  0.7246168E+02  0.7816164E-02  0.1226708E+00
        -11   -1    0    0    0    0  0.00000000000E+00  0.00000000000E+00  0.45593999997E+02  0.45594000000E+02  0.51100000000E-03 0.  1.
         11   -1    0    0    0    0 -0.00000000000E+00 -0.00000000000E+00 -0.45593999997E+02  0.45594000000E+02  0.51100000000E-03 0. -1.
    9900012    2    1    2    0    0 -0.49083562119E+01 -0.72740721543E+01  0.16543002245E+02  0.72461681363E+02  0.70000144687E+02 0.  0.
         12    1    1    2    0    0  0.49083562119E+01  0.72740721543E+01 -0.16543002245E+02  0.18726318637E+02  0.00000000000E+00 0. -1.
         11    1    3    3    0    0  0.17521504342E+02 -0.11998621581E+02 -0.48373863576E+01  0.21780044566E+02  0.51100000000E-03 0. -1.
        -11    1    3    3    0    0 -0.75069207338E+01  0.29356418022E+00 -0.11824283407E+02  0.14009058398E+02  0.51100000000E-03 0.  1.
         12    1    3    3    0    0 -0.14922939820E+02  0.44309852468E+01  0.33204672010E+02  0.36672578399E+02  0.00000000000E+00 0. -1.
</event>
<event>
 7    1  0.2876796E-013  0.7246158E+02  0.7816164E-02  0.1226708E+00
        -11   -1    0    0    0    0  0.00000000000E+00  0.00000000000E+00  0.45593999997E+02  0.45594000000E+02  0.51100000000E-03 0.  1.
         11   -1    0    0    0    0 -0.00000000000E+00 -0.00000000000E+00 -0.45593999997E+02  0.45594000000E+02  0.51100000000E-03 0. -1.
    9900012    2    1    2    0    0 -0.54473709422E+01 -0.36123877486E+00  0.17912968707E+02  0.72461580386E+02  0.70000013147E+02 0.  0.
         12    1    1    2    0    0  0.54473709422E+01  0.36123877486E+00 -0.17912968707E+02  0.18726419614E+02  0.00000000000E+00 0. -1.
         11    1    3    3    0    0  0.47322784371E+01 -0.29125989169E+02  0.19733709570E+02  0.35498408386E+02  0.51100000000E-03 0. -1.
        -11    1    3    3    0    0 -0.54035974048E+01 -0.74912502238E+00  0.36570914591E+01  0.65676762568E+01  0.51100000000E-03 0.  1.
        -12    1    3    3    0    0 -0.47760519745E+01  0.29513875417E+02 -0.54778323217E+01  0.30395495744E+02  0.00000000000E+00 0.  1.
</event>
<event>
 7    1  0.2876796E-013  0.7246155E+02  0.7816164E-02  0.1226708E+00
        -11   -1    0    0    0    0  0.00000000000E+00  0.00000000000E+00  0.45593999997E+02  0.45594000000E+02  0.51100000000E-03 0.  1.
         11   -1    0    0    0    0 -0.00000000000E+00 -0.00000000000E+00 -0.45593999997E+02  0.45594000000E+02  0.51100000000E-03 0. -1.
    9900012    2    1    2    0    0 -0.86189093051E+01  0.12178200593E+02  0.11317493602E+02  0.72461552693E+02  0.69999977072E+02 0.  0.
         12    1    1    2    0    0  0.86189093051E+01 -0.12178200593E+02 -0.11317493602E+02  0.18726447307E+02  0.00000000000E+00 0. -1.
         11    1    3    3    0    0  0.96847024194E+01 -0.34335482299E+01  0.58922329815E+01  0.11844877550E+02  0.51100000000E-03 0. -1.
        -11    1    3    3    0    0 -0.29001304844E+02  0.14479161607E+02  0.23184935790E+02  0.39853018096E+02  0.51100000000E-03 0.  1.
         12    1    3    3    0    0  0.10697693120E+02  0.11325872163E+01 -0.17759675170E+02  0.20763657048E+02  0.00000000000E+00 0. -1.
</event>
<event>
 7    1  0.2876796E-013  0.7246154E+02  0.7816164E-02  0.1226708E+00
        -11   -1    0    0    0    0  0.00000000000E+00  0.00000000000E+00  0.45593999997E+02  0.45594000000E+02  0.51100000000E-03 0. -1.
         11   -1    0    0    0    0 -0.00000000000E+00 -0.00000000000E+00 -0.45593999997E+02  0.45594000000E+02  0.51100000000E-03 0.  1.
    9900012    2    1    2    0    0  0.10426201708E+01  0.65678699596E+01 -0.17505897029E+02  0.72461537349E+02  0.69999957082E+02 0.  0.
         12    1    1    2    0    0 -0.10426201708E+01 -0.65678699596E+01  0.17505897029E+02  0.18726462651E+02  0.00000000000E+00 0. -1.
         11    1    3    3    0    0 -0.20696389240E+02 -0.13030892890E+02  0.20333754861E+01  0.24541379611E+02  0.51100000000E-03 0. -1.
        -11    1    3    3    0    0  0.38106477205E+01 -0.11769113440E+01 -0.20080747981E+02  0.20472972332E+02  0.51100000000E-03 0.  1.
         12    1    3    3    0    0  0.17928361690E+02  0.20775674193E+02  0.54147546532E+00  0.27447185407E+02  0.00000000000E+00 0. -1.
</event>
<event>
 7    1  0.2876796E-013  0.7246159E+02  0.7816164E-02  0.1226708E+00
        -11   -1    0    0    0    0  0.00000000000E+00  0.00000000000E+00  0.45593999997E+02  0.45594000000E+02  0.51100000000E-03 0.  1.
         11   -1    0    0    0    0 -0.00000000000E+00 -0.00000000000E+00 -0.45593999997E+02  0.45594000000E+02  0.51100000000E-03 0. -1.
    9900012    2    1    2    0    0 -0.15557832990E+02  0.38289593526E+01  0.96938890449E+01  0.72461585984E+02  0.70000020439E+02 0.  0.
         12    1    1    2    0    0  0.15557832990E+02 -0.38289593526E+01 -0.96938890449E+01  0.18726414016E+02  0.00000000000E+00 0. -1.
         11    1    3    3    0    0 -0.32280014265E+02  0.89790964099E+01  0.30162217893E+02  0.45081957386E+02  0.51100000000E-03 0.  1.
        -11    1    3    3    0    0  0.65053375911E+01 -0.80171921106E-01 -0.97958333501E+01  0.11759430088E+02  0.51100000000E-03 0. -1.
        -12    1    3    3    0    0  0.10216843684E+02 -0.50699651362E+01 -0.10672495498E+02  0.15620198510E+02  0.00000000000E+00 0.  1.
</event>
<event>
 7    1  0.2876796E-013  0.7246152E+02  0.7816164E-02  0.1226708E+00
        -11   -1    0    0    0    0  0.00000000000E+00  0.00000000000E+00  0.45593999997E+02  0.45594000000E+02  0.51100000000E-03 0. -1.
         11   -1    0    0    0    0 -0.00000000000E+00 -0.00000000000E+00 -0.45593999997E+02  0.45594000000E+02  0.51100000000E-03 0.  1.
    9900012    2    1    2    0    0 -0.11526563549E+01  0.13580122201E+02 -0.12842607715E+02  0.72461523861E+02  0.69999939512E+02 0.  0.
         12    1    1    2    0    0  0.11526563549E+01 -0.13580122201E+02  0.12842607715E+02  0.18726476139E+02  0.00000000000E+00 0. -1.
         11    1    3    3    0    0 -0.14146360309E+02  0.14579938891E+01 -0.12174673712E+02  0.18720788884E+02  0.51100000000E-03 0. -1.
        -11    1    3    3    0    0  0.17342822280E+02  0.13250365912E+01 -0.22834125899E+02  0.28704120130E+02  0.51100000000E-03 0.  1.
         12    1    3    3    0    0 -0.43491183255E+01  0.10797091720E+02  0.22166191896E+02  0.25036614847E+02  0.00000000000E+00 0. -1.
</event>
<event>
 7    1  0.2876796E-013  0.7246163E+02  0.7816164E-02  0.1226708E+00
        -11   -1    0    0    0    0  0.00000000000E+00  0.00000000000E+00  0.45593999997E+02  0.45594000000E+02  0.51100000000E-03 0.  1.
         11   -1    0    0    0    0 -0.00000000000E+00 -0.00000000000E+00 -0.45593999997E+02  0.45594000000E+02  0.51100000000E-03 0. -1.
    9900012    2    1    2    0    0 -0.15248815080E+02  0.90303197773E+01 -0.60501054107E+01  0.72461633238E+02  0.70000081996E+02 0.  0.
         12    1    1    2    0    0  0.15248815080E+02 -0.90303197773E+01  0.60501054107E+01  0.18726366762E+02  0.00000000000E+00 0. -1.
         11    1    3    3    0    0  0.20424689766E+02 -0.15303590186E+01  0.30838174941E+01  0.20712795112E+02  0.51100000000E-03 0. -1.
        -11    1    3    3    0    0 -0.12435922859E+01 -0.20104567026E+01  0.10087958042E+02  0.10361242958E+02  0.51100000000E-03 0.  1.
        -12    1    3    3    0    0 -0.34429912560E+02  0.12571135498E+02 -0.19221880946E+02  0.41387595168E+02  0.00000000000E+00 0.  1.
</event>
<event>
 7    1  0.2876796E-013  0.7246153E+02  0.7816164E-02  0.1226708E+00
        -11   -1    0    0    0    0  0.00000000000E+00  0.00000000000E+00  0.45593999997E+02  0.45594000000E+02  0.51100000000E-03 0. -1.
         11   -1    0    0    0    0 -0.00000000000E+00 -0.00000000000E+00 -0.45593999997E+02  0.45594000000E+02  0.51100000000E-03 0.  1.
    9900012    2    1    2    0    0  0.15071785117E+02  0.59492972401E+01 -0.93876409823E+01  0.72461530832E+02  0.69999948593E+02 0.  0.
         12    1    1    2    0    0 -0.15071785117E+02 -0.59492972401E+01  0.93876409823E+01  0.18726469168E+02  0.00000000000E+00 0. -1.
         11    1    3    3    0    0 -0.77846334868E+01  0.97655205068E+01 -0.30334657948E+01  0.12851763470E+02  0.51100000000E-03 0. -1.
        -11    1    3    3    0    0  0.32789512744E+02  0.10917335260E+02 -0.17394686719E+02  0.38689992007E+02  0.51100000000E-03 0.  1.
         12    1    3    3    0    0 -0.99330941400E+01 -0.14733558527E+02  0.11040511531E+02  0.20919775356E+02  0.00000000000E+00 0. -1.
</event>
<event>
 7    1  0.2876796E-013  0.7246161E+02  0.7816164E-02  0.1226708E+00
        -11   -1    0    0    0    0  0.00000000000E+00  0.00000000000E+00  0.45593999997E+02  0.45594000000E+02  0.51100000000E-03 0. -1.
         11   -1    0    0    0    0 -0.00000000000E+00 -0.00000000000E+00 -0.45593999997E+02  0.45594000000E+02  0.51100000000E-03 0.  1.
    9900012    2    1    2    0    0  0.11384105754E+02  0.85190442174E+01 -0.12186289802E+02  0.72461611204E+02  0.70000053293E+02 0.  0.
         12    1    1    2    0    0 -0.11384105754E+02 -0.85190442174E+01  0.12186289802E+02  0.18726388796E+02  0.00000000000E+00 0. -1.
         11    1    3    3    0    0  0.33906159820E+00 -0.79912846092E+01  0.53378347214E+01  0.96160320428E+01  0.51100000000E-03 0. -1.
        -11    1    3    3    0    0  0.11661641507E+02 -0.19828044494E+02 -0.12429990436E+02  0.26146699478E+02  0.51100000000E-03 0.  1.
         12    1    3    3    0    0 -0.61659735075E+00  0.36338373321E+02 -0.50941340870E+01  0.36698879683E+02  0.00000000000E+00 0. -1.
</event>
<event>
 7    1  0.2876796E-013  0.7246159E+02  0.7816164E-02  0.1226708E+00
        -11   -1    0    0    0    0  0.00000000000E+00  0.00000000000E+00  0.45593999997E+02  0.45594000000E+02  0.51100000000E-03 0. -1.
         11   -1    0    0    0    0 -0.00000000000E+00 -0.00000000000E+00 -0.45593999997E+02  0.45594000000E+02  0.51100000000E-03 0.  1.
    9900012    2    1    2    0    0  0.17706642364E+02  0.52978879370E+01  0.30142434012E+01  0.72461589141E+02  0.70000024551E+02 0.  0.
         12    1    1    2    0    0 -0.17706642364E+02 -0.52978879370E+01 -0.30142434012E+01  0.18726410859E+02  0.00000000000E+00 0. -1.
         11    1    3    3    0    0  0.66008598508E+01 -0.56545475395E+01  0.15955225401E+02  0.18169052713E+02  0.51100000000E-03 0. -1.
        -11    1    3    3    0    0  0.23961622070E+02  0.22080695930E+02  0.54790917232E+00  0.32588597234E+02  0.51100000000E-03 0.  1.
        -12    1    3    3    0    0 -0.12855839558E+02 -0.11128260453E+02 -0.13488891172E+02  0.21703939193E+02  0.00000000000E+00 0.  1.
</event>
<event>
 7    1  0.2876796E-013  0.7246164E+02  0.7816164E-02  0.1226708E+00
        -11   -1    0    0    0    0  0.00000000000E+00  0.00000000000E+00  0.45593999997E+02  0.45594000000E+02  0.51100000000E-03 0.  1.
         11   -1    0    0    0    0 -0.00000000000E+00 -0.00000000000E+00 -0.45593999997E+02  0.45594000000E+02  0.51100000000E-03 0. -1.
    9900012    2    1    2    0    0  0.14813040217E+01 -0.18398572339E+02  0.31582869803E+01  0.72461641508E+02  0.70000092769E+02 0.  0.
         12    1    1    2    0    0 -0.14813040217E+01  0.18398572339E+02 -0.31582869803E+01  0.18726358492E+02  0.00000000000E+00 0. -1.
         11    1    3    3    0    0  0.29575539369E+00  0.11788181718E+01  0.27107320293E+01  0.29707157271E+01  0.51100000000E-03 0.  1.
        -11    1    3    3    0    0  0.10901946987E+01 -0.96234919735E+01  0.33552198463E+02  0.34922058132E+02  0.51100000000E-03 0. -1.
         12    1    3    3    0    0  0.95353929253E-01 -0.99538985371E+01 -0.33104643512E+02  0.34568867649E+02  0.00000000000E+00 0. -1.
</event>
<event>
 7    1  0.2876796E-013  0.7246153E+02  0.7816164E-02  0.1226708E+00
        -11   -1    0    0    0    0  0.00000000000E+00  0.00000000000E+00  0.45593999997E+02  0.45594000000E+02  0.51100000000E-03 0. -1.
         11   -1    0    0    0    0 -0.00000000000E+00 -0.00000000000E+00 -0.45593999997E+02  0.45594000000E+02  0.51100000000E-03 0.  1.
    9900012    2    1    2    0    0 -0.72616654346E+01  0.77091745414E+01 -0.15444014044E+02  0.72461528715E+02  0.69999945836E+02 0.  0.
         12    1    1    2    0    0  0.72616654346E+01 -0.77091745414E+01  0.15444014044E+02  0.18726471285E+02  0.00000000000E+00 0. -1.
         11    1    3    3    0    0  0.18926008877E+02 -0.15608757823E+02 -0.16355398878E+02  0.29484338309E+02  0.51100000000E-03 0. -1.
        -11    1    3    3    0    0 -0.12558816568E+02 -0.22814376251E+01  0.49610300652E+01  0.13694548214E+02  0.51100000000E-03 0.  1.
        -12    1    3    3    0    0 -0.13628857743E+02  0.25599369990E+02 -0.40496452311E+01  0.29282642192E+02  0.00000000000E+00 0.  1.
</event>
<event>
 7    1  0.2876796E-013  0.7246153E+02  0.7816164E-02  0.1226708E+00
        -11   -1    0    0    0    0  0.00000000000E+00  0.00000000000E+00  0.45593999997E+02  0.45594000000E+02  0.51100000000E-03 0.  1.
         11   -1    0    0    0    0 -0.00000000000E+00 -0.00000000000E+00 -0.45593999997E+02  0.45594000000E+02  0.51100000000E-03 0. -1.
    9900012    2    1    2    0    0  0.23004899432E+00 -0.14154963636E+02 -0.12258255007E+02  0.72461528525E+02  0.69999945588E+02 0.  0.
         12    1    1    2    0    0 -0.23004899432E+00  0.14154963636E+02  0.12258255007E+02  0.18726471475E+02  0.00000000000E+00 0. -1.
         11    1    3    3    0    0 -0.10270604228E+02 -0.29088938716E+01 -0.65189115637E+01  0.12507724933E+02  0.51100000000E-03 0. -1.
        -11    1    3    3    0    0 -0.17601640486E+02  0.50930664737E+01  0.12967900197E+02  0.22448240681E+02  0.51100000000E-03 0.  1.
         12    1    3    3    0    0  0.28102293708E+02 -0.16339136238E+02 -0.18707243640E+02  0.37505562911E+02  0.00000000000E+00 0. -1.
</event>
<event>
 7    1  0.2876796E-013  0.7246140E+02  0.7816164E-02  0.1226708E+00
        -11   -1    0    0    0    0  0.00000000000E+00  0.00000000000E+00  0.45593999997E+02  0.45594000000E+02  0.51100000000E-03 0. -1.
         11   -1    0    0    0    0 -0.00000000000E+00 -0.00000000000E+00 -0.45593999997E+02  0.45594000000E+02  0.51100000000E-03 0.  1.
    9900012    2    1    2    0    0  0.55306960689E+01 -0.15303303141E+02  0.92685507216E+01  0.72461395436E+02  0.69999772214E+02 0.  0.
         12    1    1    2    0    0 -0.55306960689E+01  0.15303303141E+02 -0.92685507216E+01  0.18726604564E+02  0.00000000000E+00 0. -1.
         11    1    3    3    0    0  0.94729625160E+01 -0.25073027384E+02 -0.23375635745E+01  0.26904607872E+02  0.51100000000E-03 0. -1.
        -11    1    3    3    0    0  0.95722756851E+01 -0.79629558526E+01  0.18428620361E+02  0.22240754851E+02  0.51100000000E-03 0.  1.
         12    1    3    3    0    0 -0.13514542132E+02  0.17732680096E+02 -0.68225060645E+01  0.23316032712E+02  0.00000000000E+00 0. -1.
</event>
<event>
 7    1  0.2876796E-013  0.7246156E+02  0.7816164E-02  0.1226708E+00
        -11   -1    0    0    0    0  0.00000000000E+00  0.00000000000E+00  0.45593999997E+02  0.45594000000E+02  0.51100000000E-03 0. -1.
         11   -1    0    0    0    0 -0.00000000000E+00 -0.00000000000E+00 -0.45593999997E+02  0.45594000000E+02  0.51100000000E-03 0.  1.
    9900012    2    1    2    0    0  0.96198188686E+01 -0.11330305106E+02 -0.11391348501E+02  0.72461560148E+02  0.69999986783E+02 0.  0.
         12    1    1    2    0    0 -0.96198188686E+01  0.11330305106E+02  0.11391348501E+02  0.18726439852E+02  0.00000000000E+00 0. -1.
         11    1    3    3    0    0  0.21971190448E+02 -0.55688643514E+01  0.60019387338E+01  0.23447147559E+02  0.51100000000E-03 0.  1.
        -11    1    3    3    0    0  0.46343387088E+01  0.37885053440E+01  0.12195586445E+02  0.13585367017E+02  0.51100000000E-03 0. -1.
         12    1    3    3    0    0 -0.16985710288E+02 -0.95499460981E+01 -0.29588873680E+02  0.35429045571E+02  0.00000000000E+00 0. -1.
</event>
<event>
 7    1  0.2876796E-013  0.7246164E+02  0.7816164E-02  0.1226708E+00
        -11   -1    0    0    0    0  0.00000000000E+00  0.00000000000E+00  0.45593999997E+02  0.45594000000E+02  0.51100000000E-03 0. -1.
         11   -1    0    0    0    0 -0.00000000000E+00 -0.00000000000E+00 -0.45593999997E+02  0.45594000000E+02  0.51100000000E-03 0.  1.
    9900012    2    1    2    0    0  0.15120624556E+01  0.16598633225E+02  0.85367218803E+01  0.72461639482E+02  0.70000090130E+02 0.  0.
         12    1    1    2    0    0 -0.15120624556E+01 -0.16598633225E+02 -0.85367218803E+01  0.18726360518E+02  0.00000000000E+00 0. -1.
         11    1    3    3    0    0  0.21352244416E+02  0.21148517991E+02  0.18104803939E+00  0.30053467911E+02  0.51100000000E-03 0. -1.
        -11    1    3    3    0    0  0.81981390092E+01 -0.30041045315E+00 -0.64330717919E+01  0.10425168708E+02  0.51100000000E-03 0.  1.
         12    1    3    3    0    0 -0.28038320970E+02 -0.42494743131E+01  0.14788745633E+02  0.31983002863E+02  0.00000000000E+00 0. -1.
</event>
<event>
 7    1  0.2876796E-013  0.7246158E+02  0.7816164E-02  0.1226708E+00
        -11   -1    0    0    0    0  0.00000000000E+00  0.00000000000E+00  0.45593999997E+02  0.45594000000E+02  0.51100000000E-03 0. -1.
         11   -1    0    0    0    0 -0.00000000000E+00 -0.00000000000E+00 -0.45593999997E+02  0.45594000000E+02  0.51100000000E-03 0.  1.
    9900012    2    1    2    0    0  0.12814936064E+02 -0.79962254111E+01  0.11068728095E+02  0.72461576188E+02  0.70000007677E+02 0.  0.
         12    1    1    2    0    0 -0.12814936064E+02  0.79962254111E+01 -0.11068728095E+02  0.18726423812E+02  0.00000000000E+00 0. -1.
         11    1    3    3    0    0  0.80170482608E+01  0.18201553601E+02  0.33812088700E+01  0.20174295279E+02  0.51100000000E-03 0. -1.
        -11    1    3    3    0    0  0.62635835013E+01 -0.24713061525E+02  0.24492539525E+02  0.35353251348E+02  0.51100000000E-03 0.  1.
         12    1    3    3    0    0 -0.14656956979E+01 -0.14847174879E+01 -0.16805020300E+02  0.16934029561E+02  0.00000000000E+00 0. -1.
</event>
<event>
 7    1  0.2876796E-013  0.7246162E+02  0.7816164E-02  0.1226708E+00
        -11   -1    0    0    0    0  0.00000000000E+00  0.00000000000E+00  0.45593999997E+02  0.45594000000E+02  0.51100000000E-03 0.  1.
         11   -1    0    0    0    0 -0.00000000000E+00 -0.00000000000E+00 -0.45593999997E+02  0.45594000000E+02  0.51100000000E-03 0. -1.
    9900012    2    1    2    0    0  0.16170384414E+02 -0.51200162100E+01  0.79360715379E+01  0.72461624762E+02  0.70000070955E+02 0.  0.
         12    1    1    2    0    0 -0.16170384414E+02  0.51200162100E+01 -0.79360715379E+01  0.18726375238E+02  0.00000000000E+00 0. -1.
         11    1    3    3    0    0 -0.74092578828E+00  0.83048540824E+01 -0.94423561625E+01  0.12596732216E+02  0.51100000000E-03 0. -1.
        -11    1    3    3    0    0 -0.14173715578E+02  0.96450759755E+01  0.11662012699E+02  0.20734614641E+02  0.51100000000E-03 0.  1.
         12    1    3    3    0    0  0.31085025780E+02 -0.23069946268E+02  0.57164150017E+01  0.39130277906E+02  0.00000000000E+00 0. -1.
</event>
<event>
 7    1  0.2876796E-013  0.7246163E+02  0.7816164E-02  0.1226708E+00
        -11   -1    0    0    0    0  0.00000000000E+00  0.00000000000E+00  0.45593999997E+02  0.45594000000E+02  0.51100000000E-03 0. -1.
         11   -1    0    0    0    0 -0.00000000000E+00 -0.00000000000E+00 -0.45593999997E+02  0.45594000000E+02  0.51100000000E-03 0.  1.
    9900012    2    1    2    0    0 -0.31530539548E+01  0.84261497397E+01 -0.16423620147E+02  0.72461626955E+02  0.70000073811E+02 0.  0.
         12    1    1    2    0    0  0.31530539548E+01 -0.84261497397E+01  0.16423620147E+02  0.18726373045E+02  0.00000000000E+00 0. -1.
         11    1    3    3    0    0 -0.27947650059E+02 -0.85871686046E+00 -0.14920313201E+01  0.28000619568E+02  0.51100000000E-03 0. -1.
        -11    1    3    3    0    0 -0.25321890098E+01  0.65991715351E+01 -0.15458152259E+02  0.16997515044E+02  0.51100000000E-03 0.  1.
        -12    1    3    3    0    0  0.27326785114E+02  0.26856950651E+01  0.52656343221E+00  0.27463492344E+02  0.00000000000E+00 0.  1.
</event>
<event>
 7    1  0.2876796E-013  0.7246158E+02  0.7816164E-02  0.1226708E+00
        -11   -1    0    0    0    0  0.00000000000E+00  0.00000000000E+00  0.45593999997E+02  0.45594000000E+02  0.51100000000E-03 0.  1.
         11   -1    0    0    0    0 -0.00000000000E+00 -0.00000000000E+00 -0.45593999997E+02  0.45594000000E+02  0.51100000000E-03 0. -1.
    9900012    2    1    2    0    0  0.14569683411E+02  0.10019906017E+02  0.61647795029E+01  0.72461582895E+02  0.70000016414E+02 0.  0.
         12    1    1    2    0    0 -0.14569683411E+02 -0.10019906017E+02 -0.61647795029E+01  0.18726417105E+02  0.00000000000E+00 0. -1.
         11    1    3    3    0    0  0.57219213969E+00  0.27200454594E+02 -0.12348935297E+02  0.29877890441E+02  0.51100000000E-03 0. -1.
        -11    1    3    3    0    0 -0.22353526331E+01  0.27753652415E+01 -0.60458990679E+01  0.70180018109E+01  0.51100000000E-03 0.  1.
        -12    1    3    3    0    0  0.16232843904E+02 -0.19955913818E+02  0.24559613868E+02  0.35565690643E+02  0.00000000000E+00 0.  1.
</event>
<event>
 7    1  0.2876796E-013  0.7246158E+02  0.7816164E-02  0.1226708E+00
        -11   -1    0    0    0    0  0.00000000000E+00  0.00000000000E+00  0.45593999997E+02  0.45594000000E+02  0.51100000000E-03 0. -1.
         11   -1    0    0    0    0 -0.00000000000E+00 -0.00000000000E+00 -0.45593999997E+02  0.45594000000E+02  0.51100000000E-03 0.  1.
    9900012    2    1    2    0    0  0.82994143566E+01  0.16355599540E+02  0.37806073799E+01  0.72461577300E+02  0.70000009126E+02 0.  0.
         12    1    1    2    0    0 -0.82994143566E+01 -0.16355599540E+02 -0.37806073799E+01  0.18726422700E+02  0.00000000000E+00 0. -1.
         11    1    3    3    0    0  0.63168171919E+01  0.22452101055E+01 -0.10282648896E+02  0.12275015945E+02  0.51100000000E-03 0. -1.
        -11    1    3    3    0    0  0.16152421073E+02  0.31423180016E+02  0.36813153823E+01  0.35522795949E+02  0.51100000000E-03 0.  1.
         12    1    3    3    0    0 -0.14169823909E+02 -0.17312790581E+02  0.10381940894E+02  0.24663765406E+02  0.00000000000E+00 0. -1.
</event>
<event>
 7    1  0.2876796E-013  0.7246152E+02  0.7816164E-02  0.1226708E+00
        -11   -1    0    0    0    0  0.00000000000E+00  0.00000000000E+00  0.45593999997E+02  0.45594000000E+02  0.51100000000E-03 0.  1.
         11   -1    0    0    0    0 -0.00000000000E+00 -0.00000000000E+00 -0.45593999997E+02  0.45594000000E+02  0.51100000000E-03 0. -1.
    9900012    2    1    2    0    0 -0.10673691014E+02  0.26102066410E+01  0.15163784456E+02  0.72461515611E+02  0.69999928764E+02 0.  0.
         12    1    1    2    0    0  0.10673691014E+02 -0.26102066410E+01 -0.15163784456E+02  0.18726484389E+02  0.00000000000E+00 0. -1.
         11    1    3    3    0    0 -0.38126307539E+01  0.18030366126E+02  0.20111551525E+02  0.27278283687E+02  0.51100000000E-03 0. -1.
        -11    1    3    3    0    0  0.86407046372E+01  0.86108597732E+01  0.71419052015E+01  0.14135610805E+02  0.51100000000E-03 0.  1.
         12    1    3    3    0    0 -0.15501764897E+02 -0.24031019258E+02 -0.12089672271E+02  0.31047621118E+02  0.00000000000E+00 0. -1.
</event>
<event>
 7    1  0.2876796E-013  0.7246155E+02  0.7816164E-02  0.1226708E+00
        -11   -1    0    0    0    0  0.00000000000E+00  0.00000000000E+00  0.45593999997E+02  0.45594000000E+02  0.51100000000E-03 0. -1.
         11   -1    0    0    0    0 -0.00000000000E+00 -0.00000000000E+00 -0.45593999997E+02  0.45594000000E+02  0.51100000000E-03 0.  1.
    9900012    2    1    2    0    0 -0.13497642123E+02 -0.47313182787E+01 -0.12087523506E+02  0.72461549721E+02  0.69999973200E+02 0.  0.
         12    1    1    2    0    0  0.13497642123E+02  0.47313182787E+01  0.12087523506E+02  0.18726450279E+02  0.00000000000E+00 0. -1.
         11    1    3    3    0    0  0.10226308180E+02 -0.13124623330E+02 -0.72752290201E+00  0.16654200863E+02  0.51100000000E-03 0. -1.
        -11    1    3    3    0    0 -0.21805932604E+02  0.73359376781E+01  0.16214194528E+02  0.28146310288E+02  0.51100000000E-03 0.  1.
         12    1    3    3    0    0 -0.19180176990E+01  0.10573673730E+01 -0.27574195132E+02  0.27661038571E+02  0.00000000000E+00 0. -1.
</event>
<event>
 7    1  0.2876796E-013  0.7246154E+02  0.7816164E-02  0.1226708E+00
        -11   -1    0    0    0    0  0.00000000000E+00  0.00000000000E+00  0.45593999997E+02  0.45594000000E+02  0.51100000000E-03 0. -1.
         11   -1    0    0    0    0 -0.00000000000E+00 -0.00000000000E+00 -0.45593999997E+02  0.45594000000E+02  0.51100000000E-03 0.  1.
    9900012    2    1    2    0    0  0.17189456574E+02 -0.67436471037E+01  0.31186999593E+01  0.72461535224E+02  0.69999954314E+02 0.  0.
         12    1    1    2    0    0 -0.17189456574E+02  0.67436471037E+01 -0.31186999593E+01  0.18726464776E+02  0.00000000000E+00 0. -1.
         11    1    3    3    0    0 -0.96104922685E+00 -0.17587527520E+01  0.52532029550E+00  0.20719045666E+01  0.51100000000E-03 0. -1.
        -11    1    3    3    0    0  0.25831796739E+02 -0.31794089158E+02 -0.55443711410E+01  0.41338672932E+02  0.51100000000E-03 0.  1.
         12    1    3    3    0    0 -0.76812909381E+01  0.26809194806E+02  0.81377508048E+01  0.29050957726E+02  0.00000000000E+00 0. -1.
</event>
<event>
 7    1  0.2876796E-013  0.7246147E+02  0.7816164E-02  0.1226708E+00
        -11   -1    0    0    0    0  0.00000000000E+00  0.00000000000E+00  0.45593999997E+02  0.45594000000E+02  0.51100000000E-03 0.  1.
         11   -1    0    0    0    0 -0.00000000000E+00 -0.00000000000E+00 -0.45593999997E+02  0.45594000000E+02  0.51100000000E-03 0. -1.
    9900012    2    1    2    0    0  0.13288557335E+02 -0.28062616234E+01  0.12892714252E+02  0.72461469592E+02  0.69999868816E+02 0.  0.
         12    1    1    2    0    0 -0.13288557335E+02  0.28062616234E+01 -0.12892714252E+02  0.18726530408E+02  0.00000000000E+00 0. -1.
         11    1    3    3    0    0 -0.11485938289E+02  0.17503754004E+01 -0.71288195056E+01  0.13631238397E+02  0.51100000000E-03 0. -1.
        -11    1    3    3    0    0  0.61416513978E+01  0.11648102845E+02  0.29558460422E+02  0.32358936394E+02  0.51100000000E-03 0.  1.
         12    1    3    3    0    0  0.18632844227E+02 -0.16204739869E+02 -0.95369266648E+01  0.26471294800E+02  0.00000000000E+00 0. -1.
</event>
<event>
 7    1  0.2876796E-013  0.7246154E+02  0.7816164E-02  0.1226708E+00
        -11   -1    0    0    0    0  0.00000000000E+00  0.00000000000E+00  0.45593999997E+02  0.45594000000E+02  0.51100000000E-03 0.  1.
         11   -1    0    0    0    0 -0.00000000000E+00 -0.00000000000E+00 -0.45593999997E+02  0.45594000000E+02  0.51100000000E-03 0. -1.
    9900012    2    1    2    0    0  0.11174717723E+02 -0.11503630180E+02  0.96681096455E+01  0.72461543644E+02  0.69999965283E+02 0.  0.
         12    1    1    2    0    0 -0.11174717723E+02  0.11503630180E+02 -0.96681096455E+01  0.18726456356E+02  0.00000000000E+00 0. -1.
         11    1    3    3    0    0  0.18722215605E+02 -0.28859801003E+01 -0.44670577575E+01  0.19462909432E+02  0.51100000000E-03 0. -1.
        -11    1    3    3    0    0  0.20935860911E+01 -0.90998638119E+01 -0.17547919605E+02  0.19877628300E+02  0.51100000000E-03 0.  1.
        -12    1    3    3    0    0 -0.96410839723E+01  0.48221373178E+00  0.31683087008E+02  0.33121005912E+02  0.00000000000E+00 0.  1.
</event>
<event>
 7    1  0.2876796E-013  0.7246156E+02  0.7816164E-02  0.1226708E+00
        -11   -1    0    0    0    0  0.00000000000E+00  0.00000000000E+00  0.45593999997E+02  0.45594000000E+02  0.51100000000E-03 0. -1.
         11   -1    0    0    0    0 -0.00000000000E+00 -0.00000000000E+00 -0.45593999997E+02  0.45594000000E+02  0.51100000000E-03 0.  1.
    9900012    2    1    2    0    0  0.54726618243E+01 -0.17896159501E+02 -0.67599527659E+00  0.72461560884E+02  0.69999987742E+02 0.  0.
         12    1    1    2    0    0 -0.54726618243E+01  0.17896159501E+02  0.67599527659E+00  0.18726439116E+02  0.00000000000E+00 0. -1.
         11    1    3    3    0    0 -0.19219501920E+00 -0.26580621651E+02 -0.57390393018E+01  0.27193803681E+02  0.51100000000E-03 0. -1.
        -11    1    3    3    0    0 -0.15052198663E+02 -0.88390587195E+01 -0.92687952852E+00  0.17480181622E+02  0.51100000000E-03 0.  1.
         12    1    3    3    0    0  0.20717055506E+02  0.17523520869E+02  0.59899235537E+01  0.27787575581E+02  0.00000000000E+00 0. -1.
</event>
<event>
 7    1  0.2876796E-013  0.7246158E+02  0.7816164E-02  0.1226708E+00
        -11   -1    0    0    0    0  0.00000000000E+00  0.00000000000E+00  0.45593999997E+02  0.45594000000E+02  0.51100000000E-03 0. -1.
         11   -1    0    0    0    0 -0.00000000000E+00 -0.00000000000E+00 -0.45593999997E+02  0.45594000000E+02  0.51100000000E-03 0.  1.
    9900012    2    1    2    0    0 -0.15488104357E+01  0.16670043129E+02  0.83898622311E+01  0.72461576424E+02  0.70000007985E+02 0.  0.
         12    1    1    2    0    0  0.15488104357E+01 -0.16670043129E+02 -0.83898622311E+01  0.18726423576E+02  0.00000000000E+00 0. -1.
         11    1    3    3    0    0 -0.25981345509E+02 -0.12902705934E+02 -0.30010787073E-02  0.29008794256E+02  0.51100000000E-03 0. -1.
        -11    1    3    3    0    0 -0.21881736401E+00 -0.14956469055E+01  0.30896024445E+01  0.34395470968E+01  0.51100000000E-03 0.  1.
        -12    1    3    3    0    0  0.24651352438E+02  0.31068395969E+02  0.53032608653E+01  0.40013235072E+02  0.00000000000E+00 0.  1.
</event>
<event>
 7    1  0.2876796E-013  0.7246160E+02  0.7816164E-02  0.1226708E+00
        -11   -1    0    0    0    0  0.00000000000E+00  0.00000000000E+00  0.45593999997E+02  0.45594000000E+02  0.51100000000E-03 0.  1.
         11   -1    0    0    0    0 -0.00000000000E+00 -0.00000000000E+00 -0.45593999997E+02  0.45594000000E+02  0.51100000000E-03 0. -1.
    9900012    2    1    2    0    0 -0.28276310052E+01  0.99914661232E+00  0.18484705720E+02  0.72461597873E+02  0.70000035927E+02 0.  0.
         12    1    1    2    0    0  0.28276310052E+01 -0.99914661232E+00 -0.18484705720E+02  0.18726402127E+02  0.00000000000E+00 0. -1.
         11    1    3    3    0    0  0.13451374394E+02 -0.22755618554E+02 -0.41448293946E+01  0.26757003940E+02  0.51100000000E-03 0. -1.
        -11    1    3    3    0    0 -0.42351007830E+01 -0.59616833133E+01  0.20153549826E+01  0.75854731254E+01  0.51100000000E-03 0.  1.
        -12    1    3    3    0    0 -0.12043904616E+02  0.29716448480E+02  0.20614180132E+02  0.38119120808E+02  0.00000000000E+00 0.  1.
</event>
<event>
 7    1  0.2876796E-013  0.7246146E+02  0.7816164E-02  0.1226708E+00
        -11   -1    0    0    0    0  0.00000000000E+00  0.00000000000E+00  0.45593999997E+02  0.45594000000E+02  0.51100000000E-03 0. -1.
         11   -1    0    0    0    0 -0.00000000000E+00 -0.00000000000E+00 -0.45593999997E+02  0.45594000000E+02  0.51100000000E-03 0.  1.
    9900012    2    1    2    0    0  0.10226731338E+02  0.53607571903E+01 -0.14743119871E+02  0.72461459074E+02  0.69999855115E+02 0.  0.
         12    1    1    2    0    0 -0.10226731338E+02 -0.53607571903E+01  0.14743119871E+02  0.18726540926E+02  0.00000000000E+00 0. -1.
         11    1    3    3    0    0 -0.49594782411E+01  0.42383618948E+01 -0.65709046680E+01  0.92594235454E+01  0.51100000000E-03 0. -1.
        -11    1    3    3    0    0  0.89459743905E+00  0.25324404663E+02 -0.20418867186E+02  0.32543139270E+02  0.51100000000E-03 0.  1.
         12    1    3    3    0    0  0.14291612140E+02 -0.24202009368E+02  0.12246651983E+02  0.30658896259E+02  0.00000000000E+00 0. -1.
</event>
<event>
 7    1  0.2876796E-013  0.7246154E+02  0.7816164E-02  0.1226708E+00
        -11   -1    0    0    0    0  0.00000000000E+00  0.00000000000E+00  0.45593999997E+02  0.45594000000E+02  0.51100000000E-03 0.  1.
         11   -1    0    0    0    0 -0.00000000000E+00 -0.00000000000E+00 -0.45593999997E+02  0.45594000000E+02  0.51100000000E-03 0. -1.
    9900012    2    1    2    0    0  0.21262161772E+01  0.12955179375E+01  0.18560202828E+02  0.72461540351E+02  0.69999960993E+02 0.  0.
         12    1    1    2    0    0 -0.21262161772E+01 -0.12955179375E+01 -0.18560202828E+02  0.18726459649E+02  0.00000000000E+00 0. -1.
         11    1    3    3    0    0 -0.78291921582E+01 -0.47168817893E+01 -0.42189695888E+01  0.10067021820E+02  0.51100000000E-03 0. -1.
        -11    1    3    3    0    0 -0.71385811892E+01  0.24355134110E+02 -0.40186781818E+01  0.25695946635E+02  0.51100000000E-03 0.  1.
         12    1    3    3    0    0  0.17093989525E+02 -0.18342734383E+02  0.26797850599E+02  0.36698571896E+02  0.00000000000E+00 0. -1.
</event>
<event>
 7    1  0.2876796E-013  0.7246149E+02  0.7816164E-02  0.1226708E+00
        -11   -1    0    0    0    0  0.00000000000E+00  0.00000000000E+00  0.45593999997E+02  0.45594000000E+02  0.51100000000E-03 0.  1.
         11   -1    0    0    0    0 -0.00000000000E+00 -0.00000000000E+00 -0.45593999997E+02  0.45594000000E+02  0.51100000000E-03 0. -1.
    9900012    2    1    2    0    0 -0.11689206398E+02  0.60654941770E+01  0.13313696199E+02  0.72461487450E+02  0.69999892080E+02 0.  0.
         12    1    1    2    0    0  0.11689206398E+02 -0.60654941770E+01 -0.13313696199E+02  0.18726512550E+02  0.00000000000E+00 0. -1.
         11    1    3    3    0    0  0.10442572608E+02  0.24115360246E+01  0.16019304603E+02  0.19273841052E+02  0.51100000000E-03 0. -1.
        -11    1    3    3    0    0  0.15075790686E+02  0.31960513924E+01 -0.41143096571E+01  0.15950603547E+02  0.51100000000E-03 0.  1.
         12    1    3    3    0    0 -0.37207569692E+02  0.45790675989E+00  0.14087012524E+01  0.37237042850E+02  0.00000000000E+00 0. -1.
</event>
<event>
 7    1  0.2876796E-013  0.7246181E+02  0.7816164E-02  0.1226707E+00
        -11   -1    0    0    0    0  0.00000000000E+00  0.00000000000E+00  0.45593999997E+02  0.45594000000E+02  0.51100000000E-03 0. -1.
         11   -1    0    0    0    0 -0.00000000000E+00 -0.00000000000E+00 -0.45593999997E+02  0.45594000000E+02  0.51100000000E-03 0.  1.
    9900012    2    1    2    0    0 -0.11743027905E+02 -0.37897239683E+00 -0.14581770371E+02  0.72461805736E+02  0.70000306706E+02 0.  0.
         12    1    1    2    0    0  0.11743027905E+02  0.37897239683E+00  0.14581770371E+02  0.18726194264E+02  0.00000000000E+00 0. -1.
         11    1    3    3    0    0 -0.18465699860E+02 -0.80607023062E+00 -0.17097190866E+02  0.25178279455E+02  0.51100000000E-03 0. -1.
        -11    1    3    3    0    0 -0.16803838989E+02 -0.53329834785E+01  0.11940669244E+02  0.21292940140E+02  0.51100000000E-03 0.  1.
         12    1    3    3    0    0  0.23526510944E+02  0.57600813123E+01 -0.94252487496E+01  0.25990586141E+02  0.00000000000E+00 0. -1.
</event>
<event>
 7    1  0.2876796E-013  0.7246150E+02  0.7816164E-02  0.1226708E+00
        -11   -1    0    0    0    0  0.00000000000E+00  0.00000000000E+00  0.45593999997E+02  0.45594000000E+02  0.51100000000E-03 0. -1.
         11   -1    0    0    0    0 -0.00000000000E+00 -0.00000000000E+00 -0.45593999997E+02  0.45594000000E+02  0.51100000000E-03 0.  1.
    9900012    2    1    2    0    0 -0.11795086255E+02 -0.21571464430E+01 -0.14384173831E+02  0.72461500131E+02  0.69999908599E+02 0.  0.
         12    1    1    2    0    0  0.11795086255E+02  0.21571464430E+01  0.14384173831E+02  0.18726499869E+02  0.00000000000E+00 0. -1.
         11    1    3    3    0    0 -0.20783391032E+02  0.15496921082E+02 -0.10405417453E+02  0.27935221826E+02  0.51100000000E-03 0. -1.
        -11    1    3    3    0    0 -0.96965248972E+01  0.75905548245E+00 -0.13482777344E+02  0.16624802118E+02  0.51100000000E-03 0.  1.
        -12    1    3    3    0    0  0.18684829675E+02 -0.18413123008E+02  0.95040209661E+01  0.27901476186E+02  0.00000000000E+00 0.  1.
</event>
<event>
 7    1  0.2876796E-013  0.7246157E+02  0.7816164E-02  0.1226708E+00
        -11   -1    0    0    0    0  0.00000000000E+00  0.00000000000E+00  0.45593999997E+02  0.45594000000E+02  0.51100000000E-03 0.  1.
         11   -1    0    0    0    0 -0.00000000000E+00 -0.00000000000E+00 -0.45593999997E+02  0.45594000000E+02  0.51100000000E-03 0. -1.
    9900012    2    1    2    0    0 -0.14226594443E+02  0.28671586272E+01  0.11834807397E+02  0.72461568034E+02  0.69999997056E+02 0.  0.
         12    1    1    2    0    0  0.14226594443E+02 -0.28671586272E+01 -0.11834807397E+02  0.18726431966E+02  0.00000000000E+00 0. -1.
         11    1    3    3    0    0 -0.15794402675E+02  0.15998939345E+02  0.22788617044E+01  0.22596956143E+02  0.51100000000E-03 0. -1.
        -11    1    3    3    0    0  0.10986781526E+01  0.75410794735E+01 -0.15563372359E+02  0.17328979565E+02  0.51100000000E-03 0.  1.
        -12    1    3    3    0    0  0.46913007886E+00 -0.20672860191E+02  0.25119318051E+02  0.32535632326E+02  0.00000000000E+00 0.  1.
</event>
<event>
 7    1  0.2876796E-013  0.7246157E+02  0.7816164E-02  0.1226708E+00
        -11   -1    0    0    0    0  0.00000000000E+00  0.00000000000E+00  0.45593999997E+02  0.45594000000E+02  0.51100000000E-03 0.  1.
         11   -1    0    0    0    0 -0.00000000000E+00 -0.00000000000E+00 -0.45593999997E+02  0.45594000000E+02  0.51100000000E-03 0. -1.
    9900012    2    1    2    0    0 -0.60879094317E+01  0.13797290389E+02  0.11101858303E+02  0.72461571587E+02  0.70000001684E+02 0.  0.
         12    1    1    2    0    0  0.60879094317E+01 -0.13797290389E+02 -0.11101858303E+02  0.18726428413E+02  0.00000000000E+00 0. -1.
         11    1    3    3    0    0 -0.28658306964E+01  0.14980562312E+01 -0.19909433820E+02  0.20170342420E+02  0.51100000000E-03 0. -1.
        -11    1    3    3    0    0 -0.17763339651E+02  0.12353846868E+02  0.30933523747E+02  0.37749657742E+02  0.51100000000E-03 0.  1.
         12    1    3    3    0    0  0.14541260916E+02 -0.54612709929E-01  0.77768375935E-01  0.14541571425E+02  0.00000000000E+00 0. -1.
</event>
<event>
 7    1  0.2876796E-013  0.7246158E+02  0.7816164E-02  0.1226708E+00
        -11   -1    0    0    0    0  0.00000000000E+00  0.00000000000E+00  0.45593999997E+02  0.45594000000E+02  0.51100000000E-03 0.  1.
         11   -1    0    0    0    0 -0.00000000000E+00 -0.00000000000E+00 -0.45593999997E+02  0.45594000000E+02  0.51100000000E-03 0. -1.
    9900012    2    1    2    0    0 -0.50816993257E+01 -0.13678582874E+02  0.11736754825E+02  0.72461582529E+02  0.70000015938E+02 0.  0.
         12    1    1    2    0    0  0.50816993257E+01  0.13678582874E+02 -0.11736754825E+02  0.18726417471E+02  0.00000000000E+00 0. -1.
         11    1    3    3    0    0  0.19751025548E+01 -0.22679296965E+02 -0.10400183314E+02  0.25028291075E+02  0.51100000000E-03 0. -1.
        -11    1    3    3    0    0 -0.44704204693E+01 -0.63698452346E+01 -0.94309470259E+01  0.12227115341E+02  0.51100000000E-03 0.  1.
        -12    1    3    3    0    0 -0.25863814112E+01  0.15370559325E+02  0.31567885165E+02  0.35206176113E+02  0.00000000000E+00 0.  1.
</event>
<event>
 7    1  0.2876796E-013  0.7246158E+02  0.7816164E-02  0.1226708E+00
        -11   -1    0    0    0    0  0.00000000000E+00  0.00000000000E+00  0.45593999997E+02  0.45594000000E+02  0.51100000000E-03 0.  1.
         11   -1    0    0    0    0 -0.00000000000E+00 -0.00000000000E+00 -0.45593999997E+02  0.45594000000E+02  0.51100000000E-03 0. -1.
    9900012    2    1    2    0    0  0.16324498926E+02  0.38470745514E+01 -0.83300331827E+01  0.72461582815E+02  0.70000016310E+02 0.  0.
         12    1    1    2    0    0 -0.16324498926E+02 -0.38470745514E+01  0.83300331827E+01  0.18726417185E+02  0.00000000000E+00 0. -1.
         11    1    3    3    0    0  0.59789182616E+01  0.29001758036E+01 -0.26953820320E+01  0.71710227883E+01  0.51100000000E-03 0. -1.
        -11    1    3    3    0    0  0.26731079367E+02  0.23750574470E+02 -0.93641501354E+01  0.36963870194E+02  0.51100000000E-03 0.  1.
         12    1    3    3    0    0 -0.16385498703E+02 -0.22803675722E+02  0.37294989848E+01  0.28326689832E+02  0.00000000000E+00 0. -1.
</event>
<event>
 7    1  0.2876796E-013  0.7246160E+02  0.7816164E-02  0.1226708E+00
        -11   -1    0    0    0    0  0.00000000000E+00  0.00000000000E+00  0.45593999997E+02  0.45594000000E+02  0.51100000000E-03 0.  1.
         11   -1    0    0    0    0 -0.00000000000E+00 -0.00000000000E+00 -0.45593999997E+02  0.45594000000E+02  0.51100000000E-03 0. -1.
    9900012    2    1    2    0    0  0.12764570017E+02  0.31373193842E+01  0.13337955896E+02  0.72461599168E+02  0.70000037613E+02 0.  0.
         12    1    1    2    0    0 -0.12764570017E+02 -0.31373193842E+01 -0.13337955896E+02  0.18726400832E+02  0.00000000000E+00 0. -1.
         11    1    3    3    0    0  0.24587792805E+02 -0.37098269612E+01  0.10101693551E+02  0.26839645750E+02  0.51100000000E-03 0. -1.
        -11    1    3    3    0    0  0.73467474084E+01 -0.14641175848E+02 -0.14563381070E+01  0.16445657440E+02  0.51100000000E-03 0.  1.
         12    1    3    3    0    0 -0.19169970197E+02  0.21488322193E+02  0.46926004516E+01  0.29176295978E+02  0.00000000000E+00 0. -1.
</event>
<event>
 7    1  0.2876796E-013  0.7246164E+02  0.7816164E-02  0.1226708E+00
        -11   -1    0    0    0    0  0.00000000000E+00  0.00000000000E+00  0.45593999997E+02  0.45594000000E+02  0.51100000000E-03 0.  1.
         11   -1    0    0    0    0 -0.00000000000E+00 -0.00000000000E+00 -0.45593999997E+02  0.45594000000E+02  0.51100000000E-03 0. -1.
    9900012    2    1    2    0    0  0.10419931971E+02 -0.15558808487E+02  0.15797738194E+00  0.72461642621E+02  0.70000094219E+02 0.  0.
         12    1    1    2    0    0 -0.10419931971E+02  0.15558808487E+02 -0.15797738194E+00  0.18726357379E+02  0.00000000000E+00 0. -1.
         11    1    3    3    0    0  0.19373577459E+02 -0.23621843848E+02  0.14881150688E+02  0.33981990178E+02  0.51100000000E-03 0. -1.
        -11    1    3    3    0    0  0.81359801103E+01 -0.84583313184E+01 -0.39581447944E+01  0.12385655070E+02  0.51100000000E-03 0.  1.
         12    1    3    3    0    0 -0.17089625599E+02  0.16521366679E+02 -0.10765028512E+02  0.26093997373E+02  0.00000000000E+00 0. -1.
</event>
<event>
 7    1  0.2876796E-013  0.7246156E+02  0.7816164E-02  0.1226708E+00
        -11   -1    0    0    0    0  0.00000000000E+00  0.00000000000E+00  0.45593999997E+02  0.45594000000E+02  0.51100000000E-03 0.  1.
         11   -1    0    0    0    0 -0.00000000000E+00 -0.00000000000E+00 -0.45593999997E+02  0.45594000000E+02  0.51100000000E-03 0. -1.
    9900012    2    1    2    0    0  0.10900866478E+02 -0.12744697762E+02  0.83320694908E+01  0.72461558987E+02  0.69999985270E+02 0.  0.
         12    1    1    2    0    0 -0.10900866478E+02  0.12744697762E+02 -0.83320694908E+01  0.18726441013E+02  0.00000000000E+00 0. -1.
         11    1    3    3    0    0  0.13987736386E+02 -0.84111893972E+00 -0.83274141754E+01  0.16300615859E+02  0.51100000000E-03 0. -1.
        -11    1    3    3    0    0  0.24185480561E+02 -0.57599549055E+01  0.12726454760E+02  0.27929862182E+02  0.51100000000E-03 0.  1.
         12    1    3    3    0    0 -0.27272350470E+02 -0.61436239171E+01  0.39330289066E+01  0.28231080946E+02  0.00000000000E+00 0. -1.
</event>
<event>
 7    1  0.2876796E-013  0.7246155E+02  0.7816164E-02  0.1226708E+00
        -11   -1    0    0    0    0  0.00000000000E+00  0.00000000000E+00  0.45593999997E+02  0.45594000000E+02  0.51100000000E-03 0.  1.
         11   -1    0    0    0    0 -0.00000000000E+00 -0.00000000000E+00 -0.45593999997E+02  0.45594000000E+02  0.51100000000E-03 0. -1.
    9900012    2    1    2    0    0 -0.16940418589E+02  0.51690584596E+01  0.60813680699E+01  0.72461548523E+02  0.69999971639E+02 0.  0.
         12    1    1    2    0    0  0.16940418589E+02 -0.51690584596E+01 -0.60813680699E+01  0.18726451477E+02  0.00000000000E+00 0. -1.
         11    1    3    3    0    0 -0.74104911916E+01  0.15413809192E+02 -0.11695285241E+02  0.20719087592E+02  0.51100000000E-03 0. -1.
        -11    1    3    3    0    0 -0.19098337697E+02  0.11475692259E+02  0.16946643497E+02  0.27993333879E+02  0.51100000000E-03 0.  1.
         12    1    3    3    0    0  0.95684102996E+01 -0.21720442992E+02  0.83000981419E+00  0.23749127052E+02  0.00000000000E+00 0. -1.
</event>
<event>
 7    1  0.2876796E-013  0.7246155E+02  0.7816164E-02  0.1226708E+00
        -11   -1    0    0    0    0  0.00000000000E+00  0.00000000000E+00  0.45593999997E+02  0.45594000000E+02  0.51100000000E-03 0. -1.
         11   -1    0    0    0    0 -0.00000000000E+00 -0.00000000000E+00 -0.45593999997E+02  0.45594000000E+02  0.51100000000E-03 0.  1.
    9900012    2    1    2    0    0 -0.13119449183E+02  0.92942021940E+01 -0.96009319795E+01  0.72461547154E+02  0.69999969856E+02 0.  0.
         12    1    1    2    0    0  0.13119449183E+02 -0.92942021940E+01  0.96009319795E+01  0.18726452846E+02  0.00000000000E+00 0. -1.
         11    1    3    3    0    0  0.44988072354E+01 -0.49952103992E+01  0.11954919624E+02  0.13715374473E+02  0.51100000000E-03 0. -1.
        -11    1    3    3    0    0  0.37526762349E+01  0.78178935764E+01  0.14171901586E+02  0.16614597007E+02  0.51100000000E-03 0.  1.
         12    1    3    3    0    0 -0.21370932654E+02  0.64715190168E+01 -0.35727753189E+02  0.42131575674E+02  0.00000000000E+00 0. -1.
</event>
<event>
 7    1  0.2876796E-013  0.7246154E+02  0.7816164E-02  0.1226708E+00
        -11   -1    0    0    0    0  0.00000000000E+00  0.00000000000E+00  0.45593999997E+02  0.45594000000E+02  0.51100000000E-03 0.  1.
         11   -1    0    0    0    0 -0.00000000000E+00 -0.00000000000E+00 -0.45593999997E+02  0.45594000000E+02  0.51100000000E-03 0. -1.
    9900012    2    1    2    0    0  0.34201296872E+01  0.18504611377E+01  0.18318264609E+02  0.72461539795E+02  0.69999960269E+02 0.  0.
         12    1    1    2    0    0 -0.34201296872E+01 -0.18504611377E+01 -0.18318264609E+02  0.18726460205E+02  0.00000000000E+00 0. -1.
         11    1    3    3    0    0  0.33539808108E+01 -0.16360578507E+02  0.23761065596E+02  0.29043173981E+02  0.51100000000E-03 0. -1.
        -11    1    3    3    0    0  0.22894596741E+01 -0.12285470112E+02 -0.17406264263E+01  0.12617613961E+02  0.51100000000E-03 0.  1.
        -12    1    3    3    0    0 -0.22233107977E+01  0.30496509757E+02 -0.37021745605E+01  0.30800751853E+02  0.00000000000E+00 0.  1.
</event>
<event>
 7    1  0.2876796E-013  0.7246157E+02  0.7816164E-02  0.1226708E+00
        -11   -1    0    0    0    0  0.00000000000E+00  0.00000000000E+00  0.45593999997E+02  0.45594000000E+02  0.51100000000E-03 0. -1.
         11   -1    0    0    0    0 -0.00000000000E+00 -0.00000000000E+00 -0.45593999997E+02  0.45594000000E+02  0.51100000000E-03 0.  1.
    9900012    2    1    2    0    0  0.46314805441E+01 -0.66178387766E+01 -0.16894758819E+02  0.72461567407E+02  0.69999996239E+02 0.  0.
         12    1    1    2    0    0 -0.46314805441E+01  0.66178387766E+01  0.16894758819E+02  0.18726432593E+02  0.00000000000E+00 0. -1.
         11    1    3    3    0    0 -0.31501351162E+01 -0.43024932713E+01  0.20825846659E+00  0.53364943034E+01  0.51100000000E-03 0. -1.
        -11    1    3    3    0    0  0.10233143493E+02 -0.32370258219E+02 -0.14307811773E+02  0.36841068401E+02  0.51100000000E-03 0.  1.
         12    1    3    3    0    0 -0.24515278331E+01  0.30054912714E+02 -0.27952055124E+01  0.30284004703E+02  0.00000000000E+00 0. -1.
</event>
<event>
 7    1  0.2876796E-013  0.7246170E+02  0.7816164E-02  0.1226708E+00
        -11   -1    0    0    0    0  0.00000000000E+00  0.00000000000E+00  0.45593999997E+02  0.45594000000E+02  0.51100000000E-03 0. -1.
         11   -1    0    0    0    0 -0.00000000000E+00 -0.00000000000E+00 -0.45593999997E+02  0.45594000000E+02  0.51100000000E-03 0.  1.
    9900012    2    1    2    0    0  0.16544253534E+02 -0.66401500623E+01  0.57332692107E+01  0.72461700481E+02  0.70000169592E+02 0.  0.
         12    1    1    2    0    0 -0.16544253534E+02  0.66401500623E+01 -0.57332692107E+01  0.18726299519E+02  0.00000000000E+00 0. -1.
         11    1    3    3    0    0  0.83442738975E+00  0.69279867791E+01  0.84945625973E+01  0.10993218994E+02  0.51100000000E-03 0. -1.
        -11    1    3    3    0    0  0.17487292201E+01  0.17790158690E+02 -0.16659974261E+02  0.24435681754E+02  0.51100000000E-03 0.  1.
         12    1    3    3    0    0  0.13961096924E+02 -0.31358295532E+02  0.13898680875E+02  0.37032799733E+02  0.00000000000E+00 0. -1.
</event>
<event>
 7    1  0.2876796E-013  0.7246161E+02  0.7816164E-02  0.1226708E+00
        -11   -1    0    0    0    0  0.00000000000E+00  0.00000000000E+00  0.45593999997E+02  0.45594000000E+02  0.51100000000E-03 0.  1.
         11   -1    0    0    0    0 -0.00000000000E+00 -0.00000000000E+00 -0.45593999997E+02  0.45594000000E+02  0.51100000000E-03 0. -1.
    9900012    2    1    2    0    0 -0.11667450605E+02 -0.12997047834E+02  0.67546282455E+01  0.72461610632E+02  0.70000052547E+02 0.  0.
         12    1    1    2    0    0  0.11667450605E+02  0.12997047834E+02 -0.67546282455E+01  0.18726389368E+02  0.00000000000E+00 0. -1.
         11    1    3    3    0    0 -0.17920600682E+01  0.20624160071E+02 -0.84840482636E+01  0.22372897290E+02  0.51100000000E-03 0. -1.
        -11    1    3    3    0    0 -0.12410070006E+02 -0.12974621919E+02 -0.73327744464E+01  0.19393819450E+02  0.51100000000E-03 0.  1.
        -12    1    3    3    0    0  0.25346794686E+01 -0.20646585985E+02  0.22571450955E+02  0.30694893893E+02  0.00000000000E+00 0.  1.
</event>
<event>
 7    1  0.2876796E-013  0.7246160E+02  0.7816164E-02  0.1226708E+00
        -11   -1    0    0    0    0  0.00000000000E+00  0.00000000000E+00  0.45593999997E+02  0.45594000000E+02  0.51100000000E-03 0.  1.
         11   -1    0    0    0    0 -0.00000000000E+00 -0.00000000000E+00 -0.45593999997E+02  0.45594000000E+02  0.51100000000E-03 0. -1.
    9900012    2    1    2    0    0  0.18549436280E+02  0.38854088283E+00 -0.25387718179E+01  0.72461603852E+02  0.70000043715E+02 0.  0.
         12    1    1    2    0    0 -0.18549436280E+02 -0.38854088283E+00  0.25387718179E+01  0.18726396148E+02  0.00000000000E+00 0. -1.
         11    1    3    3    0    0  0.11894333990E+02 -0.21313673358E+01  0.66225718724E+01  0.13779563355E+02  0.51100000000E-03 0. -1.
        -11    1    3    3    0    0  0.37290250960E+01 -0.86274334796E+01  0.22824126840E+02  0.24683577595E+02  0.51100000000E-03 0.  1.
         12    1    3    3    0    0  0.29260771949E+01  0.11147341698E+02 -0.31985470530E+02  0.33998462903E+02  0.00000000000E+00 0. -1.
</event>
<event>
 7    1  0.2876796E-013  0.7246154E+02  0.7816164E-02  0.1226708E+00
        -11   -1    0    0    0    0  0.00000000000E+00  0.00000000000E+00  0.45593999997E+02  0.45594000000E+02  0.51100000000E-03 0.  1.
         11   -1    0    0    0    0 -0.00000000000E+00 -0.00000000000E+00 -0.45593999997E+02  0.45594000000E+02  0.51100000000E-03 0. -1.
    9900012    2    1    2    0    0  0.14578720371E+02  0.28695200588E+01  0.11397671016E+02  0.72461544446E+02  0.69999966328E+02 0.  0.
         12    1    1    2    0    0 -0.14578720371E+02 -0.28695200588E+01 -0.11397671016E+02  0.18726455554E+02  0.00000000000E+00 0. -1.
         11    1    3    3    0    0 -0.13288333051E+02 -0.11914949874E+02 -0.12612442059E+02  0.21854508018E+02  0.51100000000E-03 0. -1.
        -11    1    3    3    0    0 -0.31463083413E+01  0.10567538009E+02 -0.21554625092E+00  0.11028081257E+02  0.51100000000E-03 0.  1.
         12    1    3    3    0    0  0.31013361763E+02  0.42169319235E+01  0.24225659325E+02  0.39578955171E+02  0.00000000000E+00 0. -1.
</event>
<event>
 7    1  0.2876796E-013  0.7246155E+02  0.7816164E-02  0.1226708E+00
        -11   -1    0    0    0    0  0.00000000000E+00  0.00000000000E+00  0.45593999997E+02  0.45594000000E+02  0.51100000000E-03 0.  1.
         11   -1    0    0    0    0 -0.00000000000E+00 -0.00000000000E+00 -0.45593999997E+02  0.45594000000E+02  0.51100000000E-03 0. -1.
    9900012    2    1    2    0    0  0.11368312854E+02  0.45945357346E+00  0.14873810820E+02  0.72461551243E+02  0.69999975183E+02 0.  0.
         12    1    1    2    0    0 -0.11368312854E+02 -0.45945357346E+00 -0.14873810820E+02  0.18726448757E+02  0.00000000000E+00 0. -1.
         11    1    3    3    0    0 -0.88091876715E+01 -0.20817405024E+02 -0.40277568705E+01  0.22960595921E+02  0.51100000000E-03 0. -1.
        -11    1    3    3    0    0  0.78472271399E+01 -0.94528534027E+01  0.24482385601E+01  0.12527141875E+02  0.51100000000E-03 0.  1.
        -12    1    3    3    0    0  0.12330273386E+02  0.30729712001E+02  0.16453329130E+02  0.36973813448E+02  0.00000000000E+00 0.  1.
</event>
<event>
 7    1  0.2876796E-013  0.7246148E+02  0.7816164E-02  0.1226708E+00
        -11   -1    0    0    0    0  0.00000000000E+00  0.00000000000E+00  0.45593999997E+02  0.45594000000E+02  0.51100000000E-03 0.  1.
         11   -1    0    0    0    0 -0.00000000000E+00 -0.00000000000E+00 -0.45593999997E+02  0.45594000000E+02  0.51100000000E-03 0. -1.
    9900012    2    1    2    0    0  0.43103407836E+01  0.18196630629E+02 -0.99303950289E+00  0.72461480533E+02  0.69999883069E+02 0.  0.
         12    1    1    2    0    0 -0.43103407836E+01 -0.18196630629E+02  0.99303950289E+00  0.18726519467E+02  0.00000000000E+00 0. -1.
         11    1    3    3    0    0  0.10926131412E+02  0.28667001869E+02 -0.23284600319E+02  0.38514282494E+02  0.51100000000E-03 0. -1.
        -11    1    3    3    0    0 -0.26859683684E+01  0.11917689831E+01 -0.39734860729E+01  0.49419966833E+01  0.51100000000E-03 0.  1.
        -12    1    3    3    0    0 -0.39298222598E+01 -0.11662140223E+02  0.26265046889E+02  0.29005201355E+02  0.00000000000E+00 0.  1.
</event>
<event>
 7    1  0.2876796E-013  0.7246160E+02  0.7816164E-02  0.1226708E+00
        -11   -1    0    0    0    0  0.00000000000E+00  0.00000000000E+00  0.45593999997E+02  0.45594000000E+02  0.51100000000E-03 0.  1.
         11   -1    0    0    0    0 -0.00000000000E+00 -0.00000000000E+00 -0.45593999997E+02  0.45594000000E+02  0.51100000000E-03 0. -1.
    9900012    2    1    2    0    0 -0.39744601522E+00 -0.18701367740E+02  0.88264061374E+00  0.72461596898E+02  0.70000034657E+02 0.  0.
         12    1    1    2    0    0  0.39744601522E+00  0.18701367740E+02 -0.88264061374E+00  0.18726403102E+02  0.00000000000E+00 0. -1.
         11    1    3    3    0    0  0.51610324948E+01 -0.12869166496E+02  0.16272287223E+02  0.21378471284E+02  0.51100000000E-03 0. -1.
        -11    1    3    3    0    0  0.19894209610E+02 -0.23109749430E+01  0.18919450876E+01  0.20117147851E+02  0.51100000000E-03 0.  1.
         12    1    3    3    0    0 -0.25452688120E+02 -0.35212263010E+01 -0.17281591697E+02  0.30965977763E+02  0.00000000000E+00 0. -1.
</event>
<event>
 7    1  0.2876796E-013  0.7246162E+02  0.7816164E-02  0.1226708E+00
        -11   -1    0    0    0    0  0.00000000000E+00  0.00000000000E+00  0.45593999997E+02  0.45594000000E+02  0.51100000000E-03 0.  1.
         11   -1    0    0    0    0 -0.00000000000E+00 -0.00000000000E+00 -0.45593999997E+02  0.45594000000E+02  0.51100000000E-03 0. -1.
    9900012    2    1    2    0    0 -0.10200026800E+02 -0.38334698827E+01  0.15229621731E+02  0.72461617110E+02  0.70000060987E+02 0.  0.
         12    1    1    2    0    0  0.10200026800E+02  0.38334698827E+01 -0.15229621731E+02  0.18726382890E+02  0.00000000000E+00 0. -1.
         11    1    3    3    0    0 -0.26974429298E+02  0.30304974556E+01  0.86858370123E+01  0.28499956415E+02  0.51100000000E-03 0. -1.
        -11    1    3    3    0    0 -0.44048727107E+01 -0.18577558209E+02  0.92334417243E+00  0.19114945392E+02  0.51100000000E-03 0.  1.
        -12    1    3    3    0    0  0.21179275208E+02  0.11713590871E+02  0.56204405460E+01  0.24846715304E+02  0.00000000000E+00 0.  1.
</event>
<event>
 7    1  0.2876796E-013  0.7246110E+02  0.7816164E-02  0.1226709E+00
        -11   -1    0    0    0    0  0.00000000000E+00  0.00000000000E+00  0.45593999997E+02  0.45594000000E+02  0.51100000000E-03 0. -1.
         11   -1    0    0    0    0 -0.00000000000E+00 -0.00000000000E+00 -0.45593999997E+02  0.45594000000E+02  0.51100000000E-03 0.  1.
    9900012    2    1    2    0    0 -0.19754403678E+01  0.80528433583E+01 -0.16791250327E+02  0.72461101209E+02  0.69999388926E+02 0.  0.
         12    1    1    2    0    0  0.19754403678E+01 -0.80528433583E+01  0.16791250327E+02  0.18726898791E+02  0.00000000000E+00 0. -1.
         11    1    3    3    0    0  0.18888636587E+00  0.59846825525E+01  0.69334040105E+01  0.91610149408E+01  0.51100000000E-03 0. -1.
        -11    1    3    3    0    0  0.15115189456E+02 -0.20307373849E+02  0.15717118615E+01  0.25363924447E+02  0.51100000000E-03 0.  1.
         12    1    3    3    0    0 -0.17279516189E+02  0.22375534655E+02 -0.25296366199E+02  0.37936161821E+02  0.00000000000E+00 0. -1.
</event>
<event>
 7    1  0.2876796E-013  0.7246159E+02  0.7816164E-02  0.1226708E+00
        -11   -1    0    0    0    0  0.00000000000E+00  0.00000000000E+00  0.45593999997E+02  0.45594000000E+02  0.51100000000E-03 0.  1.
         11   -1    0    0    0    0 -0.00000000000E+00 -0.00000000000E+00 -0.45593999997E+02  0.45594000000E+02  0.51100000000E-03 0. -1.
    9900012    2    1    2    0    0 -0.64426529700E+01 -0.56190793325E+01  0.16661233454E+02  0.72461587369E+02  0.70000022243E+02 0.  0.
         12    1    1    2    0    0  0.64426529700E+01  0.56190793325E+01 -0.16661233454E+02  0.18726412631E+02  0.00000000000E+00 0. -1.
         11    1    3    3    0    0  0.90125285426E+01  0.13979925971E+02  0.62607649903E+01  0.17772483771E+02  0.51100000000E-03 0. -1.
        -11    1    3    3    0    0 -0.20441852785E+02  0.10209286161E+02  0.39322727376E+00  0.22852866278E+02  0.51100000000E-03 0.  1.
         12    1    3    3    0    0  0.49866712720E+01 -0.29808291464E+02  0.10007241190E+02  0.31836237319E+02  0.00000000000E+00 0. -1.
</event>
<event>
 7    1  0.2876796E-013  0.7246171E+02  0.7816164E-02  0.1226708E+00
        -11   -1    0    0    0    0  0.00000000000E+00  0.00000000000E+00  0.45593999997E+02  0.45594000000E+02  0.51100000000E-03 0. -1.
         11   -1    0    0    0    0 -0.00000000000E+00 -0.00000000000E+00 -0.45593999997E+02  0.45594000000E+02  0.51100000000E-03 0.  1.
    9900012    2    1    2    0    0  0.14466240800E+02  0.58878752702E+01 -0.10331246995E+02  0.72461711992E+02  0.70000184588E+02 0.  0.
         12    1    1    2    0    0 -0.14466240800E+02 -0.58878752702E+01  0.10331246995E+02  0.18726288008E+02  0.00000000000E+00 0. -1.
         11    1    3    3    0    0  0.93056053763E+00 -0.15653748089E+01 -0.38813516661E+01  0.42873339296E+01  0.51100000000E-03 0. -1.
        -11    1    3    3    0    0  0.22140658004E+02  0.23754708104E+02 -0.25781547730E+02  0.41463032903E+02  0.51100000000E-03 0.  1.
         12    1    3    3    0    0 -0.86049777419E+01 -0.16301458025E+02  0.19331652401E+02  0.26711345159E+02  0.00000000000E+00 0. -1.
</event>
<event>
 7    1  0.2876796E-013  0.7246162E+02  0.7816164E-02  0.1226708E+00
        -11   -1    0    0    0    0  0.00000000000E+00  0.00000000000E+00  0.45593999997E+02  0.45594000000E+02  0.51100000000E-03 0.  1.
         11   -1    0    0    0    0 -0.00000000000E+00 -0.00000000000E+00 -0.45593999997E+02  0.45594000000E+02  0.51100000000E-03 0. -1.
    9900012    2    1    2    0    0  0.10804791030E+01 -0.31481450717E+01  0.18428209797E+02  0.72461623714E+02  0.70000069589E+02 0.  0.
         12    1    1    2    0    0 -0.10804791030E+01  0.31481450717E+01 -0.18428209797E+02  0.18726376286E+02  0.00000000000E+00 0. -1.
         11    1    3    3    0    0  0.61660452174E+01 -0.15495657991E+02  0.14636375121E+02  0.22189164183E+02  0.51100000000E-03 0. -1.
        -11    1    3    3    0    0  0.10328961618E+02  0.23962776496E+02  0.12693583666E+02  0.29017738920E+02  0.51100000000E-03 0.  1.
         12    1    3    3    0    0 -0.15414527732E+02 -0.11615263577E+02 -0.89017489897E+01  0.21254720611E+02  0.00000000000E+00 0. -1.
</event>
<event>
 7    1  0.2876796E-013  0.7246158E+02  0.7816164E-02  0.1226708E+00
        -11   -1    0    0    0    0  0.00000000000E+00  0.00000000000E+00  0.45593999997E+02  0.45594000000E+02  0.51100000000E-03 0.  1.
         11   -1    0    0    0    0 -0.00000000000E+00 -0.00000000000E+00 -0.45593999997E+02  0.45594000000E+02  0.51100000000E-03 0. -1.
    9900012    2    1    2    0    0 -0.13660165736E+02  0.68506852418E+01  0.10823438907E+02  0.72461578933E+02  0.70000011253E+02 0.  0.
         12    1    1    2    0    0  0.13660165736E+02 -0.68506852418E+01 -0.10823438907E+02  0.18726421067E+02  0.00000000000E+00 0. -1.
         11    1    3    3    0    0  0.62866408167E+01 -0.85616794682E+01 -0.54909513505E+01  0.11957205153E+02  0.51100000000E-03 0. -1.
        -11    1    3    3    0    0  0.16661719243E+02  0.72394463359E+01 -0.28397528277E+01  0.18387133212E+02  0.51100000000E-03 0.  1.
        -12    1    3    3    0    0 -0.36608525796E+02  0.81729183741E+01  0.19154143085E+02  0.42117240567E+02  0.00000000000E+00 0.  1.
</event>
<event>
 7    1  0.2876796E-013  0.7246166E+02  0.7816164E-02  0.1226708E+00
        -11   -1    0    0    0    0  0.00000000000E+00  0.00000000000E+00  0.45593999997E+02  0.45594000000E+02  0.51100000000E-03 0. -1.
         11   -1    0    0    0    0 -0.00000000000E+00 -0.00000000000E+00 -0.45593999997E+02  0.45594000000E+02  0.51100000000E-03 0.  1.
    9900012    2    1    2    0    0  0.60830968258E+01 -0.17590158223E+02 -0.20634932304E+01  0.72461661927E+02  0.70000119368E+02 0.  0.
         12    1    1    2    0    0 -0.60830968258E+01  0.17590158223E+02  0.20634932304E+01  0.18726338073E+02  0.00000000000E+00 0. -1.
         11    1    3    3    0    0  0.40033483627E+01  0.16815833475E+02 -0.66438930716E+01  0.18518649221E+02  0.51100000000E-03 0. -1.
        -11    1    3    3    0    0 -0.18429851034E+02 -0.78389026987E+01 -0.28373961304E+00  0.20029685796E+02  0.51100000000E-03 0.  1.
        -12    1    3    3    0    0  0.20509599497E+02 -0.26567089000E+02  0.48641394543E+01  0.33913326910E+02  0.00000000000E+00 0.  1.
</event>
<event>
 7    1  0.2876796E-013  0.7246157E+02  0.7816164E-02  0.1226708E+00
        -11   -1    0    0    0    0  0.00000000000E+00  0.00000000000E+00  0.45593999997E+02  0.45594000000E+02  0.51100000000E-03 0.  1.
         11   -1    0    0    0    0 -0.00000000000E+00 -0.00000000000E+00 -0.45593999997E+02  0.45594000000E+02  0.51100000000E-03 0. -1.
    9900012    2    1    2    0    0  0.10351809781E+01 -0.18196332542E+02  0.43012681059E+01  0.72461574155E+02  0.70000005029E+02 0.  0.
         12    1    1    2    0    0 -0.10351809781E+01  0.18196332542E+02 -0.43012681059E+01  0.18726425845E+02  0.00000000000E+00 0. -1.
         11    1    3    3    0    0 -0.82285475461E+01 -0.66674864209E+01 -0.20357132376E+02  0.22947270180E+02  0.51100000000E-03 0. -1.
        -11    1    3    3    0    0 -0.14929984106E+02 -0.10154225010E+02  0.63389333370E+01  0.19136216634E+02  0.51100000000E-03 0.  1.
        -12    1    3    3    0    0  0.24193712630E+02 -0.13746211107E+01  0.18319467145E+02  0.30378087341E+02  0.00000000000E+00 0.  1.
</event>
<event>
 7    1  0.2876796E-013  0.7246160E+02  0.7816164E-02  0.1226708E+00
        -11   -1    0    0    0    0  0.00000000000E+00  0.00000000000E+00  0.45593999997E+02  0.45594000000E+02  0.51100000000E-03 0. -1.
         11   -1    0    0    0    0 -0.00000000000E+00 -0.00000000000E+00 -0.45593999997E+02  0.45594000000E+02  0.51100000000E-03 0.  1.
    9900012    2    1    2    0    0 -0.81687635968E+01  0.16846666452E+02 -0.37308483480E+00  0.72461599878E+02  0.70000038538E+02 0.  0.
         12    1    1    2    0    0  0.81687635968E+01 -0.16846666452E+02  0.37308483480E+00  0.18726400122E+02  0.00000000000E+00 0. -1.
         11    1    3    3    0    0  0.99194715488E+01  0.15114295471E+00 -0.11232898175E+02  0.14986552695E+02  0.51100000000E-03 0. -1.
        -11    1    3    3    0    0  0.13422804947E+02 -0.85224325878E+01  0.51534615359E+01  0.16714117265E+02  0.51100000000E-03 0.  1.
         12    1    3    3    0    0 -0.31511040093E+02  0.25217956085E+02  0.57063518048E+01  0.40760929918E+02  0.00000000000E+00 0. -1.
</event>
<event>
 7    1  0.2876796E-013  0.7246160E+02  0.7816164E-02  0.1226708E+00
        -11   -1    0    0    0    0  0.00000000000E+00  0.00000000000E+00  0.45593999997E+02  0.45594000000E+02  0.51100000000E-03 0.  1.
         11   -1    0    0    0    0 -0.00000000000E+00 -0.00000000000E+00 -0.45593999997E+02  0.45594000000E+02  0.51100000000E-03 0. -1.
    9900012    2    1    2    0    0 -0.79737766307E+01  0.94426533459E+01  0.14068875766E+02  0.72461599350E+02  0.70000037851E+02 0.  0.
         12    1    1    2    0    0  0.79737766307E+01 -0.94426533459E+01 -0.14068875766E+02  0.18726400650E+02  0.00000000000E+00 0. -1.
         11    1    3    3    0    0 -0.30601243957E+01  0.80215701439E+01  0.17581861724E+02  0.19566088287E+02  0.51100000000E-03 0. -1.
        -11    1    3    3    0    0 -0.26638117766E+02 -0.90149264723E+01  0.19268432700E+01  0.28188134785E+02  0.51100000000E-03 0.  1.
         12    1    3    3    0    0  0.21724465531E+02  0.10436009674E+02 -0.54398292280E+01  0.24707376278E+02  0.00000000000E+00 0. -1.
</event>
<event>
 7    1  0.2876796E-013  0.7246151E+02  0.7816164E-02  0.1226708E+00
        -11   -1    0    0    0    0  0.00000000000E+00  0.00000000000E+00  0.45593999997E+02  0.45594000000E+02  0.51100000000E-03 0.  1.
         11   -1    0    0    0    0 -0.00000000000E+00 -0.00000000000E+00 -0.45593999997E+02  0.45594000000E+02  0.51100000000E-03 0. -1.
    9900012    2    1    2    0    0  0.64708737443E+01  0.16173520083E+02  0.68721441128E+01  0.72461512780E+02  0.69999925077E+02 0.  0.
         12    1    1    2    0    0 -0.64708737443E+01 -0.16173520083E+02 -0.68721441128E+01  0.18726487220E+02  0.00000000000E+00 0. -1.
         11    1    3    3    0    0  0.61817436023E+01  0.82354702381E+01 -0.54817906797E+01  0.11665631287E+02  0.51100000000E-03 0. -1.
        -11    1    3    3    0    0 -0.11754541299E+02  0.30734732787E+02  0.11955162841E+02  0.35010269342E+02  0.51100000000E-03 0.  1.
         12    1    3    3    0    0  0.12043671441E+02 -0.22796682942E+02  0.39877195138E+00  0.25785612151E+02  0.00000000000E+00 0. -1.
</event>
<event>
 7    1  0.2876796E-013  0.7246156E+02  0.7816164E-02  0.1226708E+00
        -11   -1    0    0    0    0  0.00000000000E+00  0.00000000000E+00  0.45593999997E+02  0.45594000000E+02  0.51100000000E-03 0. -1.
         11   -1    0    0    0    0 -0.00000000000E+00 -0.00000000000E+00 -0.45593999997E+02  0.45594000000E+02  0.51100000000E-03 0.  1.
    9900012    2    1    2    0    0 -0.16762011777E+02  0.78341398966E+01  0.28880098893E+01  0.72461564465E+02  0.69999992406E+02 0.  0.
         12    1    1    2    0    0  0.16762011777E+02 -0.78341398966E+01 -0.28880098893E+01  0.18726435535E+02  0.00000000000E+00 0. -1.
         11    1    3    3    0    0 -0.85023555442E+01  0.45389053493E+01  0.82147407583E+01  0.12663872929E+02  0.51100000000E-03 0. -1.
        -11    1    3    3    0    0 -0.27011605451E+02  0.72938934457E+01 -0.21040539756E+02  0.35007599519E+02  0.51100000000E-03 0.  1.
         12    1    3    3    0    0  0.18751949218E+02 -0.39986588984E+01  0.15713808887E+02  0.24790092017E+02  0.00000000000E+00 0. -1.
</event>
<event>
 7    1  0.2876796E-013  0.7246157E+02  0.7816164E-02  0.1226708E+00
        -11   -1    0    0    0    0  0.00000000000E+00  0.00000000000E+00  0.45593999997E+02  0.45594000000E+02  0.51100000000E-03 0.  1.
         11   -1    0    0    0    0 -0.00000000000E+00 -0.00000000000E+00 -0.45593999997E+02  0.45594000000E+02  0.51100000000E-03 0. -1.
    9900012    2    1    2    0    0  0.21004757914E+01  0.75996408906E+01  0.16985660364E+02  0.72461569528E+02  0.69999999001E+02 0.  0.
         12    1    1    2    0    0 -0.21004757914E+01 -0.75996408906E+01 -0.16985660364E+02  0.18726430472E+02  0.00000000000E+00 0. -1.
         11    1    3    3    0    0  0.12406560202E+02  0.20405250388E+02 -0.12963723865E+02  0.27172690632E+02  0.51100000000E-03 0. -1.
        -11    1    3    3    0    0 -0.25050937362E+01  0.61101803606E+01 -0.23876032036E+01  0.70221398438E+01  0.51100000000E-03 0.  1.
        -12    1    3    3    0    0 -0.78009906746E+01 -0.18915789858E+02  0.32336987433E+02  0.38266739052E+02  0.00000000000E+00 0.  1.
</event>
<event>
 7    1  0.2876796E-013  0.7246156E+02  0.7816164E-02  0.1226708E+00
        -11   -1    0    0    0    0  0.00000000000E+00  0.00000000000E+00  0.45593999997E+02  0.45594000000E+02  0.51100000000E-03 0. -1.
         11   -1    0    0    0    0 -0.00000000000E+00 -0.00000000000E+00 -0.45593999997E+02  0.45594000000E+02  0.51100000000E-03 0.  1.
    9900012    2    1    2    0    0  0.62594772293E+01 -0.17458907420E+02 -0.25855402275E+01  0.72461560889E+02  0.69999987748E+02 0.  0.
         12    1    1    2    0    0 -0.62594772293E+01  0.17458907420E+02  0.25855402275E+01  0.18726439111E+02  0.00000000000E+00 0. -1.
         11    1    3    3    0    0  0.14034437406E+02 -0.81694787550E+01  0.23309067284E+02  0.28408069881E+02  0.51100000000E-03 0. -1.
        -11    1    3    3    0    0  0.23792760192E+01  0.11886570194E+02 -0.79317276243E+01  0.14486676938E+02  0.51100000000E-03 0.  1.
        -12    1    3    3    0    0 -0.10154236196E+02 -0.21175998859E+02 -0.17962879887E+02  0.29566814070E+02  0.00000000000E+00 0.  1.
</event>
<event>
 7    1  0.2876796E-013  0.7246160E+02  0.7816164E-02  0.1226708E+00
        -11   -1    0    0    0    0  0.00000000000E+00  0.00000000000E+00  0.45593999997E+02  0.45594000000E+02  0.51100000000E-03 0.  1.
         11   -1    0    0    0    0 -0.00000000000E+00 -0.00000000000E+00 -0.45593999997E+02  0.45594000000E+02  0.51100000000E-03 0. -1.
    9900012    2    1    2    0    0 -0.24994039467E+01 -0.14053346029E+02  0.12121647652E+02  0.72461604284E+02  0.70000044278E+02 0.  0.
         12    1    1    2    0    0  0.24994039467E+01  0.14053346029E+02 -0.12121647652E+02  0.18726395716E+02  0.00000000000E+00 0. -1.
         11    1    3    3    0    0 -0.47320154238E+01 -0.17344176943E+02 -0.91470353815E+01  0.20171284053E+02  0.51100000000E-03 0. -1.
        -11    1    3    3    0    0 -0.29520693685E+01 -0.19307823292E+02 -0.17603066699E+01  0.19611359811E+02  0.51100000000E-03 0.  1.
         12    1    3    3    0    0  0.51846808456E+01  0.22598654206E+02  0.23028989703E+02  0.32678960420E+02  0.00000000000E+00 0. -1.
</event>
<event>
 7    1  0.2876796E-013  0.7246158E+02  0.7816164E-02  0.1226708E+00
        -11   -1    0    0    0    0  0.00000000000E+00  0.00000000000E+00  0.45593999997E+02  0.45594000000E+02  0.51100000000E-03 0.  1.
         11   -1    0    0    0    0 -0.00000000000E+00 -0.00000000000E+00 -0.45593999997E+02  0.45594000000E+02  0.51100000000E-03 0. -1.
    9900012    2    1    2    0    0 -0.71835859293E+01 -0.16887187226E+02  0.37279926650E+01  0.72461576729E+02  0.70000008383E+02 0.  0.
         12    1    1    2    0    0  0.71835859293E+01  0.16887187226E+02 -0.37279926650E+01  0.18726423271E+02  0.00000000000E+00 0. -1.
         11    1    3    3    0    0  0.19474454776E+02  0.44329571961E+01 -0.11001271483E+02  0.22802049751E+02  0.51100000000E-03 0. -1.
        -11    1    3    3    0    0  0.44644937607E+01 -0.43587639169E+00 -0.54770129325E+01  0.70795030681E+01  0.51100000000E-03 0.  1.
        -12    1    3    3    0    0 -0.31122534466E+02 -0.20884268030E+02  0.20206277081E+02  0.42580023910E+02  0.00000000000E+00 0.  1.
</event>
<event>
 7    1  0.2876796E-013  0.7246145E+02  0.7816164E-02  0.1226708E+00
        -11   -1    0    0    0    0  0.00000000000E+00  0.00000000000E+00  0.45593999997E+02  0.45594000000E+02  0.51100000000E-03 0. -1.
         11   -1    0    0    0    0 -0.00000000000E+00 -0.00000000000E+00 -0.45593999997E+02  0.45594000000E+02  0.51100000000E-03 0.  1.
    9900012    2    1    2    0    0 -0.81290074451E+00  0.99571727534E+01 -0.15839111318E+02  0.72461453489E+02  0.69999847839E+02 0.  0.
         12    1    1    2    0    0  0.81290074451E+00 -0.99571727534E+01  0.15839111318E+02  0.18726546511E+02  0.00000000000E+00 0. -1.
         11    1    3    3    0    0 -0.46942757597E+01  0.76973252489E+01  0.15328831810E+02  0.17783647708E+02  0.51100000000E-03 0. -1.
        -11    1    3    3    0    0 -0.12449729286E+01 -0.40025015497E+01  0.10983665585E+02  0.11756312610E+02  0.51100000000E-03 0.  1.
        -12    1    3    3    0    0  0.51263479438E+01  0.62623490541E+01 -0.42151608713E+02  0.42921493171E+02  0.00000000000E+00 0.  1.
</event>
<event>
 7    1  0.2876796E-013  0.7246158E+02  0.7816164E-02  0.1226708E+00
        -11   -1    0    0    0    0  0.00000000000E+00  0.00000000000E+00  0.45593999997E+02  0.45594000000E+02  0.51100000000E-03 0. -1.
         11   -1    0    0    0    0 -0.00000000000E+00 -0.00000000000E+00 -0.45593999997E+02  0.45594000000E+02  0.51100000000E-03 0.  1.
    9900012    2    1    2    0    0 -0.17618985235E+02 -0.45145750360E+01  0.44574207330E+01  0.72461584751E+02  0.70000018833E+02 0.  0.
         12    1    1    2    0    0  0.17618985235E+02  0.45145750360E+01 -0.44574207330E+01  0.18726415249E+02  0.00000000000E+00 0. -1.
         11    1    3    3    0    0 -0.85492246173E+01 -0.16056502782E+01 -0.33894097466E+01  0.93357084929E+01  0.51100000000E-03 0. -1.
        -11    1    3    3    0    0 -0.53932343933E+01 -0.23927116140E+02 -0.17398236985E+02  0.30071456806E+02  0.51100000000E-03 0.  1.
         12    1    3    3    0    0 -0.36765262249E+01  0.21018191382E+02  0.25245067464E+02  0.33054419452E+02  0.00000000000E+00 0. -1.
</event>
<event>
 7    1  0.2876796E-013  0.7246166E+02  0.7816164E-02  0.1226708E+00
        -11   -1    0    0    0    0  0.00000000000E+00  0.00000000000E+00  0.45593999997E+02  0.45594000000E+02  0.51100000000E-03 0.  1.
         11   -1    0    0    0    0 -0.00000000000E+00 -0.00000000000E+00 -0.45593999997E+02  0.45594000000E+02  0.51100000000E-03 0. -1.
    9900012    2    1    2    0    0 -0.53534062409E+01 -0.17813116850E+02 -0.21701716087E+01  0.72461661994E+02  0.70000119456E+02 0.  0.
         12    1    1    2    0    0  0.53534062409E+01  0.17813116850E+02  0.21701716087E+01  0.18726338006E+02  0.00000000000E+00 0. -1.
         11    1    3    3    0    0  0.20844742616E+02 -0.68905383844E+01 -0.94013333769E+00  0.21974227288E+02  0.51100000000E-03 0. -1.
        -11    1    3    3    0    0 -0.11060411966E+02 -0.64547391035E+01  0.20172799191E+02  0.23894313073E+02  0.51100000000E-03 0.  1.
         12    1    3    3    0    0 -0.15137736891E+02 -0.44678393622E+01 -0.21402837462E+02  0.26593121633E+02  0.00000000000E+00 0. -1.
</event>
<event>
 7    1  0.2876796E-013  0.7246162E+02  0.7816164E-02  0.1226708E+00
        -11   -1    0    0    0    0  0.00000000000E+00  0.00000000000E+00  0.45593999997E+02  0.45594000000E+02  0.51100000000E-03 0.  1.
         11   -1    0    0    0    0 -0.00000000000E+00 -0.00000000000E+00 -0.45593999997E+02  0.45594000000E+02  0.51100000000E-03 0. -1.
    9900012    2    1    2    0    0  0.14016696600E+02 -0.66884774493E+01  0.10462970654E+02  0.72461621037E+02  0.70000066102E+02 0.  0.
         12    1    1    2    0    0 -0.14016696600E+02  0.66884774493E+01 -0.10462970654E+02  0.18726378963E+02  0.00000000000E+00 0. -1.
         11    1    3    3    0    0  0.55982522803E+01  0.69519190962E+01 -0.92131208735E+01  0.12827751331E+02  0.51100000000E-03 0. -1.
        -11    1    3    3    0    0 -0.80025497404E+01  0.10698177520E+02 -0.10901050447E+02  0.17243106034E+02  0.51100000000E-03 0.  1.
        -12    1    3    3    0    0  0.16420994060E+02 -0.24338574066E+02  0.30577141974E+02  0.42390763673E+02  0.00000000000E+00 0.  1.
</event>
<event>
 7    1  0.2876796E-013  0.7246158E+02  0.7816164E-02  0.1226708E+00
        -11   -1    0    0    0    0  0.00000000000E+00  0.00000000000E+00  0.45593999997E+02  0.45594000000E+02  0.51100000000E-03 0.  1.
         11   -1    0    0    0    0 -0.00000000000E+00 -0.00000000000E+00 -0.45593999997E+02  0.45594000000E+02  0.51100000000E-03 0. -1.
    9900012    2    1    2    0    0  0.51576992481E+01 -0.20738527880E+01  0.17882280202E+02  0.72461583575E+02  0.70000017300E+02 0.  0.
         12    1    1    2    0    0 -0.51576992481E+01  0.20738527880E+01 -0.17882280202E+02  0.18726416425E+02  0.00000000000E+00 0. -1.
         11    1    3    3    0    0 -0.16733043746E+02  0.10691573911E+02  0.63856268152E+01  0.20858589018E+02  0.51100000000E-03 0. -1.
        -11    1    3    3    0    0  0.29013823034E+01 -0.26453484706E+02  0.88511580199E+01  0.28045460790E+02  0.51100000000E-03 0.  1.
        -12    1    3    3    0    0  0.18989360691E+02  0.13688058007E+02  0.26454953667E+01  0.23557533767E+02  0.00000000000E+00 0.  1.
</event>
<event>
 7    1  0.2876796E-013  0.7246163E+02  0.7816164E-02  0.1226708E+00
        -11   -1    0    0    0    0  0.00000000000E+00  0.00000000000E+00  0.45593999997E+02  0.45594000000E+02  0.51100000000E-03 0.  1.
         11   -1    0    0    0    0 -0.00000000000E+00 -0.00000000000E+00 -0.45593999997E+02  0.45594000000E+02  0.51100000000E-03 0. -1.
    9900012    2    1    2    0    0 -0.19361953347E+01  0.77826325056E+01  0.16922140535E+02  0.72461626582E+02  0.70000073326E+02 0.  0.
         12    1    1    2    0    0  0.19361953347E+01 -0.77826325056E+01 -0.16922140535E+02  0.18726373418E+02  0.00000000000E+00 0. -1.
         11    1    3    3    0    0  0.12071427761E+01 -0.83130020670E+01 -0.70985855123E+01  0.10997868593E+02  0.51100000000E-03 0. -1.
        -11    1    3    3    0    0 -0.25748786213E+02  0.14190474967E+02  0.25235990536E+02  0.38745642205E+02  0.51100000000E-03 0.  1.
         12    1    3    3    0    0  0.22605448102E+02  0.19051596052E+01 -0.12152644889E+01  0.22718115785E+02  0.00000000000E+00 0. -1.
</event>
<event>
 7    1  0.2876796E-013  0.7246161E+02  0.7816164E-02  0.1226708E+00
        -11   -1    0    0    0    0  0.00000000000E+00  0.00000000000E+00  0.45593999997E+02  0.45594000000E+02  0.51100000000E-03 0. -1.
         11   -1    0    0    0    0 -0.00000000000E+00 -0.00000000000E+00 -0.45593999997E+02  0.45594000000E+02  0.51100000000E-03 0.  1.
    9900012    2    1    2    0    0  0.14385952036E+02 -0.68510538462E+01 -0.98379414450E+01  0.72461610955E+02  0.70000052968E+02 0.  0.
         12    1    1    2    0    0 -0.14385952036E+02  0.68510538462E+01  0.98379414450E+01  0.18726389045E+02  0.00000000000E+00 0. -1.
         11    1    3    3    0    0 -0.14888752862E+02  0.44023036810E+01  0.89733060941E+01  0.17932525255E+02  0.51100000000E-03 0. -1.
        -11    1    3    3    0    0 -0.50232174519E+01  0.52431623291E+01 -0.14513155809E+02  0.16228220992E+02  0.51100000000E-03 0.  1.
         12    1    3    3    0    0  0.34297922350E+02 -0.16496519856E+02 -0.42980917305E+01  0.38300864708E+02  0.00000000000E+00 0. -1.
</event>
<event>
 7    1  0.2876796E-013  0.7246158E+02  0.7816164E-02  0.1226708E+00
        -11   -1    0    0    0    0  0.00000000000E+00  0.00000000000E+00  0.45593999997E+02  0.45594000000E+02  0.51100000000E-03 0.  1.
         11   -1    0    0    0    0 -0.00000000000E+00 -0.00000000000E+00 -0.45593999997E+02  0.45594000000E+02  0.51100000000E-03 0. -1.
    9900012    2    1    2    0    0  0.81175109392E+01 -0.44970921973E+01  0.16265336327E+02  0.72461575143E+02  0.70000006317E+02 0.  0.
         12    1    1    2    0    0 -0.81175109392E+01  0.44970921973E+01 -0.16265336327E+02  0.18726424857E+02  0.00000000000E+00 0. -1.
         11    1    3    3    0    0  0.18937854635E+02  0.12123379774E+01  0.12231337963E+02  0.22576929157E+02  0.51100000000E-03 0. -1.
        -11    1    3    3    0    0 -0.13464120576E+02  0.54400326198E+01  0.23308076585E+02  0.27461662953E+02  0.51100000000E-03 0.  1.
         12    1    3    3    0    0  0.26437768805E+01 -0.11149462795E+02 -0.19274078221E+02  0.22422983033E+02  0.00000000000E+00 0. -1.
</event>
<event>
 7    1  0.2876796E-013  0.7246155E+02  0.7816164E-02  0.1226708E+00
        -11   -1    0    0    0    0  0.00000000000E+00  0.00000000000E+00  0.45593999997E+02  0.45594000000E+02  0.51100000000E-03 0. -1.
         11   -1    0    0    0    0 -0.00000000000E+00 -0.00000000000E+00 -0.45593999997E+02  0.45594000000E+02  0.51100000000E-03 0.  1.
    9900012    2    1    2    0    0 -0.75233324421E+01  0.76909564689E+01 -0.15327382971E+02  0.72461547822E+02  0.69999970725E+02 0.  0.
         12    1    1    2    0    0  0.75233324421E+01 -0.76909564689E+01  0.15327382971E+02  0.18726452178E+02  0.00000000000E+00 0. -1.
         11    1    3    3    0    0  0.45175433621E+01 -0.16804738093E+02 -0.12073039299E+02  0.21179369645E+02  0.51100000000E-03 0. -1.
        -11    1    3    3    0    0 -0.15516968305E+02 -0.86994063615E+01 -0.16820948835E+01  0.17868559536E+02  0.51100000000E-03 0.  1.
         12    1    3    3    0    0  0.34760925007E+01  0.33195100924E+02 -0.15722487890E+01  0.33413618641E+02  0.00000000000E+00 0. -1.
</event>
<event>
 7    1  0.2876796E-013  0.7246163E+02  0.7816164E-02  0.1226708E+00
        -11   -1    0    0    0    0  0.00000000000E+00  0.00000000000E+00  0.45593999997E+02  0.45594000000E+02  0.51100000000E-03 0.  1.
         11   -1    0    0    0    0 -0.00000000000E+00 -0.00000000000E+00 -0.45593999997E+02  0.45594000000E+02  0.51100000000E-03 0. -1.
    9900012    2    1    2    0    0  0.13512564651E+02  0.88556640152E+01  0.94691435608E+01  0.72461631735E+02  0.70000080038E+02 0.  0.
         12    1    1    2    0    0 -0.13512564651E+02 -0.88556640152E+01 -0.94691435608E+01  0.18726368265E+02  0.00000000000E+00 0. -1.
         11    1    3    3    0    0  0.14589598355E+02 -0.11229058891E+02 -0.18627014223E+02  0.26189956145E+02  0.51100000000E-03 0. -1.
        -11    1    3    3    0    0 -0.73578249555E+01  0.73973328855E+01 -0.40141629672E+01  0.11179070913E+02  0.51100000000E-03 0.  1.
        -12    1    3    3    0    0  0.62807912515E+01  0.12687390020E+02  0.32110320751E+02  0.35092604677E+02  0.00000000000E+00 0.  1.
</event>
<event>
 7    1  0.2876796E-013  0.7246159E+02  0.7816164E-02  0.1226708E+00
        -11   -1    0    0    0    0  0.00000000000E+00  0.00000000000E+00  0.45593999997E+02  0.45594000000E+02  0.51100000000E-03 0.  1.
         11   -1    0    0    0    0 -0.00000000000E+00 -0.00000000000E+00 -0.45593999997E+02  0.45594000000E+02  0.51100000000E-03 0. -1.
    9900012    2    1    2    0    0  0.72737481717E+01  0.12766305562E+02  0.11610009984E+02  0.72461593458E+02  0.70000030174E+02 0.  0.
         12    1    1    2    0    0 -0.72737481717E+01 -0.12766305562E+02 -0.11610009984E+02  0.18726406542E+02  0.00000000000E+00 0. -1.
         11    1    3    3    0    0  0.37484281755E+02  0.80771072666E+01  0.11210260960E+01  0.38361018499E+02  0.51100000000E-03 0. -1.
        -11    1    3    3    0    0 -0.13915283719E+02  0.74387452739E+01  0.35259046574E+01  0.16167932958E+02  0.51100000000E-03 0.  1.
        -12    1    3    3    0    0 -0.16295249865E+02 -0.27495469788E+01  0.69630792307E+01  0.17932642000E+02  0.00000000000E+00 0.  1.
</event>
<event>
 7    1  0.2876796E-013  0.7246160E+02  0.7816164E-02  0.1226708E+00
        -11   -1    0    0    0    0  0.00000000000E+00  0.00000000000E+00  0.45593999997E+02  0.45594000000E+02  0.51100000000E-03 0. -1.
         11   -1    0    0    0    0 -0.00000000000E+00 -0.00000000000E+00 -0.45593999997E+02  0.45594000000E+02  0.51100000000E-03 0.  1.
    9900012    2    1    2    0    0 -0.32548905198E+01 -0.15848057318E+02 -0.94298831310E+01  0.72461603419E+02  0.70000043151E+02 0.  0.
         12    1    1    2    0    0  0.32548905198E+01  0.15848057318E+02  0.94298831310E+01  0.18726396581E+02  0.00000000000E+00 0. -1.
         11    1    3    3    0    0 -0.21051786820E+02 -0.27423406980E+02 -0.44060438589E-01  0.34571996185E+02  0.51100000000E-03 0. -1.
        -11    1    3    3    0    0 -0.71389822266E+01  0.44379264523E+00  0.31820757243E+01  0.78286413457E+01  0.51100000000E-03 0.  1.
        -12    1    3    3    0    0  0.24935878526E+02  0.11131557016E+02 -0.12567898417E+02  0.30060965888E+02  0.00000000000E+00 0.  1.
</event>
<event>
 7    1  0.2876796E-013  0.7246154E+02  0.7816164E-02  0.1226708E+00
        -11   -1    0    0    0    0  0.00000000000E+00  0.00000000000E+00  0.45593999997E+02  0.45594000000E+02  0.51100000000E-03 0. -1.
         11   -1    0    0    0    0 -0.00000000000E+00 -0.00000000000E+00 -0.45593999997E+02  0.45594000000E+02  0.51100000000E-03 0.  1.
    9900012    2    1    2    0    0  0.61466498185E+01 -0.15852217048E+02 -0.78489622846E+01  0.72461540156E+02  0.69999960739E+02 0.  0.
         12    1    1    2    0    0 -0.61466498185E+01  0.15852217048E+02  0.78489622846E+01  0.18726459844E+02  0.00000000000E+00 0. -1.
         11    1    3    3    0    0 -0.23841791837E+01  0.11218181301E+02  0.23616439691E+01  0.11709366532E+02  0.51100000000E-03 0. -1.
        -11    1    3    3    0    0  0.19750929489E+02  0.65794388524E+01  0.61248738575E+01  0.21700283669E+02  0.51100000000E-03 0.  1.
        -12    1    3    3    0    0 -0.11220100487E+02 -0.33649837201E+02 -0.16335480111E+02  0.39051889955E+02  0.00000000000E+00 0.  1.
</event>
<event>
 7    1  0.2876796E-013  0.7246146E+02  0.7816164E-02  0.1226708E+00
        -11   -1    0    0    0    0  0.00000000000E+00  0.00000000000E+00  0.45593999997E+02  0.45594000000E+02  0.51100000000E-03 0. -1.
         11   -1    0    0    0    0 -0.00000000000E+00 -0.00000000000E+00 -0.45593999997E+02  0.45594000000E+02  0.51100000000E-03 0.  1.
    9900012    2    1    2    0    0  0.55480104769E+01 -0.15079444568E+01 -0.17822149589E+02  0.72461459137E+02  0.69999855197E+02 0.  0.
         12    1    1    2    0    0 -0.55480104769E+01  0.15079444568E+01  0.17822149589E+02  0.18726540863E+02  0.00000000000E+00 0. -1.
         11    1    3    3    0    0  0.56493740022E+01 -0.46911105247E+01 -0.15617280581E+01  0.75073923143E+01  0.51100000000E-03 0. -1.
        -11    1    3    3    0    0  0.22872268912E+02  0.22973231297E+02 -0.61905424378E+01  0.33003527953E+02  0.51100000000E-03 0.  1.
        -12    1    3    3    0    0 -0.22973632438E+02 -0.19790065229E+02 -0.10069879093E+02  0.31950538870E+02  0.00000000000E+00 0.  1.
</event>
<event>
 7    1  0.2876796E-013  0.7246157E+02  0.7816164E-02  0.1226708E+00
        -11   -1    0    0    0    0  0.00000000000E+00  0.00000000000E+00  0.45593999997E+02  0.45594000000E+02  0.51100000000E-03 0. -1.
         11   -1    0    0    0    0 -0.00000000000E+00 -0.00000000000E+00 -0.45593999997E+02  0.45594000000E+02  0.51100000000E-03 0.  1.
    9900012    2    1    2    0    0 -0.82938723313E+01  0.14801319878E+02  0.79253972842E+01  0.72461566530E+02  0.69999995096E+02 0.  0.
         12    1    1    2    0    0  0.82938723313E+01 -0.14801319878E+02 -0.79253972842E+01  0.18726433470E+02  0.00000000000E+00 0. -1.
         11    1    3    3    0    0  0.11846345333E+01  0.13299147338E+02  0.17790926464E+02  0.22243824842E+02  0.51100000000E-03 0. -1.
        -11    1    3    3    0    0  0.18118135158E+02  0.72561293631E+01 -0.10208149472E+02  0.22025543145E+02  0.51100000000E-03 0.  1.
         12    1    3    3    0    0 -0.27596642023E+02 -0.57539568227E+01  0.34262029221E+00  0.28192198543E+02  0.00000000000E+00 0. -1.
</event>
<event>
 7    1  0.2876796E-013  0.7246157E+02  0.7816164E-02  0.1226708E+00
        -11   -1    0    0    0    0  0.00000000000E+00  0.00000000000E+00  0.45593999997E+02  0.45594000000E+02  0.51100000000E-03 0.  1.
         11   -1    0    0    0    0 -0.00000000000E+00 -0.00000000000E+00 -0.45593999997E+02  0.45594000000E+02  0.51100000000E-03 0. -1.
    9900012    2    1    2    0    0 -0.12032237474E+02  0.14220442918E+02 -0.19192222081E+01  0.72461570834E+02  0.70000000704E+02 0.  0.
         12    1    1    2    0    0  0.12032237474E+02 -0.14220442918E+02  0.19192222081E+01  0.18726429166E+02  0.00000000000E+00 0. -1.
         11    1    3    3    0    0 -0.66891838410E+01  0.15411284126E+02  0.39116010721E+01  0.17249738609E+02  0.51100000000E-03 0. -1.
        -11    1    3    3    0    0 -0.21622547393E+02  0.15983340107E+02  0.76783028095E+01  0.27963512853E+02  0.51100000000E-03 0.  1.
        -12    1    3    3    0    0  0.16279493761E+02 -0.17174181315E+02 -0.13509126090E+02  0.27248319373E+02  0.00000000000E+00 0.  1.
</event>
<event>
 7    1  0.2876796E-013  0.7246156E+02  0.7816164E-02  0.1226708E+00
        -11   -1    0    0    0    0  0.00000000000E+00  0.00000000000E+00  0.45593999997E+02  0.45594000000E+02  0.51100000000E-03 0.  1.
         11   -1    0    0    0    0 -0.00000000000E+00 -0.00000000000E+00 -0.45593999997E+02  0.45594000000E+02  0.51100000000E-03 0. -1.
    9900012    2    1    2    0    0 -0.28844383538E+01  0.16790326687E+02  0.77746051081E+01  0.72461560417E+02  0.69999987133E+02 0.  0.
         12    1    1    2    0    0  0.28844383538E+01 -0.16790326687E+02 -0.77746051081E+01  0.18726439583E+02  0.00000000000E+00 0. -1.
         11    1    3    3    0    0 -0.67463008479E+00 -0.60964394472E+00 -0.51188582180E+01  0.51989904027E+01  0.51100000000E-03 0. -1.
        -11    1    3    3    0    0  0.15929027760E+02 -0.17704021463E+02 -0.42481963940E+01  0.24191185878E+02  0.51100000000E-03 0.  1.
         12    1    3    3    0    0 -0.18138836029E+02  0.35103992094E+02  0.17141659720E+02  0.43071384136E+02  0.00000000000E+00 0. -1.
</event>
<event>
 7    1  0.2876796E-013  0.7246155E+02  0.7816164E-02  0.1226708E+00
        -11   -1    0    0    0    0  0.00000000000E+00  0.00000000000E+00  0.45593999997E+02  0.45594000000E+02  0.51100000000E-03 0.  1.
         11   -1    0    0    0    0 -0.00000000000E+00 -0.00000000000E+00 -0.45593999997E+02  0.45594000000E+02  0.51100000000E-03 0. -1.
    9900012    2    1    2    0    0  0.24193300498E+01  0.44785681186E+01  0.18021358218E+02  0.72461545923E+02  0.69999968252E+02 0.  0.
         12    1    1    2    0    0 -0.24193300498E+01 -0.44785681186E+01 -0.18021358218E+02  0.18726454077E+02  0.00000000000E+00 0. -1.
         11    1    3    3    0    0  0.15131915614E+02 -0.14668438665E+02  0.12388700877E+02  0.24446224099E+02  0.51100000000E-03 0. -1.
        -11    1    3    3    0    0 -0.76481227812E+01 -0.40875011436E+01  0.18892887220E+02  0.20788040683E+02  0.51100000000E-03 0.  1.
        -12    1    3    3    0    0 -0.50644627834E+01  0.23234507927E+02 -0.13260229879E+02  0.27227281141E+02  0.00000000000E+00 0.  1.
</event>
<event>
 7    1  0.2876796E-013  0.7246163E+02  0.7816164E-02  0.1226708E+00
        -11   -1    0    0    0    0  0.00000000000E+00  0.00000000000E+00  0.45593999997E+02  0.45594000000E+02  0.51100000000E-03 0. -1.
         11   -1    0    0    0    0 -0.00000000000E+00 -0.00000000000E+00 -0.45593999997E+02  0.45594000000E+02  0.51100000000E-03 0.  1.
    9900012    2    1    2    0    0 -0.39785696548E+01 -0.15537035226E+02  0.96668643764E+01  0.72461634977E+02  0.70000084261E+02 0.  0.
         12    1    1    2    0    0  0.39785696548E+01  0.15537035226E+02 -0.96668643764E+01  0.18726365023E+02  0.00000000000E+00 0. -1.
         11    1    3    3    0    0  0.33789265995E-01 -0.85039173805E+01  0.30482084933E+01  0.90337881207E+01  0.51100000000E-03 0. -1.
        -11    1    3    3    0    0 -0.25781077243E+02 -0.22695653734E+02 -0.40095518637E+01  0.34580820532E+02  0.51100000000E-03 0.  1.
         12    1    3    3    0    0  0.21768718322E+02  0.15662535889E+02  0.10628207747E+02  0.28847026325E+02  0.00000000000E+00 0. -1.
</event>
<event>
 7    1  0.2876796E-013  0.7246160E+02  0.7816164E-02  0.1226708E+00
        -11   -1    0    0    0    0  0.00000000000E+00  0.00000000000E+00  0.45593999997E+02  0.45594000000E+02  0.51100000000E-03 0.  1.
         11   -1    0    0    0    0 -0.00000000000E+00 -0.00000000000E+00 -0.45593999997E+02  0.45594000000E+02  0.51100000000E-03 0. -1.
    9900012    2    1    2    0    0 -0.26551974310E+01 -0.79597223869E+01  0.16741289673E+02  0.72461600618E+02  0.70000039503E+02 0.  0.
         12    1    1    2    0    0  0.26551974310E+01  0.79597223869E+01 -0.16741289673E+02  0.18726399382E+02  0.00000000000E+00 0. -1.
         11    1    3    3    0    0  0.29530813357E+01  0.62683759816E+01 -0.16363963068E+02  0.17770551887E+02  0.51100000000E-03 0. -1.
        -11    1    3    3    0    0  0.50072801743E+01  0.18063345973E+01 -0.78276290734E+01  0.94661225744E+01  0.51100000000E-03 0.  1.
        -12    1    3    3    0    0 -0.10615558941E+02 -0.16034432966E+02  0.40932881815E+02  0.45224926156E+02  0.00000000000E+00 0.  1.
</event>
<event>
 7    1  0.2876796E-013  0.7246158E+02  0.7816164E-02  0.1226708E+00
        -11   -1    0    0    0    0  0.00000000000E+00  0.00000000000E+00  0.45593999997E+02  0.45594000000E+02  0.51100000000E-03 0.  1.
         11   -1    0    0    0    0 -0.00000000000E+00 -0.00000000000E+00 -0.45593999997E+02  0.45594000000E+02  0.51100000000E-03 0. -1.
    9900012    2    1    2    0    0  0.72721495595E+01 -0.60372655030E+01  0.16166204537E+02  0.72461577408E+02  0.70000009267E+02 0.  0.
         12    1    1    2    0    0 -0.72721495595E+01  0.60372655030E+01 -0.16166204537E+02  0.18726422592E+02  0.00000000000E+00 0. -1.
         11    1    3    3    0    0 -0.18165885823E+01  0.66847051619E+00 -0.30460255863E+01  0.36090329788E+01  0.51100000000E-03 0. -1.
        -11    1    3    3    0    0 -0.24475070692E+02 -0.29304049783E+01  0.24396535821E+02  0.34681512641E+02  0.51100000000E-03 0.  1.
         12    1    3    3    0    0  0.33563808834E+02 -0.37753310409E+01 -0.51843056976E+01  0.34171031789E+02  0.00000000000E+00 0. -1.
</event>
<event>
 7    1  0.2876796E-013  0.7246161E+02  0.7816164E-02  0.1226708E+00
        -11   -1    0    0    0    0  0.00000000000E+00  0.00000000000E+00  0.45593999997E+02  0.45594000000E+02  0.51100000000E-03 0. -1.
         11   -1    0    0    0    0 -0.00000000000E+00 -0.00000000000E+00 -0.45593999997E+02  0.45594000000E+02  0.51100000000E-03 0.  1.
    9900012    2    1    2    0    0  0.13727520771E+02  0.10781998075E+02 -0.67809481481E+01  0.72461613088E+02  0.70000055746E+02 0.  0.
         12    1    1    2    0    0 -0.13727520771E+02 -0.10781998075E+02  0.67809481481E+01  0.18726386912E+02  0.00000000000E+00 0. -1.
         11    1    3    3    0    0  0.35493383166E+01  0.17231445595E+02  0.12155505727E+01  0.17635137744E+02  0.51100000000E-03 0. -1.
        -11    1    3    3    0    0 -0.10747941727E+02  0.15373120262E+02 -0.14731409726E+02  0.23850901675E+02  0.51100000000E-03 0.  1.
        -12    1    3    3    0    0  0.20926124181E+02 -0.21822567782E+02  0.67349110057E+01  0.30975573668E+02  0.00000000000E+00 0.  1.
</event>
<event>
 7    1  0.2876796E-013  0.7246158E+02  0.7816164E-02  0.1226708E+00
        -11   -1    0    0    0    0  0.00000000000E+00  0.00000000000E+00  0.45593999997E+02  0.45594000000E+02  0.51100000000E-03 0. -1.
         11   -1    0    0    0    0 -0.00000000000E+00 -0.00000000000E+00 -0.45593999997E+02  0.45594000000E+02  0.51100000000E-03 0.  1.
    9900012    2    1    2    0    0  0.27029301316E+01 -0.17065499936E+02 -0.72209240707E+01  0.72461578457E+02  0.70000010633E+02 0.  0.
         12    1    1    2    0    0 -0.27029301316E+01  0.17065499936E+02  0.72209240707E+01  0.18726421543E+02  0.00000000000E+00 0. -1.
         11    1    3    3    0    0 -0.24149912689E+02  0.84280382053E+01 -0.40676666773E+01  0.25899730178E+02  0.51100000000E-03 0. -1.
        -11    1    3    3    0    0 -0.59485450615E+01 -0.46052101236E+01  0.23759394854E+00  0.75265928399E+01  0.51100000000E-03 0.  1.
        -12    1    3    3    0    0  0.32801387882E+02 -0.20888328018E+02 -0.33908513419E+01  0.39035255439E+02  0.00000000000E+00 0.  1.
</event>
<event>
 7    1  0.2876796E-013  0.7246153E+02  0.7816164E-02  0.1226708E+00
        -11   -1    0    0    0    0  0.00000000000E+00  0.00000000000E+00  0.45593999997E+02  0.45594000000E+02  0.51100000000E-03 0. -1.
         11   -1    0    0    0    0 -0.00000000000E+00 -0.00000000000E+00 -0.45593999997E+02  0.45594000000E+02  0.51100000000E-03 0.  1.
    9900012    2    1    2    0    0  0.11832300880E+02 -0.11554121126E+02 -0.87851909249E+01  0.72461531067E+02  0.69999948899E+02 0.  0.
         12    1    1    2    0    0 -0.11832300880E+02  0.11554121126E+02  0.87851909249E+01  0.18726468933E+02  0.00000000000E+00 0. -1.
         11    1    3    3    0    0  0.16228555330E+02 -0.13460142545E+02  0.16801956452E+02  0.26960103603E+02  0.51100000000E-03 0. -1.
        -11    1    3    3    0    0  0.26980067620E+01 -0.34827083444E+01  0.88739840425E+01  0.99073755832E+01  0.51100000000E-03 0.  1.
        -12    1    3    3    0    0 -0.70942612126E+01  0.53887297627E+01 -0.34461131419E+02  0.35594051881E+02  0.00000000000E+00 0.  1.
</event>
<event>
 7    1  0.2876796E-013  0.7246151E+02  0.7816164E-02  0.1226708E+00
        -11   -1    0    0    0    0  0.00000000000E+00  0.00000000000E+00  0.45593999997E+02  0.45594000000E+02  0.51100000000E-03 0. -1.
         11   -1    0    0    0    0 -0.00000000000E+00 -0.00000000000E+00 -0.45593999997E+02  0.45594000000E+02  0.51100000000E-03 0.  1.
    9900012    2    1    2    0    0  0.52798924592E+01  0.34562983516E+01 -0.17631170514E+02  0.72461509769E+02  0.69999921154E+02 0.  0.
         12    1    1    2    0    0 -0.52798924592E+01 -0.34562983516E+01  0.17631170514E+02  0.18726490231E+02  0.00000000000E+00 0. -1.
         11    1    3    3    0    0 -0.42315218009E+01 -0.85767639149E+01 -0.27722590775E+00  0.95678372931E+01  0.51100000000E-03 0. -1.
        -11    1    3    3    0    0  0.86398951625E+01 -0.22647518096E+02 -0.14118592259E+02  0.28051604445E+02  0.51100000000E-03 0.  1.
         12    1    3    3    0    0  0.87151909758E+00  0.34680580362E+02 -0.32353523477E+01  0.34842068030E+02  0.00000000000E+00 0. -1.
</event>
<event>
 7    1  0.2876796E-013  0.7246157E+02  0.7816164E-02  0.1226708E+00
        -11   -1    0    0    0    0  0.00000000000E+00  0.00000000000E+00  0.45593999997E+02  0.45594000000E+02  0.51100000000E-03 0. -1.
         11   -1    0    0    0    0 -0.00000000000E+00 -0.00000000000E+00 -0.45593999997E+02  0.45594000000E+02  0.51100000000E-03 0.  1.
    9900012    2    1    2    0    0 -0.73110420901E+01  0.17100220884E+02 -0.21932575205E+01  0.72461567631E+02  0.69999996531E+02 0.  0.
         12    1    1    2    0    0  0.73110420901E+01 -0.17100220884E+02  0.21932575205E+01  0.18726432369E+02  0.00000000000E+00 0. -1.
         11    1    3    3    0    0 -0.72159987247E+01 -0.39635127186E+01  0.17119973362E+01  0.84089836369E+01  0.51100000000E-03 0. -1.
        -11    1    3    3    0    0  0.21486331560E+02 -0.87234781969E+01  0.92794696199E+01  0.24977391225E+02  0.51100000000E-03 0.  1.
        -12    1    3    3    0    0 -0.21581374925E+02  0.29787211799E+02 -0.13184724477E+02  0.39075192769E+02  0.00000000000E+00 0.  1.
</event>
<event>
 7    1  0.2876796E-013  0.7246157E+02  0.7816164E-02  0.1226708E+00
        -11   -1    0    0    0    0  0.00000000000E+00  0.00000000000E+00  0.45593999997E+02  0.45594000000E+02  0.51100000000E-03 0.  1.
         11   -1    0    0    0    0 -0.00000000000E+00 -0.00000000000E+00 -0.45593999997E+02  0.45594000000E+02  0.51100000000E-03 0. -1.
    9900012    2    1    2    0    0  0.10871606172E+02 -0.11467495504E+02 -0.10049072243E+02  0.72461571434E+02  0.70000001484E+02 0.  0.
         12    1    1    2    0    0 -0.10871606172E+02  0.11467495504E+02  0.10049072243E+02  0.18726428566E+02  0.00000000000E+00 0. -1.
         11    1    3    3    0    0  0.18264615753E+02  0.46566705635E+00 -0.26148799448E+02  0.31899416096E+02  0.51100000000E-03 0. -1.
        -11    1    3    3    0    0  0.12192086653E+02 -0.12627658177E+02  0.62829695891E+01  0.18643509195E+02  0.51100000000E-03 0.  1.
         12    1    3    3    0    0 -0.19585096233E+02  0.69449561698E+00  0.98167576161E+01  0.21918646143E+02  0.00000000000E+00 0. -1.
</event>
<event>
 7    1  0.2876796E-013  0.7246115E+02  0.7816164E-02  0.1226709E+00
        -11   -1    0    0    0    0  0.00000000000E+00  0.00000000000E+00  0.45593999997E+02  0.45594000000E+02  0.51100000000E-03 0.  1.
         11   -1    0    0    0    0 -0.00000000000E+00 -0.00000000000E+00 -0.45593999997E+02  0.45594000000E+02  0.51100000000E-03 0. -1.
    9900012    2    1    2    0    0 -0.75988203740E+01  0.15229678792E+02 -0.78108606390E+01  0.72461154801E+02  0.69999458741E+02 0.  0.
         12    1    1    2    0    0  0.75988203740E+01 -0.15229678792E+02  0.78108606390E+01  0.18726845199E+02  0.00000000000E+00 0. -1.
         11    1    3    3    0    0 -0.30764514629E+01 -0.91677385014E+01  0.22650947256E+01  0.99318999799E+01  0.51100000000E-03 0. -1.
        -11    1    3    3    0    0 -0.23567984994E+02  0.14324234993E+02  0.13402141283E+02  0.30663512781E+02  0.51100000000E-03 0.  1.
         12    1    3    3    0    0  0.19045616083E+02  0.10073182300E+02 -0.23478096647E+02  0.31865742041E+02  0.00000000000E+00 0. -1.
</event>
<event>
 7    1  0.2876796E-013  0.7246162E+02  0.7816164E-02  0.1226708E+00
        -11   -1    0    0    0    0  0.00000000000E+00  0.00000000000E+00  0.45593999997E+02  0.45594000000E+02  0.51100000000E-03 0.  1.
         11   -1    0    0    0    0 -0.00000000000E+00 -0.00000000000E+00 -0.45593999997E+02  0.45594000000E+02  0.51100000000E-03 0. -1.
    9900012    2    1    2    0    0  0.14186700093E+02 -0.67637438472E+01  0.10181682411E+02  0.72461618954E+02  0.70000063388E+02 0.  0.
         12    1    1    2    0    0 -0.14186700093E+02  0.67637438472E+01 -0.10181682411E+02  0.18726381046E+02  0.00000000000E+00 0. -1.
         11    1    3    3    0    0  0.15522213003E+02 -0.14519196245E+02 -0.13276683663E+02  0.25060257091E+02  0.51100000000E-03 0. -1.
        -11    1    3    3    0    0 -0.11981615132E+02 -0.63060807561E+01  0.26258138214E+02  0.29543452378E+02  0.51100000000E-03 0.  1.
         12    1    3    3    0    0  0.10646102222E+02  0.14061533154E+02 -0.27997721389E+01  0.17857909485E+02  0.00000000000E+00 0. -1.
</event>
<event>
 7    1  0.2876796E-013  0.7246156E+02  0.7816164E-02  0.1226708E+00
        -11   -1    0    0    0    0  0.00000000000E+00  0.00000000000E+00  0.45593999997E+02  0.45594000000E+02  0.51100000000E-03 0.  1.
         11   -1    0    0    0    0 -0.00000000000E+00 -0.00000000000E+00 -0.45593999997E+02  0.45594000000E+02  0.51100000000E-03 0. -1.
    9900012    2    1    2    0    0 -0.98594891183E+01 -0.14057735905E+02  0.74732968198E+01  0.72461558004E+02  0.69999983990E+02 0.  0.
         12    1    1    2    0    0  0.98594891183E+01  0.14057735905E+02 -0.74732968198E+01  0.18726441996E+02  0.00000000000E+00 0. -1.
         11    1    3    3    0    0  0.18115090737E+02  0.44611830417E+01 -0.59631387766E+01  0.19586160697E+02  0.51100000000E-03 0. -1.
        -11    1    3    3    0    0  0.65441065109E+01  0.29286352547E+01  0.97040194924E+01  0.12065248818E+02  0.51100000000E-03 0.  1.
        -12    1    3    3    0    0 -0.34518686366E+02 -0.21447554202E+02  0.37324161041E+01  0.40810148488E+02  0.00000000000E+00 0.  1.
</event>
<event>
 7    1  0.2876796E-013  0.7246158E+02  0.7816164E-02  0.1226708E+00
        -11   -1    0    0    0    0  0.00000000000E+00  0.00000000000E+00  0.45593999997E+02  0.45594000000E+02  0.51100000000E-03 0.  1.
         11   -1    0    0    0    0 -0.00000000000E+00 -0.00000000000E+00 -0.45593999997E+02  0.45594000000E+02  0.51100000000E-03 0. -1.
    9900012    2    1    2    0    0 -0.17374261694E+02  0.12441542913E+01  0.68750271581E+01  0.72461577818E+02  0.70000009801E+02 0.  0.
         12    1    1    2    0    0  0.17374261694E+02 -0.12441542913E+01 -0.68750271581E+01  0.18726422182E+02  0.00000000000E+00 0. -1.
         11    1    3    3    0    0 -0.24790161566E+02  0.52449279974E+01 -0.16946839808E+02  0.30483713027E+02  0.51100000000E-03 0. -1.
        -11    1    3    3    0    0 -0.95521742083E+01 -0.96499155408E+01  0.19375158278E+01  0.13715643255E+02  0.51100000000E-03 0.  1.
        -12    1    3    3    0    0  0.16968074080E+02  0.56491418346E+01  0.21884351138E+02  0.28262221537E+02  0.00000000000E+00 0.  1.
</event>
<event>
 7    1  0.2876796E-013  0.7246153E+02  0.7816164E-02  0.1226708E+00
        -11   -1    0    0    0    0  0.00000000000E+00  0.00000000000E+00  0.45593999997E+02  0.45594000000E+02  0.51100000000E-03 0. -1.
         11   -1    0    0    0    0 -0.00000000000E+00 -0.00000000000E+00 -0.45593999997E+02  0.45594000000E+02  0.51100000000E-03 0.  1.
    9900012    2    1    2    0    0 -0.62409612070E+01  0.16830452948E+02 -0.53354475224E+01  0.72461528269E+02  0.69999945255E+02 0.  0.
         12    1    1    2    0    0  0.62409612070E+01 -0.16830452948E+02  0.53354475224E+01  0.18726471731E+02  0.00000000000E+00 0. -1.
         11    1    3    3    0    0  0.80689437621E+00  0.12158698896E+02 -0.95178041685E+01  0.15462006138E+02  0.51100000000E-03 0. -1.
        -11    1    3    3    0    0  0.45166664106E+01 -0.78080753390E+01 -0.23126890184E+02  0.24823766149E+02  0.51100000000E-03 0.  1.
         12    1    3    3    0    0 -0.11564521994E+02  0.12479829391E+02  0.27309246830E+02  0.32175755982E+02  0.00000000000E+00 0. -1.
</event>
<event>
 7    1  0.2876796E-013  0.7246158E+02  0.7816164E-02  0.1226708E+00
        -11   -1    0    0    0    0  0.00000000000E+00  0.00000000000E+00  0.45593999997E+02  0.45594000000E+02  0.51100000000E-03 0. -1.
         11   -1    0    0    0    0 -0.00000000000E+00 -0.00000000000E+00 -0.45593999997E+02  0.45594000000E+02  0.51100000000E-03 0.  1.
    9900012    2    1    2    0    0  0.17824032796E+02 -0.19588204784E+01 -0.53986845205E+01  0.72461577028E+02  0.70000008771E+02 0.  0.
         12    1    1    2    0    0 -0.17824032796E+02  0.19588204784E+01  0.53986845205E+01  0.18726422972E+02  0.00000000000E+00 0. -1.
         11    1    3    3    0    0  0.16787979489E+02  0.10356939738E+02  0.89871624174E+00  0.19746142590E+02  0.51100000000E-03 0. -1.
        -11    1    3    3    0    0 -0.10272984418E+02  0.17534736189E+02 -0.90780970335E+00  0.20342696497E+02  0.51100000000E-03 0.  1.
         12    1    3    3    0    0  0.11309037726E+02 -0.29850496406E+02 -0.53895910589E+01  0.32372737940E+02  0.00000000000E+00 0. -1.
</event>
<event>
 7    1  0.2876796E-013  0.7246163E+02  0.7816164E-02  0.1226708E+00
        -11   -1    0    0    0    0  0.00000000000E+00  0.00000000000E+00  0.45593999997E+02  0.45594000000E+02  0.51100000000E-03 0.  1.
         11   -1    0    0    0    0 -0.00000000000E+00 -0.00000000000E+00 -0.45593999997E+02  0.45594000000E+02  0.51100000000E-03 0. -1.
    9900012    2    1    2    0    0 -0.54646662123E+01  0.16873586208E+02 -0.60080409638E+01  0.72461627032E+02  0.70000073911E+02 0.  0.
         12    1    1    2    0    0  0.54646662123E+01 -0.16873586208E+02  0.60080409638E+01  0.18726372968E+02  0.00000000000E+00 0. -1.
         11    1    3    3    0    0 -0.98092539139E+01  0.92405338230E+01 -0.78443014002E+01  0.15593011011E+02  0.51100000000E-03 0. -1.
        -11    1    3    3    0    0 -0.36117131523E+01  0.31435610538E+02  0.26938060421E+01  0.31756868124E+02  0.51100000000E-03 0.  1.
         12    1    3    3    0    0  0.79563008539E+01 -0.23802558153E+02 -0.85754560565E+00  0.25111747896E+02  0.00000000000E+00 0. -1.
</event>
<event>
 7    1  0.2876796E-013  0.7246147E+02  0.7816164E-02  0.1226708E+00
        -11   -1    0    0    0    0  0.00000000000E+00  0.00000000000E+00  0.45593999997E+02  0.45594000000E+02  0.51100000000E-03 0.  1.
         11   -1    0    0    0    0 -0.00000000000E+00 -0.00000000000E+00 -0.45593999997E+02  0.45594000000E+02  0.51100000000E-03 0. -1.
    9900012    2    1    2    0    0 -0.89432530535E+01  0.13815196838E+02  0.89354155911E+01  0.72461465600E+02  0.69999863615E+02 0.  0.
         12    1    1    2    0    0  0.89432530535E+01 -0.13815196838E+02 -0.89354155911E+01  0.18726534400E+02  0.00000000000E+00 0. -1.
         11    1    3    3    0    0 -0.32062545359E+02  0.80076738344E+01 -0.12805556266E+02  0.35441669355E+02  0.51100000000E-03 0. -1.
        -11    1    3    3    0    0  0.17693675271E+01 -0.63863327845E-01 -0.32066647623E+01  0.36629822726E+01  0.51100000000E-03 0.  1.
        -12    1    3    3    0    0  0.21349924778E+02  0.58713863319E+01  0.24947636619E+02  0.33356813972E+02  0.00000000000E+00 0.  1.
</event>
<event>
 7    1  0.2876796E-013  0.7246148E+02  0.7816164E-02  0.1226708E+00
        -11   -1    0    0    0    0  0.00000000000E+00  0.00000000000E+00  0.45593999997E+02  0.45594000000E+02  0.51100000000E-03 0.  1.
         11   -1    0    0    0    0 -0.00000000000E+00 -0.00000000000E+00 -0.45593999997E+02  0.45594000000E+02  0.51100000000E-03 0. -1.
    9900012    2    1    2    0    0  0.56682006586E+01 -0.42597669436E+01  0.17332290568E+02  0.72461483787E+02  0.69999887308E+02 0.  0.
         12    1    1    2    0    0 -0.56682006586E+01  0.42597669436E+01 -0.17332290568E+02  0.18726516213E+02  0.00000000000E+00 0. -1.
         11    1    3    3    0    0  0.19112665820E+02  0.83712595423E+01 -0.29224823102E+01  0.21069240237E+02  0.51100000000E-03 0. -1.
        -11    1    3    3    0    0  0.53342322423E+01  0.13299056651E+02  0.18084950730E+01  0.14442631204E+02  0.51100000000E-03 0.  1.
        -12    1    3    3    0    0 -0.18778697403E+02 -0.25930083137E+02  0.18446277805E+02  0.36949612346E+02  0.00000000000E+00 0.  1.
</event>
<event>
 7    1  0.2876796E-013  0.7246161E+02  0.7816164E-02  0.1226708E+00
        -11   -1    0    0    0    0  0.00000000000E+00  0.00000000000E+00  0.45593999997E+02  0.45594000000E+02  0.51100000000E-03 0.  1.
         11   -1    0    0    0    0 -0.00000000000E+00 -0.00000000000E+00 -0.45593999997E+02  0.45594000000E+02  0.51100000000E-03 0. -1.
    9900012    2    1    2    0    0 -0.60934594125E+01 -0.14344075655E+01  0.17649080886E+02  0.72461606092E+02  0.70000046633E+02 0.  0.
         12    1    1    2    0    0  0.60934594125E+01  0.14344075655E+01 -0.17649080886E+02  0.18726393908E+02  0.00000000000E+00 0. -1.
         11    1    3    3    0    0 -0.32194961230E+01 -0.18106756039E+02 -0.23905197124E+01  0.18545467217E+02  0.51100000000E-03 0.  1.
        -11    1    3    3    0    0  0.15443977541E+02  0.33161698591E+01 -0.81234376277E+01  0.17762422807E+02  0.51100000000E-03 0. -1.
        -12    1    3    3    0    0 -0.18317940830E+02  0.13356178615E+02  0.28163038226E+02  0.36153716068E+02  0.00000000000E+00 0.  1.
</event>
<event>
 7    1  0.2876796E-013  0.7246159E+02  0.7816164E-02  0.1226708E+00
        -11   -1    0    0    0    0  0.00000000000E+00  0.00000000000E+00  0.45593999997E+02  0.45594000000E+02  0.51100000000E-03 0. -1.
         11   -1    0    0    0    0 -0.00000000000E+00 -0.00000000000E+00 -0.45593999997E+02  0.45594000000E+02  0.51100000000E-03 0.  1.
    9900012    2    1    2    0    0  0.17425366973E+02  0.44523775231E+01 -0.52164467453E+01  0.72461590937E+02  0.70000026891E+02 0.  0.
         12    1    1    2    0    0 -0.17425366973E+02 -0.44523775231E+01  0.52164467453E+01  0.18726409063E+02  0.00000000000E+00 0. -1.
         11    1    3    3    0    0  0.23457568468E+02 -0.21726032580E+01  0.19154824977E+02  0.30362559897E+02  0.51100000000E-03 0. -1.
        -11    1    3    3    0    0  0.10436015574E+02  0.12855862746E+02 -0.97775071264E+01  0.19229749709E+02  0.51100000000E-03 0.  1.
        -12    1    3    3    0    0 -0.16468217069E+02 -0.62308819644E+01 -0.14593764596E+02  0.22869281331E+02  0.00000000000E+00 0.  1.
</event>
<event>
 7    1  0.2876796E-013  0.7246191E+02  0.7816164E-02  0.1226707E+00
        -11   -1    0    0    0    0  0.00000000000E+00  0.00000000000E+00  0.45593999997E+02  0.45594000000E+02  0.51100000000E-03 0.  1.
         11   -1    0    0    0    0 -0.00000000000E+00 -0.00000000000E+00 -0.45593999997E+02  0.45594000000E+02  0.51100000000E-03 0. -1.
    9900012    2    1    2    0    0 -0.55220163445E+01  0.16548250736E+02 -0.68065439350E+01  0.72461913723E+02  0.70000447378E+02 0.  0.
         12    1    1    2    0    0  0.55220163445E+01 -0.16548250736E+02  0.68065439350E+01  0.18726086277E+02  0.00000000000E+00 0. -1.
         11    1    3    3    0    0  0.28593463890E+01 -0.15051839704E+02 -0.62681632012E+01  0.16553658521E+02  0.51100000000E-03 0. -1.
        -11    1    3    3    0    0  0.59548193805E+01  0.13860975533E+00 -0.16709549596E+02  0.17739451358E+02  0.51100000000E-03 0.  1.
        -12    1    3    3    0    0 -0.14336182114E+02  0.31461480685E+02  0.16171168862E+02  0.38168803844E+02  0.00000000000E+00 0.  1.
</event>
<event>
 7    1  0.2876796E-013  0.7246155E+02  0.7816164E-02  0.1226708E+00
        -11   -1    0    0    0    0  0.00000000000E+00  0.00000000000E+00  0.45593999997E+02  0.45594000000E+02  0.51100000000E-03 0.  1.
         11   -1    0    0    0    0 -0.00000000000E+00 -0.00000000000E+00 -0.45593999997E+02  0.45594000000E+02  0.51100000000E-03 0. -1.
    9900012    2    1    2    0    0  0.19500077518E+01  0.28259108080E+01  0.18409007768E+02  0.72461551614E+02  0.69999975666E+02 0.  0.
         12    1    1    2    0    0 -0.19500077518E+01 -0.28259108080E+01 -0.18409007768E+02  0.18726448386E+02  0.00000000000E+00 0. -1.
         11    1    3    3    0    0  0.17382391536E+02  0.18889253836E+02  0.23939944365E+02  0.35100888628E+02  0.51100000000E-03 0. -1.
        -11    1    3    3    0    0 -0.87292930675E+00 -0.60813431614E+01  0.11368778466E+02  0.12922610584E+02  0.51100000000E-03 0.  1.
        -12    1    3    3    0    0 -0.14559454478E+02 -0.99819998670E+01 -0.16899715063E+02  0.24438052403E+02  0.00000000000E+00 0.  1.
</event>
<event>
 7    1  0.2876796E-013  0.7246158E+02  0.7816164E-02  0.1226708E+00
        -11   -1    0    0    0    0  0.00000000000E+00  0.00000000000E+00  0.45593999997E+02  0.45594000000E+02  0.51100000000E-03 0. -1.
         11   -1    0    0    0    0 -0.00000000000E+00 -0.00000000000E+00 -0.45593999997E+02  0.45594000000E+02  0.51100000000E-03 0.  1.
    9900012    2    1    2    0    0 -0.69144205184E+01  0.17320868842E+02  0.16902691973E+01  0.72461582337E+02  0.70000015688E+02 0.  0.
         12    1    1    2    0    0  0.69144205184E+01 -0.17320868842E+02 -0.16902691973E+01  0.18726417663E+02  0.00000000000E+00 0. -1.
         11    1    3    3    0    0  0.71987781251E+01  0.29225476694E+01  0.69509069696E+01  0.10424912438E+02  0.51100000000E-03 0. -1.
        -11    1    3    3    0    0  0.21529454823E+01  0.19003810452E+02  0.22502118816E+02  0.29531768275E+02  0.51100000000E-03 0.  1.
         12    1    3    3    0    0 -0.16266144126E+02 -0.46054892800E+01 -0.27762756588E+02  0.32504901625E+02  0.00000000000E+00 0. -1.
</event>
<event>
 7    1  0.2876796E-013  0.7246149E+02  0.7816164E-02  0.1226708E+00
        -11   -1    0    0    0    0  0.00000000000E+00  0.00000000000E+00  0.45593999997E+02  0.45594000000E+02  0.51100000000E-03 0.  1.
         11   -1    0    0    0    0 -0.00000000000E+00 -0.00000000000E+00 -0.45593999997E+02  0.45594000000E+02  0.51100000000E-03 0. -1.
    9900012    2    1    2    0    0  0.81507301461E+01 -0.15830471032E+02  0.58003417651E+01  0.72461489924E+02  0.69999895303E+02 0.  0.
         12    1    1    2    0    0 -0.81507301461E+01  0.15830471032E+02 -0.58003417651E+01  0.18726510076E+02  0.00000000000E+00 0. -1.
         11    1    3    3    0    0 -0.65972004550E+01 -0.21284779904E+02 -0.20637521201E+02  0.30372227297E+02  0.51100000000E-03 0. -1.
        -11    1    3    3    0    0  0.28600466727E+01 -0.81424427649E+01 -0.15614695005E+01  0.87702581725E+01  0.51100000000E-03 0.  1.
        -12    1    3    3    0    0  0.11887883928E+02  0.13596751636E+02  0.27999332466E+02  0.33319004455E+02  0.00000000000E+00 0.  1.
</event>
<event>
 7    1  0.2876796E-013  0.7246152E+02  0.7816164E-02  0.1226708E+00
        -11   -1    0    0    0    0  0.00000000000E+00  0.00000000000E+00  0.45593999997E+02  0.45594000000E+02  0.51100000000E-03 0.  1.
         11   -1    0    0    0    0 -0.00000000000E+00 -0.00000000000E+00 -0.45593999997E+02  0.45594000000E+02  0.51100000000E-03 0. -1.
    9900012    2    1    2    0    0  0.77008316853E+01  0.16766332683E+02 -0.32044509747E+01  0.72461515377E+02  0.69999928460E+02 0.  0.
         12    1    1    2    0    0 -0.77008316853E+01 -0.16766332683E+02  0.32044509747E+01  0.18726484623E+02  0.00000000000E+00 0. -1.
         11    1    3    3    0    0 -0.57648206800E+01  0.15885860646E+02 -0.22370622303E+02  0.28036377591E+02  0.51100000000E-03 0. -1.
        -11    1    3    3    0    0  0.57688503183E+01  0.14392781010E+02 -0.44653841584E+01  0.16136029100E+02  0.51100000000E-03 0.  1.
        -12    1    3    3    0    0  0.76968020469E+01 -0.13512308973E+02  0.23631555487E+02  0.28289108686E+02  0.00000000000E+00 0.  1.
</event>
<event>
 7    1  0.2876796E-013  0.7246151E+02  0.7816164E-02  0.1226708E+00
        -11   -1    0    0    0    0  0.00000000000E+00  0.00000000000E+00  0.45593999997E+02  0.45594000000E+02  0.51100000000E-03 0. -1.
         11   -1    0    0    0    0 -0.00000000000E+00 -0.00000000000E+00 -0.45593999997E+02  0.45594000000E+02  0.51100000000E-03 0.  1.
    9900012    2    1    2    0    0  0.72712447594E+01 -0.84986161743E+01 -0.15019446301E+02  0.72461514894E+02  0.69999927831E+02 0.  0.
         12    1    1    2    0    0 -0.72712447594E+01  0.84986161743E+01  0.15019446301E+02  0.18726485106E+02  0.00000000000E+00 0. -1.
         11    1    3    3    0    0 -0.48564049604E+01  0.20497604552E+02  0.74292678572E+01  0.22336751838E+02  0.51100000000E-03 0. -1.
        -11    1    3    3    0    0 -0.88209971632E+01 -0.73176470122E+01  0.15854502488E+01  0.11570289603E+02  0.51100000000E-03 0.  1.
        -12    1    3    3    0    0  0.20948646883E+02 -0.21678573714E+02 -0.24034164407E+02  0.38554473453E+02  0.00000000000E+00 0.  1.
</event>
<event>
 7    1  0.2876796E-013  0.7246133E+02  0.7816164E-02  0.1226709E+00
        -11   -1    0    0    0    0  0.00000000000E+00  0.00000000000E+00  0.45593999997E+02  0.45594000000E+02  0.51100000000E-03 0. -1.
         11   -1    0    0    0    0 -0.00000000000E+00 -0.00000000000E+00 -0.45593999997E+02  0.45594000000E+02  0.51100000000E-03 0.  1.
    9900012    2    1    2    0    0  0.14335326187E+02  0.68774114416E+01 -0.98938258299E+01  0.72461330393E+02  0.69999687483E+02 0.  0.
         12    1    1    2    0    0 -0.14335326187E+02 -0.68774114416E+01  0.98938258299E+01  0.18726669607E+02  0.00000000000E+00 0. -1.
         11    1    3    3    0    0  0.20324810468E+02 -0.49270245707E+01 -0.23266979148E+02  0.31284593822E+02  0.51100000000E-03 0. -1.
        -11    1    3    3    0    0  0.13938097284E+02  0.10855022765E+02  0.11629307543E+02  0.21150481538E+02  0.51100000000E-03 0.  1.
         12    1    3    3    0    0 -0.19927581565E+02  0.94941324755E+00  0.17438457749E+01  0.20026255033E+02  0.00000000000E+00 0. -1.
</event>
<event>
 7    1  0.2876796E-013  0.7246157E+02  0.7816164E-02  0.1226708E+00
        -11   -1    0    0    0    0  0.00000000000E+00  0.00000000000E+00  0.45593999997E+02  0.45594000000E+02  0.51100000000E-03 0. -1.
         11   -1    0    0    0    0 -0.00000000000E+00 -0.00000000000E+00 -0.45593999997E+02  0.45594000000E+02  0.51100000000E-03 0.  1.
    9900012    2    1    2    0    0 -0.11459907380E+02  0.14793831286E+02  0.70172968651E+00  0.72461565587E+02  0.69999993867E+02 0.  0.
         12    1    1    2    0    0  0.11459907380E+02 -0.14793831286E+02 -0.70172968651E+00  0.18726434413E+02  0.00000000000E+00 0. -1.
         11    1    3    3    0    0 -0.57058655133E+01 -0.63061716758E+01 -0.63234287517E-01  0.85046282280E+01  0.51100000000E-03 0. -1.
        -11    1    3    3    0    0 -0.20324067078E+02 -0.11657755073E+02 -0.11454084656E+02  0.26080011724E+02  0.51100000000E-03 0.  1.
         12    1    3    3    0    0  0.14570025211E+02  0.32757758035E+02  0.12219048631E+02  0.37876925635E+02  0.00000000000E+00 0. -1.
</event>
<event>
 7    1  0.2876796E-013  0.7246160E+02  0.7816164E-02  0.1226708E+00
        -11   -1    0    0    0    0  0.00000000000E+00  0.00000000000E+00  0.45593999997E+02  0.45594000000E+02  0.51100000000E-03 0.  1.
         11   -1    0    0    0    0 -0.00000000000E+00 -0.00000000000E+00 -0.45593999997E+02  0.45594000000E+02  0.51100000000E-03 0. -1.
    9900012    2    1    2    0    0  0.46523347171E+01 -0.65060556408E+01  0.16932372956E+02  0.72461595320E+02  0.70000032601E+02 0.  0.
         12    1    1    2    0    0 -0.46523347171E+01  0.65060556408E+01 -0.16932372956E+02  0.18726404680E+02  0.00000000000E+00 0. -1.
         11    1    3    3    0    0  0.54086609023E+01  0.10804500485E+02 -0.13958444607E+02  0.18461555178E+02  0.51100000000E-03 0. -1.
        -11    1    3    3    0    0  0.11622495814E+02  0.90388859961E+01  0.14133617270E+02  0.20409385253E+02  0.51100000000E-03 0.  1.
        -12    1    3    3    0    0 -0.12378821999E+02 -0.26349442122E+02  0.16757200293E+02  0.33590654889E+02  0.00000000000E+00 0.  1.
</event>
<event>
 7    1  0.2876796E-013  0.7246177E+02  0.7816164E-02  0.1226707E+00
        -11   -1    0    0    0    0  0.00000000000E+00  0.00000000000E+00  0.45593999997E+02  0.45594000000E+02  0.51100000000E-03 0. -1.
         11   -1    0    0    0    0 -0.00000000000E+00 -0.00000000000E+00 -0.45593999997E+02  0.45594000000E+02  0.51100000000E-03 0.  1.
    9900012    2    1    2    0    0  0.13045393759E+02  0.11637828809E+02 -0.67119638748E+01  0.72461766615E+02  0.70000255744E+02 0.  0.
         12    1    1    2    0    0 -0.13045393759E+02 -0.11637828809E+02  0.67119638748E+01  0.18726233385E+02  0.00000000000E+00 0. -1.
         11    1    3    3    0    0  0.11420558753E+02 -0.51824237705E+01  0.18871639990E+02  0.22658893939E+02  0.51100000000E-03 0. -1.
        -11    1    3    3    0    0  0.10841537688E+02 -0.77211430298E+01 -0.19862937835E+00  0.13311440306E+02  0.51100000000E-03 0.  1.
        -12    1    3    3    0    0 -0.92167026815E+01  0.24541395609E+02 -0.25384974487E+02  0.36491432370E+02  0.00000000000E+00 0.  1.
</event>
<event>
 7    1  0.2876796E-013  0.7246153E+02  0.7816164E-02  0.1226708E+00
        -11   -1    0    0    0    0  0.00000000000E+00  0.00000000000E+00  0.45593999997E+02  0.45594000000E+02  0.51100000000E-03 0. -1.
         11   -1    0    0    0    0 -0.00000000000E+00 -0.00000000000E+00 -0.45593999997E+02  0.45594000000E+02  0.51100000000E-03 0.  1.
    9900012    2    1    2    0    0 -0.10802565705E+02  0.84923760320E+01 -0.12722611514E+02  0.72461528891E+02  0.69999946064E+02 0.  0.
         12    1    1    2    0    0  0.10802565705E+02 -0.84923760320E+01  0.12722611514E+02  0.18726471109E+02  0.00000000000E+00 0. -1.
         11    1    3    3    0    0  0.94480226568E-01 -0.12361171975E+02  0.22468506830E+02  0.25644517904E+02  0.51100000000E-03 0. -1.
        -11    1    3    3    0    0 -0.33240480018E+01 -0.16372517013E+01  0.71826075978E+00  0.37743591551E+01  0.51100000000E-03 0.  1.
        -12    1    3    3    0    0 -0.75729979300E+01  0.22490799708E+02 -0.35909379103E+02  0.43042651832E+02  0.00000000000E+00 0.  1.
</event>
<event>
 7    1  0.2876796E-013  0.7246158E+02  0.7816164E-02  0.1226708E+00
        -11   -1    0    0    0    0  0.00000000000E+00  0.00000000000E+00  0.45593999997E+02  0.45594000000E+02  0.51100000000E-03 0. -1.
         11   -1    0    0    0    0 -0.00000000000E+00 -0.00000000000E+00 -0.45593999997E+02  0.45594000000E+02  0.51100000000E-03 0.  1.
    9900012    2    1    2    0    0  0.18242341295E+02 -0.76663489809E+00 -0.41602889178E+01  0.72461581526E+02  0.70000014632E+02 0.  0.
         12    1    1    2    0    0 -0.18242341295E+02  0.76663489809E+00  0.41602889178E+01  0.18726418474E+02  0.00000000000E+00 0. -1.
         11    1    3    3    0    0  0.68923492776E+01  0.21555209781E+02 -0.12653332919E+01  0.22665670427E+02  0.51100000000E-03 0. -1.
        -11    1    3    3    0    0  0.26329978943E+02 -0.72853918635E+01 -0.69446264579E+01  0.28188163520E+02  0.51100000000E-03 0.  1.
        -12    1    3    3    0    0 -0.14979986926E+02 -0.15036452816E+02  0.40496708320E+01  0.21607747579E+02  0.00000000000E+00 0.  1.
</event>
<event>
 7    1  0.2876796E-013  0.7246151E+02  0.7816164E-02  0.1226708E+00
        -11   -1    0    0    0    0  0.00000000000E+00  0.00000000000E+00  0.45593999997E+02  0.45594000000E+02  0.51100000000E-03 0. -1.
         11   -1    0    0    0    0 -0.00000000000E+00 -0.00000000000E+00 -0.45593999997E+02  0.45594000000E+02  0.51100000000E-03 0.  1.
    9900012    2    1    2    0    0 -0.61058422785E+01  0.35988731630E+01 -0.17333440739E+02  0.72461511653E+02  0.69999923608E+02 0.  0.
         12    1    1    2    0    0  0.61058422785E+01 -0.35988731630E+01  0.17333440739E+02  0.18726488347E+02  0.00000000000E+00 0. -1.
         11    1    3    3    0    0 -0.13473427134E+02 -0.22012830620E+02  0.61049967476E+01  0.26521103600E+02  0.51100000000E-03 0. -1.
        -11    1    3    3    0    0 -0.58614240580E+01 -0.14639257218E+01 -0.12497339580E+02  0.13881025442E+02  0.51100000000E-03 0.  1.
        -12    1    3    3    0    0  0.13229008913E+02  0.27075629505E+02 -0.10941097907E+02  0.32059382610E+02  0.00000000000E+00 0.  1.
</event>
<event>
 7    1  0.2876796E-013  0.7246156E+02  0.7816164E-02  0.1226708E+00
        -11   -1    0    0    0    0  0.00000000000E+00  0.00000000000E+00  0.45593999997E+02  0.45594000000E+02  0.51100000000E-03 0.  1.
         11   -1    0    0    0    0 -0.00000000000E+00 -0.00000000000E+00 -0.45593999997E+02  0.45594000000E+02  0.51100000000E-03 0. -1.
    9900012    2    1    2    0    0  0.15579287915E+02 -0.97161920697E+01  0.36825056071E+01  0.72461562863E+02  0.69999990320E+02 0.  0.
         12    1    1    2    0    0 -0.15579287915E+02  0.97161920697E+01 -0.36825056071E+01  0.18726437137E+02  0.00000000000E+00 0. -1.
         11    1    3    3    0    0  0.16507919115E+02 -0.10135078904E+02 -0.21594515927E+02  0.29009555947E+02  0.51100000000E-03 0. -1.
        -11    1    3    3    0    0 -0.81206625568E+01 -0.13531653434E+02  0.27851177900E+01  0.16025220322E+02  0.51100000000E-03 0.  1.
        -12    1    3    3    0    0  0.71920313577E+01  0.13950540268E+02  0.22491903744E+02  0.27426786594E+02  0.00000000000E+00 0.  1.
</event>
<event>
 7    1  0.2876796E-013  0.7246151E+02  0.7816164E-02  0.1226708E+00
        -11   -1    0    0    0    0  0.00000000000E+00  0.00000000000E+00  0.45593999997E+02  0.45594000000E+02  0.51100000000E-03 0. -1.
         11   -1    0    0    0    0 -0.00000000000E+00 -0.00000000000E+00 -0.45593999997E+02  0.45594000000E+02  0.51100000000E-03 0.  1.
    9900012    2    1    2    0    0  0.13251824501E+02  0.65657251743E+01 -0.11487469996E+02  0.72461506292E+02  0.69999916625E+02 0.  0.
         12    1    1    2    0    0 -0.13251824501E+02 -0.65657251743E+01  0.11487469996E+02  0.18726493708E+02  0.00000000000E+00 0. -1.
         11    1    3    3    0    0 -0.91996304719E+01  0.11910769193E+02  0.14680295420E+01  0.15121333757E+02  0.51100000000E-03 0. -1.
        -11    1    3    3    0    0  0.15871390976E+02  0.16241898202E+02 -0.23281240238E+02  0.32522553036E+02  0.51100000000E-03 0.  1.
         12    1    3    3    0    0  0.65800639971E+01 -0.21586942220E+02  0.10325740699E+02  0.24817619499E+02  0.00000000000E+00 0. -1.
</event>
<event>
 7    1  0.2876796E-013  0.7246157E+02  0.7816164E-02  0.1226708E+00
        -11   -1    0    0    0    0  0.00000000000E+00  0.00000000000E+00  0.45593999997E+02  0.45594000000E+02  0.51100000000E-03 0.  1.
         11   -1    0    0    0    0 -0.00000000000E+00 -0.00000000000E+00 -0.45593999997E+02  0.45594000000E+02  0.51100000000E-03 0. -1.
    9900012    2    1    2    0    0 -0.63606813004E+01  0.16778839461E+02  0.53564481627E+01  0.72461567954E+02  0.69999996951E+02 0.  0.
         12    1    1    2    0    0  0.63606813004E+01 -0.16778839461E+02 -0.53564481627E+01  0.18726432046E+02  0.00000000000E+00 0. -1.
         11    1    3    3    0    0  0.15489900893E+02 -0.65631125464E+00  0.76713010443E+01  0.17297879468E+02  0.51100000000E-03 0. -1.
        -11    1    3    3    0    0 -0.16779411066E+02 -0.14698715138E+02 -0.36555856936E+01  0.22604516572E+02  0.51100000000E-03 0.  1.
         12    1    3    3    0    0 -0.50711711272E+01  0.32133865853E+02  0.13407328119E+01  0.32559171914E+02  0.00000000000E+00 0. -1.
</event>
<event>
 7    1  0.2876796E-013  0.7246155E+02  0.7816164E-02  0.1226708E+00
        -11   -1    0    0    0    0  0.00000000000E+00  0.00000000000E+00  0.45593999997E+02  0.45594000000E+02  0.51100000000E-03 0. -1.
         11   -1    0    0    0    0 -0.00000000000E+00 -0.00000000000E+00 -0.45593999997E+02  0.45594000000E+02  0.51100000000E-03 0.  1.
    9900012    2    1    2    0    0 -0.82471227356E+01  0.39103832062E+01 -0.16351568598E+02  0.72461550100E+02  0.69999973693E+02 0.  0.
         12    1    1    2    0    0  0.82471227356E+01 -0.39103832062E+01  0.16351568598E+02  0.18726449900E+02  0.00000000000E+00 0. -1.
         11    1    3    3    0    0  0.79845006450E+01  0.83622909483E+01 -0.17289187448E+02  0.20798946207E+02  0.51100000000E-03 0. -1.
        -11    1    3    3    0    0  0.75275312852E+01  0.69595538100E+01 -0.16949535140E+02  0.19808731867E+02  0.51100000000E-03 0.  1.
         12    1    3    3    0    0 -0.23759154666E+02 -0.11411461552E+02  0.17887153990E+02  0.31853872026E+02  0.00000000000E+00 0. -1.
</event>
<event>
 7    1  0.2876796E-013  0.7246127E+02  0.7816164E-02  0.1226709E+00
        -11   -1    0    0    0    0  0.00000000000E+00  0.00000000000E+00  0.45593999997E+02  0.45594000000E+02  0.51100000000E-03 0.  1.
         11   -1    0    0    0    0 -0.00000000000E+00 -0.00000000000E+00 -0.45593999997E+02  0.45594000000E+02  0.51100000000E-03 0. -1.
    9900012    2    1    2    0    0  0.12840626110E+02  0.20413821905E+01  0.13477450720E+02  0.72461265153E+02  0.69999602495E+02 0.  0.
         12    1    1    2    0    0 -0.12840626110E+02 -0.20413821905E+01 -0.13477450720E+02  0.18726734847E+02  0.00000000000E+00 0. -1.
         11    1    3    3    0    0 -0.62518297443E+01 -0.17014716342E+01 -0.13521504000E+02  0.14993713735E+02  0.51100000000E-03 0. -1.
        -11    1    3    3    0    0  0.42191156022E+01 -0.73202367567E+01 -0.11773729873E+02  0.14491636140E+02  0.51100000000E-03 0.  1.
        -12    1    3    3    0    0  0.14873340252E+02  0.11063090581E+02  0.38772684593E+02  0.42975915278E+02  0.00000000000E+00 0.  1.
</event>
<event>
 7    1  0.2876796E-013  0.7246156E+02  0.7816164E-02  0.1226708E+00
        -11   -1    0    0    0    0  0.00000000000E+00  0.00000000000E+00  0.45593999997E+02  0.45594000000E+02  0.51100000000E-03 0.  1.
         11   -1    0    0    0    0 -0.00000000000E+00 -0.00000000000E+00 -0.45593999997E+02  0.45594000000E+02  0.51100000000E-03 0. -1.
    9900012    2    1    2    0    0 -0.12362701950E+02  0.14063499083E+02  0.24753467236E+00  0.72461556681E+02  0.69999982266E+02 0.  0.
         12    1    1    2    0    0  0.12362701950E+02 -0.14063499083E+02 -0.24753467236E+00  0.18726443319E+02  0.00000000000E+00 0. -1.
         11    1    3    3    0    0 -0.21937628842E+00 -0.14950449623E+02 -0.28166175703E+00  0.14954711749E+02  0.51100000000E-03 0. -1.
        -11    1    3    3    0    0 -0.11336251902E+02 -0.10299559531E+02 -0.79864484212E+01  0.17273531555E+02  0.51100000000E-03 0.  1.
         12    1    3    3    0    0 -0.80707375964E+00  0.39313508238E+02  0.85156448506E+01  0.40233313377E+02  0.00000000000E+00 0. -1.
</event>
<event>
 7    1  0.2876796E-013  0.7246152E+02  0.7816164E-02  0.1226708E+00
        -11   -1    0    0    0    0  0.00000000000E+00  0.00000000000E+00  0.45593999997E+02  0.45594000000E+02  0.51100000000E-03 0.  1.
         11   -1    0    0    0    0 -0.00000000000E+00 -0.00000000000E+00 -0.45593999997E+02  0.45594000000E+02  0.51100000000E-03 0. -1.
    9900012    2    1    2    0    0  0.19316387239E+01 -0.12388157423E+02  0.13909831330E+02  0.72461519281E+02  0.69999933546E+02 0.  0.
         12    1    1    2    0    0 -0.19316387239E+01  0.12388157423E+02 -0.13909831330E+02  0.18726480719E+02  0.00000000000E+00 0. -1.
         11    1    3    3    0    0 -0.10371410552E+02  0.37677562967E+01  0.43299170498E+01  0.11853705171E+02  0.51100000000E-03 0. -1.
        -11    1    3    3    0    0 -0.18939348751E+02 -0.65937601814E+01  0.17912244058E+02  0.26889125905E+02  0.51100000000E-03 0.  1.
         12    1    3    3    0    0  0.31242398027E+02 -0.95621535382E+01 -0.83323297788E+01  0.33718688206E+02  0.00000000000E+00 0. -1.
</event>
<event>
 7    1  0.2876796E-013  0.7246156E+02  0.7816164E-02  0.1226708E+00
        -11   -1    0    0    0    0  0.00000000000E+00  0.00000000000E+00  0.45593999997E+02  0.45594000000E+02  0.51100000000E-03 0. -1.
         11   -1    0    0    0    0 -0.00000000000E+00 -0.00000000000E+00 -0.45593999997E+02  0.45594000000E+02  0.51100000000E-03 0.  1.
    9900012    2    1    2    0    0 -0.79618827728E+01  0.15940993943E+02  0.57595890502E+01  0.72461555297E+02  0.69999980463E+02 0.  0.
         12    1    1    2    0    0  0.79618827728E+01 -0.15940993943E+02 -0.57595890502E+01  0.18726444703E+02  0.00000000000E+00 0. -1.
         11    1    3    3    0    0 -0.61789939520E+01 -0.20002554013E+02  0.10664691536E+02  0.23495058611E+02  0.51100000000E-03 0. -1.
        -11    1    3    3    0    0  0.11725239238E+02  0.28389450683E+01  0.28148354539E+01  0.12388064546E+02  0.51100000000E-03 0.  1.
         12    1    3    3    0    0 -0.13508128059E+02  0.33104602888E+02 -0.77199379396E+01  0.36578432140E+02  0.00000000000E+00 0. -1.
</event>
<event>
 7    1  0.2876796E-013  0.7246156E+02  0.7816164E-02  0.1226708E+00
        -11   -1    0    0    0    0  0.00000000000E+00  0.00000000000E+00  0.45593999997E+02  0.45594000000E+02  0.51100000000E-03 0.  1.
         11   -1    0    0    0    0 -0.00000000000E+00 -0.00000000000E+00 -0.45593999997E+02  0.45594000000E+02  0.51100000000E-03 0. -1.
    9900012    2    1    2    0    0  0.17691451235E+02 -0.11316501473E+01  0.60341822052E+01  0.72461563240E+02  0.69999990810E+02 0.  0.
         12    1    1    2    0    0 -0.17691451235E+02  0.11316501473E+01 -0.60341822052E+01  0.18726436760E+02  0.00000000000E+00 0. -1.
         11    1    3    3    0    0 -0.91077585316E+01 -0.27673230170E+01 -0.70763669921E+01  0.11861041785E+02  0.51100000000E-03 0. -1.
        -11    1    3    3    0    0  0.19427180815E+02  0.21880134522E+02  0.22685097291E+02  0.37023901476E+02  0.51100000000E-03 0.  1.
         12    1    3    3    0    0  0.73720289515E+01 -0.20244461652E+02 -0.95745480940E+01  0.23576619979E+02  0.00000000000E+00 0. -1.
</event>
<event>
 7    1  0.2876796E-013  0.7246155E+02  0.7816164E-02  0.1226708E+00
        -11   -1    0    0    0    0  0.00000000000E+00  0.00000000000E+00  0.45593999997E+02  0.45594000000E+02  0.51100000000E-03 0.  1.
         11   -1    0    0    0    0 -0.00000000000E+00 -0.00000000000E+00 -0.45593999997E+02  0.45594000000E+02  0.51100000000E-03 0. -1.
    9900012    2    1    2    0    0  0.55419221481E+01  0.17884490511E+02 -0.33480917113E+00  0.72461548144E+02  0.69999971146E+02 0.  0.
         12    1    1    2    0    0 -0.55419221481E+01 -0.17884490511E+02  0.33480917113E+00  0.18726451856E+02  0.00000000000E+00 0. -1.
         11    1    3    3    0    0 -0.87248582979E+00  0.20488044852E+02 -0.10227327434E+01  0.20532101595E+02  0.51100000000E-03 0.  1.
        -11    1    3    3    0    0  0.10249893155E+02 -0.17250130223E+02 -0.18633113828E+02  0.27382845608E+02  0.51100000000E-03 0. -1.
         12    1    3    3    0    0 -0.38354851771E+01  0.14646575882E+02  0.19321037400E+02  0.24546600942E+02  0.00000000000E+00 0. -1.
</event>
<event>
 7    1  0.2876796E-013  0.7246144E+02  0.7816164E-02  0.1226708E+00
        -11   -1    0    0    0    0  0.00000000000E+00  0.00000000000E+00  0.45593999997E+02  0.45594000000E+02  0.51100000000E-03 0.  1.
         11   -1    0    0    0    0 -0.00000000000E+00 -0.00000000000E+00 -0.45593999997E+02  0.45594000000E+02  0.51100000000E-03 0. -1.
    9900012    2    1    2    0    0  0.13591357195E+02 -0.12879977887E+02 -0.25508849672E+00  0.72461444233E+02  0.69999835782E+02 0.  0.
         12    1    1    2    0    0 -0.13591357195E+02  0.12879977887E+02  0.25508849672E+00  0.18726555767E+02  0.00000000000E+00 0. -1.
         11    1    3    3    0    0 -0.13865122942E+02 -0.73854183971E+01  0.40697217145E+01  0.16228021265E+02  0.51100000000E-03 0. -1.
        -11    1    3    3    0    0  0.90373337962E+01  0.21279583378E+02  0.17005065683E+01  0.23181583072E+02  0.51100000000E-03 0.  1.
         12    1    3    3    0    0  0.18419146340E+02 -0.26774142867E+02 -0.60253167795E+01  0.33051839896E+02  0.00000000000E+00 0. -1.
</event>
<event>
 7    1  0.2876796E-013  0.7246154E+02  0.7816164E-02  0.1226708E+00
        -11   -1    0    0    0    0  0.00000000000E+00  0.00000000000E+00  0.45593999997E+02  0.45594000000E+02  0.51100000000E-03 0.  1.
         11   -1    0    0    0    0 -0.00000000000E+00 -0.00000000000E+00 -0.45593999997E+02  0.45594000000E+02  0.51100000000E-03 0. -1.
    9900012    2    1    2    0    0 -0.75809001170E+01  0.14796288376E+02  0.86185814152E+01  0.72461544331E+02  0.69999966179E+02 0.  0.
         12    1    1    2    0    0  0.75809001170E+01 -0.14796288376E+02 -0.86185814152E+01  0.18726455669E+02  0.00000000000E+00 0. -1.
         11    1    3    3    0    0  0.12523091806E+01  0.44060798440E+01  0.39020512658E+01  0.60172935958E+01  0.51100000000E-03 0. -1.
        -11    1    3    3    0    0  0.24007513051E+02 -0.11371273492E+02  0.50821950238E+01  0.27046168865E+02  0.51100000000E-03 0.  1.
         12    1    3    3    0    0 -0.32840722349E+02  0.21761482024E+02 -0.36566487435E+00  0.39398081871E+02  0.00000000000E+00 0. -1.
</event>
<event>
 7    1  0.2876796E-013  0.7246158E+02  0.7816164E-02  0.1226708E+00
        -11   -1    0    0    0    0  0.00000000000E+00  0.00000000000E+00  0.45593999997E+02  0.45594000000E+02  0.51100000000E-03 0. -1.
         11   -1    0    0    0    0 -0.00000000000E+00 -0.00000000000E+00 -0.45593999997E+02  0.45594000000E+02  0.51100000000E-03 0.  1.
    9900012    2    1    2    0    0  0.12620927969E+01 -0.69067128182E+01 -0.17360391414E+02  0.72461581490E+02  0.70000014584E+02 0.  0.
         12    1    1    2    0    0 -0.12620927969E+01  0.69067128182E+01  0.17360391414E+02  0.18726418510E+02  0.00000000000E+00 0. -1.
         11    1    3    3    0    0  0.10672272427E+02  0.85508792797E+00  0.49958181422E+01  0.11814684646E+02  0.51100000000E-03 0. -1.
        -11    1    3    3    0    0  0.13244197865E+02  0.14440461770E+02  0.32742955840E+01  0.19865969019E+02  0.51100000000E-03 0.  1.
        -12    1    3    3    0    0 -0.22654377495E+02 -0.22202262517E+02 -0.25630505140E+02  0.40780927825E+02  0.00000000000E+00 0.  1.
</event>
<event>
 7    1  0.2876796E-013  0.7246157E+02  0.7816164E-02  0.1226708E+00
        -11   -1    0    0    0    0  0.00000000000E+00  0.00000000000E+00  0.45593999997E+02  0.45594000000E+02  0.51100000000E-03 0. -1.
         11   -1    0    0    0    0 -0.00000000000E+00 -0.00000000000E+00 -0.45593999997E+02  0.45594000000E+02  0.51100000000E-03 0.  1.
    9900012    2    1    2    0    0  0.53497315789E+01 -0.10918761002E+01 -0.17912774071E+02  0.72461566909E+02  0.69999995590E+02 0.  0.
         12    1    1    2    0    0 -0.53497315789E+01  0.10918761002E+01  0.17912774071E+02  0.18726433091E+02  0.00000000000E+00 0. -1.
         11    1    3    3    0    0 -0.10239336685E+02  0.28537742697E+01  0.11490066259E+02  0.15652784616E+02  0.51100000000E-03 0. -1.
        -11    1    3    3    0    0 -0.89469097092E+01 -0.13474910818E+02  0.14665778830E+01  0.16241036477E+02  0.51100000000E-03 0.  1.
        -12    1    3    3    0    0  0.24535977974E+02  0.95292604484E+01 -0.30869418213E+02  0.40567745816E+02  0.00000000000E+00 0.  1.
</event>
<event>
 7    1  0.2876796E-013  0.7246155E+02  0.7816164E-02  0.1226708E+00
        -11   -1    0    0    0    0  0.00000000000E+00  0.00000000000E+00  0.45593999997E+02  0.45594000000E+02  0.51100000000E-03 0. -1.
         11   -1    0    0    0    0 -0.00000000000E+00 -0.00000000000E+00 -0.45593999997E+02  0.45594000000E+02  0.51100000000E-03 0.  1.
    9900012    2    1    2    0    0 -0.13642293704E+02 -0.12722015973E+02  0.16486810162E+01  0.72461547666E+02  0.69999970522E+02 0.  0.
         12    1    1    2    0    0  0.13642293704E+02  0.12722015973E+02 -0.16486810162E+01  0.18726452334E+02  0.00000000000E+00 0. -1.
         11    1    3    3    0    0 -0.12801439300E+02 -0.29602047646E+01 -0.13434143473E+02  0.18791377584E+02  0.51100000000E-03 0. -1.
        -11    1    3    3    0    0 -0.12995831047E+02 -0.26760798610E+02  0.40047166716E+01  0.30017823418E+02  0.51100000000E-03 0.  1.
         12    1    3    3    0    0  0.12154976643E+02  0.16998987402E+02  0.11078107818E+02  0.23652346664E+02  0.00000000000E+00 0. -1.
</event>
<event>
 7    1  0.2876796E-013  0.7246156E+02  0.7816164E-02  0.1226708E+00
        -11   -1    0    0    0    0  0.00000000000E+00  0.00000000000E+00  0.45593999997E+02  0.45594000000E+02  0.51100000000E-03 0.  1.
         11   -1    0    0    0    0 -0.00000000000E+00 -0.00000000000E+00 -0.45593999997E+02  0.45594000000E+02  0.51100000000E-03 0. -1.
    9900012    2    1    2    0    0  0.14293696017E+01  0.14242783625E+02  0.12073913597E+02  0.72461564878E+02  0.69999992944E+02 0.  0.
         12    1    1    2    0    0 -0.14293696017E+01 -0.14242783625E+02 -0.12073913597E+02  0.18726435122E+02  0.00000000000E+00 0. -1.
         11    1    3    3    0    0  0.82921939234E+00  0.10055238116E+02 -0.23087580357E+02  0.25195868418E+02  0.51100000000E-03 0. -1.
        -11    1    3    3    0    0  0.25077303417E+01 -0.74558572465E+01 -0.21321936073E+01  0.81501391759E+01  0.51100000000E-03 0.  1.
        -12    1    3    3    0    0 -0.19075801323E+01  0.11643402756E+02  0.37293687561E+02  0.39115557283E+02  0.00000000000E+00 0.  1.
</event>
<event>
 7    1  0.2876796E-013  0.7246162E+02  0.7816164E-02  0.1226708E+00
        -11   -1    0    0    0    0  0.00000000000E+00  0.00000000000E+00  0.45593999997E+02  0.45594000000E+02  0.51100000000E-03 0.  1.
         11   -1    0    0    0    0 -0.00000000000E+00 -0.00000000000E+00 -0.45593999997E+02  0.45594000000E+02  0.51100000000E-03 0. -1.
    9900012    2    1    2    0    0 -0.13856600330E+02  0.59976438507E+01  0.11077019098E+02  0.72461616031E+02  0.70000059580E+02 0.  0.
         12    1    1    2    0    0  0.13856600330E+02 -0.59976438507E+01 -0.11077019098E+02  0.18726383969E+02  0.00000000000E+00 0. -1.
         11    1    3    3    0    0 -0.13593848440E+02 -0.11575192722E+02  0.21023664140E+02  0.27582100284E+02  0.51100000000E-03 0. -1.
        -11    1    3    3    0    0 -0.15212030349E+02  0.47450349498E+01  0.83538984933E+01  0.17991910524E+02  0.51100000000E-03 0.  1.
        -12    1    3    3    0    0  0.14949278459E+02  0.12827801623E+02 -0.18300543535E+02  0.26887605222E+02  0.00000000000E+00 0.  1.
</event>
<event>
 7    1  0.2876796E-013  0.7246126E+02  0.7816164E-02  0.1226709E+00
        -11   -1    0    0    0    0  0.00000000000E+00  0.00000000000E+00  0.45593999997E+02  0.45594000000E+02  0.51100000000E-03 0.  1.
         11   -1    0    0    0    0 -0.00000000000E+00 -0.00000000000E+00 -0.45593999997E+02  0.45594000000E+02  0.51100000000E-03 0. -1.
    9900012    2    1    2    0    0  0.33506962039E+01  0.17692814065E+00  0.18423684932E+02  0.72461264163E+02  0.69999601206E+02 0.  0.
         12    1    1    2    0    0 -0.33506962039E+01 -0.17692814065E+00 -0.18423684932E+02  0.18726735837E+02  0.00000000000E+00 0. -1.
         11    1    3    3    0    0  0.40058820604E+00  0.37459964362E+01  0.54447241478E+01  0.66210257149E+01  0.51100000000E-03 0. -1.
        -11    1    3    3    0    0 -0.19830217826E+02  0.17468628924E+02 -0.89050896786E+01  0.27887114550E+02  0.51100000000E-03 0.  1.
         12    1    3    3    0    0  0.22780325824E+02 -0.21037697220E+02  0.21884050463E+02  0.37953123898E+02  0.00000000000E+00 0. -1.
</event>
<event>
 7    1  0.2876796E-013  0.7246145E+02  0.7816164E-02  0.1226708E+00
        -11   -1    0    0    0    0  0.00000000000E+00  0.00000000000E+00  0.45593999997E+02  0.45594000000E+02  0.51100000000E-03 0.  1.
         11   -1    0    0    0    0 -0.00000000000E+00 -0.00000000000E+00 -0.45593999997E+02  0.45594000000E+02  0.51100000000E-03 0. -1.
    9900012    2    1    2    0    0  0.16579895286E+02 -0.73818988275E+01 -0.46150107885E+01  0.72461449795E+02  0.69999843027E+02 0.  0.
         12    1    1    2    0    0 -0.16579895286E+02  0.73818988275E+01  0.46150107885E+01  0.18726550205E+02  0.00000000000E+00 0. -1.
         11    1    3    3    0    0  0.89222853146E+01 -0.98875683947E+01 -0.14780988031E+01  0.13399849265E+02  0.51100000000E-03 0. -1.
        -11    1    3    3    0    0  0.29032218792E+02  0.81727094200E+00 -0.16881241212E+02  0.33593361917E+02  0.51100000000E-03 0.  1.
        -12    1    3    3    0    0 -0.21374608821E+02  0.16883986252E+01  0.13744329226E+02  0.25468238613E+02  0.00000000000E+00 0.  1.
</event>
<event>
 7    1  0.2876796E-013  0.7246160E+02  0.7816164E-02  0.1226708E+00
        -11   -1    0    0    0    0  0.00000000000E+00  0.00000000000E+00  0.45593999997E+02  0.45594000000E+02  0.51100000000E-03 0.  1.
         11   -1    0    0    0    0 -0.00000000000E+00 -0.00000000000E+00 -0.45593999997E+02  0.45594000000E+02  0.51100000000E-03 0. -1.
    9900012    2    1    2    0    0 -0.91631163637E+01  0.38543425694E+01  0.15870079962E+02  0.72461598954E+02  0.70000037335E+02 0.  0.
         12    1    1    2    0    0  0.91631163637E+01 -0.38543425694E+01 -0.15870079962E+02  0.18726401046E+02  0.00000000000E+00 0. -1.
         11    1    3    3    0    0  0.11211337675E+02 -0.12979339228E+02  0.25205575877E+01  0.17335240122E+02  0.51100000000E-03 0. -1.
        -11    1    3    3    0    0 -0.26567924638E+00 -0.14948572126E+02  0.85196764151E+01  0.17208000481E+02  0.51100000000E-03 0.  1.
         12    1    3    3    0    0 -0.20108774793E+02  0.31782253923E+02  0.48298459587E+01  0.37918358352E+02  0.00000000000E+00 0. -1.
</event>
<event>
 7    1  0.2876796E-013  0.7246164E+02  0.7816164E-02  0.1226708E+00
        -11   -1    0    0    0    0  0.00000000000E+00  0.00000000000E+00  0.45593999997E+02  0.45594000000E+02  0.51100000000E-03 0.  1.
         11   -1    0    0    0    0 -0.00000000000E+00 -0.00000000000E+00 -0.45593999997E+02  0.45594000000E+02  0.51100000000E-03 0. -1.
    9900012    2    1    2    0    0 -0.14963074894E+02  0.34140366484E+00  0.11254609540E+02  0.72461644171E+02  0.70000096238E+02 0.  0.
         12    1    1    2    0    0  0.14963074894E+02 -0.34140366484E+00 -0.11254609540E+02  0.18726355829E+02  0.00000000000E+00 0. -1.
         11    1    3    3    0    0 -0.45604585784E+01 -0.21533138168E+02 -0.17456134865E+02  0.28092533999E+02  0.51100000000E-03 0. -1.
        -11    1    3    3    0    0 -0.37058290626E+01  0.11837081805E+02 -0.85785228195E+00  0.12433245171E+02  0.51100000000E-03 0.  1.
        -12    1    3    3    0    0 -0.66967872534E+01  0.10037460028E+02  0.29568596686E+02  0.31935865000E+02  0.00000000000E+00 0.  1.
</event>
<event>
 7    1  0.2876796E-013  0.7246158E+02  0.7816164E-02  0.1226708E+00
        -11   -1    0    0    0    0  0.00000000000E+00  0.00000000000E+00  0.45593999997E+02  0.45594000000E+02  0.51100000000E-03 0. -1.
         11   -1    0    0    0    0 -0.00000000000E+00 -0.00000000000E+00 -0.45593999997E+02  0.45594000000E+02  0.51100000000E-03 0.  1.
    9900012    2    1    2    0    0  0.32912528064E+01 -0.18406801748E+02  0.10179257475E+01  0.72461578333E+02  0.70000010471E+02 0.  0.
         12    1    1    2    0    0 -0.32912528064E+01  0.18406801748E+02 -0.10179257475E+01  0.18726421667E+02  0.00000000000E+00 0. -1.
         11    1    3    3    0    0 -0.14197398947E+01 -0.87340519396E+01 -0.36451005691E+00  0.88561951477E+01  0.51100000000E-03 0. -1.
        -11    1    3    3    0    0  0.75433590213E+00  0.72074588737E+01 -0.28309397321E+02  0.29222225498E+02  0.51100000000E-03 0.  1.
         12    1    3    3    0    0  0.39566567990E+01 -0.16880208682E+02  0.29691833126E+02  0.34383157687E+02  0.00000000000E+00 0. -1.
</event>
<event>
 7    1  0.2876796E-013  0.7246156E+02  0.7816164E-02  0.1226708E+00
        -11   -1    0    0    0    0  0.00000000000E+00  0.00000000000E+00  0.45593999997E+02  0.45594000000E+02  0.51100000000E-03 0. -1.
         11   -1    0    0    0    0 -0.00000000000E+00 -0.00000000000E+00 -0.45593999997E+02  0.45594000000E+02  0.51100000000E-03 0.  1.
    9900012    2    1    2    0    0  0.14003443283E+01  0.15016475034E+02 -0.11100629057E+02  0.72461562748E+02  0.69999990169E+02 0.  0.
         12    1    1    2    0    0 -0.14003443283E+01 -0.15016475034E+02  0.11100629057E+02  0.18726437252E+02  0.00000000000E+00 0. -1.
         11    1    3    3    0    0  0.74866321108E+01 -0.20506676099E+02 -0.71053208498E+00  0.21842121717E+02  0.51100000000E-03 0. -1.
        -11    1    3    3    0    0 -0.12052151945E+02  0.30531514024E+01  0.59501880590E+01  0.13783353662E+02  0.51100000000E-03 0.  1.
        -12    1    3    3    0    0  0.59658641623E+01  0.32469999731E+02 -0.16340285031E+02  0.36836087369E+02  0.00000000000E+00 0.  1.
</event>
<event>
 7    1  0.2876796E-013  0.7246151E+02  0.7816164E-02  0.1226708E+00
        -11   -1    0    0    0    0  0.00000000000E+00  0.00000000000E+00  0.45593999997E+02  0.45594000000E+02  0.51100000000E-03 0. -1.
         11   -1    0    0    0    0 -0.00000000000E+00 -0.00000000000E+00 -0.45593999997E+02  0.45594000000E+02  0.51100000000E-03 0.  1.
    9900012    2    1    2    0    0  0.98458070846E+01  0.12522336021E+02  0.98454378935E+01  0.72461509034E+02  0.69999920197E+02 0.  0.
         12    1    1    2    0    0 -0.98458070846E+01 -0.12522336021E+02 -0.98454378935E+01  0.18726490966E+02  0.00000000000E+00 0. -1.
         11    1    3    3    0    0  0.14886305493E+02  0.39010501026E+01 -0.84222368000E+01  0.17542928949E+02  0.51100000000E-03 0. -1.
        -11    1    3    3    0    0 -0.13764839006E+02  0.14852384175E+02 -0.11494064916E+02  0.23284708224E+02  0.51100000000E-03 0.  1.
         12    1    3    3    0    0  0.87243405971E+01 -0.62310982563E+01  0.29761739609E+02  0.31633871861E+02  0.00000000000E+00 0. -1.
</event>
<event>
 7    1  0.2876796E-013  0.7246137E+02  0.7816164E-02  0.1226709E+00
        -11   -1    0    0    0    0  0.00000000000E+00  0.00000000000E+00  0.45593999997E+02  0.45594000000E+02  0.51100000000E-03 0. -1.
         11   -1    0    0    0    0 -0.00000000000E+00 -0.00000000000E+00 -0.45593999997E+02  0.45594000000E+02  0.51100000000E-03 0.  1.
    9900012    2    1    2    0    0 -0.96433081449E+01 -0.61929498210E+01  0.14810155685E+02  0.72461368406E+02  0.69999737002E+02 0.  0.
         12    1    1    2    0    0  0.96433081449E+01  0.61929498210E+01 -0.14810155685E+02  0.18726631594E+02  0.00000000000E+00 0. -1.
         11    1    3    3    0    0 -0.10807605496E+02 -0.62759366627E+01 -0.21987306828E+02  0.25290974267E+02  0.51100000000E-03 0. -1.
        -11    1    3    3    0    0 -0.63877686703E+01 -0.64831865554E+01  0.67615899499E-01  0.91016409877E+01  0.51100000000E-03 0.  1.
         12    1    3    3    0    0  0.75520660214E+01  0.65661733970E+01  0.36729846613E+02  0.38068753151E+02  0.00000000000E+00 0. -1.
</event>
<event>
 7    1  0.2876796E-013  0.7246155E+02  0.7816164E-02  0.1226708E+00
        -11   -1    0    0    0    0  0.00000000000E+00  0.00000000000E+00  0.45593999997E+02  0.45594000000E+02  0.51100000000E-03 0.  1.
         11   -1    0    0    0    0 -0.00000000000E+00 -0.00000000000E+00 -0.45593999997E+02  0.45594000000E+02  0.51100000000E-03 0. -1.
    9900012    2    1    2    0    0  0.94855615204E+01  0.13646474628E+02  0.86300419899E+01  0.72461554212E+02  0.69999979049E+02 0.  0.
         12    1    1    2    0    0 -0.94855615204E+01 -0.13646474628E+02 -0.86300419899E+01  0.18726445788E+02  0.00000000000E+00 0. -1.
         11    1    3    3    0    0  0.10665520152E+02  0.16727543944E+02 -0.10494876715E+00  0.19838726296E+02  0.51100000000E-03 0. -1.
        -11    1    3    3    0    0  0.15190703765E+01 -0.31128670701E+01  0.30497499200E+02  0.30693565676E+02  0.51100000000E-03 0.  1.
         12    1    3    3    0    0 -0.26990290086E+01  0.31797753429E-01 -0.21762508443E+02  0.21929262240E+02  0.00000000000E+00 0. -1.
</event>
<event>
 7    1  0.2876796E-013  0.7246156E+02  0.7816164E-02  0.1226708E+00
        -11   -1    0    0    0    0  0.00000000000E+00  0.00000000000E+00  0.45593999997E+02  0.45594000000E+02  0.51100000000E-03 0.  1.
         11   -1    0    0    0    0 -0.00000000000E+00 -0.00000000000E+00 -0.45593999997E+02  0.45594000000E+02  0.51100000000E-03 0. -1.
    9900012    2    1    2    0    0 -0.51315024422E+01 -0.37822327822E+01  0.17608007790E+02  0.72461560390E+02  0.69999987098E+02 0.  0.
         12    1    1    2    0    0  0.51315024422E+01  0.37822327822E+01 -0.17608007790E+02  0.18726439610E+02  0.00000000000E+00 0. -1.
         11    1    3    3    0    0 -0.17031225535E+02  0.12430492774E+02 -0.69712100346E+01  0.22207601479E+02  0.51100000000E-03 0. -1.
        -11    1    3    3    0    0 -0.13274171327E+02  0.72595907642E+00  0.53402800694E+01  0.14326521996E+02  0.51100000000E-03 0.  1.
        -12    1    3    3    0    0  0.25173894421E+02 -0.16938684632E+02  0.19238937755E+02  0.35927436916E+02  0.00000000000E+00 0.  1.
</event>
<event>
 7    1  0.2876796E-013  0.7246159E+02  0.7816164E-02  0.1226708E+00
        -11   -1    0    0    0    0  0.00000000000E+00  0.00000000000E+00  0.45593999997E+02  0.45594000000E+02  0.51100000000E-03 0.  1.
         11   -1    0    0    0    0 -0.00000000000E+00 -0.00000000000E+00 -0.45593999997E+02  0.45594000000E+02  0.51100000000E-03 0. -1.
    9900012    2    1    2    0    0  0.92081283960E+01 -0.88162794790E+01 -0.13717222238E+02  0.72461585545E+02  0.70000019867E+02 0.  0.
         12    1    1    2    0    0 -0.92081283960E+01  0.88162794790E+01  0.13717222238E+02  0.18726414455E+02  0.00000000000E+00 0. -1.
         11    1    3    3    0    0 -0.37991608196E+01  0.18290836749E+02  0.80708267379E+01  0.20350100157E+02  0.51100000000E-03 0. -1.
        -11    1    3    3    0    0  0.10695514234E+02 -0.81423620827E+01  0.87861550726E+01  0.16058910493E+02  0.51100000000E-03 0.  1.
         12    1    3    3    0    0  0.23117749817E+01 -0.18964754145E+02 -0.30574204048E+02  0.36052574895E+02  0.00000000000E+00 0. -1.
</event>
<event>
 7    1  0.2876796E-013  0.7246152E+02  0.7816164E-02  0.1226708E+00
        -11   -1    0    0    0    0  0.00000000000E+00  0.00000000000E+00  0.45593999997E+02  0.45594000000E+02  0.51100000000E-03 0.  1.
         11   -1    0    0    0    0 -0.00000000000E+00 -0.00000000000E+00 -0.45593999997E+02  0.45594000000E+02  0.51100000000E-03 0. -1.
    9900012    2    1    2    0    0  0.63127183781E+01 -0.12370397540E+02 -0.12561999295E+02  0.72461522090E+02  0.69999937205E+02 0.  0.
         12    1    1    2    0    0 -0.63127183781E+01  0.12370397540E+02  0.12561999295E+02  0.18726477910E+02  0.00000000000E+00 0. -1.
         11    1    3    3    0    0 -0.84547253465E+01  0.10253225146E+02 -0.14470332384E+02  0.19646921543E+02  0.51100000000E-03 0. -1.
        -11    1    3    3    0    0 -0.67470744494E+01  0.41215466792E+01  0.14284813909E+02  0.16326851177E+02  0.51100000000E-03 0.  1.
         12    1    3    3    0    0  0.21514518174E+02 -0.26745169365E+02 -0.12376480821E+02  0.36487749370E+02  0.00000000000E+00 0. -1.
</event>
<event>
 7    1  0.2876796E-013  0.7246157E+02  0.7816164E-02  0.1226708E+00
        -11   -1    0    0    0    0  0.00000000000E+00  0.00000000000E+00  0.45593999997E+02  0.45594000000E+02  0.51100000000E-03 0. -1.
         11   -1    0    0    0    0 -0.00000000000E+00 -0.00000000000E+00 -0.45593999997E+02  0.45594000000E+02  0.51100000000E-03 0.  1.
    9900012    2    1    2    0    0 -0.14482332525E+02  0.11871864514E+02 -0.12679051643E-01  0.72461567260E+02  0.69999996048E+02 0.  0.
         12    1    1    2    0    0  0.14482332525E+02 -0.11871864514E+02  0.12679051643E-01  0.18726432740E+02  0.00000000000E+00 0. -1.
         11    1    3    3    0    0 -0.30338905331E+02 -0.11301057632E+02  0.13379935697E+02  0.35031211224E+02  0.51100000000E-03 0. -1.
        -11    1    3    3    0    0  0.76130502729E+01 -0.21610771665E+01 -0.77396302175E+00  0.79515915387E+01  0.51100000000E-03 0.  1.
        -12    1    3    3    0    0  0.82435225332E+01  0.25333999313E+02 -0.12618651727E+02  0.29478764498E+02  0.00000000000E+00 0.  1.
</event>
<event>
 7    1  0.2876796E-013  0.7246153E+02  0.7816164E-02  0.1226708E+00
        -11   -1    0    0    0    0  0.00000000000E+00  0.00000000000E+00  0.45593999997E+02  0.45594000000E+02  0.51100000000E-03 0. -1.
         11   -1    0    0    0    0 -0.00000000000E+00 -0.00000000000E+00 -0.45593999997E+02  0.45594000000E+02  0.51100000000E-03 0.  1.
    9900012    2    1    2    0    0 -0.16464136140E+02 -0.89106726221E+01 -0.46121077490E+00  0.72461532613E+02  0.69999950913E+02 0.  0.
         12    1    1    2    0    0  0.16464136140E+02  0.89106726221E+01  0.46121077490E+00  0.18726467387E+02  0.00000000000E+00 0. -1.
         11    1    3    3    0    0  0.14483016798E+02  0.24586071462E+01  0.95152246758E+01  0.17502629104E+02  0.51100000000E-03 0. -1.
        -11    1    3    3    0    0 -0.28307621461E+02  0.99443501264E+01  0.25237917142E+01  0.30109484504E+02  0.51100000000E-03 0.  1.
         12    1    3    3    0    0 -0.26395314764E+01 -0.21313629895E+02 -0.12500227165E+02  0.24849419005E+02  0.00000000000E+00 0. -1.
</event>
<event>
 7    1  0.2876796E-013  0.7246153E+02  0.7816164E-02  0.1226708E+00
        -11   -1    0    0    0    0  0.00000000000E+00  0.00000000000E+00  0.45593999997E+02  0.45594000000E+02  0.51100000000E-03 0. -1.
         11   -1    0    0    0    0 -0.00000000000E+00 -0.00000000000E+00 -0.45593999997E+02  0.45594000000E+02  0.51100000000E-03 0.  1.
    9900012    2    1    2    0    0 -0.18322099830E+02  0.74265424390E+00 -0.37986795549E+01  0.72461525589E+02  0.69999941763E+02 0.  0.
         12    1    1    2    0    0  0.18322099830E+02 -0.74265424390E+00  0.37986795549E+01  0.18726474411E+02  0.00000000000E+00 0. -1.
         11    1    3    3    0    0 -0.14971500339E+02 -0.17492688988E+02  0.19413040659E+02  0.30116542602E+02  0.51100000000E-03 0. -1.
        -11    1    3    3    0    0 -0.14850498682E+02  0.47268652662E+01 -0.18095306447E+02  0.23881387774E+02  0.51100000000E-03 0.  1.
        -12    1    3    3    0    0  0.11499899191E+02  0.13508477966E+02 -0.51164137671E+01  0.18463595213E+02  0.00000000000E+00 0.  1.
</event>
<event>
 7    1  0.2876796E-013  0.7246154E+02  0.7816164E-02  0.1226708E+00
        -11   -1    0    0    0    0  0.00000000000E+00  0.00000000000E+00  0.45593999997E+02  0.45594000000E+02  0.51100000000E-03 0.  1.
         11   -1    0    0    0    0 -0.00000000000E+00 -0.00000000000E+00 -0.45593999997E+02  0.45594000000E+02  0.51100000000E-03 0. -1.
    9900012    2    1    2    0    0  0.11415928176E+02 -0.14880730916E+00  0.14843679016E+02  0.72461538336E+02  0.69999958368E+02 0.  0.
         12    1    1    2    0    0 -0.11415928176E+02  0.14880730916E+00 -0.14843679016E+02  0.18726461664E+02  0.00000000000E+00 0. -1.
         11    1    3    3    0    0  0.87853179432E+01 -0.78023274089E+01 -0.24160455590E+02  0.26866070404E+02  0.51100000000E-03 0. -1.
        -11    1    3    3    0    0  0.27008872330E+01 -0.48096630727E+01  0.10080341748E+01  0.56074757134E+01  0.51100000000E-03 0.  1.
        -12    1    3    3    0    0 -0.70277000454E-01  0.12463183172E+02  0.37996100432E+02  0.39987992218E+02  0.00000000000E+00 0.  1.
</event>
<event>
 7    1  0.2876796E-013  0.7246165E+02  0.7816164E-02  0.1226708E+00
        -11   -1    0    0    0    0  0.00000000000E+00  0.00000000000E+00  0.45593999997E+02  0.45594000000E+02  0.51100000000E-03 0.  1.
         11   -1    0    0    0    0 -0.00000000000E+00 -0.00000000000E+00 -0.45593999997E+02  0.45594000000E+02  0.51100000000E-03 0. -1.
    9900012    2    1    2    0    0 -0.23165158612E+00 -0.17345901127E+02 -0.70528118514E+01  0.72461652162E+02  0.70000106647E+02 0.  0.
         12    1    1    2    0    0  0.23165158612E+00  0.17345901127E+02  0.70528118514E+01  0.18726347838E+02  0.00000000000E+00 0. -1.
         11    1    3    3    0    0 -0.11188416891E+01 -0.15601202032E+02  0.85418118689E+01  0.17821668323E+02  0.51100000000E-03 0. -1.
        -11    1    3    3    0    0 -0.53162479973E+01 -0.78882576429E+01  0.17767871008E+02  0.20154015526E+02  0.51100000000E-03 0.  1.
         12    1    3    3    0    0  0.62034381003E+01  0.61435585481E+01 -0.33362494729E+02  0.34485968312E+02  0.00000000000E+00 0. -1.
</event>
<event>
 7    1  0.2876796E-013  0.7246157E+02  0.7816164E-02  0.1226708E+00
        -11   -1    0    0    0    0  0.00000000000E+00  0.00000000000E+00  0.45593999997E+02  0.45594000000E+02  0.51100000000E-03 0. -1.
         11   -1    0    0    0    0 -0.00000000000E+00 -0.00000000000E+00 -0.45593999997E+02  0.45594000000E+02  0.51100000000E-03 0.  1.
    9900012    2    1    2    0    0  0.12496525854E+02 -0.32838729529E+01 -0.13554779621E+02  0.72461574004E+02  0.70000004833E+02 0.  0.
         12    1    1    2    0    0 -0.12496525854E+02  0.32838729529E+01  0.13554779621E+02  0.18726425996E+02  0.00000000000E+00 0. -1.
         11    1    3    3    0    0 -0.15493209232E+02 -0.59852567623E+01 -0.15064639029E+02  0.22423340076E+02  0.51100000000E-03 0. -1.
        -11    1    3    3    0    0  0.11816932551E+02  0.15466813684E+02 -0.14229140308E+02  0.24110799543E+02  0.51100000000E-03 0.  1.
         12    1    3    3    0    0  0.16172802535E+02 -0.12765429874E+02  0.15738999716E+02  0.25927434385E+02  0.00000000000E+00 0. -1.
</event>
<event>
 7    1  0.2876796E-013  0.7246155E+02  0.7816164E-02  0.1226708E+00
        -11   -1    0    0    0    0  0.00000000000E+00  0.00000000000E+00  0.45593999997E+02  0.45594000000E+02  0.51100000000E-03 0. -1.
         11   -1    0    0    0    0 -0.00000000000E+00 -0.00000000000E+00 -0.45593999997E+02  0.45594000000E+02  0.51100000000E-03 0.  1.
    9900012    2    1    2    0    0  0.12897417276E+02 -0.37184445614E+01 -0.13057930896E+02  0.72461554485E+02  0.69999979405E+02 0.  0.
         12    1    1    2    0    0 -0.12897417276E+02  0.37184445614E+01  0.13057930896E+02  0.18726445515E+02  0.00000000000E+00 0. -1.
         11    1    3    3    0    0 -0.33312756842E+01  0.16253721400E+02 -0.11472704308E+02  0.20171856668E+02  0.51100000000E-03 0. -1.
        -11    1    3    3    0    0  0.12411448755E+01  0.14034840197E+02 -0.50454714241E+01  0.14965759657E+02  0.51100000000E-03 0.  1.
         12    1    3    3    0    0  0.14987548085E+02 -0.34007006158E+02  0.34602448364E+01  0.37323938160E+02  0.00000000000E+00 0. -1.
</event>
<event>
 7    1  0.2876796E-013  0.7246155E+02  0.7816164E-02  0.1226708E+00
        -11   -1    0    0    0    0  0.00000000000E+00  0.00000000000E+00  0.45593999997E+02  0.45594000000E+02  0.51100000000E-03 0. -1.
         11   -1    0    0    0    0 -0.00000000000E+00 -0.00000000000E+00 -0.45593999997E+02  0.45594000000E+02  0.51100000000E-03 0.  1.
    9900012    2    1    2    0    0 -0.33590996713E+01  0.17914036325E+02 -0.42992691741E+01  0.72461549095E+02  0.69999972384E+02 0.  0.
         12    1    1    2    0    0  0.33590996713E+01 -0.17914036325E+02  0.42992691741E+01  0.18726450905E+02  0.00000000000E+00 0. -1.
         11    1    3    3    0    0 -0.30569905905E+02  0.20731128927E+02  0.21263503017E+01  0.36997570454E+02  0.51100000000E-03 0. -1.
        -11    1    3    3    0    0 -0.28172748007E+01 -0.22758183336E+01  0.21740118081E+01  0.42240636824E+01  0.51100000000E-03 0.  1.
        -12    1    3    3    0    0  0.30028081034E+02 -0.54127426832E+00 -0.85996312839E+01  0.31239914959E+02  0.00000000000E+00 0.  1.
</event>
<event>
 7    1  0.2876796E-013  0.7246156E+02  0.7816164E-02  0.1226708E+00
        -11   -1    0    0    0    0  0.00000000000E+00  0.00000000000E+00  0.45593999997E+02  0.45594000000E+02  0.51100000000E-03 0.  1.
         11   -1    0    0    0    0 -0.00000000000E+00 -0.00000000000E+00 -0.45593999997E+02  0.45594000000E+02  0.51100000000E-03 0. -1.
    9900012    2    1    2    0    0  0.16405224944E+02 -0.60826833958E+01 -0.66745122528E+01  0.72461559960E+02  0.69999986537E+02 0.  0.
         12    1    1    2    0    0 -0.16405224944E+02  0.60826833958E+01  0.66745122528E+01  0.18726440040E+02  0.00000000000E+00 0. -1.
         11    1    3    3    0    0 -0.10203475991E+02 -0.22829699846E+02 -0.15393914132E+02  0.29364582577E+02  0.51100000000E-03 0. -1.
        -11    1    3    3    0    0 -0.26772020480E+01 -0.43057828689E+01  0.45074150491E+01  0.67840966684E+01  0.51100000000E-03 0.  1.
        -12    1    3    3    0    0  0.29285902983E+02  0.21052799320E+02  0.42119868296E+01  0.36312880714E+02  0.00000000000E+00 0.  1.
</event>
<event>
 7    1  0.2876796E-013  0.7246161E+02  0.7816164E-02  0.1226708E+00
        -11   -1    0    0    0    0  0.00000000000E+00  0.00000000000E+00  0.45593999997E+02  0.45594000000E+02  0.51100000000E-03 0. -1.
         11   -1    0    0    0    0 -0.00000000000E+00 -0.00000000000E+00 -0.45593999997E+02  0.45594000000E+02  0.51100000000E-03 0.  1.
    9900012    2    1    2    0    0  0.94040497309E+01 -0.13810666584E+02 -0.84561754584E+01  0.72461613103E+02  0.70000055766E+02 0.  0.
         12    1    1    2    0    0 -0.94040497309E+01  0.13810666584E+02  0.84561754584E+01  0.18726386897E+02  0.00000000000E+00 0. -1.
         11    1    3    3    0    0  0.22502448448E+02 -0.52023584440E+01  0.54218323249E+01  0.23723848455E+02  0.51100000000E-03 0. -1.
        -11    1    3    3    0    0 -0.80575926813E+01 -0.25477141765E+02 -0.67192324025E+00  0.26729403911E+02  0.51100000000E-03 0.  1.
        -12    1    3    3    0    0 -0.50408060354E+01  0.16868833625E+02 -0.13206084543E+02  0.22008360736E+02  0.00000000000E+00 0.  1.
</event>
<event>
 7    1  0.2876796E-013  0.7246156E+02  0.7816164E-02  0.1226708E+00
        -11   -1    0    0    0    0  0.00000000000E+00  0.00000000000E+00  0.45593999997E+02  0.45594000000E+02  0.51100000000E-03 0. -1.
         11   -1    0    0    0    0 -0.00000000000E+00 -0.00000000000E+00 -0.45593999997E+02  0.45594000000E+02  0.51100000000E-03 0.  1.
    9900012    2    1    2    0    0  0.11770596281E+02  0.14043084347E+02  0.38632043899E+01  0.72461561392E+02  0.69999988402E+02 0.  0.
         12    1    1    2    0    0 -0.11770596281E+02 -0.14043084347E+02 -0.38632043899E+01  0.18726438608E+02  0.00000000000E+00 0. -1.
         11    1    3    3    0    0  0.15032484802E+01  0.23551945299E+01 -0.52295550945E+01  0.59291604814E+01  0.51100000000E-03 0. -1.
        -11    1    3    3    0    0  0.28334543157E+02  0.27819251005E+01 -0.17312507679E+02  0.33321289975E+02  0.51100000000E-03 0.  1.
         12    1    3    3    0    0 -0.18067195356E+02  0.89059647169E+01  0.26405267164E+02  0.33211110935E+02  0.00000000000E+00 0. -1.
</event>
<event>
 7    1  0.2876796E-013  0.7246159E+02  0.7816164E-02  0.1226708E+00
        -11   -1    0    0    0    0  0.00000000000E+00  0.00000000000E+00  0.45593999997E+02  0.45594000000E+02  0.51100000000E-03 0. -1.
         11   -1    0    0    0    0 -0.00000000000E+00 -0.00000000000E+00 -0.45593999997E+02  0.45594000000E+02  0.51100000000E-03 0.  1.
    9900012    2    1    2    0    0 -0.44361758020E+01  0.10045780734E+02 -0.15168420963E+02  0.72461591887E+02  0.70000028129E+02 0.  0.
         12    1    1    2    0    0  0.44361758020E+01 -0.10045780734E+02  0.15168420963E+02  0.18726408113E+02  0.00000000000E+00 0. -1.
         11    1    3    3    0    0  0.93197432368E+01  0.37245278025E+01 -0.36147344336E+01  0.10667522048E+02  0.51100000000E-03 0. -1.
        -11    1    3    3    0    0  0.75877692736E+01 -0.20799238690E+01 -0.30838814156E+02  0.31826604982E+02  0.51100000000E-03 0.  1.
         12    1    3    3    0    0 -0.21343688312E+02  0.84011768000E+01  0.19285127627E+02  0.29967464858E+02  0.00000000000E+00 0. -1.
</event>
<event>
 7    1  0.2876796E-013  0.7246156E+02  0.7816164E-02  0.1226708E+00
        -11   -1    0    0    0    0  0.00000000000E+00  0.00000000000E+00  0.45593999997E+02  0.45594000000E+02  0.51100000000E-03 0. -1.
         11   -1    0    0    0    0 -0.00000000000E+00 -0.00000000000E+00 -0.45593999997E+02  0.45594000000E+02  0.51100000000E-03 0.  1.
    9900012    2    1    2    0    0  0.20568208062E+01 -0.25841886670E+01 -0.18432875126E+02  0.72461563384E+02  0.69999990999E+02 0.  0.
         12    1    1    2    0    0 -0.20568208062E+01  0.25841886670E+01  0.18432875126E+02  0.18726436616E+02  0.00000000000E+00 0. -1.
         11    1    3    3    0    0 -0.23832307531E+01  0.12741050637E+02  0.13387146784E+01  0.13030975306E+02  0.51100000000E-03 0. -1.
        -11    1    3    3    0    0  0.18633081472E+01 -0.25732490848E+02  0.10089904742E+02  0.27702692658E+02  0.51100000000E-03 0.  1.
        -12    1    3    3    0    0  0.25767434121E+01  0.10407251544E+02 -0.29861494546E+02  0.31727895421E+02  0.00000000000E+00 0.  1.
</event>
<event>
 7    1  0.2876796E-013  0.7246155E+02  0.7816164E-02  0.1226708E+00
        -11   -1    0    0    0    0  0.00000000000E+00  0.00000000000E+00  0.45593999997E+02  0.45594000000E+02  0.51100000000E-03 0.  1.
         11   -1    0    0    0    0 -0.00000000000E+00 -0.00000000000E+00 -0.45593999997E+02  0.45594000000E+02  0.51100000000E-03 0. -1.
    9900012    2    1    2    0    0  0.78013601529E+01  0.15597279829E+02  0.68222901970E+01  0.72461548072E+02  0.69999971051E+02 0.  0.
         12    1    1    2    0    0 -0.78013601529E+01 -0.15597279829E+02 -0.68222901970E+01  0.18726451928E+02  0.00000000000E+00 0. -1.
         11    1    3    3    0    0  0.58446082097E+01 -0.19140029285E+02  0.71515512920E+01  0.21251937613E+02  0.51100000000E-03 0. -1.
        -11    1    3    3    0    0  0.13345184721E+02  0.11000500826E+02 -0.13340992105E+02  0.21842322319E+02  0.51100000000E-03 0.  1.
        -12    1    3    3    0    0 -0.11388432778E+02  0.23736808288E+02  0.13011731010E+02  0.29367288140E+02  0.00000000000E+00 0.  1.
</event>
<event>
 7    1  0.2876796E-013  0.7246149E+02  0.7816164E-02  0.1226708E+00
        -11   -1    0    0    0    0  0.00000000000E+00  0.00000000000E+00  0.45593999997E+02  0.45594000000E+02  0.51100000000E-03 0.  1.
         11   -1    0    0    0    0 -0.00000000000E+00 -0.00000000000E+00 -0.45593999997E+02  0.45594000000E+02  0.51100000000E-03 0. -1.
    9900012    2    1    2    0    0  0.12800114114E+02 -0.13667301899E+02 -0.20977025904E+00  0.72461492955E+02  0.69999899251E+02 0.  0.
         12    1    1    2    0    0 -0.12800114114E+02  0.13667301899E+02  0.20977025904E+00  0.18726507045E+02  0.00000000000E+00 0. -1.
         11    1    3    3    0    0 -0.59717603245E+00  0.21296821522E+02  0.21725703561E+01  0.21415678564E+02  0.51100000000E-03 0. -1.
        -11    1    3    3    0    0  0.18523154304E+02 -0.32415718228E+01  0.22710369217E+00  0.18806025886E+02  0.51100000000E-03 0.  1.
        -12    1    3    3    0    0 -0.51258641577E+01 -0.31722551598E+02 -0.26094443073E+01  0.32239788505E+02  0.00000000000E+00 0.  1.
</event>
<event>
 7    1  0.2876796E-013  0.7246157E+02  0.7816164E-02  0.1226708E+00
        -11   -1    0    0    0    0  0.00000000000E+00  0.00000000000E+00  0.45593999997E+02  0.45594000000E+02  0.51100000000E-03 0. -1.
         11   -1    0    0    0    0 -0.00000000000E+00 -0.00000000000E+00 -0.45593999997E+02  0.45594000000E+02  0.51100000000E-03 0.  1.
    9900012    2    1    2    0    0  0.32383523316E+00 -0.82580956731E+01 -0.16804116527E+02  0.72461565592E+02  0.69999993874E+02 0.  0.
         12    1    1    2    0    0 -0.32383523316E+00  0.82580956731E+01  0.16804116527E+02  0.18726434408E+02  0.00000000000E+00 0. -1.
         11    1    3    3    0    0  0.34226698634E+01 -0.71169221842E+01  0.18493018306E+02  0.20108629409E+02  0.51100000000E-03 0. -1.
        -11    1    3    3    0    0 -0.26871879527E+01 -0.10456466934E+02  0.43384498921E+01  0.11635326707E+02  0.51100000000E-03 0.  1.
         12    1    3    3    0    0 -0.41164667751E+00  0.93152934455E+01 -0.39635584725E+02  0.40717609476E+02  0.00000000000E+00 0. -1.
</event>
<event>
 7    1  0.2876796E-013  0.7246143E+02  0.7816164E-02  0.1226708E+00
        -11   -1    0    0    0    0  0.00000000000E+00  0.00000000000E+00  0.45593999997E+02  0.45594000000E+02  0.51100000000E-03 0.  1.
         11   -1    0    0    0    0 -0.00000000000E+00 -0.00000000000E+00 -0.45593999997E+02  0.45594000000E+02  0.51100000000E-03 0. -1.
    9900012    2    1    2    0    0  0.77649914196E+01 -0.16400537360E+02 -0.46272624886E+01  0.72461433962E+02  0.69999822402E+02 0.  0.
         12    1    1    2    0    0 -0.77649914196E+01  0.16400537360E+02  0.46272624886E+01  0.18726566038E+02  0.00000000000E+00 0. -1.
         11    1    3    3    0    0  0.52800651414E+01 -0.22720660639E+01 -0.26924675492E+01  0.63474998118E+01  0.51100000000E-03 0. -1.
        -11    1    3    3    0    0  0.11773017119E+02  0.23283896972E+02  0.59661110166E+01  0.26764496469E+02  0.51100000000E-03 0.  1.
         12    1    3    3    0    0 -0.92880908410E+01 -0.37412368268E+02 -0.79009059560E+01  0.39349437681E+02  0.00000000000E+00 0. -1.
</event>
<event>
 7    1  0.2876796E-013  0.7246155E+02  0.7816164E-02  0.1226708E+00
        -11   -1    0    0    0    0  0.00000000000E+00  0.00000000000E+00  0.45593999997E+02  0.45594000000E+02  0.51100000000E-03 0. -1.
         11   -1    0    0    0    0 -0.00000000000E+00 -0.00000000000E+00 -0.45593999997E+02  0.45594000000E+02  0.51100000000E-03 0.  1.
    9900012    2    1    2    0    0  0.11734387237E+02  0.11847030230E+02 -0.85224392393E+01  0.72461549731E+02  0.69999973212E+02 0.  0.
         12    1    1    2    0    0 -0.11734387237E+02 -0.11847030230E+02  0.85224392393E+01  0.18726450269E+02  0.00000000000E+00 0. -1.
         11    1    3    3    0    0 -0.35935894334E+01  0.16700690005E+02 -0.26310896451E+02  0.31370212049E+02  0.51100000000E-03 0. -1.
        -11    1    3    3    0    0  0.91519591135E+01  0.94411353019E+01 -0.45038502757E+01  0.13898850995E+02  0.51100000000E-03 0.  1.
         12    1    3    3    0    0  0.61760175568E+01 -0.14294795077E+02  0.22292307487E+02  0.27192486688E+02  0.00000000000E+00 0. -1.
</event>
<event>
 7    1  0.2876796E-013  0.7246156E+02  0.7816164E-02  0.1226708E+00
        -11   -1    0    0    0    0  0.00000000000E+00  0.00000000000E+00  0.45593999997E+02  0.45594000000E+02  0.51100000000E-03 0. -1.
         11   -1    0    0    0    0 -0.00000000000E+00 -0.00000000000E+00 -0.45593999997E+02  0.45594000000E+02  0.51100000000E-03 0.  1.
    9900012    2    1    2    0    0  0.14824433724E+02 -0.44667809531E+01 -0.10533925712E+02  0.72461559916E+02  0.69999986480E+02 0.  0.
         12    1    1    2    0    0 -0.14824433724E+02  0.44667809531E+01  0.10533925712E+02  0.18726440084E+02  0.00000000000E+00 0. -1.
         11    1    3    3    0    0 -0.80067265961E+01 -0.26725121775E+02 -0.12151829816E+02  0.30430359393E+02  0.51100000000E-03 0.  1.
        -11    1    3    3    0    0 -0.23418046905E+01  0.15845308158E+02  0.28331983040E+00  0.16019928533E+02  0.51100000000E-03 0. -1.
        -12    1    3    3    0    0  0.25172965010E+02  0.64130326639E+01  0.13345842733E+01  0.26011271990E+02  0.00000000000E+00 0.  1.
</event>
<event>
 7    1  0.2876796E-013  0.7246170E+02  0.7816164E-02  0.1226708E+00
        -11   -1    0    0    0    0  0.00000000000E+00  0.00000000000E+00  0.45593999997E+02  0.45594000000E+02  0.51100000000E-03 0. -1.
         11   -1    0    0    0    0 -0.00000000000E+00 -0.00000000000E+00 -0.45593999997E+02  0.45594000000E+02  0.51100000000E-03 0.  1.
    9900012    2    1    2    0    0 -0.46372100580E+01 -0.16150224200E+02 -0.82668618262E+01  0.72461695952E+02  0.70000163692E+02 0.  0.
         12    1    1    2    0    0  0.46372100580E+01  0.16150224200E+02  0.82668618262E+01  0.18726304048E+02  0.00000000000E+00 0. -1.
         11    1    3    3    0    0 -0.75073067697E+01 -0.93788370442E+01 -0.19728733298E+02  0.23098596430E+02  0.51100000000E-03 0. -1.
        -11    1    3    3    0    0 -0.21231695805E+02 -0.83915316949E+01  0.10653869706E+02  0.25193404909E+02  0.51100000000E-03 0.  1.
         12    1    3    3    0    0  0.24101792517E+02  0.16201445388E+01  0.80800176595E+00  0.24169694613E+02  0.00000000000E+00 0. -1.
</event>
<event>
 7    1  0.2876796E-013  0.7246161E+02  0.7816164E-02  0.1226708E+00
        -11   -1    0    0    0    0  0.00000000000E+00  0.00000000000E+00  0.45593999997E+02  0.45594000000E+02  0.51100000000E-03 0. -1.
         11   -1    0    0    0    0 -0.00000000000E+00 -0.00000000000E+00 -0.45593999997E+02  0.45594000000E+02  0.51100000000E-03 0.  1.
    9900012    2    1    2    0    0 -0.63916384318E+01  0.17097002119E+02 -0.41853613771E+01  0.72461607578E+02  0.70000048569E+02 0.  0.
         12    1    1    2    0    0  0.63916384318E+01 -0.17097002119E+02  0.41853613771E+01  0.18726392422E+02  0.00000000000E+00 0. -1.
         11    1    3    3    0    0 -0.15566597018E+02  0.20775984728E+02  0.34275187073E+01  0.26186033852E+02  0.51100000000E-03 0. -1.
        -11    1    3    3    0    0 -0.25727705518E+01  0.17603759408E+02  0.55429944333E+01  0.18634277049E+02  0.51100000000E-03 0.  1.
        -12    1    3    3    0    0  0.11747729138E+02 -0.21282742017E+02 -0.13155874518E+02  0.27641296677E+02  0.00000000000E+00 0.  1.
</event>
<event>
 7    1  0.2876796E-013  0.7246157E+02  0.7816164E-02  0.1226708E+00
        -11   -1    0    0    0    0  0.00000000000E+00  0.00000000000E+00  0.45593999997E+02  0.45594000000E+02  0.51100000000E-03 0. -1.
         11   -1    0    0    0    0 -0.00000000000E+00 -0.00000000000E+00 -0.45593999997E+02  0.45594000000E+02  0.51100000000E-03 0.  1.
    9900012    2    1    2    0    0 -0.10650119254E+02  0.87841887107E+01 -0.12652760168E+02  0.72461565441E+02  0.69999993677E+02 0.  0.
         12    1    1    2    0    0  0.10650119254E+02 -0.87841887107E+01  0.12652760168E+02  0.18726434559E+02  0.00000000000E+00 0. -1.
         11    1    3    3    0    0 -0.73553589023E+01  0.44922196457E+01 -0.24154919761E+01  0.89507510117E+01  0.51100000000E-03 0. -1.
        -11    1    3    3    0    0 -0.97111307882E+01 -0.15078392806E+02 -0.30097542097E+02  0.35036067579E+02  0.51100000000E-03 0.  1.
         12    1    3    3    0    0  0.64163704363E+01  0.19370361871E+02  0.19860273905E+02  0.28474746851E+02  0.00000000000E+00 0. -1.
</event>
<event>
 7    1  0.2876796E-013  0.7246157E+02  0.7816164E-02  0.1226708E+00
        -11   -1    0    0    0    0  0.00000000000E+00  0.00000000000E+00  0.45593999997E+02  0.45594000000E+02  0.51100000000E-03 0. -1.
         11   -1    0    0    0    0 -0.00000000000E+00 -0.00000000000E+00 -0.45593999997E+02  0.45594000000E+02  0.51100000000E-03 0.  1.
    9900012    2    1    2    0    0  0.94794776602E+01  0.15101701578E+02 -0.57233905472E+01  0.72461572508E+02  0.70000002884E+02 0.  0.
         12    1    1    2    0    0 -0.94794776602E+01 -0.15101701578E+02  0.57233905472E+01  0.18726427492E+02  0.00000000000E+00 0. -1.
         11    1    3    3    0    0  0.78811475190E+01  0.22887328079E+02  0.25699007585E+02  0.35304125310E+02  0.51100000000E-03 0. -1.
        -11    1    3    3    0    0 -0.23386747196E+01  0.43294520966E+01 -0.24260680747E+01  0.54862884964E+01  0.51100000000E-03 0.  1.
        -12    1    3    3    0    0  0.39370048608E+01 -0.12115078597E+02 -0.28996330058E+02  0.31671158702E+02  0.00000000000E+00 0.  1.
</event>
<event>
 7    1  0.2876796E-013  0.7246159E+02  0.7816164E-02  0.1226708E+00
        -11   -1    0    0    0    0  0.00000000000E+00  0.00000000000E+00  0.45593999997E+02  0.45594000000E+02  0.51100000000E-03 0.  1.
         11   -1    0    0    0    0 -0.00000000000E+00 -0.00000000000E+00 -0.45593999997E+02  0.45594000000E+02  0.51100000000E-03 0. -1.
    9900012    2    1    2    0    0  0.12905053647E+02  0.60858775085E+01  0.12128478898E+02  0.72461593109E+02  0.70000029720E+02 0.  0.
         12    1    1    2    0    0 -0.12905053647E+02 -0.60858775085E+01 -0.12128478898E+02  0.18726406891E+02  0.00000000000E+00 0. -1.
         11    1    3    3    0    0 -0.13216520494E+02 -0.51791343239E+01  0.89340570108E+01  0.16772513862E+02  0.51100000000E-03 0. -1.
        -11    1    3    3    0    0 -0.14111852206E+02  0.22049958368E+01 -0.42712057482E+00  0.14289465056E+02  0.51100000000E-03 0.  1.
         12    1    3    3    0    0  0.40233426346E+02  0.90600159957E+01  0.36215424620E+01  0.41399614192E+02  0.00000000000E+00 0. -1.
</event>
<event>
 7    1  0.2876796E-013  0.7246158E+02  0.7816164E-02  0.1226708E+00
        -11   -1    0    0    0    0  0.00000000000E+00  0.00000000000E+00  0.45593999997E+02  0.45594000000E+02  0.51100000000E-03 0.  1.
         11   -1    0    0    0    0 -0.00000000000E+00 -0.00000000000E+00 -0.45593999997E+02  0.45594000000E+02  0.51100000000E-03 0. -1.
    9900012    2    1    2    0    0  0.12089177606E+02  0.12955641201E+02 -0.60565603516E+01  0.72461580764E+02  0.70000013638E+02 0.  0.
         12    1    1    2    0    0 -0.12089177606E+02 -0.12955641201E+02  0.60565603516E+01  0.18726419236E+02  0.00000000000E+00 0. -1.
         11    1    3    3    0    0 -0.10724325276E+02  0.53584501444E+01 -0.21523560084E+02  0.24637121981E+02  0.51100000000E-03 0. -1.
        -11    1    3    3    0    0  0.17378491418E+02 -0.83685791680E+01 -0.62971924774E+01  0.20290384782E+02  0.51100000000E-03 0.  1.
         12    1    3    3    0    0  0.54350114634E+01  0.15965770225E+02  0.21764192210E+02  0.27534074000E+02  0.00000000000E+00 0. -1.
</event>
<event>
 7    1  0.2876796E-013  0.7246156E+02  0.7816164E-02  0.1226708E+00
        -11   -1    0    0    0    0  0.00000000000E+00  0.00000000000E+00  0.45593999997E+02  0.45594000000E+02  0.51100000000E-03 0.  1.
         11   -1    0    0    0    0 -0.00000000000E+00 -0.00000000000E+00 -0.45593999997E+02  0.45594000000E+02  0.51100000000E-03 0. -1.
    9900012    2    1    2    0    0  0.12307374814E+02  0.58836038881E+01  0.12829311226E+02  0.72461561576E+02  0.69999988643E+02 0.  0.
         12    1    1    2    0    0 -0.12307374814E+02 -0.58836038881E+01 -0.12829311226E+02  0.18726438424E+02  0.00000000000E+00 0. -1.
         11    1    3    3    0    0  0.30750135740E+02  0.25980994448E+02  0.10051021489E+01  0.40269009810E+02  0.51100000000E-03 0. -1.
        -11    1    3    3    0    0 -0.26403904120E+01  0.96800549915E+00 -0.89062171639E+00  0.29498988926E+01  0.51100000000E-03 0.  1.
        -12    1    3    3    0    0 -0.15802370514E+02 -0.21065396059E+02  0.12714830793E+02  0.29242652873E+02  0.00000000000E+00 0.  1.
</event>
<event>
 7    1  0.2876796E-013  0.7246154E+02  0.7816164E-02  0.1226708E+00
        -11   -1    0    0    0    0  0.00000000000E+00  0.00000000000E+00  0.45593999997E+02  0.45594000000E+02  0.51100000000E-03 0.  1.
         11   -1    0    0    0    0 -0.00000000000E+00 -0.00000000000E+00 -0.45593999997E+02  0.45594000000E+02  0.51100000000E-03 0. -1.
    9900012    2    1    2    0    0  0.77699234948E+01 -0.78169237263E+01 -0.15139493827E+02  0.72461540618E+02  0.69999961340E+02 0.  0.
         12    1    1    2    0    0 -0.77699234948E+01  0.78169237263E+01  0.15139493827E+02  0.18726459382E+02  0.00000000000E+00 0. -1.
         11    1    3    3    0    0  0.18517436502E+02 -0.20443450834E+02 -0.16951335657E+01  0.27635187980E+02  0.51100000000E-03 0. -1.
        -11    1    3    3    0    0  0.48072647532E+01 -0.86137177419E+01  0.64866083964E+01  0.11806016114E+02  0.51100000000E-03 0.  1.
        -12    1    3    3    0    0 -0.15554777761E+02  0.21240244850E+02 -0.19930968658E+02  0.33020336523E+02  0.00000000000E+00 0.  1.
</event>
<event>
 7    1  0.2876796E-013  0.7246151E+02  0.7816164E-02  0.1226708E+00
        -11   -1    0    0    0    0  0.00000000000E+00  0.00000000000E+00  0.45593999997E+02  0.45594000000E+02  0.51100000000E-03 0.  1.
         11   -1    0    0    0    0 -0.00000000000E+00 -0.00000000000E+00 -0.45593999997E+02  0.45594000000E+02  0.51100000000E-03 0. -1.
    9900012    2    1    2    0    0 -0.34499679623E+01 -0.16936693525E+02 -0.72060683180E+01  0.72461513755E+02  0.69999926347E+02 0.  0.
         12    1    1    2    0    0  0.34499679623E+01  0.16936693525E+02  0.72060683180E+01  0.18726486245E+02  0.00000000000E+00 0. -1.
         11    1    3    3    0    0 -0.97859822304E+01 -0.37495622606E+01 -0.48475972264E+01  0.11546595364E+02  0.51100000000E-03 0. -1.
        -11    1    3    3    0    0  0.57229874144E+01 -0.34948942059E+02  0.87425199161E+01  0.36477565581E+02  0.51100000000E-03 0.  1.
         12    1    3    3    0    0  0.61302685373E+00  0.21761810795E+02 -0.11100991008E+02  0.24437352810E+02  0.00000000000E+00 0. -1.
</event>
<event>
 7    1  0.2876796E-013  0.7246155E+02  0.7816164E-02  0.1226708E+00
        -11   -1    0    0    0    0  0.00000000000E+00  0.00000000000E+00  0.45593999997E+02  0.45594000000E+02  0.51100000000E-03 0. -1.
         11   -1    0    0    0    0 -0.00000000000E+00 -0.00000000000E+00 -0.45593999997E+02  0.45594000000E+02  0.51100000000E-03 0.  1.
    9900012    2    1    2    0    0  0.89634890190E+01 -0.23945631745E+01 -0.16266588528E+02  0.72461548908E+02  0.69999972140E+02 0.  0.
         12    1    1    2    0    0 -0.89634890190E+01  0.23945631745E+01  0.16266588528E+02  0.18726451092E+02  0.00000000000E+00 0. -1.
         11    1    3    3    0    0 -0.33034341274E+01 -0.66028157963E+01 -0.11731649931E+02  0.13861510157E+02  0.51100000000E-03 0. -1.
        -11    1    3    3    0    0  0.31023496776E+01  0.17552459949E+02 -0.26118039247E+02  0.31620648288E+02  0.51100000000E-03 0.  1.
         12    1    3    3    0    0  0.91645734688E+01 -0.13344207327E+02  0.21583100651E+02  0.26979390463E+02  0.00000000000E+00 0. -1.
</event>
<event>
 7    1  0.2876796E-013  0.7246157E+02  0.7816164E-02  0.1226708E+00
        -11   -1    0    0    0    0  0.00000000000E+00  0.00000000000E+00  0.45593999997E+02  0.45594000000E+02  0.51100000000E-03 0.  1.
         11   -1    0    0    0    0 -0.00000000000E+00 -0.00000000000E+00 -0.45593999997E+02  0.45594000000E+02  0.51100000000E-03 0. -1.
    9900012    2    1    2    0    0  0.47587651119E+01 -0.40949061873E+00  0.18107060327E+02  0.72461570505E+02  0.70000000274E+02 0.  0.
         12    1    1    2    0    0 -0.47587651119E+01  0.40949061873E+00 -0.18107060327E+02  0.18726429495E+02  0.00000000000E+00 0. -1.
         11    1    3    3    0    0  0.56970738642E+01 -0.20468236629E+01  0.84760153508E+01  0.10415804060E+02  0.51100000000E-03 0. -1.
        -11    1    3    3    0    0 -0.30929622124E+02 -0.24277651600E+01  0.45481347567E+01  0.31356356587E+02  0.51100000000E-03 0.  1.
         12    1    3    3    0    0  0.29991313371E+02  0.40650982041E+01  0.50829102196E+01  0.30689409858E+02  0.00000000000E+00 0. -1.
</event>
<event>
 7    1  0.2876796E-013  0.7246153E+02  0.7816164E-02  0.1226708E+00
        -11   -1    0    0    0    0  0.00000000000E+00  0.00000000000E+00  0.45593999997E+02  0.45594000000E+02  0.51100000000E-03 0.  1.
         11   -1    0    0    0    0 -0.00000000000E+00 -0.00000000000E+00 -0.45593999997E+02  0.45594000000E+02  0.51100000000E-03 0. -1.
    9900012    2    1    2    0    0  0.17463496681E+02  0.59630956487E+01  0.31856926763E+01  0.72461525055E+02  0.69999941067E+02 0.  0.
         12    1    1    2    0    0 -0.17463496681E+02 -0.59630956487E+01 -0.31856926763E+01  0.18726474945E+02  0.00000000000E+00 0. -1.
         11    1    3    3    0    0  0.10541930136E+02 -0.30086066700E+01  0.24576252084E+02  0.26910521583E+02  0.51100000000E-03 0. -1.
        -11    1    3    3    0    0  0.14696863037E+02  0.12657865687E+01  0.60986645509E+01  0.15962258873E+02  0.51100000000E-03 0.  1.
         12    1    3    3    0    0 -0.77752964921E+01  0.77059157500E+01 -0.27489223959E+02  0.29588744599E+02  0.00000000000E+00 0. -1.
</event>
<event>
 7    1  0.2876796E-013  0.7246160E+02  0.7816164E-02  0.1226708E+00
        -11   -1    0    0    0    0  0.00000000000E+00  0.00000000000E+00  0.45593999997E+02  0.45594000000E+02  0.51100000000E-03 0.  1.
         11   -1    0    0    0    0 -0.00000000000E+00 -0.00000000000E+00 -0.45593999997E+02  0.45594000000E+02  0.51100000000E-03 0. -1.
    9900012    2    1    2    0    0  0.86640752318E+01 -0.10607374938E+02  0.12770880821E+02  0.72461601530E+02  0.70000040690E+02 0.  0.
         12    1    1    2    0    0 -0.86640752318E+01  0.10607374938E+02 -0.12770880821E+02  0.18726398470E+02  0.00000000000E+00 0. -1.
         11    1    3    3    0    0 -0.15356874887E+02 -0.29864089070E+00 -0.31390808134E+01  0.15677264471E+02  0.51100000000E-03 0. -1.
        -11    1    3    3    0    0  0.16919099020E+02  0.17203873218E+02 -0.18100099702E+00  0.24130104164E+02  0.51100000000E-03 0.  1.
         12    1    3    3    0    0  0.71018510990E+01 -0.27512607265E+02  0.16090962632E+02  0.32654232895E+02  0.00000000000E+00 0. -1.
</event>
<event>
 7    1  0.2876796E-013  0.7246161E+02  0.7816164E-02  0.1226708E+00
        -11   -1    0    0    0    0  0.00000000000E+00  0.00000000000E+00  0.45593999997E+02  0.45594000000E+02  0.51100000000E-03 0. -1.
         11   -1    0    0    0    0 -0.00000000000E+00 -0.00000000000E+00 -0.45593999997E+02  0.45594000000E+02  0.51100000000E-03 0.  1.
    9900012    2    1    2    0    0 -0.16700343297E+02 -0.45302939200E+01  0.71591064831E+01  0.72461605930E+02  0.70000046422E+02 0.  0.
         12    1    1    2    0    0  0.16700343297E+02  0.45302939200E+01 -0.71591064831E+01  0.18726394070E+02  0.00000000000E+00 0. -1.
         11    1    3    3    0    0 -0.11942740734E+02 -0.19379043318E+02  0.13268344927E+02  0.26348156549E+02  0.51100000000E-03 0. -1.
        -11    1    3    3    0    0 -0.78693195202E+01 -0.96051053593E+00 -0.22059814749E+02  0.23441079268E+02  0.51100000000E-03 0.  1.
         12    1    3    3    0    0  0.31117169576E+01  0.15809259934E+02  0.15950576306E+02  0.22672370114E+02  0.00000000000E+00 0. -1.
</event>
<event>
 7    1  0.2876796E-013  0.7246141E+02  0.7816164E-02  0.1226708E+00
        -11   -1    0    0    0    0  0.00000000000E+00  0.00000000000E+00  0.45593999997E+02  0.45594000000E+02  0.51100000000E-03 0.  1.
         11   -1    0    0    0    0 -0.00000000000E+00 -0.00000000000E+00 -0.45593999997E+02  0.45594000000E+02  0.51100000000E-03 0. -1.
    9900012    2    1    2    0    0  0.12833415720E+02  0.13462510428E+02 -0.21793576627E+01  0.72461405384E+02  0.69999785174E+02 0.  0.
         12    1    1    2    0    0 -0.12833415720E+02 -0.13462510428E+02  0.21793576627E+01  0.18726594616E+02  0.00000000000E+00 0. -1.
         11    1    3    3    0    0  0.16800821851E+00 -0.12422815015E+01 -0.46289325313E+01  0.47956758368E+01  0.51100000000E-03 0. -1.
        -11    1    3    3    0    0  0.28069568723E+02 -0.91619727575E+01  0.18689687859E+02  0.34944911870E+02  0.51100000000E-03 0.  1.
         12    1    3    3    0    0 -0.15404161221E+02  0.23866764687E+02 -0.16240112990E+02  0.32720817677E+02  0.00000000000E+00 0. -1.
</event>
<event>
 7    1  0.2876796E-013  0.7246166E+02  0.7816164E-02  0.1226708E+00
        -11   -1    0    0    0    0  0.00000000000E+00  0.00000000000E+00  0.45593999997E+02  0.45594000000E+02  0.51100000000E-03 0.  1.
         11   -1    0    0    0    0 -0.00000000000E+00 -0.00000000000E+00 -0.45593999997E+02  0.45594000000E+02  0.51100000000E-03 0. -1.
    9900012    2    1    2    0    0  0.61915765446E+01 -0.13307035691E+02  0.11630260180E+02  0.72461661040E+02  0.70000118213E+02 0.  0.
         12    1    1    2    0    0 -0.61915765446E+01  0.13307035691E+02 -0.11630260180E+02  0.18726338960E+02  0.00000000000E+00 0. -1.
         11    1    3    3    0    0 -0.12856542534E+02 -0.26179193206E+02 -0.37416148371E+01  0.29404770441E+02  0.51100000000E-03 0. -1.
        -11    1    3    3    0    0 -0.85595528411E+01  0.42748380349E+00  0.83608814482E+01  0.11973012407E+02  0.51100000000E-03 0.  1.
         12    1    3    3    0    0  0.27607671920E+02  0.12444673711E+02  0.70109935689E+01  0.31083878192E+02  0.00000000000E+00 0. -1.
</event>
<event>
 7    1  0.2876796E-013  0.7246162E+02  0.7816164E-02  0.1226708E+00
        -11   -1    0    0    0    0  0.00000000000E+00  0.00000000000E+00  0.45593999997E+02  0.45594000000E+02  0.51100000000E-03 0.  1.
         11   -1    0    0    0    0 -0.00000000000E+00 -0.00000000000E+00 -0.45593999997E+02  0.45594000000E+02  0.51100000000E-03 0. -1.
    9900012    2    1    2    0    0 -0.17047813873E+01  0.18403483212E+02  0.30137604336E+01  0.72461622190E+02  0.70000067604E+02 0.  0.
         12    1    1    2    0    0  0.17047813873E+01 -0.18403483212E+02 -0.30137604336E+01  0.18726377810E+02  0.00000000000E+00 0. -1.
         11    1    3    3    0    0  0.23007477585E+02  0.15557815461E+02  0.15932604078E+02  0.32019330407E+02  0.51100000000E-03 0. -1.
        -11    1    3    3    0    0 -0.70392669251E+01  0.14891648807E+02 -0.87519068734E+01  0.18652301660E+02  0.51100000000E-03 0.  1.
        -12    1    3    3    0    0 -0.17672992048E+02 -0.12045981056E+02 -0.41669367709E+01  0.21789990123E+02  0.00000000000E+00 0.  1.
</event>
<event>
 7    1  0.2876796E-013  0.7246157E+02  0.7816164E-02  0.1226708E+00
        -11   -1    0    0    0    0  0.00000000000E+00  0.00000000000E+00  0.45593999997E+02  0.45594000000E+02  0.51100000000E-03 0.  1.
         11   -1    0    0    0    0 -0.00000000000E+00 -0.00000000000E+00 -0.45593999997E+02  0.45594000000E+02  0.51100000000E-03 0. -1.
    9900012    2    1    2    0    0 -0.30102748255E+01 -0.16455530438E+02 -0.84162398728E+01  0.72461566006E+02  0.69999994414E+02 0.  0.
         12    1    1    2    0    0  0.30102748255E+01  0.16455530438E+02  0.84162398728E+01  0.18726433994E+02  0.00000000000E+00 0. -1.
         11    1    3    3    0    0 -0.23505516948E+02 -0.13964363189E+02 -0.24711193236E+02  0.36853165911E+02  0.51100000000E-03 0. -1.
        -11    1    3    3    0    0  0.66489076279E+01 -0.17695070061E+01 -0.61486466976E+01  0.92274039774E+01  0.51100000000E-03 0.  1.
        -12    1    3    3    0    0  0.13846334495E+02 -0.72166024317E+00  0.22443600061E+02  0.26380996118E+02  0.00000000000E+00 0.  1.
</event>
<event>
 7    1  0.2876796E-013  0.7246152E+02  0.7816164E-02  0.1226708E+00
        -11   -1    0    0    0    0  0.00000000000E+00  0.00000000000E+00  0.45593999997E+02  0.45594000000E+02  0.51100000000E-03 0.  1.
         11   -1    0    0    0    0 -0.00000000000E+00 -0.00000000000E+00 -0.45593999997E+02  0.45594000000E+02  0.51100000000E-03 0. -1.
    9900012    2    1    2    0    0 -0.17915120603E+02 -0.10230895439E+01  0.53556382138E+01  0.72461518240E+02  0.69999932190E+02 0.  0.
         12    1    1    2    0    0  0.17915120603E+02  0.10230895439E+01 -0.53556382138E+01  0.18726481760E+02  0.00000000000E+00 0. -1.
         11    1    3    3    0    0 -0.10945932671E+02  0.11445078076E+02 -0.28031904696E+02  0.32196132305E+02  0.51100000000E-03 0. -1.
        -11    1    3    3    0    0 -0.47060885879E+01 -0.10028101917E+01 -0.83829629137E-01  0.48124760514E+01  0.51100000000E-03 0.  1.
        -12    1    3    3    0    0 -0.22630993432E+01 -0.11465357429E+02  0.33471372539E+02  0.35452909884E+02  0.00000000000E+00 0.  1.
</event>
<event>
 7    1  0.2876796E-013  0.7246145E+02  0.7816164E-02  0.1226708E+00
        -11   -1    0    0    0    0  0.00000000000E+00  0.00000000000E+00  0.45593999997E+02  0.45594000000E+02  0.51100000000E-03 0.  1.
         11   -1    0    0    0    0 -0.00000000000E+00 -0.00000000000E+00 -0.45593999997E+02  0.45594000000E+02  0.51100000000E-03 0. -1.
    9900012    2    1    2    0    0 -0.16863530080E+02 -0.49986343356E+01  0.64279649942E+01  0.72461448637E+02  0.69999841518E+02 0.  0.
         12    1    1    2    0    0  0.16863530080E+02  0.49986343356E+01 -0.64279649942E+01  0.18726551363E+02  0.00000000000E+00 0. -1.
         11    1    3    3    0    0 -0.10682606625E+02  0.64359353568E+01  0.44450555143E+01  0.13240010083E+02  0.51100000000E-03 0. -1.
        -11    1    3    3    0    0 -0.31234134699E+02 -0.13069907178E+02 -0.14037652127E+01  0.33887522793E+02  0.51100000000E-03 0.  1.
         12    1    3    3    0    0  0.25053211243E+02  0.16353374856E+01  0.33866746927E+01  0.25333915761E+02  0.00000000000E+00 0. -1.
</event>
<event>
 7    1  0.2876796E-013  0.7246162E+02  0.7816164E-02  0.1226708E+00
        -11   -1    0    0    0    0  0.00000000000E+00  0.00000000000E+00  0.45593999997E+02  0.45594000000E+02  0.51100000000E-03 0.  1.
         11   -1    0    0    0    0 -0.00000000000E+00 -0.00000000000E+00 -0.45593999997E+02  0.45594000000E+02  0.51100000000E-03 0. -1.
    9900012    2    1    2    0    0  0.13277461913E+01  0.45815732204E+01  0.18108663154E+02  0.72461617425E+02  0.70000061396E+02 0.  0.
         12    1    1    2    0    0 -0.13277461913E+01 -0.45815732204E+01 -0.18108663154E+02  0.18726382575E+02  0.00000000000E+00 0. -1.
         11    1    3    3    0    0 -0.54543811882E+01  0.14427573459E+02 -0.58226815057E+00  0.15435160722E+02  0.51100000000E-03 0. -1.
        -11    1    3    3    0    0  0.24393007996E+02 -0.21833241630E+01 -0.65103307304E+01  0.25341076338E+02  0.51100000000E-03 0.  1.
        -12    1    3    3    0    0 -0.17610880616E+02 -0.76626760757E+01  0.25201262035E+02  0.31685380365E+02  0.00000000000E+00 0.  1.
</event>
<event>
 7    1  0.2876796E-013  0.7246145E+02  0.7816164E-02  0.1226708E+00
        -11   -1    0    0    0    0  0.00000000000E+00  0.00000000000E+00  0.45593999997E+02  0.45594000000E+02  0.51100000000E-03 0. -1.
         11   -1    0    0    0    0 -0.00000000000E+00 -0.00000000000E+00 -0.45593999997E+02  0.45594000000E+02  0.51100000000E-03 0.  1.
    9900012    2    1    2    0    0 -0.18605139858E+01 -0.18557586752E+02 -0.16846645845E+01  0.72461451116E+02  0.69999844747E+02 0.  0.
         12    1    1    2    0    0  0.18605139858E+01  0.18557586752E+02  0.16846645845E+01  0.18726548884E+02  0.00000000000E+00 0. -1.
         11    1    3    3    0    0  0.33270228743E+00 -0.94983060489E+01 -0.96283179328E+01  0.13528969476E+02  0.51100000000E-03 0. -1.
        -11    1    3    3    0    0 -0.20223675361E+02 -0.21586963131E+02 -0.93078759851E+01  0.31010168944E+02  0.51100000000E-03 0.  1.
         12    1    3    3    0    0  0.18030459087E+02  0.12527682428E+02  0.17251529333E+02  0.27922312695E+02  0.00000000000E+00 0. -1.
</event>
<event>
 7    1  0.2876796E-013  0.7246156E+02  0.7816164E-02  0.1226708E+00
        -11   -1    0    0    0    0  0.00000000000E+00  0.00000000000E+00  0.45593999997E+02  0.45594000000E+02  0.51100000000E-03 0.  1.
         11   -1    0    0    0    0 -0.00000000000E+00 -0.00000000000E+00 -0.45593999997E+02  0.45594000000E+02  0.51100000000E-03 0. -1.
    9900012    2    1    2    0    0  0.27009983333E+01  0.17778957133E+02 -0.52242410174E+01  0.72461564062E+02  0.69999991881E+02 0.  0.
         12    1    1    2    0    0 -0.27009983333E+01 -0.17778957133E+02  0.52242410174E+01  0.18726435938E+02  0.00000000000E+00 0. -1.
         11    1    3    3    0    0  0.18026716195E+02  0.59735576909E+01 -0.24932721626E+02  0.31341450129E+02  0.51100000000E-03 0. -1.
        -11    1    3    3    0    0  0.61169991608E+01 -0.52156060955E+01  0.80105970045E+01  0.11348563359E+02  0.51100000000E-03 0.  1.
        -12    1    3    3    0    0 -0.21442717022E+02  0.17021005538E+02  0.11697883604E+02  0.29771550575E+02  0.00000000000E+00 0.  1.
</event>
<event>
 7    1  0.2876796E-013  0.7246155E+02  0.7816164E-02  0.1226708E+00
        -11   -1    0    0    0    0  0.00000000000E+00  0.00000000000E+00  0.45593999997E+02  0.45594000000E+02  0.51100000000E-03 0. -1.
         11   -1    0    0    0    0 -0.00000000000E+00 -0.00000000000E+00 -0.45593999997E+02  0.45594000000E+02  0.51100000000E-03 0.  1.
    9900012    2    1    2    0    0 -0.10179870537E+02  0.15573033887E+02 -0.21285922633E+01  0.72461546689E+02  0.69999969250E+02 0.  0.
         12    1    1    2    0    0  0.10179870537E+02 -0.15573033887E+02  0.21285922633E+01  0.18726453311E+02  0.00000000000E+00 0. -1.
         11    1    3    3    0    0  0.14947789856E+02 -0.15678226805E+02  0.15737542695E+02  0.26775239825E+02  0.51100000000E-03 0. -1.
        -11    1    3    3    0    0 -0.39654468778E+01  0.11602182226E+02 -0.11392443852E+01  0.12313946540E+02  0.51100000000E-03 0.  1.
        -12    1    3    3    0    0 -0.21162213516E+02  0.19649078465E+02 -0.16726890573E+02  0.33372360325E+02  0.00000000000E+00 0.  1.
</event>
<event>
 7    1  0.2876796E-013  0.7246158E+02  0.7816164E-02  0.1226708E+00
        -11   -1    0    0    0    0  0.00000000000E+00  0.00000000000E+00  0.45593999997E+02  0.45594000000E+02  0.51100000000E-03 0.  1.
         11   -1    0    0    0    0 -0.00000000000E+00 -0.00000000000E+00 -0.45593999997E+02  0.45594000000E+02  0.51100000000E-03 0. -1.
    9900012    2    1    2    0    0 -0.10101746827E+02  0.80592210324E+01 -0.13552951783E+02  0.72461579236E+02  0.70000011648E+02 0.  0.
         12    1    1    2    0    0  0.10101746827E+02 -0.80592210324E+01  0.13552951783E+02  0.18726420764E+02  0.00000000000E+00 0. -1.
         11    1    3    3    0    0 -0.50285241812E+01 -0.25053476659E+02 -0.10793420825E+02  0.27739154304E+02  0.51100000000E-03 0. -1.
        -11    1    3    3    0    0 -0.76945817183E+01 -0.25928096321E+01 -0.36669866122E+01  0.89093232450E+01  0.51100000000E-03 0.  1.
        -12    1    3    3    0    0  0.26213590729E+01  0.35705507324E+02  0.90745565426E+00  0.35813101686E+02  0.00000000000E+00 0.  1.
</event>
<event>
 7    1  0.2876796E-013  0.7246165E+02  0.7816164E-02  0.1226708E+00
        -11   -1    0    0    0    0  0.00000000000E+00  0.00000000000E+00  0.45593999997E+02  0.45594000000E+02  0.51100000000E-03 0.  1.
         11   -1    0    0    0    0 -0.00000000000E+00 -0.00000000000E+00 -0.45593999997E+02  0.45594000000E+02  0.51100000000E-03 0. -1.
    9900012    2    1    2    0    0  0.73845656892E+01  0.52178071745E+01 -0.16398750548E+02  0.72461645799E+02  0.70000098359E+02 0.  0.
         12    1    1    2    0    0 -0.73845656892E+01 -0.52178071745E+01  0.16398750548E+02  0.18726354201E+02  0.00000000000E+00 0. -1.
         11    1    3    3    0    0  0.11758364254E+02  0.35052725984E+01 -0.24396773174E+02  0.27308398113E+02  0.51100000000E-03 0. -1.
        -11    1    3    3    0    0  0.13306685646E+02  0.16635529322E+02  0.38549564243E+01  0.21648773822E+02  0.51100000000E-03 0.  1.
         12    1    3    3    0    0 -0.17680484210E+02 -0.14922994746E+02  0.41430662018E+01  0.23504473865E+02  0.00000000000E+00 0. -1.
</event>
<event>
 7    1  0.2876796E-013  0.7246158E+02  0.7816164E-02  0.1226708E+00
        -11   -1    0    0    0    0  0.00000000000E+00  0.00000000000E+00  0.45593999997E+02  0.45594000000E+02  0.51100000000E-03 0.  1.
         11   -1    0    0    0    0 -0.00000000000E+00 -0.00000000000E+00 -0.45593999997E+02  0.45594000000E+02  0.51100000000E-03 0. -1.
    9900012    2    1    2    0    0 -0.12769085694E+02 -0.83381881967E+01  0.10867567411E+02  0.72461576068E+02  0.70000007521E+02 0.  0.
         12    1    1    2    0    0  0.12769085694E+02  0.83381881967E+01 -0.10867567411E+02  0.18726423932E+02  0.00000000000E+00 0. -1.
         11    1    3    3    0    0  0.86572823749E+01  0.12780764365E+01 -0.50250588268E+01  0.10091245412E+02  0.51100000000E-03 0. -1.
        -11    1    3    3    0    0  0.18125924277E+02 -0.46580014960E+01  0.12194627678E+02  0.22337301836E+02  0.51100000000E-03 0.  1.
        -12    1    3    3    0    0 -0.39552292346E+02 -0.49582631371E+01  0.36979985593E+01  0.40033028820E+02  0.00000000000E+00 0.  1.
</event>
<event>
 7    1  0.2876796E-013  0.7246161E+02  0.7816164E-02  0.1226708E+00
        -11   -1    0    0    0    0  0.00000000000E+00  0.00000000000E+00  0.45593999997E+02  0.45594000000E+02  0.51100000000E-03 0.  1.
         11   -1    0    0    0    0 -0.00000000000E+00 -0.00000000000E+00 -0.45593999997E+02  0.45594000000E+02  0.51100000000E-03 0. -1.
    9900012    2    1    2    0    0 -0.39550890119E+01  0.17858579599E+02 -0.40132566902E+01  0.72461606230E+02  0.70000046812E+02 0.  0.
         12    1    1    2    0    0  0.39550890119E+01 -0.17858579599E+02  0.40132566902E+01  0.18726393770E+02  0.00000000000E+00 0. -1.
         11    1    3    3    0    0  0.57074164014E+01  0.12887483436E+02  0.15342132679E+02  0.20833695464E+02  0.51100000000E-03 0. -1.
        -11    1    3    3    0    0  0.14548430122E+02 -0.11173551181E+02 -0.10839626415E+02  0.21307335969E+02  0.51100000000E-03 0.  1.
         12    1    3    3    0    0 -0.24210935535E+02  0.16144647344E+02 -0.85157629536E+01  0.30320574797E+02  0.00000000000E+00 0. -1.
</event>
<event>
 7    1  0.2876796E-013  0.7246155E+02  0.7816164E-02  0.1226708E+00
        -11   -1    0    0    0    0  0.00000000000E+00  0.00000000000E+00  0.45593999997E+02  0.45594000000E+02  0.51100000000E-03 0. -1.
         11   -1    0    0    0    0 -0.00000000000E+00 -0.00000000000E+00 -0.45593999997E+02  0.45594000000E+02  0.51100000000E-03 0.  1.
    9900012    2    1    2    0    0  0.11402005905E+02  0.13931566592E+01 -0.14789637957E+02  0.72461547719E+02  0.69999970591E+02 0.  0.
         12    1    1    2    0    0 -0.11402005905E+02 -0.13931566592E+01  0.14789637957E+02  0.18726452281E+02  0.00000000000E+00 0. -1.
         11    1    3    3    0    0  0.19745571208E+02 -0.89593068714E+01 -0.28233572585E+02  0.35599036267E+02  0.51100000000E-03 0. -1.
        -11    1    3    3    0    0  0.82226729863E+01  0.77126344058E+01 -0.46442448334E+01  0.12192870493E+02  0.51100000000E-03 0.  1.
         12    1    3    3    0    0 -0.16566238289E+02  0.26398291247E+01  0.18088179461E+02  0.24669640960E+02  0.00000000000E+00 0. -1.
</event>
<event>
 7    1  0.2876796E-013  0.7246155E+02  0.7816164E-02  0.1226708E+00
        -11   -1    0    0    0    0  0.00000000000E+00  0.00000000000E+00  0.45593999997E+02  0.45594000000E+02  0.51100000000E-03 0.  1.
         11   -1    0    0    0    0 -0.00000000000E+00 -0.00000000000E+00 -0.45593999997E+02  0.45594000000E+02  0.51100000000E-03 0. -1.
    9900012    2    1    2    0    0  0.30242571676E+01  0.17648554269E+02 -0.54829071485E+01  0.72461551592E+02  0.69999975636E+02 0.  0.
         12    1    1    2    0    0 -0.30242571676E+01 -0.17648554269E+02  0.54829071485E+01  0.18726448408E+02  0.00000000000E+00 0. -1.
         11    1    3    3    0    0 -0.94777037396E+01 -0.18061178795E+02  0.94466163819E+01  0.22478247462E+02  0.51100000000E-03 0. -1.
        -11    1    3    3    0    0  0.67788560586E+00 -0.14091720774E+01  0.56936905249E+01  0.59045242732E+01  0.51100000000E-03 0.  1.
        -12    1    3    3    0    0  0.11824075301E+02  0.37118905141E+02 -0.20623214055E+02  0.44078779856E+02  0.00000000000E+00 0.  1.
</event>
<event>
 7    1  0.2876796E-013  0.7246159E+02  0.7816164E-02  0.1226708E+00
        -11   -1    0    0    0    0  0.00000000000E+00  0.00000000000E+00  0.45593999997E+02  0.45594000000E+02  0.51100000000E-03 0.  1.
         11   -1    0    0    0    0 -0.00000000000E+00 -0.00000000000E+00 -0.45593999997E+02  0.45594000000E+02  0.51100000000E-03 0. -1.
    9900012    2    1    2    0    0 -0.14835885105E+02 -0.10472820206E+02 -0.45710878917E+01  0.72461593659E+02  0.70000030437E+02 0.  0.
         12    1    1    2    0    0  0.14835885105E+02  0.10472820206E+02  0.45710878917E+01  0.18726406341E+02  0.00000000000E+00 0. -1.
         11    1    3    3    0    0 -0.16310933866E+02  0.15475329897E+02 -0.25291656862E+02  0.33840808295E+02  0.51100000000E-03 0. -1.
        -11    1    3    3    0    0  0.31633064823E+01 -0.39440335332E+01  0.14990630219E+02  0.15820268741E+02  0.51100000000E-03 0.  1.
        -12    1    3    3    0    0 -0.16882577217E+01 -0.22004116570E+02  0.57299387507E+01  0.22800516623E+02  0.00000000000E+00 0.  1.
</event>
<event>
 7    1  0.2876796E-013  0.7246149E+02  0.7816164E-02  0.1226708E+00
        -11   -1    0    0    0    0  0.00000000000E+00  0.00000000000E+00  0.45593999997E+02  0.45594000000E+02  0.51100000000E-03 0.  1.
         11   -1    0    0    0    0 -0.00000000000E+00 -0.00000000000E+00 -0.45593999997E+02  0.45594000000E+02  0.51100000000E-03 0. -1.
    9900012    2    1    2    0    0  0.11230805788E+02 -0.24849627946E+00  0.14982966251E+02  0.72461494006E+02  0.69999900621E+02 0.  0.
         12    1    1    2    0    0 -0.11230805788E+02  0.24849627946E+00 -0.14982966251E+02  0.18726505994E+02  0.00000000000E+00 0. -1.
         11    1    3    3    0    0 -0.31098652768E+01  0.34729324008E+01 -0.92275820309E+01  0.10338316686E+02  0.51100000000E-03 0. -1.
        -11    1    3    3    0    0  0.11814735457E+02  0.23043838144E+02 -0.71877580383E-01  0.25896169928E+02  0.51100000000E-03 0.  1.
        -12    1    3    3    0    0  0.25259356078E+01 -0.26765266824E+02  0.24282425862E+02  0.36227007392E+02  0.00000000000E+00 0.  1.
</event>
<event>
 7    1  0.2876796E-013  0.7246157E+02  0.7816164E-02  0.1226708E+00
        -11   -1    0    0    0    0  0.00000000000E+00  0.00000000000E+00  0.45593999997E+02  0.45594000000E+02  0.51100000000E-03 0. -1.
         11   -1    0    0    0    0 -0.00000000000E+00 -0.00000000000E+00 -0.45593999997E+02  0.45594000000E+02  0.51100000000E-03 0.  1.
    9900012    2    1    2    0    0 -0.37391931731E+01 -0.14010102505E+02 -0.11849668607E+02  0.72461569911E+02  0.69999999500E+02 0.  0.
         12    1    1    2    0    0  0.37391931731E+01  0.14010102505E+02  0.11849668607E+02  0.18726430089E+02  0.00000000000E+00 0. -1.
         11    1    3    3    0    0 -0.40630451445E+01 -0.25592682760E+02 -0.19100890817E+02  0.32192200561E+02  0.51100000000E-03 0. -1.
        -11    1    3    3    0    0  0.16459721979E+02  0.88798134647E+01 -0.55360131231E+01  0.19504383516E+02  0.51100000000E-03 0.  1.
        -12    1    3    3    0    0 -0.16135870007E+02  0.27027667904E+01  0.12787235332E+02  0.20764985834E+02  0.00000000000E+00 0.  1.
</event>
<event>
 7    1  0.2876796E-013  0.7246152E+02  0.7816164E-02  0.1226708E+00
        -11   -1    0    0    0    0  0.00000000000E+00  0.00000000000E+00  0.45593999997E+02  0.45594000000E+02  0.51100000000E-03 0.  1.
         11   -1    0    0    0    0 -0.00000000000E+00 -0.00000000000E+00 -0.45593999997E+02  0.45594000000E+02  0.51100000000E-03 0. -1.
    9900012    2    1    2    0    0  0.10492447299E+02  0.13362799543E+02  0.78756146494E+01  0.72461516933E+02  0.69999930487E+02 0.  0.
         12    1    1    2    0    0 -0.10492447299E+02 -0.13362799543E+02 -0.78756146494E+01  0.18726483067E+02  0.00000000000E+00 0. -1.
         11    1    3    3    0    0 -0.14960401679E+02 -0.69266900057E+01 -0.55202905710E+01  0.17385806311E+02  0.51100000000E-03 0. -1.
        -11    1    3    3    0    0  0.33924815528E+01 -0.79389158225E+01  0.17002292246E+02  0.19068645925E+02  0.51100000000E-03 0.  1.
         12    1    3    3    0    0  0.22060367425E+02  0.28228405371E+02 -0.36063870255E+01  0.36007064697E+02  0.00000000000E+00 0. -1.
</event>
<event>
 7    1  0.2876796E-013  0.7246158E+02  0.7816164E-02  0.1226708E+00
        -11   -1    0    0    0    0  0.00000000000E+00  0.00000000000E+00  0.45593999997E+02  0.45594000000E+02  0.51100000000E-03 0.  1.
         11   -1    0    0    0    0 -0.00000000000E+00 -0.00000000000E+00 -0.45593999997E+02  0.45594000000E+02  0.51100000000E-03 0. -1.
    9900012    2    1    2    0    0  0.64331037158E+01  0.17358313426E+02 -0.28254065800E+01  0.72461580408E+02  0.70000013175E+02 0.  0.
         12    1    1    2    0    0 -0.64331037158E+01 -0.17358313426E+02  0.28254065800E+01  0.18726419592E+02  0.00000000000E+00 0. -1.
         11    1    3    3    0    0  0.18311752043E+01  0.10291284417E+02  0.15779163066E+02  0.18927380297E+02  0.51100000000E-03 0. -1.
        -11    1    3    3    0    0 -0.86281551580E+01 -0.18609372277E+02 -0.30805538726E+01  0.20742314490E+02  0.51100000000E-03 0.  1.
         12    1    3    3    0    0  0.13230083669E+02  0.25676401285E+02 -0.15524015773E+02  0.32791885621E+02  0.00000000000E+00 0. -1.
</event>
<event>
 7    1  0.2876796E-013  0.7246166E+02  0.7816164E-02  0.1226708E+00
        -11   -1    0    0    0    0  0.00000000000E+00  0.00000000000E+00  0.45593999997E+02  0.45594000000E+02  0.51100000000E-03 0.  1.
         11   -1    0    0    0    0 -0.00000000000E+00 -0.00000000000E+00 -0.45593999997E+02  0.45594000000E+02  0.51100000000E-03 0. -1.
    9900012    2    1    2    0    0  0.16487724189E+02  0.47914649516E+01  0.74748047093E+01  0.72461657838E+02  0.70000114042E+02 0.  0.
         12    1    1    2    0    0 -0.16487724189E+02 -0.47914649516E+01 -0.74748047093E+01  0.18726342162E+02  0.00000000000E+00 0. -1.
         11    1    3    3    0    0  0.52574488347E+01  0.21475821689E+02  0.11892528772E+02  0.25105456107E+02  0.51100000000E-03 0. -1.
        -11    1    3    3    0    0  0.71329610842E+01  0.87777752444E+00  0.17532290964E+02  0.18948109508E+02  0.51100000000E-03 0.  1.
         12    1    3    3    0    0  0.40973142703E+01 -0.17562134262E+02 -0.21950015027E+02  0.28408092223E+02  0.00000000000E+00 0. -1.
</event>
<event>
 7    1  0.2876796E-013  0.7246157E+02  0.7816164E-02  0.1226708E+00
        -11   -1    0    0    0    0  0.00000000000E+00  0.00000000000E+00  0.45593999997E+02  0.45594000000E+02  0.51100000000E-03 0.  1.
         11   -1    0    0    0    0 -0.00000000000E+00 -0.00000000000E+00 -0.45593999997E+02  0.45594000000E+02  0.51100000000E-03 0. -1.
    9900012    2    1    2    0    0 -0.10034200792E+02 -0.12271938855E+02  0.99696387318E+01  0.72461565068E+02  0.69999993192E+02 0.  0.
         12    1    1    2    0    0  0.10034200792E+02  0.12271938855E+02 -0.99696387318E+01  0.18726434932E+02  0.00000000000E+00 0. -1.
         11    1    3    3    0    0  0.50695079873E+01 -0.81992971817E+01  0.17883624942E+02  0.20316309380E+02  0.51100000000E-03 0. -1.
        -11    1    3    3    0    0 -0.19316006611E+02  0.74900716751E+00  0.17415807029E+02  0.26018828911E+02  0.51100000000E-03 0.  1.
         12    1    3    3    0    0  0.42122978316E+01 -0.48216488411E+01 -0.25329793240E+02  0.26126426777E+02  0.00000000000E+00 0. -1.
</event>
<event>
 7    1  0.2876796E-013  0.7246157E+02  0.7816164E-02  0.1226708E+00
        -11   -1    0    0    0    0  0.00000000000E+00  0.00000000000E+00  0.45593999997E+02  0.45594000000E+02  0.51100000000E-03 0.  1.
         11   -1    0    0    0    0 -0.00000000000E+00 -0.00000000000E+00 -0.45593999997E+02  0.45594000000E+02  0.51100000000E-03 0. -1.
    9900012    2    1    2    0    0  0.14799193266E+02  0.17921864283E+01  0.11333632001E+02  0.72461567669E+02  0.69999996580E+02 0.  0.
         12    1    1    2    0    0 -0.14799193266E+02 -0.17921864283E+01 -0.11333632001E+02  0.18726432331E+02  0.00000000000E+00 0. -1.
         11    1    3    3    0    0 -0.12458717909E+02 -0.12431433215E+02 -0.59050046204E+01  0.18564193048E+02  0.51100000000E-03 0. -1.
        -11    1    3    3    0    0 -0.59756459464E+01  0.71784602271E+01  0.17598353287E+02  0.19923370056E+02  0.51100000000E-03 0.  1.
         12    1    3    3    0    0  0.33233557121E+02  0.70451594160E+01 -0.35971666515E+00  0.33974004565E+02  0.00000000000E+00 0. -1.
</event>
<event>
 7    1  0.2876796E-013  0.7246158E+02  0.7816164E-02  0.1226708E+00
        -11   -1    0    0    0    0  0.00000000000E+00  0.00000000000E+00  0.45593999997E+02  0.45594000000E+02  0.51100000000E-03 0.  1.
         11   -1    0    0    0    0 -0.00000000000E+00 -0.00000000000E+00 -0.45593999997E+02  0.45594000000E+02  0.51100000000E-03 0. -1.
    9900012    2    1    2    0    0 -0.17889269943E+02 -0.14406748506E+00 -0.55346164383E+01  0.72461582466E+02  0.70000015855E+02 0.  0.
         12    1    1    2    0    0  0.17889269943E+02  0.14406748506E+00  0.55346164383E+01  0.18726417534E+02  0.00000000000E+00 0. -1.
         11    1    3    3    0    0 -0.16190163555E+02  0.22726907171E+02 -0.16425385863E+02  0.32379422578E+02  0.51100000000E-03 0. -1.
        -11    1    3    3    0    0 -0.12554370469E+02 -0.43453538367E+00 -0.72721711359E+00  0.12582920323E+02  0.51100000000E-03 0.  1.
        -12    1    3    3    0    0  0.10855264080E+02 -0.22436439272E+02  0.11617986538E+02  0.27499239565E+02  0.00000000000E+00 0.  1.
</event>
<event>
 7    1  0.2876796E-013  0.7246155E+02  0.7816164E-02  0.1226708E+00
        -11   -1    0    0    0    0  0.00000000000E+00  0.00000000000E+00  0.45593999997E+02  0.45594000000E+02  0.51100000000E-03 0. -1.
         11   -1    0    0    0    0 -0.00000000000E+00 -0.00000000000E+00 -0.45593999997E+02  0.45594000000E+02  0.51100000000E-03 0.  1.
    9900012    2    1    2    0    0  0.46178398373E+01 -0.18066353875E+02 -0.17211595185E+01  0.72461548729E+02  0.69999971908E+02 0.  0.
         12    1    1    2    0    0 -0.46178398373E+01  0.18066353875E+02  0.17211595185E+01  0.18726451271E+02  0.00000000000E+00 0. -1.
         11    1    3    3    0    0  0.41960239864E-01 -0.44914644686E+01 -0.84045731501E+01  0.95295258974E+01  0.51100000000E-03 0.  1.
        -11    1    3    3    0    0  0.47226826318E+01  0.17316501051E+02 -0.16443534626E+02  0.24342447928E+02  0.51100000000E-03 0. -1.
         12    1    3    3    0    0 -0.14680303437E+00 -0.30891390457E+02  0.23126948258E+02  0.38589574904E+02  0.00000000000E+00 0. -1.
</event>
<event>
 7    1  0.2876796E-013  0.7246159E+02  0.7816164E-02  0.1226708E+00
        -11   -1    0    0    0    0  0.00000000000E+00  0.00000000000E+00  0.45593999997E+02  0.45594000000E+02  0.51100000000E-03 0. -1.
         11   -1    0    0    0    0 -0.00000000000E+00 -0.00000000000E+00 -0.45593999997E+02  0.45594000000E+02  0.51100000000E-03 0.  1.
    9900012    2    1    2    0    0  0.27820387911E+01 -0.28901542804E+01 -0.18291681664E+02  0.72461592184E+02  0.70000028516E+02 0.  0.
         12    1    1    2    0    0 -0.27820387911E+01  0.28901542804E+01  0.18291681664E+02  0.18726407816E+02  0.00000000000E+00 0. -1.
         11    1    3    3    0    0 -0.37007062830E+01  0.11731228106E+02  0.11217506249E+02  0.16647804257E+02  0.51100000000E-03 0. -1.
        -11    1    3    3    0    0  0.12078132330E+02  0.11317625934E+02 -0.23266936057E+02  0.28553813250E+02  0.51100000000E-03 0.  1.
        -12    1    3    3    0    0 -0.55953872558E+01 -0.25939008320E+02 -0.62422518562E+01  0.27259974678E+02  0.00000000000E+00 0.  1.
</event>
<event>
 7    1  0.2876796E-013  0.7246154E+02  0.7816164E-02  0.1226708E+00
        -11   -1    0    0    0    0  0.00000000000E+00  0.00000000000E+00  0.45593999997E+02  0.45594000000E+02  0.51100000000E-03 0. -1.
         11   -1    0    0    0    0 -0.00000000000E+00 -0.00000000000E+00 -0.45593999997E+02  0.45594000000E+02  0.51100000000E-03 0.  1.
    9900012    2    1    2    0    0 -0.13088454413E+02  0.12885858233E+02 -0.36506521092E+01  0.72461541654E+02  0.69999962691E+02 0.  0.
         12    1    1    2    0    0  0.13088454413E+02 -0.12885858233E+02  0.36506521092E+01  0.18726458346E+02  0.00000000000E+00 0. -1.
         11    1    3    3    0    0 -0.76918226537E+01  0.48994140441E+01  0.28248765684E+01  0.95471630132E+01  0.51100000000E-03 0. -1.
        -11    1    3    3    0    0 -0.11805918327E+02 -0.24433399537E+02 -0.11527551273E+02  0.29483133468E+02  0.51100000000E-03 0.  1.
         12    1    3    3    0    0  0.64092865675E+01  0.32419843726E+02  0.50520225953E+01  0.33431245173E+02  0.00000000000E+00 0. -1.
</event>
<event>
 7    1  0.2876796E-013  0.7246155E+02  0.7816164E-02  0.1226708E+00
        -11   -1    0    0    0    0  0.00000000000E+00  0.00000000000E+00  0.45593999997E+02  0.45594000000E+02  0.51100000000E-03 0.  1.
         11   -1    0    0    0    0 -0.00000000000E+00 -0.00000000000E+00 -0.45593999997E+02  0.45594000000E+02  0.51100000000E-03 0. -1.
    9900012    2    1    2    0    0  0.56948882084E+01  0.17831400372E+02  0.53796271648E+00  0.72461548259E+02  0.69999971295E+02 0.  0.
         12    1    1    2    0    0 -0.56948882084E+01 -0.17831400372E+02 -0.53796271648E+00  0.18726451741E+02  0.00000000000E+00 0. -1.
         11    1    3    3    0    0 -0.17820806237E+02 -0.57547574328E+01  0.29156719847E+00  0.18729211936E+02  0.51100000000E-03 0. -1.
        -11    1    3    3    0    0 -0.69246352619E+01  0.21767418595E+02 -0.31121098581E+01  0.23053336285E+02  0.51100000000E-03 0.  1.
        -12    1    3    3    0    0  0.30440329707E+02  0.18187392093E+01  0.33585053761E+01  0.30679000038E+02  0.00000000000E+00 0.  1.
</event>
<event>
 7    1  0.2876796E-013  0.7246215E+02  0.7816164E-02  0.1226706E+00
        -11   -1    0    0    0    0  0.00000000000E+00  0.00000000000E+00  0.45593999997E+02  0.45594000000E+02  0.51100000000E-03 0.  1.
         11   -1    0    0    0    0 -0.00000000000E+00 -0.00000000000E+00 -0.45593999997E+02  0.45594000000E+02  0.51100000000E-03 0. -1.
    9900012    2    1    2    0    0  0.86451640915E+01  0.12455167149E+02  0.10990339464E+02  0.72462145883E+02  0.70000749807E+02 0.  0.
         12    1    1    2    0    0 -0.86451640915E+01 -0.12455167149E+02 -0.10990339464E+02  0.18725854117E+02  0.00000000000E+00 0. -1.
         11    1    3    3    0    0  0.49735955507E+01 -0.29953893837E+01  0.19957312927E+02  0.20784690274E+02  0.51100000000E-03 0. -1.
        -11    1    3    3    0    0 -0.12021489591E+02  0.17900918972E+02 -0.22241027540E+02  0.30977772972E+02  0.51100000000E-03 0.  1.
         12    1    3    3    0    0  0.15693058132E+02 -0.24503624392E+01  0.13274054077E+02  0.20699682637E+02  0.00000000000E+00 0. -1.
</event>
<event>
 7    1  0.2876796E-013  0.7246153E+02  0.7816164E-02  0.1226708E+00
        -11   -1    0    0    0    0  0.00000000000E+00  0.00000000000E+00  0.45593999997E+02  0.45594000000E+02  0.51100000000E-03 0.  1.
         11   -1    0    0    0    0 -0.00000000000E+00 -0.00000000000E+00 -0.45593999997E+02  0.45594000000E+02  0.51100000000E-03 0. -1.
    9900012    2    1    2    0    0 -0.40639252563E+01  0.83621719386E+01  0.16255441811E+02  0.72461526854E+02  0.69999943410E+02 0.  0.
         12    1    1    2    0    0  0.40639252563E+01 -0.83621719386E+01 -0.16255441811E+02  0.18726473146E+02  0.00000000000E+00 0. -1.
         11    1    3    3    0    0 -0.59388262784E+01  0.32108511023E+01  0.19537679029E+02  0.20671239065E+02  0.51100000000E-03 0. -1.
        -11    1    3    3    0    0  0.10958745795E+02 -0.10836183519E+02  0.17979105126E+02  0.23680481499E+02  0.51100000000E-03 0.  1.
         12    1    3    3    0    0 -0.90838447731E+01  0.15987504355E+02 -0.21261342344E+02  0.28109806289E+02  0.00000000000E+00 0. -1.
</event>
<event>
 7    1  0.2876796E-013  0.7246190E+02  0.7816164E-02  0.1226707E+00
        -11   -1    0    0    0    0  0.00000000000E+00  0.00000000000E+00  0.45593999997E+02  0.45594000000E+02  0.51100000000E-03 0.  1.
         11   -1    0    0    0    0 -0.00000000000E+00 -0.00000000000E+00 -0.45593999997E+02  0.45594000000E+02  0.51100000000E-03 0. -1.
    9900012    2    1    2    0    0  0.11471492030E+02 -0.10295721349E+02  0.10633427061E+02  0.72461901140E+02  0.70000430986E+02 0.  0.
         12    1    1    2    0    0 -0.11471492030E+02  0.10295721349E+02 -0.10633427061E+02  0.18726098860E+02  0.00000000000E+00 0. -1.
         11    1    3    3    0    0  0.12943358191E+02  0.20255794476E+02  0.21526562804E+02  0.32267950625E+02  0.51100000000E-03 0. -1.
        -11    1    3    3    0    0 -0.22143321622E+01  0.13981871267E+00  0.51115290863E+01  0.55723016841E+01  0.51100000000E-03 0.  1.
        -12    1    3    3    0    0  0.74246600103E+00 -0.30691334537E+02 -0.16004664830E+02  0.34621648831E+02  0.00000000000E+00 0.  1.
</event>
<event>
 7    1  0.2876796E-013  0.7246136E+02  0.7816164E-02  0.1226709E+00
        -11   -1    0    0    0    0  0.00000000000E+00  0.00000000000E+00  0.45593999997E+02  0.45594000000E+02  0.51100000000E-03 0.  1.
         11   -1    0    0    0    0 -0.00000000000E+00 -0.00000000000E+00 -0.45593999997E+02  0.45594000000E+02  0.51100000000E-03 0. -1.
    9900012    2    1    2    0    0  0.70839783526E+01  0.43561028836E+01  0.16778810871E+02  0.72461364534E+02  0.69999731958E+02 0.  0.
         12    1    1    2    0    0 -0.70839783526E+01 -0.43561028836E+01 -0.16778810871E+02  0.18726635466E+02  0.00000000000E+00 0. -1.
         11    1    3    3    0    0 -0.15044350821E+02  0.81782853826E+01  0.35364148157E+00  0.17127227037E+02  0.51100000000E-03 0. -1.
        -11    1    3    3    0    0  0.12062813957E+02 -0.27982129884E+01  0.33372845284E+02  0.35596183490E+02  0.51100000000E-03 0.  1.
         12    1    3    3    0    0  0.10065515217E+02 -0.10239695106E+01 -0.16947675894E+02  0.19737954006E+02  0.00000000000E+00 0. -1.
</event>
<event>
 7    1  0.2876796E-013  0.7246156E+02  0.7816164E-02  0.1226708E+00
        -11   -1    0    0    0    0  0.00000000000E+00  0.00000000000E+00  0.45593999997E+02  0.45594000000E+02  0.51100000000E-03 0.  1.
         11   -1    0    0    0    0 -0.00000000000E+00 -0.00000000000E+00 -0.45593999997E+02  0.45594000000E+02  0.51100000000E-03 0. -1.
    9900012    2    1    2    0    0 -0.48011039624E+01 -0.38896392807E+01  0.17677657339E+02  0.72461562486E+02  0.69999989828E+02 0.  0.
         12    1    1    2    0    0  0.48011039624E+01  0.38896392807E+01 -0.17677657339E+02  0.18726437514E+02  0.00000000000E+00 0. -1.
         11    1    3    3    0    0  0.85347275713E+00  0.49155369071E+01  0.12746056291E+02  0.13687690458E+02  0.51100000000E-03 0. -1.
        -11    1    3    3    0    0 -0.17707129264E+02  0.16385885645E+02  0.15765670216E+02  0.28820063025E+02  0.51100000000E-03 0.  1.
         12    1    3    3    0    0  0.12052552544E+02 -0.25191061833E+02 -0.10834069168E+02  0.29953809004E+02  0.00000000000E+00 0. -1.
</event>
<event>
 7    1  0.2876796E-013  0.7246174E+02  0.7816164E-02  0.1226708E+00
        -11   -1    0    0    0    0  0.00000000000E+00  0.00000000000E+00  0.45593999997E+02  0.45594000000E+02  0.51100000000E-03 0.  1.
         11   -1    0    0    0    0 -0.00000000000E+00 -0.00000000000E+00 -0.45593999997E+02  0.45594000000E+02  0.51100000000E-03 0. -1.
    9900012    2    1    2    0    0 -0.11466443618E+02 -0.64938487017E+01  0.13305010174E+02  0.72461743142E+02  0.70000225165E+02 0.  0.
         12    1    1    2    0    0  0.11466443618E+02  0.64938487017E+01 -0.13305010174E+02  0.18726256858E+02  0.00000000000E+00 0. -1.
         11    1    3    3    0    0  0.28474362173E+01  0.20956292904E+02 -0.17259981856E+01  0.21219169995E+02  0.51100000000E-03 0. -1.
        -11    1    3    3    0    0 -0.48239251039E+01  0.78114985381E+01  0.11265266467E+02  0.14532583791E+02  0.51100000000E-03 0.  1.
         12    1    3    3    0    0 -0.94899547314E+01 -0.35261640144E+02  0.37657418922E+01  0.36709989355E+02  0.00000000000E+00 0. -1.
</event>
<event>
 7    1  0.2876796E-013  0.7246160E+02  0.7816164E-02  0.1226708E+00
        -11   -1    0    0    0    0  0.00000000000E+00  0.00000000000E+00  0.45593999997E+02  0.45594000000E+02  0.51100000000E-03 0.  1.
         11   -1    0    0    0    0 -0.00000000000E+00 -0.00000000000E+00 -0.45593999997E+02  0.45594000000E+02  0.51100000000E-03 0. -1.
    9900012    2    1    2    0    0 -0.88105151160E+01  0.16093132580E+02 -0.37502121758E+01  0.72461596603E+02  0.70000034271E+02 0.  0.
         12    1    1    2    0    0  0.88105151160E+01 -0.16093132580E+02  0.37502121758E+01  0.18726403397E+02  0.00000000000E+00 0. -1.
         11    1    3    3    0    0 -0.15774863767E+02 -0.62897340045E+01 -0.26073845551E+02  0.31116755982E+02  0.51100000000E-03 0. -1.
        -11    1    3    3    0    0 -0.84850884937E+01  0.15681003858E+02  0.13263992063E+02  0.22222153236E+02  0.51100000000E-03 0.  1.
        -12    1    3    3    0    0  0.15449437145E+02  0.67018627259E+01  0.90596413124E+01  0.19122687384E+02  0.00000000000E+00 0.  1.
</event>
<event>
 7    1  0.2876796E-013  0.7246159E+02  0.7816164E-02  0.1226708E+00
        -11   -1    0    0    0    0  0.00000000000E+00  0.00000000000E+00  0.45593999997E+02  0.45594000000E+02  0.51100000000E-03 0. -1.
         11   -1    0    0    0    0 -0.00000000000E+00 -0.00000000000E+00 -0.45593999997E+02  0.45594000000E+02  0.51100000000E-03 0.  1.
    9900012    2    1    2    0    0  0.13467325510E+02 -0.65751847944E+01 -0.11228384488E+02  0.72461587378E+02  0.70000022255E+02 0.  0.
         12    1    1    2    0    0 -0.13467325510E+02  0.65751847944E+01  0.11228384488E+02  0.18726412622E+02  0.00000000000E+00 0. -1.
         11    1    3    3    0    0  0.17614949240E+02  0.93984868685E+01  0.16641348945E+02  0.25991392558E+02  0.51100000000E-03 0. -1.
        -11    1    3    3    0    0 -0.32863027706E-01  0.60897503000E+01  0.41488886282E+01  0.73688137312E+01  0.51100000000E-03 0.  1.
        -12    1    3    3    0    0 -0.41147607022E+01 -0.22063421963E+02 -0.32018622061E+02  0.39101381089E+02  0.00000000000E+00 0.  1.
</event>
<event>
 7    1  0.2876796E-013  0.7246160E+02  0.7816164E-02  0.1226708E+00
        -11   -1    0    0    0    0  0.00000000000E+00  0.00000000000E+00  0.45593999997E+02  0.45594000000E+02  0.51100000000E-03 0.  1.
         11   -1    0    0    0    0 -0.00000000000E+00 -0.00000000000E+00 -0.45593999997E+02  0.45594000000E+02  0.51100000000E-03 0. -1.
    9900012    2    1    2    0    0 -0.58303737623E+01  0.88738955972E+01  0.15425267894E+02  0.72461596958E+02  0.70000034735E+02 0.  0.
         12    1    1    2    0    0  0.58303737623E+01 -0.88738955972E+01 -0.15425267894E+02  0.18726403042E+02  0.00000000000E+00 0. -1.
         11    1    3    3    0    0 -0.32223038735E+02  0.13532327282E+02 -0.25157952359E+01  0.35039653721E+02  0.51100000000E-03 0. -1.
        -11    1    3    3    0    0  0.33852033065E+01  0.14864370244E+01  0.12444262586E+02  0.12981863042E+02  0.51100000000E-03 0.  1.
        -12    1    3    3    0    0  0.23007461666E+02 -0.61448687091E+01  0.54968005438E+01  0.24440080196E+02  0.00000000000E+00 0.  1.
</event>
<event>
 7    1  0.2876796E-013  0.7246156E+02  0.7816164E-02  0.1226708E+00
        -11   -1    0    0    0    0  0.00000000000E+00  0.00000000000E+00  0.45593999997E+02  0.45594000000E+02  0.51100000000E-03 0.  1.
         11   -1    0    0    0    0 -0.00000000000E+00 -0.00000000000E+00 -0.45593999997E+02  0.45594000000E+02  0.51100000000E-03 0. -1.
    9900012    2    1    2    0    0 -0.11171448858E+02  0.76294228873E+01 -0.12948758527E+02  0.72461555848E+02  0.69999981181E+02 0.  0.
         12    1    1    2    0    0  0.11171448858E+02 -0.76294228873E+01  0.12948758527E+02  0.18726444152E+02  0.00000000000E+00 0. -1.
         11    1    3    3    0    0 -0.85556510992E+01 -0.33382206941E+01 -0.25339187416E+02  0.26952129829E+02  0.51100000000E-03 0. -1.
        -11    1    3    3    0    0 -0.40541696204E+00 -0.14104633543E+02 -0.49403156812E+01  0.14950310017E+02  0.51100000000E-03 0.  1.
        -12    1    3    3    0    0 -0.22103807973E+01  0.25072277125E+02  0.17330744571E+02  0.30559116002E+02  0.00000000000E+00 0.  1.
</event>
<event>
 7    1  0.2876796E-013  0.7246154E+02  0.7816164E-02  0.1226708E+00
        -11   -1    0    0    0    0  0.00000000000E+00  0.00000000000E+00  0.45593999997E+02  0.45594000000E+02  0.51100000000E-03 0. -1.
         11   -1    0    0    0    0 -0.00000000000E+00 -0.00000000000E+00 -0.45593999997E+02  0.45594000000E+02  0.51100000000E-03 0.  1.
    9900012    2    1    2    0    0 -0.61589421110E+01 -0.13749616709E+02 -0.11121857207E+02  0.72461541838E+02  0.69999962930E+02 0.  0.
         12    1    1    2    0    0  0.61589421110E+01  0.13749616709E+02  0.11121857207E+02  0.18726458162E+02  0.00000000000E+00 0. -1.
         11    1    3    3    0    0 -0.89552706354E+01 -0.72227028786E+01 -0.17155761239E+02  0.20656341713E+02  0.51100000000E-03 0. -1.
        -11    1    3    3    0    0  0.20250199660E+02  0.20720559868E+01 -0.13347841714E+02  0.24341916132E+02  0.51100000000E-03 0.  1.
         12    1    3    3    0    0 -0.17453871135E+02 -0.85989698170E+01  0.19381745746E+02  0.27463283993E+02  0.00000000000E+00 0. -1.
</event>
<event>
 7    1  0.2876796E-013  0.7246157E+02  0.7816164E-02  0.1226708E+00
        -11   -1    0    0    0    0  0.00000000000E+00  0.00000000000E+00  0.45593999997E+02  0.45594000000E+02  0.51100000000E-03 0.  1.
         11   -1    0    0    0    0 -0.00000000000E+00 -0.00000000000E+00 -0.45593999997E+02  0.45594000000E+02  0.51100000000E-03 0. -1.
    9900012    2    1    2    0    0 -0.11803980727E+02 -0.94719337881E+00  0.14506828947E+02  0.72461568882E+02  0.69999998161E+02 0.  0.
         12    1    1    2    0    0  0.11803980727E+02  0.94719337881E+00 -0.14506828947E+02  0.18726431118E+02  0.00000000000E+00 0. -1.
         11    1    3    3    0    0 -0.15097048410E+02 -0.97049998353E+01 -0.95439629880E+01  0.20327201536E+02  0.51100000000E-03 0. -1.
        -11    1    3    3    0    0  0.95567727754E+01 -0.17102452755E+02  0.89383513779E+01  0.21534157093E+02  0.51100000000E-03 0.  1.
         12    1    3    3    0    0 -0.62637050928E+01  0.25860259211E+02  0.15112440557E+02  0.30600210253E+02  0.00000000000E+00 0. -1.
</event>
<event>
 7    1  0.2876796E-013  0.7246161E+02  0.7816164E-02  0.1226708E+00
        -11   -1    0    0    0    0  0.00000000000E+00  0.00000000000E+00  0.45593999997E+02  0.45594000000E+02  0.51100000000E-03 0.  1.
         11   -1    0    0    0    0 -0.00000000000E+00 -0.00000000000E+00 -0.45593999997E+02  0.45594000000E+02  0.51100000000E-03 0. -1.
    9900012    2    1    2    0    0 -0.17578652507E+02  0.60119417794E+01  0.23505548187E+01  0.72461612845E+02  0.70000055430E+02 0.  0.
         12    1    1    2    0    0  0.17578652507E+02 -0.60119417794E+01 -0.23505548187E+01  0.18726387155E+02  0.00000000000E+00 0. -1.
         11    1    3    3    0    0 -0.16567841566E+02  0.21538510758E+02 -0.12478889872E+02  0.29901898142E+02  0.51100000000E-03 0. -1.
        -11    1    3    3    0    0 -0.22012835629E+01  0.11575538719E+02  0.30269954034E+00  0.11786872920E+02  0.51100000000E-03 0.  1.
        -12    1    3    3    0    0  0.11904726215E+01 -0.27102107697E+02  0.14526745150E+02  0.30772841783E+02  0.00000000000E+00 0.  1.
</event>
<event>
 7    1  0.2876796E-013  0.7246168E+02  0.7816164E-02  0.1226708E+00
        -11   -1    0    0    0    0  0.00000000000E+00  0.00000000000E+00  0.45593999997E+02  0.45594000000E+02  0.51100000000E-03 0.  1.
         11   -1    0    0    0    0 -0.00000000000E+00 -0.00000000000E+00 -0.45593999997E+02  0.45594000000E+02  0.51100000000E-03 0. -1.
    9900012    2    1    2    0    0  0.14992518373E+02 -0.10420161656E+02  0.41616944755E+01  0.72461679566E+02  0.70000142346E+02 0.  0.
         12    1    1    2    0    0 -0.14992518373E+02  0.10420161656E+02 -0.41616944755E+01  0.18726320434E+02  0.00000000000E+00 0. -1.
         11    1    3    3    0    0 -0.20475289276E+02  0.49778166884E+01 -0.38923320332E+01  0.21428167884E+02  0.51100000000E-03 0. -1.
        -11    1    3    3    0    0  0.11757780533E+02 -0.18159652444E+02  0.14819665274E+02  0.26222907143E+02  0.51100000000E-03 0.  1.
        -12    1    3    3    0    0  0.23710027116E+02  0.27616740998E+01 -0.67656387651E+01  0.24810604539E+02  0.00000000000E+00 0.  1.
</event>
<event>
 7    1  0.2876796E-013  0.7246186E+02  0.7816164E-02  0.1226707E+00
        -11   -1    0    0    0    0  0.00000000000E+00  0.00000000000E+00  0.45593999997E+02  0.45594000000E+02  0.51100000000E-03 0. -1.
         11   -1    0    0    0    0 -0.00000000000E+00 -0.00000000000E+00 -0.45593999997E+02  0.45594000000E+02  0.51100000000E-03 0.  1.
    9900012    2    1    2    0    0  0.93642861733E+01 -0.52447943772E+01 -0.15345046818E+02  0.72461863574E+02  0.70000382050E+02 0.  0.
         12    1    1    2    0    0 -0.93642861733E+01  0.52447943772E+01  0.15345046818E+02  0.18726136426E+02  0.00000000000E+00 0. -1.
         11    1    3    3    0    0  0.61381151516E+01 -0.10939204340E+02 -0.59060888027E+01  0.13864506281E+02  0.51100000000E-03 0. -1.
        -11    1    3    3    0    0  0.99012964575E+01 -0.12600948450E+02 -0.27634393066E+02  0.31944940973E+02  0.51100000000E-03 0.  1.
         12    1    3    3    0    0 -0.66751254358E+01  0.18295358413E+02  0.18195435051E+02  0.26652416321E+02  0.00000000000E+00 0. -1.
</event>
<event>
 7    1  0.2876796E-013  0.7246159E+02  0.7816164E-02  0.1226708E+00
        -11   -1    0    0    0    0  0.00000000000E+00  0.00000000000E+00  0.45593999997E+02  0.45594000000E+02  0.51100000000E-03 0.  1.
         11   -1    0    0    0    0 -0.00000000000E+00 -0.00000000000E+00 -0.45593999997E+02  0.45594000000E+02  0.51100000000E-03 0. -1.
    9900012    2    1    2    0    0 -0.42921083271E+01 -0.14290664080E+02  0.11315175069E+02  0.72461589223E+02  0.70000024658E+02 0.  0.
         12    1    1    2    0    0  0.42921083271E+01  0.14290664080E+02 -0.11315175069E+02  0.18726410777E+02  0.00000000000E+00 0. -1.
         11    1    3    3    0    0 -0.59668332329E+01  0.16333826631E+02  0.21738415187E+02  0.27838025906E+02  0.51100000000E-03 0. -1.
        -11    1    3    3    0    0 -0.77740652607E+01  0.11451729790E+01  0.35884985041E+01  0.86385666406E+01  0.51100000000E-03 0.  1.
        -12    1    3    3    0    0  0.94487901665E+01 -0.31769663690E+02 -0.14011738622E+02  0.35984996676E+02  0.00000000000E+00 0.  1.
</event>
<event>
 7    1  0.2876796E-013  0.7246222E+02  0.7816164E-02  0.1226706E+00
        -11   -1    0    0    0    0  0.00000000000E+00  0.00000000000E+00  0.45593999997E+02  0.45594000000E+02  0.51100000000E-03 0.  1.
         11   -1    0    0    0    0 -0.00000000000E+00 -0.00000000000E+00 -0.45593999997E+02  0.45594000000E+02  0.51100000000E-03 0. -1.
    9900012    2    1    2    0    0  0.75969285458E+00  0.17183118948E+02  0.74039214013E+01  0.72462221989E+02  0.70000848948E+02 0.  0.
         12    1    1    2    0    0 -0.75969285458E+00 -0.17183118948E+02 -0.74039214013E+01  0.18725778011E+02  0.00000000000E+00 0. -1.
         11    1    3    3    0    0  0.74569162130E+01  0.79432395177E+01 -0.76542218833E+01  0.13314945225E+02  0.51100000000E-03 0. -1.
        -11    1    3    3    0    0  0.53140459782E+01  0.29810403912E+02 -0.12052800384E+01  0.30304322568E+02  0.51100000000E-03 0.  1.
        -12    1    3    3    0    0 -0.12011269337E+02 -0.20570524482E+02  0.16263423323E+02  0.28842954196E+02  0.00000000000E+00 0.  1.
</event>
<event>
 7    1  0.2876796E-013  0.7246157E+02  0.7816164E-02  0.1226708E+00
        -11   -1    0    0    0    0  0.00000000000E+00  0.00000000000E+00  0.45593999997E+02  0.45594000000E+02  0.51100000000E-03 0.  1.
         11   -1    0    0    0    0 -0.00000000000E+00 -0.00000000000E+00 -0.45593999997E+02  0.45594000000E+02  0.51100000000E-03 0. -1.
    9900012    2    1    2    0    0 -0.89170283395E+01 -0.50912055222E+01  0.15660311917E+02  0.72461571152E+02  0.70000001117E+02 0.  0.
         12    1    1    2    0    0  0.89170283395E+01  0.50912055222E+01 -0.15660311917E+02  0.18726428848E+02  0.00000000000E+00 0. -1.
         11    1    3    3    0    0 -0.65043172409E+01 -0.59014315388E+01  0.21415122001E+02  0.23146068512E+02  0.51100000000E-03 0.  1.
        -11    1    3    3    0    0 -0.26163052988E+01 -0.28935416300E+01 -0.27237241456E+02  0.27515176885E+02  0.51100000000E-03 0. -1.
         12    1    3    3    0    0  0.20359420028E+00  0.37037676465E+01  0.21482431372E+02  0.21800325755E+02  0.00000000000E+00 0. -1.
</event>
<event>
 7    1  0.2876796E-013  0.7246151E+02  0.7816164E-02  0.1226708E+00
        -11   -1    0    0    0    0  0.00000000000E+00  0.00000000000E+00  0.45593999997E+02  0.45594000000E+02  0.51100000000E-03 0. -1.
         11   -1    0    0    0    0 -0.00000000000E+00 -0.00000000000E+00 -0.45593999997E+02  0.45594000000E+02  0.51100000000E-03 0.  1.
    9900012    2    1    2    0    0 -0.38959340905E+01  0.17667305289E+02 -0.48342010303E+01  0.72461508652E+02  0.69999919699E+02 0.  0.
         12    1    1    2    0    0  0.38959340905E+01 -0.17667305289E+02  0.48342010303E+01  0.18726491348E+02  0.00000000000E+00 0. -1.
         11    1    3    3    0    0  0.19394755051E+01  0.13591395620E+02 -0.32849255825E+01  0.14116597907E+02  0.51100000000E-03 0. -1.
        -11    1    3    3    0    0 -0.12235948242E+02  0.94711935891E+01 -0.27238247771E+02  0.31326411849E+02  0.51100000000E-03 0.  1.
         12    1    3    3    0    0  0.64005386463E+01 -0.53952839202E+01  0.25688972324E+02  0.27018498896E+02  0.00000000000E+00 0. -1.
</event>
<event>
 7    1  0.2876796E-013  0.7246158E+02  0.7816164E-02  0.1226708E+00
        -11   -1    0    0    0    0  0.00000000000E+00  0.00000000000E+00  0.45593999997E+02  0.45594000000E+02  0.51100000000E-03 0. -1.
         11   -1    0    0    0    0 -0.00000000000E+00 -0.00000000000E+00 -0.45593999997E+02  0.45594000000E+02  0.51100000000E-03 0.  1.
    9900012    2    1    2    0    0 -0.54478567548E+01  0.13083977669E+02 -0.12239654710E+02  0.72461581167E+02  0.70000014164E+02 0.  0.
         12    1    1    2    0    0  0.54478567548E+01 -0.13083977669E+02  0.12239654710E+02  0.18726418833E+02  0.00000000000E+00 0. -1.
         11    1    3    3    0    0  0.65776364119E+01  0.39291340589E+01 -0.28791302082E+02  0.29793329305E+02  0.51100000000E-03 0. -1.
        -11    1    3    3    0    0  0.83307165375E+01 -0.86557948693E+01  0.74208699802E+01  0.14120656301E+02  0.51100000000E-03 0.  1.
         12    1    3    3    0    0 -0.20356209704E+02  0.17810638480E+02  0.91307773916E+01  0.28547595562E+02  0.00000000000E+00 0. -1.
</event>
<event>
 7    1  0.2876796E-013  0.7246158E+02  0.7816164E-02  0.1226708E+00
        -11   -1    0    0    0    0  0.00000000000E+00  0.00000000000E+00  0.45593999997E+02  0.45594000000E+02  0.51100000000E-03 0.  1.
         11   -1    0    0    0    0 -0.00000000000E+00 -0.00000000000E+00 -0.45593999997E+02  0.45594000000E+02  0.51100000000E-03 0. -1.
    9900012    2    1    2    0    0 -0.45273751793E+00 -0.18634083859E+02 -0.18013581405E+01  0.72461576325E+02  0.70000007856E+02 0.  0.
         12    1    1    2    0    0  0.45273751793E+00  0.18634083859E+02  0.18013581405E+01  0.18726423675E+02  0.00000000000E+00 0. -1.
         11    1    3    3    0    0 -0.72553450616E+01 -0.31696350483E+01 -0.25349549975E+01  0.83133997500E+01  0.51100000000E-03 0. -1.
        -11    1    3    3    0    0  0.16680012797E+02  0.16833401683E+02 -0.13751349175E+02  0.27398646746E+02  0.51100000000E-03 0.  1.
         12    1    3    3    0    0 -0.98774052536E+01 -0.32297850494E+02  0.14484946032E+02  0.36749529828E+02  0.00000000000E+00 0. -1.
</event>
<event>
 7    1  0.2876796E-013  0.7246135E+02  0.7816164E-02  0.1226709E+00
        -11   -1    0    0    0    0  0.00000000000E+00  0.00000000000E+00  0.45593999997E+02  0.45594000000E+02  0.51100000000E-03 0. -1.
         11   -1    0    0    0    0 -0.00000000000E+00 -0.00000000000E+00 -0.45593999997E+02  0.45594000000E+02  0.51100000000E-03 0.  1.
    9900012    2    1    2    0    0 -0.17641935159E+01 -0.99079045751E+01 -0.15792675779E+02  0.72461346266E+02  0.69999708160E+02 0.  0.
         12    1    1    2    0    0  0.17641935159E+01  0.99079045751E+01  0.15792675779E+02  0.18726653734E+02  0.00000000000E+00 0. -1.
         11    1    3    3    0    0  0.94925981348E+01 -0.31332576398E+02  0.74060901863E+01  0.33566202275E+02  0.51100000000E-03 0. -1.
        -11    1    3    3    0    0  0.61621781621E-01 -0.20891528115E+01 -0.88925437178E+01  0.91348612878E+01  0.51100000000E-03 0.  1.
        -12    1    3    3    0    0 -0.11318413432E+02  0.23513824634E+02 -0.14306222248E+02  0.29760282703E+02  0.00000000000E+00 0.  1.
</event>
<event>
 7    1  0.2876796E-013  0.7246157E+02  0.7816164E-02  0.1226708E+00
        -11   -1    0    0    0    0  0.00000000000E+00  0.00000000000E+00  0.45593999997E+02  0.45594000000E+02  0.51100000000E-03 0. -1.
         11   -1    0    0    0    0 -0.00000000000E+00 -0.00000000000E+00 -0.45593999997E+02  0.45594000000E+02  0.51100000000E-03 0.  1.
    9900012    2    1    2    0    0 -0.11339277789E+02  0.74056113097E+01 -0.12932782070E+02  0.72461570770E+02  0.70000000619E+02 0.  0.
         12    1    1    2    0    0  0.11339277789E+02 -0.74056113097E+01  0.12932782070E+02  0.18726429230E+02  0.00000000000E+00 0. -1.
         11    1    3    3    0    0 -0.30682605951E+02 -0.62076818925E+00 -0.15101887551E+02  0.34203430661E+02  0.51100000000E-03 0. -1.
        -11    1    3    3    0    0  0.29816666947E+00 -0.10927964054E+02 -0.18562624356E+01  0.11088508115E+02  0.51100000000E-03 0.  1.
        -12    1    3    3    0    0  0.19045161493E+02  0.18954343553E+02  0.40253679163E+01  0.27169631994E+02  0.00000000000E+00 0.  1.
</event>
<event>
 7    1  0.2876796E-013  0.7246166E+02  0.7816164E-02  0.1226708E+00
        -11   -1    0    0    0    0  0.00000000000E+00  0.00000000000E+00  0.45593999997E+02  0.45594000000E+02  0.51100000000E-03 0.  1.
         11   -1    0    0    0    0 -0.00000000000E+00 -0.00000000000E+00 -0.45593999997E+02  0.45594000000E+02  0.51100000000E-03 0. -1.
    9900012    2    1    2    0    0  0.85801830971E+01 -0.23996784975E+01  0.16471116633E+02  0.72461663412E+02  0.70000121303E+02 0.  0.
         12    1    1    2    0    0 -0.85801830971E+01  0.23996784975E+01 -0.16471116633E+02  0.18726336588E+02  0.00000000000E+00 0. -1.
         11    1    3    3    0    0 -0.85717324210E+01 -0.22082108637E+01 -0.14319078327E+02  0.16834096243E+02  0.51100000000E-03 0. -1.
        -11    1    3    3    0    0  0.58817034165E+01 -0.17333608967E+02 -0.38435073891E+00  0.18308363134E+02  0.51100000000E-03 0.  1.
        -12    1    3    3    0    0  0.11270212102E+02  0.17142141333E+02  0.31174545699E+02  0.37319204035E+02  0.00000000000E+00 0.  1.
</event>
<event>
 7    1  0.2876796E-013  0.7246159E+02  0.7816164E-02  0.1226708E+00
        -11   -1    0    0    0    0  0.00000000000E+00  0.00000000000E+00  0.45593999997E+02  0.45594000000E+02  0.51100000000E-03 0. -1.
         11   -1    0    0    0    0 -0.00000000000E+00 -0.00000000000E+00 -0.45593999997E+02  0.45594000000E+02  0.51100000000E-03 0.  1.
    9900012    2    1    2    0    0  0.15878407337E+02  0.68757224319E+01 -0.71609465601E+01  0.72461587258E+02  0.70000022099E+02 0.  0.
         12    1    1    2    0    0 -0.15878407337E+02 -0.68757224319E+01  0.71609465601E+01  0.18726412742E+02  0.00000000000E+00 0. -1.
         11    1    3    3    0    0  0.11704637706E+02  0.13608190264E+02 -0.27512368333E+02  0.32849837102E+02  0.51100000000E-03 0. -1.
        -11    1    3    3    0    0  0.59524761008E+01 -0.14839643282E+01 -0.83605812778E+01  0.10369833240E+02  0.51100000000E-03 0.  1.
         12    1    3    3    0    0 -0.17787064690E+01 -0.52485035037E+01  0.28712003051E+02  0.29241916916E+02  0.00000000000E+00 0. -1.
</event>
<event>
 7    1  0.2876796E-013  0.7246160E+02  0.7816164E-02  0.1226708E+00
        -11   -1    0    0    0    0  0.00000000000E+00  0.00000000000E+00  0.45593999997E+02  0.45594000000E+02  0.51100000000E-03 0.  1.
         11   -1    0    0    0    0 -0.00000000000E+00 -0.00000000000E+00 -0.45593999997E+02  0.45594000000E+02  0.51100000000E-03 0. -1.
    9900012    2    1    2    0    0 -0.63219609073E+00  0.14043789394E+02  0.12371357354E+02  0.72461596843E+02  0.70000034584E+02 0.  0.
         12    1    1    2    0    0  0.63219609073E+00 -0.14043789394E+02 -0.12371357354E+02  0.18726403157E+02  0.00000000000E+00 0. -1.
         11    1    3    3    0    0  0.66564623017E+01  0.39392063742E+01  0.16534369079E+02  0.18254073473E+02  0.51100000000E-03 0. -1.
        -11    1    3    3    0    0  0.60100532654E+00  0.10961431419E+02  0.23227191075E+02  0.25690788069E+02  0.51100000000E-03 0.  1.
         12    1    3    3    0    0 -0.78896637190E+01 -0.85684839941E+00 -0.27390202800E+02  0.28516735300E+02  0.00000000000E+00 0. -1.
</event>
<event>
 7    1  0.2876796E-013  0.7246147E+02  0.7816164E-02  0.1226708E+00
        -11   -1    0    0    0    0  0.00000000000E+00  0.00000000000E+00  0.45593999997E+02  0.45594000000E+02  0.51100000000E-03 0.  1.
         11   -1    0    0    0    0 -0.00000000000E+00 -0.00000000000E+00 -0.45593999997E+02  0.45594000000E+02  0.51100000000E-03 0. -1.
    9900012    2    1    2    0    0 -0.17353831913E+02 -0.69015476137E+01 -0.13770447513E+01  0.72461465516E+02  0.69999863506E+02 0.  0.
         12    1    1    2    0    0  0.17353831913E+02  0.69015476137E+01  0.13770447513E+01  0.18726534484E+02  0.00000000000E+00 0. -1.
         11    1    3    3    0    0 -0.83933117736E+01 -0.15987343816E+02 -0.24203168573E+02  0.30196625872E+02  0.51100000000E-03 0. -1.
        -11    1    3    3    0    0  0.18508807447E+01 -0.11318110124E+02  0.12518057120E+02  0.16977253330E+02  0.51100000000E-03 0.  1.
        -12    1    3    3    0    0 -0.10811400885E+02  0.20403906326E+02  0.10308066702E+02  0.25287586314E+02  0.00000000000E+00 0.  1.
</event>
<event>
 7    1  0.2876796E-013  0.7246165E+02  0.7816164E-02  0.1226708E+00
        -11   -1    0    0    0    0  0.00000000000E+00  0.00000000000E+00  0.45593999997E+02  0.45594000000E+02  0.51100000000E-03 0. -1.
         11   -1    0    0    0    0 -0.00000000000E+00 -0.00000000000E+00 -0.45593999997E+02  0.45594000000E+02  0.51100000000E-03 0.  1.
    9900012    2    1    2    0    0 -0.12946657060E+02  0.10237374202E+02 -0.88462649531E+01  0.72461650564E+02  0.70000104565E+02 0.  0.
         12    1    1    2    0    0  0.12946657060E+02 -0.10237374202E+02  0.88462649531E+01  0.18726349436E+02  0.00000000000E+00 0. -1.
         11    1    3    3    0    0 -0.50306617111E+01  0.24560814374E+01 -0.16497814018E+01  0.58362378476E+01  0.51100000000E-03 0.  1.
        -11    1    3    3    0    0  0.24524446928E+02  0.17204348388E+02 -0.12443876418E+02  0.32438991371E+02  0.51100000000E-03 0. -1.
         12    1    3    3    0    0 -0.32440442278E+02 -0.94230556236E+01  0.52473928671E+01  0.34186421345E+02  0.00000000000E+00 0. -1.
</event>
<event>
 7    1  0.2876796E-013  0.7246154E+02  0.7816164E-02  0.1226708E+00
        -11   -1    0    0    0    0  0.00000000000E+00  0.00000000000E+00  0.45593999997E+02  0.45594000000E+02  0.51100000000E-03 0. -1.
         11   -1    0    0    0    0 -0.00000000000E+00 -0.00000000000E+00 -0.45593999997E+02  0.45594000000E+02  0.51100000000E-03 0.  1.
    9900012    2    1    2    0    0 -0.11089914118E+02  0.62839477653E+01 -0.13718826448E+02  0.72461537607E+02  0.69999957418E+02 0.  0.
         12    1    1    2    0    0  0.11089914118E+02 -0.62839477653E+01  0.13718826448E+02  0.18726462393E+02  0.00000000000E+00 0. -1.
         11    1    3    3    0    0 -0.12531414031E+02  0.56622993468E+01  0.48310078902E+01  0.14575205282E+02  0.51100000000E-03 0. -1.
        -11    1    3    3    0    0 -0.10205971884E+02  0.23049656516E+02  0.20371336295E+01  0.25290283535E+02  0.51100000000E-03 0.  1.
         12    1    3    3    0    0  0.11647471798E+02 -0.22428008098E+02 -0.20586967968E+02  0.32596048789E+02  0.00000000000E+00 0. -1.
</event>
<event>
 7    1  0.2876796E-013  0.7246156E+02  0.7816164E-02  0.1226708E+00
        -11   -1    0    0    0    0  0.00000000000E+00  0.00000000000E+00  0.45593999997E+02  0.45594000000E+02  0.51100000000E-03 0. -1.
         11   -1    0    0    0    0 -0.00000000000E+00 -0.00000000000E+00 -0.45593999997E+02  0.45594000000E+02  0.51100000000E-03 0.  1.
    9900012    2    1    2    0    0 -0.69214198411E+01  0.21992340721E+01 -0.17260847913E+02  0.72461560034E+02  0.69999986635E+02 0.  0.
         12    1    1    2    0    0  0.69214198411E+01 -0.21992340721E+01  0.17260847913E+02  0.18726439966E+02  0.00000000000E+00 0. -1.
         11    1    3    3    0    0  0.11878179518E+02 -0.13861016489E+02  0.87218237214E+01  0.20230895582E+02  0.51100000000E-03 0. -1.
        -11    1    3    3    0    0  0.29978420211E+01 -0.10510489490E+02 -0.67903401341E+01  0.12867251668E+02  0.51100000000E-03 0.  1.
        -12    1    3    3    0    0 -0.21797441380E+02  0.26570740051E+02 -0.19192331500E+02  0.39363412784E+02  0.00000000000E+00 0.  1.
</event>
<event>
 7    1  0.2876796E-013  0.7246156E+02  0.7816164E-02  0.1226708E+00
        -11   -1    0    0    0    0  0.00000000000E+00  0.00000000000E+00  0.45593999997E+02  0.45594000000E+02  0.51100000000E-03 0. -1.
         11   -1    0    0    0    0 -0.00000000000E+00 -0.00000000000E+00 -0.45593999997E+02  0.45594000000E+02  0.51100000000E-03 0.  1.
    9900012    2    1    2    0    0  0.13861675460E+02  0.27868135597E+01 -0.12278733535E+02  0.72461556835E+02  0.69999982466E+02 0.  0.
         12    1    1    2    0    0 -0.13861675460E+02 -0.27868135597E+01  0.12278733535E+02  0.18726443165E+02  0.00000000000E+00 0. -1.
         11    1    3    3    0    0  0.13646606608E+02  0.13865764402E+02  0.14649612604E+02  0.24353653609E+02  0.51100000000E-03 0. -1.
        -11    1    3    3    0    0  0.13480528094E+02  0.46661513915E+01 -0.23125279278E+02  0.27171237521E+02  0.51100000000E-03 0.  1.
         12    1    3    3    0    0 -0.13265459242E+02 -0.15745102234E+02 -0.38030668618E+01  0.20936665705E+02  0.00000000000E+00 0. -1.
</event>
<event>
 7    1  0.2876796E-013  0.7246151E+02  0.7816164E-02  0.1226708E+00
        -11   -1    0    0    0    0  0.00000000000E+00  0.00000000000E+00  0.45593999997E+02  0.45594000000E+02  0.51100000000E-03 0.  1.
         11   -1    0    0    0    0 -0.00000000000E+00 -0.00000000000E+00 -0.45593999997E+02  0.45594000000E+02  0.51100000000E-03 0. -1.
    9900012    2    1    2    0    0 -0.78775661336E+01 -0.14039457490E+01  0.16930868318E+02  0.72461510370E+02  0.69999921937E+02 0.  0.
         12    1    1    2    0    0  0.78775661336E+01  0.14039457490E+01 -0.16930868318E+02  0.18726489630E+02  0.00000000000E+00 0. -1.
         11    1    3    3    0    0 -0.50131992997E+01 -0.71954113755E+01  0.23216797026E+02  0.24817851971E+02  0.51100000000E-03 0. -1.
        -11    1    3    3    0    0 -0.11626507760E+02  0.85890401160E+00  0.17950572341E+02  0.21404122183E+02  0.51100000000E-03 0.  1.
         12    1    3    3    0    0  0.87621409265E+01  0.49325616149E+01 -0.24236501049E+02  0.26239536215E+02  0.00000000000E+00 0. -1.
</event>
<event>
 7    1  0.2876796E-013  0.7246163E+02  0.7816164E-02  0.1226708E+00
        -11   -1    0    0    0    0  0.00000000000E+00  0.00000000000E+00  0.45593999997E+02  0.45594000000E+02  0.51100000000E-03 0. -1.
         11   -1    0    0    0    0 -0.00000000000E+00 -0.00000000000E+00 -0.45593999997E+02  0.45594000000E+02  0.51100000000E-03 0.  1.
    9900012    2    1    2    0    0 -0.10102326346E+02  0.56920135183E+01  0.14704452857E+02  0.72461629574E+02  0.70000077223E+02 0.  0.
         12    1    1    2    0    0  0.10102326346E+02 -0.56920135183E+01 -0.14704452857E+02  0.18726370426E+02  0.00000000000E+00 0. -1.
         11    1    3    3    0    0 -0.30804238100E+02 -0.29796508317E+01 -0.61424099854E+01  0.31551681487E+02  0.51100000000E-03 0. -1.
        -11    1    3    3    0    0  0.31124647278E+01 -0.31233422969E+01 -0.55366913587E+01  0.70779697123E+01  0.51100000000E-03 0.  1.
         12    1    3    3    0    0  0.17589447026E+02  0.11795006647E+02  0.26383554201E+02  0.33831978375E+02  0.00000000000E+00 0. -1.
</event>
<event>
 7    1  0.2876796E-013  0.7246157E+02  0.7816164E-02  0.1226708E+00
        -11   -1    0    0    0    0  0.00000000000E+00  0.00000000000E+00  0.45593999997E+02  0.45594000000E+02  0.51100000000E-03 0. -1.
         11   -1    0    0    0    0 -0.00000000000E+00 -0.00000000000E+00 -0.45593999997E+02  0.45594000000E+02  0.51100000000E-03 0.  1.
    9900012    2    1    2    0    0 -0.49443197308E+01 -0.10736898409E+02 -0.14524184973E+02  0.72461568568E+02  0.69999997751E+02 0.  0.
         12    1    1    2    0    0  0.49443197308E+01  0.10736898409E+02  0.14524184973E+02  0.18726431432E+02  0.00000000000E+00 0. -1.
         11    1    3    3    0    0  0.55959904377E+01  0.13076886141E+02 -0.12131232744E+02  0.18694567881E+02  0.51100000000E-03 0. -1.
        -11    1    3    3    0    0 -0.11507591497E+02  0.59883487968E+01  0.14532621997E+02  0.19480299940E+02  0.51100000000E-03 0.  1.
        -12    1    3    3    0    0  0.96728132818E+00 -0.29802133347E+02 -0.16925574227E+02  0.34286700747E+02  0.00000000000E+00 0.  1.
</event>
<event>
 7    1  0.2876796E-013  0.7246154E+02  0.7816164E-02  0.1226708E+00
        -11   -1    0    0    0    0  0.00000000000E+00  0.00000000000E+00  0.45593999997E+02  0.45594000000E+02  0.51100000000E-03 0.  1.
         11   -1    0    0    0    0 -0.00000000000E+00 -0.00000000000E+00 -0.45593999997E+02  0.45594000000E+02  0.51100000000E-03 0. -1.
    9900012    2    1    2    0    0  0.14071622944E+00 -0.16862486056E+02 -0.81435267988E+01  0.72461541024E+02  0.69999961870E+02 0.  0.
         12    1    1    2    0    0 -0.14071622944E+00  0.16862486056E+02  0.81435267988E+01  0.18726458976E+02  0.00000000000E+00 0. -1.
         11    1    3    3    0    0 -0.63580050813E+01  0.39062527454E+01 -0.22733055160E+02  0.23926446378E+02  0.51100000000E-03 0. -1.
        -11    1    3    3    0    0 -0.17259786466E+02 -0.11640283862E+02  0.72816293007E+01  0.22054898838E+02  0.51100000000E-03 0.  1.
         12    1    3    3    0    0  0.23758507776E+02 -0.91284549398E+01  0.73078990603E+01  0.26480195808E+02  0.00000000000E+00 0. -1.
</event>
<event>
 7    1  0.2876796E-013  0.7246155E+02  0.7816164E-02  0.1226708E+00
        -11   -1    0    0    0    0  0.00000000000E+00  0.00000000000E+00  0.45593999997E+02  0.45594000000E+02  0.51100000000E-03 0. -1.
         11   -1    0    0    0    0 -0.00000000000E+00 -0.00000000000E+00 -0.45593999997E+02  0.45594000000E+02  0.51100000000E-03 0.  1.
    9900012    2    1    2    0    0  0.10354287353E+02  0.86817389772E+01 -0.12965184488E+02  0.72461551670E+02  0.69999975738E+02 0.  0.
         12    1    1    2    0    0 -0.10354287353E+02 -0.86817389772E+01  0.12965184488E+02  0.18726448330E+02  0.00000000000E+00 0. -1.
         11    1    3    3    0    0  0.22384696509E+02  0.25602205555E+02  0.54107908920E+01  0.34435798603E+02  0.51100000000E-03 0. -1.
        -11    1    3    3    0    0 -0.99512513811E+01 -0.22551744943E+01  0.41920283016E+01  0.11031152142E+02  0.51100000000E-03 0.  1.
        -12    1    3    3    0    0 -0.20791577747E+01 -0.14665292083E+02 -0.22568003681E+02  0.26994600925E+02  0.00000000000E+00 0.  1.
</event>
<event>
 7    1  0.2876796E-013  0.7246154E+02  0.7816164E-02  0.1226708E+00
        -11   -1    0    0    0    0  0.00000000000E+00  0.00000000000E+00  0.45593999997E+02  0.45594000000E+02  0.51100000000E-03 0.  1.
         11   -1    0    0    0    0 -0.00000000000E+00 -0.00000000000E+00 -0.45593999997E+02  0.45594000000E+02  0.51100000000E-03 0. -1.
    9900012    2    1    2    0    0  0.66284506281E+01 -0.17160940576E+02  0.34994259944E+01  0.72461542207E+02  0.69999963411E+02 0.  0.
         12    1    1    2    0    0 -0.66284506281E+01  0.17160940576E+02 -0.34994259944E+01  0.18726457793E+02  0.00000000000E+00 0. -1.
         11    1    3    3    0    0  0.96519793862E+01 -0.24704303225E+01 -0.18915416149E+02  0.21378884452E+02  0.51100000000E-03 0. -1.
        -11    1    3    3    0    0 -0.11065553260E+02  0.51180402876E+01 -0.74998275893E+01  0.14313916985E+02  0.51100000000E-03 0.  1.
        -12    1    3    3    0    0  0.80420245014E+01 -0.19808550541E+02  0.29914669733E+02  0.36768740770E+02  0.00000000000E+00 0.  1.
</event>
<event>
 7    1  0.2876796E-013  0.7246158E+02  0.7816164E-02  0.1226708E+00
        -11   -1    0    0    0    0  0.00000000000E+00  0.00000000000E+00  0.45593999997E+02  0.45594000000E+02  0.51100000000E-03 0.  1.
         11   -1    0    0    0    0 -0.00000000000E+00 -0.00000000000E+00 -0.45593999997E+02  0.45594000000E+02  0.51100000000E-03 0. -1.
    9900012    2    1    2    0    0  0.54842715046E+01 -0.17182797279E+02  0.50351987198E+01  0.72461575290E+02  0.70000006508E+02 0.  0.
         12    1    1    2    0    0 -0.54842715046E+01  0.17182797279E+02 -0.50351987198E+01  0.18726424710E+02  0.00000000000E+00 0. -1.
         11    1    3    3    0    0 -0.10310455516E+02 -0.68971901624E+01 -0.86432927138E+01  0.15118969352E+02  0.51100000000E-03 0. -1.
        -11    1    3    3    0    0 -0.22591330906E+01 -0.27977828810E+02  0.15382656225E+02  0.32007635028E+02  0.51100000000E-03 0.  1.
        -12    1    3    3    0    0  0.18053860111E+02  0.17692221693E+02 -0.17041647916E+01  0.25334970910E+02  0.00000000000E+00 0.  1.
</event>
<event>
 7    1  0.2876796E-013  0.7246194E+02  0.7816164E-02  0.1226707E+00
        -11   -1    0    0    0    0  0.00000000000E+00  0.00000000000E+00  0.45593999997E+02  0.45594000000E+02  0.51100000000E-03 0. -1.
         11   -1    0    0    0    0 -0.00000000000E+00 -0.00000000000E+00 -0.45593999997E+02  0.45594000000E+02  0.51100000000E-03 0.  1.
    9900012    2    1    2    0    0  0.75847703054E+00  0.79454970896E+00 -0.18693814623E+02  0.72461940570E+02  0.70000482351E+02 0.  0.
         12    1    1    2    0    0 -0.75847703054E+00 -0.79454970896E+00  0.18693814623E+02  0.18726059430E+02  0.00000000000E+00 0. -1.
         11    1    3    3    0    0  0.12352382558E+00  0.37987698687E+01  0.21890141489E+02  0.22217655261E+02  0.51100000000E-03 0. -1.
        -11    1    3    3    0    0  0.94262647970E+01 -0.77893446407E+01 -0.48835429285E+01  0.13167283309E+02  0.51100000000E-03 0.  1.
        -12    1    3    3    0    0 -0.87913115921E+01  0.47851244809E+01 -0.35700413183E+02  0.37077001999E+02  0.00000000000E+00 0.  1.
</event>
<event>
 7    1  0.2876796E-013  0.7246156E+02  0.7816164E-02  0.1226708E+00
        -11   -1    0    0    0    0  0.00000000000E+00  0.00000000000E+00  0.45593999997E+02  0.45594000000E+02  0.51100000000E-03 0. -1.
         11   -1    0    0    0    0 -0.00000000000E+00 -0.00000000000E+00 -0.45593999997E+02  0.45594000000E+02  0.51100000000E-03 0.  1.
    9900012    2    1    2    0    0  0.32330733256E+01 -0.13498117216E+02 -0.12570897961E+02  0.72461563952E+02  0.69999991738E+02 0.  0.
         12    1    1    2    0    0 -0.32330733256E+01  0.13498117216E+02  0.12570897961E+02  0.18726436048E+02  0.00000000000E+00 0. -1.
         11    1    3    3    0    0 -0.19516718522E+01  0.20296007124E+00  0.55692368932E+01  0.59047959866E+01  0.51100000000E-03 0. -1.
        -11    1    3    3    0    0  0.20265199651E+02 -0.85988593683E+01 -0.36270706160E+02  0.42428561429E+02  0.51100000000E-03 0.  1.
         12    1    3    3    0    0 -0.15080454473E+02 -0.51022179194E+01  0.18130571306E+02  0.24128206537E+02  0.00000000000E+00 0. -1.
</event>
<event>
 7    1  0.2876796E-013  0.7246166E+02  0.7816164E-02  0.1226708E+00
        -11   -1    0    0    0    0  0.00000000000E+00  0.00000000000E+00  0.45593999997E+02  0.45594000000E+02  0.51100000000E-03 0.  1.
         11   -1    0    0    0    0 -0.00000000000E+00 -0.00000000000E+00 -0.45593999997E+02  0.45594000000E+02  0.51100000000E-03 0. -1.
    9900012    2    1    2    0    0  0.10732430612E+02 -0.52345429023E+01  0.14425333541E+02  0.72461661490E+02  0.70000118799E+02 0.  0.
         12    1    1    2    0    0 -0.10732430612E+02  0.52345429023E+01 -0.14425333541E+02  0.18726338510E+02  0.00000000000E+00 0. -1.
         11    1    3    3    0    0 -0.54409341319E+01 -0.12793991420E+02  0.14897855634E+02  0.20377342404E+02  0.51100000000E-03 0. -1.
        -11    1    3    3    0    0 -0.63063034410E+01 -0.13631870138E+02  0.11536248372E+02  0.18938911619E+02  0.51100000000E-03 0.  1.
         12    1    3    3    0    0  0.22479668185E+02  0.21191318656E+02 -0.12008770465E+02  0.33145407467E+02  0.00000000000E+00 0. -1.
</event>
<event>
 7    1  0.2876796E-013  0.7246157E+02  0.7816164E-02  0.1226708E+00
        -11   -1    0    0    0    0  0.00000000000E+00  0.00000000000E+00  0.45593999997E+02  0.45594000000E+02  0.51100000000E-03 0. -1.
         11   -1    0    0    0    0 -0.00000000000E+00 -0.00000000000E+00 -0.45593999997E+02  0.45594000000E+02  0.51100000000E-03 0.  1.
    9900012    2    1    2    0    0  0.12968626476E+02  0.13455842517E+02 -0.11975836647E+01  0.72461570091E+02  0.69999999735E+02 0.  0.
         12    1    1    2    0    0 -0.12968626476E+02 -0.13455842517E+02  0.11975836647E+01  0.18726429909E+02  0.00000000000E+00 0. -1.
         11    1    3    3    0    0  0.29356971298E+02  0.20716082684E+01  0.62371040007E+01  0.30083629954E+02  0.51100000000E-03 0. -1.
        -11    1    3    3    0    0 -0.77608962819E-02 -0.12511928079E+02 -0.43324125627E+01  0.13240778049E+02  0.51100000000E-03 0.  1.
        -12    1    3    3    0    0 -0.16380583926E+02  0.23896162327E+02 -0.31022751027E+01  0.29137162088E+02  0.00000000000E+00 0.  1.
</event>
<event>
 7    1  0.2876796E-013  0.7246153E+02  0.7816164E-02  0.1226708E+00
        -11   -1    0    0    0    0  0.00000000000E+00  0.00000000000E+00  0.45593999997E+02  0.45594000000E+02  0.51100000000E-03 0. -1.
         11   -1    0    0    0    0 -0.00000000000E+00 -0.00000000000E+00 -0.45593999997E+02  0.45594000000E+02  0.51100000000E-03 0.  1.
    9900012    2    1    2    0    0  0.51185949447E+00 -0.42345792917E+01 -0.18234224439E+02  0.72461532025E+02  0.69999950148E+02 0.  0.
         12    1    1    2    0    0 -0.51185949447E+00  0.42345792917E+01  0.18234224439E+02  0.18726467975E+02  0.00000000000E+00 0. -1.
         11    1    3    3    0    0  0.95195127976E+01  0.63319716374E+01  0.15689072480E+02  0.19412933427E+02  0.51100000000E-03 0. -1.
        -11    1    3    3    0    0 -0.83568750086E+01 -0.80790335078E+01  0.59737308800E+01  0.13068802670E+02  0.51100000000E-03 0.  1.
        -12    1    3    3    0    0 -0.65077829450E+00 -0.24875174213E+01 -0.39897027799E+02  0.39979795928E+02  0.00000000000E+00 0.  1.
</event>
<event>
 7    1  0.2876796E-013  0.7246157E+02  0.7816164E-02  0.1226708E+00
        -11   -1    0    0    0    0  0.00000000000E+00  0.00000000000E+00  0.45593999997E+02  0.45594000000E+02  0.51100000000E-03 0. -1.
         11   -1    0    0    0    0 -0.00000000000E+00 -0.00000000000E+00 -0.45593999997E+02  0.45594000000E+02  0.51100000000E-03 0.  1.
    9900012    2    1    2    0    0 -0.66712733705E+01  0.14733279738E+02 -0.94394845236E+01  0.72461567123E+02  0.69999995869E+02 0.  0.
         12    1    1    2    0    0  0.66712733705E+01 -0.14733279738E+02  0.94394845236E+01  0.18726432877E+02  0.00000000000E+00 0. -1.
         11    1    3    3    0    0  0.46767887245E+01 -0.89821471177E+01  0.16156515896E+02  0.19067887292E+02  0.51100000000E-03 0. -1.
        -11    1    3    3    0    0 -0.42404681822E+01 -0.80091001645E+01  0.35478808047E+01  0.97321484943E+01  0.51100000000E-03 0.  1.
         12    1    3    3    0    0 -0.71075939128E+01  0.31724527020E+02 -0.29143881225E+02  0.43661531337E+02  0.00000000000E+00 0. -1.
</event>
<event>
 7    1  0.2876796E-013  0.7246160E+02  0.7816164E-02  0.1226708E+00
        -11   -1    0    0    0    0  0.00000000000E+00  0.00000000000E+00  0.45593999997E+02  0.45594000000E+02  0.51100000000E-03 0.  1.
         11   -1    0    0    0    0 -0.00000000000E+00 -0.00000000000E+00 -0.45593999997E+02  0.45594000000E+02  0.51100000000E-03 0. -1.
    9900012    2    1    2    0    0 -0.99510119560E+01  0.15156275439E+02  0.46842932417E+01  0.72461603462E+02  0.70000043207E+02 0.  0.
         12    1    1    2    0    0  0.99510119560E+01 -0.15156275439E+02 -0.46842932417E+01  0.18726396538E+02  0.00000000000E+00 0. -1.
         11    1    3    3    0    0  0.21310624411E+02 -0.15337997902E+01 -0.20799856227E+01  0.21466755578E+02  0.51100000000E-03 0. -1.
        -11    1    3    3    0    0  0.53212833001E+01  0.52419145028E+01  0.10050098854E+02  0.12521909234E+02  0.51100000000E-03 0.  1.
        -12    1    3    3    0    0 -0.36582919667E+02  0.11448160726E+02 -0.32858199899E+01  0.38472938650E+02  0.00000000000E+00 0.  1.
</event>
<event>
 7    1  0.2876796E-013  0.7246157E+02  0.7816164E-02  0.1226708E+00
        -11   -1    0    0    0    0  0.00000000000E+00  0.00000000000E+00  0.45593999997E+02  0.45594000000E+02  0.51100000000E-03 0. -1.
         11   -1    0    0    0    0 -0.00000000000E+00 -0.00000000000E+00 -0.45593999997E+02  0.45594000000E+02  0.51100000000E-03 0.  1.
    9900012    2    1    2    0    0 -0.32494800269E+01 -0.18107291426E+02  0.34994530962E+01  0.72461566938E+02  0.69999995628E+02 0.  0.
         12    1    1    2    0    0  0.32494800269E+01  0.18107291426E+02 -0.34994530962E+01  0.18726433062E+02  0.00000000000E+00 0. -1.
         11    1    3    3    0    0 -0.23208246504E+02 -0.19666050861E+02 -0.15248313847E+02  0.34027743647E+02  0.51100000000E-03 0. -1.
        -11    1    3    3    0    0 -0.36592657431E+01  0.60748647289E+01  0.11153419448E+02  0.13217146927E+02  0.51100000000E-03 0.  1.
        -12    1    3    3    0    0  0.23618032220E+02 -0.45161052946E+01  0.75943474949E+01  0.25216676364E+02  0.00000000000E+00 0.  1.
</event>
<event>
 7    1  0.2876796E-013  0.7246156E+02  0.7816164E-02  0.1226708E+00
        -11   -1    0    0    0    0  0.00000000000E+00  0.00000000000E+00  0.45593999997E+02  0.45594000000E+02  0.51100000000E-03 0. -1.
         11   -1    0    0    0    0 -0.00000000000E+00 -0.00000000000E+00 -0.45593999997E+02  0.45594000000E+02  0.51100000000E-03 0.  1.
    9900012    2    1    2    0    0 -0.76357605691E+01  0.13909586602E+02 -0.99447502169E+01  0.72461561583E+02  0.69999988652E+02 0.  0.
         12    1    1    2    0    0  0.76357605691E+01 -0.13909586602E+02  0.99447502169E+01  0.18726438417E+02  0.00000000000E+00 0. -1.
         11    1    3    3    0    0  0.99871394707E+01 -0.71178459654E+01 -0.48658208547E+01  0.13194047857E+02  0.51100000000E-03 0. -1.
        -11    1    3    3    0    0 -0.12025179709E+02  0.10848691629E+02 -0.28694482432E+02  0.32949542931E+02  0.51100000000E-03 0.  1.
         12    1    3    3    0    0 -0.55977203309E+01  0.10178740939E+02  0.23615553070E+02  0.26317970795E+02  0.00000000000E+00 0. -1.
</event>
<event>
 7    1  0.2876796E-013  0.7246155E+02  0.7816164E-02  0.1226708E+00
        -11   -1    0    0    0    0  0.00000000000E+00  0.00000000000E+00  0.45593999997E+02  0.45594000000E+02  0.51100000000E-03 0. -1.
         11   -1    0    0    0    0 -0.00000000000E+00 -0.00000000000E+00 -0.45593999997E+02  0.45594000000E+02  0.51100000000E-03 0.  1.
    9900012    2    1    2    0    0  0.14275284120E+02  0.35401830753E+01 -0.11591523397E+02  0.72461546850E+02  0.69999969459E+02 0.  0.
         12    1    1    2    0    0 -0.14275284120E+02 -0.35401830753E+01  0.11591523397E+02  0.18726453150E+02  0.00000000000E+00 0. -1.
         11    1    3    3    0    0  0.63971638240E+00 -0.12844886603E+02 -0.41021296084E+01  0.13499178363E+02  0.51100000000E-03 0. -1.
        -11    1    3    3    0    0  0.17541870029E+02 -0.16111994405E+02 -0.10626575968E+02  0.26081366622E+02  0.51100000000E-03 0.  1.
         12    1    3    3    0    0 -0.39063022914E+01  0.32497064083E+02  0.31371821798E+01  0.32881001865E+02  0.00000000000E+00 0. -1.
</event>
<event>
 7    1  0.2876796E-013  0.7246155E+02  0.7816164E-02  0.1226708E+00
        -11   -1    0    0    0    0  0.00000000000E+00  0.00000000000E+00  0.45593999997E+02  0.45594000000E+02  0.51100000000E-03 0.  1.
         11   -1    0    0    0    0 -0.00000000000E+00 -0.00000000000E+00 -0.45593999997E+02  0.45594000000E+02  0.51100000000E-03 0. -1.
    9900012    2    1    2    0    0  0.33346182803E+01  0.16471134325E+02  0.82620803224E+01  0.72461550356E+02  0.69999974027E+02 0.  0.
         12    1    1    2    0    0 -0.33346182803E+01 -0.16471134325E+02 -0.82620803224E+01  0.18726449644E+02  0.00000000000E+00 0. -1.
         11    1    3    3    0    0  0.11822594482E+02  0.63811613256E+01 -0.55505065999E+00  0.13446227785E+02  0.51100000000E-03 0. -1.
        -11    1    3    3    0    0  0.23551412609E+02 -0.28491346679E+01  0.21087046744E+01  0.23816658874E+02  0.51100000000E-03 0.  1.
         12    1    3    3    0    0 -0.32039388811E+02  0.12939107667E+02  0.67084263079E+01  0.35198663698E+02  0.00000000000E+00 0. -1.
</event>
<event>
 7    1  0.2876796E-013  0.7246150E+02  0.7816164E-02  0.1226708E+00
        -11   -1    0    0    0    0  0.00000000000E+00  0.00000000000E+00  0.45593999997E+02  0.45594000000E+02  0.51100000000E-03 0. -1.
         11   -1    0    0    0    0 -0.00000000000E+00 -0.00000000000E+00 -0.45593999997E+02  0.45594000000E+02  0.51100000000E-03 0.  1.
    9900012    2    1    2    0    0 -0.14621520010E+02 -0.48599156624E+01  0.10643035066E+02  0.72461499444E+02  0.69999907704E+02 0.  0.
         12    1    1    2    0    0  0.14621520010E+02  0.48599156624E+01 -0.10643035066E+02  0.18726500556E+02  0.00000000000E+00 0. -1.
         11    1    3    3    0    0 -0.21233881349E+01  0.59398096262E+01  0.16423284362E+02  0.17593020920E+02  0.51100000000E-03 0. -1.
        -11    1    3    3    0    0  0.19675395208E+02 -0.76840895705E+01 -0.77127575774E+01  0.22486730283E+02  0.51100000000E-03 0.  1.
         12    1    3    3    0    0 -0.32173527083E+02 -0.31156357181E+01  0.19325082815E+01  0.32381748241E+02  0.00000000000E+00 0. -1.
</event>
<event>
 7    1  0.2876796E-013  0.7246163E+02  0.7816164E-02  0.1226708E+00
        -11   -1    0    0    0    0  0.00000000000E+00  0.00000000000E+00  0.45593999997E+02  0.45594000000E+02  0.51100000000E-03 0.  1.
         11   -1    0    0    0    0 -0.00000000000E+00 -0.00000000000E+00 -0.45593999997E+02  0.45594000000E+02  0.51100000000E-03 0. -1.
    9900012    2    1    2    0    0 -0.11215523829E+02  0.17770989760E+01  0.14890633391E+02  0.72461627732E+02  0.70000074823E+02 0.  0.
         12    1    1    2    0    0  0.11215523829E+02 -0.17770989760E+01 -0.14890633391E+02  0.18726372268E+02  0.00000000000E+00 0. -1.
         11    1    3    3    0    0 -0.19748359417E+02 -0.17953778362E+01 -0.82109263756E+01  0.21462534647E+02  0.51100000000E-03 0. -1.
        -11    1    3    3    0    0 -0.13879781187E+02  0.12633371147E+02  0.19358314206E+01  0.18867904915E+02  0.51100000000E-03 0.  1.
        -12    1    3    3    0    0  0.22412616775E+02 -0.90608943343E+01  0.21165728346E+02  0.32131188171E+02  0.00000000000E+00 0.  1.
</event>
<event>
 7    1  0.2876796E-013  0.7246152E+02  0.7816164E-02  0.1226708E+00
        -11   -1    0    0    0    0  0.00000000000E+00  0.00000000000E+00  0.45593999997E+02  0.45594000000E+02  0.51100000000E-03 0. -1.
         11   -1    0    0    0    0 -0.00000000000E+00 -0.00000000000E+00 -0.45593999997E+02  0.45594000000E+02  0.51100000000E-03 0.  1.
    9900012    2    1    2    0    0  0.16188936012E+02 -0.68417087680E+01 -0.64645386964E+01  0.72461524394E+02  0.69999940206E+02 0.  0.
         12    1    1    2    0    0 -0.16188936012E+02  0.68417087680E+01  0.64645386964E+01  0.18726475606E+02  0.00000000000E+00 0. -1.
         11    1    3    3    0    0  0.15205436509E+02 -0.12232705932E+02  0.24706186668E+02  0.31483965026E+02  0.51100000000E-03 0. -1.
        -11    1    3    3    0    0  0.63894533787E+01  0.58143041089E+01  0.68271379147E+00  0.86658724391E+01  0.51100000000E-03 0.  1.
        -12    1    3    3    0    0 -0.54059538751E+01 -0.42330694535E+00 -0.31853439156E+02  0.32311686928E+02  0.00000000000E+00 0.  1.
</event>
<event>
 7    1  0.2876796E-013  0.7246149E+02  0.7816164E-02  0.1226708E+00
        -11   -1    0    0    0    0  0.00000000000E+00  0.00000000000E+00  0.45593999997E+02  0.45594000000E+02  0.51100000000E-03 0.  1.
         11   -1    0    0    0    0 -0.00000000000E+00 -0.00000000000E+00 -0.45593999997E+02  0.45594000000E+02  0.51100000000E-03 0. -1.
    9900012    2    1    2    0    0 -0.10986824296E+02 -0.81846820288E+01  0.12766479145E+02  0.72461486235E+02  0.69999890497E+02 0.  0.
         12    1    1    2    0    0  0.10986824296E+02  0.81846820288E+01 -0.12766479145E+02  0.18726513765E+02  0.00000000000E+00 0. -1.
         11    1    3    3    0    0 -0.65323002600E+01 -0.11652209467E+02  0.13476521584E+02  0.18975288309E+02  0.51100000000E-03 0. -1.
        -11    1    3    3    0    0  0.12238326230E+02 -0.98510523430E+00  0.21854518320E+02  0.25067250198E+02  0.51100000000E-03 0.  1.
        -12    1    3    3    0    0 -0.16692850266E+02  0.44526326725E+01 -0.22564560759E+02  0.28418947728E+02  0.00000000000E+00 0.  1.
</event>
<event>
 7    1  0.2876796E-013  0.7246154E+02  0.7816164E-02  0.1226708E+00
        -11   -1    0    0    0    0  0.00000000000E+00  0.00000000000E+00  0.45593999997E+02  0.45594000000E+02  0.51100000000E-03 0. -1.
         11   -1    0    0    0    0 -0.00000000000E+00 -0.00000000000E+00 -0.45593999997E+02  0.45594000000E+02  0.51100000000E-03 0.  1.
    9900012    2    1    2    0    0 -0.45809876660E+01  0.57368035458E+01 -0.17227414943E+02  0.72461543086E+02  0.69999964556E+02 0.  0.
         12    1    1    2    0    0  0.45809876660E+01 -0.57368035458E+01  0.17227414943E+02  0.18726456914E+02  0.00000000000E+00 0. -1.
         11    1    3    3    0    0 -0.23835030663E+02 -0.82969063827E+01  0.71333780290E+01  0.26226559526E+02  0.51100000000E-03 0. -1.
        -11    1    3    3    0    0 -0.38888623855E+01  0.29265702674E+01 -0.19513195272E+02  0.20111013256E+02  0.51100000000E-03 0.  1.
        -12    1    3    3    0    0  0.23142905382E+02  0.11107139661E+02 -0.48475977001E+01  0.26123970304E+02  0.00000000000E+00 0.  1.
</event>
<event>
 7    1  0.2876796E-013  0.7246158E+02  0.7816164E-02  0.1226708E+00
        -11   -1    0    0    0    0  0.00000000000E+00  0.00000000000E+00  0.45593999997E+02  0.45594000000E+02  0.51100000000E-03 0.  1.
         11   -1    0    0    0    0 -0.00000000000E+00 -0.00000000000E+00 -0.45593999997E+02  0.45594000000E+02  0.51100000000E-03 0. -1.
    9900012    2    1    2    0    0  0.17639183358E+02  0.66650677927E-01  0.62875828032E+01  0.72461576707E+02  0.70000008354E+02 0.  0.
         12    1    1    2    0    0 -0.17639183358E+02 -0.66650677927E-01 -0.62875828032E+01  0.18726423293E+02  0.00000000000E+00 0. -1.
         11    1    3    3    0    0 -0.25121201368E+01 -0.34007724678E+01  0.13470869239E+02  0.14118793124E+02  0.51100000000E-03 0. -1.
        -11    1    3    3    0    0 -0.14083721755E+02 -0.78808108332E+01 -0.14320783155E+02  0.21576450781E+02  0.51100000000E-03 0.  1.
        -12    1    3    3    0    0  0.34235025250E+02  0.11348233979E+02  0.71374967194E+01  0.36766332802E+02  0.00000000000E+00 0.  1.
</event>
<event>
 7    1  0.2876796E-013  0.7246158E+02  0.7816164E-02  0.1226708E+00
        -11   -1    0    0    0    0  0.00000000000E+00  0.00000000000E+00  0.45593999997E+02  0.45594000000E+02  0.51100000000E-03 0. -1.
         11   -1    0    0    0    0 -0.00000000000E+00 -0.00000000000E+00 -0.45593999997E+02  0.45594000000E+02  0.51100000000E-03 0.  1.
    9900012    2    1    2    0    0 -0.17586468306E+02  0.24980696247E+01 -0.59291156590E+01  0.72461584651E+02  0.70000018703E+02 0.  0.
         12    1    1    2    0    0  0.17586468306E+02 -0.24980696247E+01  0.59291156590E+01  0.18726415349E+02  0.00000000000E+00 0. -1.
         11    1    3    3    0    0  0.12721503681E+02  0.12187676590E+01  0.23429122913E+02  0.26687934563E+02  0.51100000000E-03 0. -1.
        -11    1    3    3    0    0  0.16861607937E+01 -0.18291409400E+00 -0.57237099765E+01  0.59697112111E+01  0.51100000000E-03 0.  1.
        -12    1    3    3    0    0 -0.31994132781E+02  0.14622160597E+01 -0.23634528596E+02  0.39803938877E+02  0.00000000000E+00 0.  1.
</event>
<event>
 7    1  0.2876796E-013  0.7246156E+02  0.7816164E-02  0.1226708E+00
        -11   -1    0    0    0    0  0.00000000000E+00  0.00000000000E+00  0.45593999997E+02  0.45594000000E+02  0.51100000000E-03 0. -1.
         11   -1    0    0    0    0 -0.00000000000E+00 -0.00000000000E+00 -0.45593999997E+02  0.45594000000E+02  0.51100000000E-03 0.  1.
    9900012    2    1    2    0    0 -0.82092879139E+01  0.15007235823E+01 -0.16764102526E+02  0.72461555788E+02  0.69999981103E+02 0.  0.
         12    1    1    2    0    0  0.82092879139E+01 -0.15007235823E+01  0.16764102526E+02  0.18726444212E+02  0.00000000000E+00 0. -1.
         11    1    3    3    0    0  0.17575165882E+02 -0.15864083762E+02  0.92368361644E+01  0.25414066026E+02  0.51100000000E-03 0. -1.
        -11    1    3    3    0    0  0.42005457552E+01  0.10531492523E+01 -0.62713842716E+01  0.76212839425E+01  0.51100000000E-03 0.  1.
        -12    1    3    3    0    0 -0.29984999551E+02  0.16311658092E+02 -0.19729554419E+02  0.39426205820E+02  0.00000000000E+00 0.  1.
</event>
<event>
 7    1  0.2876796E-013  0.7246157E+02  0.7816164E-02  0.1226708E+00
        -11   -1    0    0    0    0  0.00000000000E+00  0.00000000000E+00  0.45593999997E+02  0.45594000000E+02  0.51100000000E-03 0.  1.
         11   -1    0    0    0    0 -0.00000000000E+00 -0.00000000000E+00 -0.45593999997E+02  0.45594000000E+02  0.51100000000E-03 0. -1.
    9900012    2    1    2    0    0 -0.93219995547E+01  0.10510901339E+01  0.16207240600E+02  0.72461571776E+02  0.70000001930E+02 0.  0.
         12    1    1    2    0    0  0.93219995547E+01 -0.10510901339E+01 -0.16207240600E+02  0.18726428224E+02  0.00000000000E+00 0. -1.
         11    1    3    3    0    0 -0.15963092671E+02 -0.21281018451E+02  0.16913075969E+02  0.31523867354E+02  0.51100000000E-03 0.  1.
        -11    1    3    3    0    0  0.55242122366E+01  0.11791453597E+02  0.16322343442E+02  0.20879995078E+02  0.51100000000E-03 0. -1.
         12    1    3    3    0    0  0.11168808798E+01  0.10540654988E+02 -0.17028178811E+02  0.20057709343E+02  0.00000000000E+00 0. -1.
</event>
<event>
 7    1  0.2876796E-013  0.7246157E+02  0.7816164E-02  0.1226708E+00
        -11   -1    0    0    0    0  0.00000000000E+00  0.00000000000E+00  0.45593999997E+02  0.45594000000E+02  0.51100000000E-03 0.  1.
         11   -1    0    0    0    0 -0.00000000000E+00 -0.00000000000E+00 -0.45593999997E+02  0.45594000000E+02  0.51100000000E-03 0. -1.
    9900012    2    1    2    0    0 -0.21120225782E+01  0.14898052003E+02  0.11147488573E+02  0.72461572302E+02  0.70000002615E+02 0.  0.
         12    1    1    2    0    0  0.21120225782E+01 -0.14898052003E+02 -0.11147488573E+02  0.18726427698E+02  0.00000000000E+00 0. -1.
         11    1    3    3    0    0 -0.69805510541E+01  0.52876987197E+01 -0.25544668643E+02  0.27004035756E+02  0.51100000000E-03 0. -1.
        -11    1    3    3    0    0  0.64261098203E+01 -0.33249845366E+01  0.80678400064E+00  0.72801998788E+01  0.51100000000E-03 0.  1.
        -12    1    3    3    0    0 -0.15575813444E+01  0.12935337820E+02  0.35885373215E+02  0.38177336667E+02  0.00000000000E+00 0.  1.
</event>
<event>
 7    1  0.2876796E-013  0.7246156E+02  0.7816164E-02  0.1226708E+00
        -11   -1    0    0    0    0  0.00000000000E+00  0.00000000000E+00  0.45593999997E+02  0.45594000000E+02  0.51100000000E-03 0. -1.
         11   -1    0    0    0    0 -0.00000000000E+00 -0.00000000000E+00 -0.45593999997E+02  0.45594000000E+02  0.51100000000E-03 0.  1.
    9900012    2    1    2    0    0 -0.65364310243E+01  0.18290404789E+01 -0.17453056297E+02  0.72461561638E+02  0.69999988724E+02 0.  0.
         12    1    1    2    0    0  0.65364310243E+01 -0.18290404789E+01  0.17453056297E+02  0.18726438362E+02  0.00000000000E+00 0. -1.
         11    1    3    3    0    0  0.12573958532E+02 -0.76296686642E+01 -0.22507798884E+00  0.14709416625E+02  0.51100000000E-03 0. -1.
        -11    1    3    3    0    0 -0.65063319155E+01  0.19545590753E+02 -0.30533068263E+02  0.36832468430E+02  0.51100000000E-03 0.  1.
         12    1    3    3    0    0 -0.12604057641E+02 -0.10086881609E+02  0.13305089954E+02  0.20919676583E+02  0.00000000000E+00 0. -1.
</event>
<event>
 7    1  0.2876796E-013  0.7246167E+02  0.7816164E-02  0.1226708E+00
        -11   -1    0    0    0    0  0.00000000000E+00  0.00000000000E+00  0.45593999997E+02  0.45594000000E+02  0.51100000000E-03 0.  1.
         11   -1    0    0    0    0 -0.00000000000E+00 -0.00000000000E+00 -0.45593999997E+02  0.45594000000E+02  0.51100000000E-03 0. -1.
    9900012    2    1    2    0    0 -0.11241208813E+02  0.13954812177E+02  0.54381983724E+01  0.72461666670E+02  0.70000125546E+02 0.  0.
         12    1    1    2    0    0  0.11241208813E+02 -0.13954812177E+02 -0.54381983724E+01  0.18726333330E+02  0.00000000000E+00 0. -1.
         11    1    3    3    0    0  0.11308441222E+02  0.26746427516E+02 -0.80154119629E+01  0.30124725010E+02  0.51100000000E-03 0. -1.
        -11    1    3    3    0    0 -0.15520430154E+02  0.48594568511E+01 -0.37679281850E+01  0.16694171322E+02  0.51100000000E-03 0.  1.
        -12    1    3    3    0    0 -0.70292198806E+01 -0.17651072190E+02  0.17221538520E+02  0.25642770338E+02  0.00000000000E+00 0.  1.
</event>
<event>
 7    1  0.2876796E-013  0.7246162E+02  0.7816164E-02  0.1226708E+00
        -11   -1    0    0    0    0  0.00000000000E+00  0.00000000000E+00  0.45593999997E+02  0.45594000000E+02  0.51100000000E-03 0.  1.
         11   -1    0    0    0    0 -0.00000000000E+00 -0.00000000000E+00 -0.45593999997E+02  0.45594000000E+02  0.51100000000E-03 0. -1.
    9900012    2    1    2    0    0  0.18582748613E+02 -0.17816874620E+01 -0.14779280400E+01  0.72461622147E+02  0.70000067547E+02 0.  0.
         12    1    1    2    0    0 -0.18582748613E+02  0.17816874620E+01  0.14779280400E+01  0.18726377853E+02  0.00000000000E+00 0. -1.
         11    1    3    3    0    0  0.97199766698E+01 -0.16170076577E+02  0.13939963148E+02  0.23457874921E+02  0.51100000000E-03 0.  1.
        -11    1    3    3    0    0 -0.75253002800E+01 -0.13848955722E+01 -0.23616866222E+02  0.24825479864E+02  0.51100000000E-03 0. -1.
        -12    1    3    3    0    0  0.16388072223E+02  0.15773284687E+02  0.81989750340E+01  0.24178267362E+02  0.00000000000E+00 0.  1.
</event>
<event>
 7    1  0.2943935E-013  0.7246163E+02  0.7816164E-02  0.1226708E+00
        -11   -1    0    0    0    0  0.00000000000E+00  0.00000000000E+00  0.45593999997E+02  0.45594000000E+02  0.51100000000E-03 0.  1.
         11   -1    0    0    0    0 -0.00000000000E+00 -0.00000000000E+00 -0.45593999997E+02  0.45594000000E+02  0.51100000000E-03 0. -1.
    9900012    2    1    2    0    0  0.43925104544E+01 -0.18064182450E+02 -0.22512434315E+01  0.72461630019E+02  0.70000077802E+02 0.  0.
         12    1    1    2    0    0 -0.43925104544E+01  0.18064182450E+02  0.22512434315E+01  0.18726369981E+02  0.00000000000E+00 0. -1.
         11    1    3    3    0    0  0.11959320026E+02 -0.63117630411E+01 -0.26079586072E+02  0.29377006283E+02  0.51100000000E-03 0. -1.
        -11    1    3    3    0    0 -0.78213569224E+01  0.10510937816E+02  0.53545010024E+01  0.14153590326E+02  0.51100000000E-03 0.  1.
        -12    1    3    3    0    0  0.25454735061E+00 -0.22263357225E+02  0.18473841638E+02  0.28931033410E+02  0.00000000000E+00 0.  1.
</event>
<event>
 7    1  0.2876796E-013  0.7246156E+02  0.7816164E-02  0.1226708E+00
        -11   -1    0    0    0    0  0.00000000000E+00  0.00000000000E+00  0.45593999997E+02  0.45594000000E+02  0.51100000000E-03 0. -1.
         11   -1    0    0    0    0 -0.00000000000E+00 -0.00000000000E+00 -0.45593999997E+02  0.45594000000E+02  0.51100000000E-03 0.  1.
    9900012    2    1    2    0    0  0.17249081954E+02 -0.72681831164E+01  0.56755808403E+00  0.72461563172E+02  0.69999990722E+02 0.  0.
         12    1    1    2    0    0 -0.17249081954E+02  0.72681831164E+01 -0.56755808403E+00  0.18726436828E+02  0.00000000000E+00 0. -1.
         11    1    3    3    0    0 -0.31159603824E+00  0.95130471115E+01  0.16076899369E+02  0.18683197024E+02  0.51100000000E-03 0. -1.
        -11    1    3    3    0    0  0.84594602524E+00 -0.25046129935E+02  0.55320670087E+01  0.25663749045E+02  0.51100000000E-03 0.  1.
         12    1    3    3    0    0  0.16714731967E+02  0.82648997068E+01 -0.21041408294E+02  0.28114617104E+02  0.00000000000E+00 0. -1.
</event>
<event>
 7    1  0.2876796E-013  0.7246152E+02  0.7816164E-02  0.1226708E+00
        -11   -1    0    0    0    0  0.00000000000E+00  0.00000000000E+00  0.45593999997E+02  0.45594000000E+02  0.51100000000E-03 0.  1.
         11   -1    0    0    0    0 -0.00000000000E+00 -0.00000000000E+00 -0.45593999997E+02  0.45594000000E+02  0.51100000000E-03 0. -1.
    9900012    2    1    2    0    0 -0.67353613773E+01  0.16767150795E+02 -0.49171904666E+01  0.72461516061E+02  0.69999929350E+02 0.  0.
         12    1    1    2    0    0  0.67353613773E+01 -0.16767150795E+02  0.49171904666E+01  0.18726483939E+02  0.00000000000E+00 0. -1.
         11    1    3    3    0    0 -0.51259426907E+00  0.29661588088E+01  0.39120583756E+01  0.49360968344E+01  0.51100000000E-03 0. -1.
        -11    1    3    3    0    0 -0.17490114623E+02 -0.22723077437E+02 -0.25147939788E+01  0.28784831887E+02  0.51100000000E-03 0.  1.
         12    1    3    3    0    0  0.11267347515E+02  0.36524069423E+02 -0.63144548633E+01  0.38740587340E+02  0.00000000000E+00 0. -1.
</event>
<event>
 7    1  0.2876796E-013  0.7246157E+02  0.7816164E-02  0.1226708E+00
        -11   -1    0    0    0    0  0.00000000000E+00  0.00000000000E+00  0.45593999997E+02  0.45594000000E+02  0.51100000000E-03 0.  1.
         11   -1    0    0    0    0 -0.00000000000E+00 -0.00000000000E+00 -0.45593999997E+02  0.45594000000E+02  0.51100000000E-03 0. -1.
    9900012    2    1    2    0    0 -0.16402692411E+02  0.63934310291E+01  0.63839455792E+01  0.72461573758E+02  0.70000004511E+02 0.  0.
         12    1    1    2    0    0  0.16402692411E+02 -0.63934310291E+01 -0.63839455792E+01  0.18726426242E+02  0.00000000000E+00 0. -1.
         11    1    3    3    0    0 -0.36972730621E+02 -0.20575451764E+01  0.53961159704E+01  0.37421041802E+02  0.51100000000E-03 0. -1.
        -11    1    3    3    0    0  0.18351642050E+01 -0.75234166277E+01  0.61445986275E+01  0.98856318952E+01  0.51100000000E-03 0.  1.
        -12    1    3    3    0    0  0.18734874004E+02  0.15974392833E+02 -0.51567690187E+01  0.25154900061E+02  0.00000000000E+00 0.  1.
</event>
<event>
 7    1  0.2876796E-013  0.7246156E+02  0.7816164E-02  0.1226708E+00
        -11   -1    0    0    0    0  0.00000000000E+00  0.00000000000E+00  0.45593999997E+02  0.45594000000E+02  0.51100000000E-03 0.  1.
         11   -1    0    0    0    0 -0.00000000000E+00 -0.00000000000E+00 -0.45593999997E+02  0.45594000000E+02  0.51100000000E-03 0. -1.
    9900012    2    1    2    0    0  0.65128437379E+01  0.13813566265E+02  0.10837331352E+02  0.72461561542E+02  0.69999988598E+02 0.  0.
         12    1    1    2    0    0 -0.65128437379E+01 -0.13813566265E+02 -0.10837331352E+02  0.18726438458E+02  0.00000000000E+00 0. -1.
         11    1    3    3    0    0 -0.60595132543E+01  0.33341455531E+01 -0.78856804031E+01  0.10488955293E+02  0.51100000000E-03 0. -1.
        -11    1    3    3    0    0  0.15963455480E+02  0.67777691751E+01 -0.17948929640E+02  0.24958648628E+02  0.51100000000E-03 0.  1.
         12    1    3    3    0    0 -0.33910984878E+01  0.37016515366E+01  0.36671941395E+02  0.37013957621E+02  0.00000000000E+00 0. -1.
</event>
<event>
 7    1  0.2876796E-013  0.7246151E+02  0.7816164E-02  0.1226708E+00
        -11   -1    0    0    0    0  0.00000000000E+00  0.00000000000E+00  0.45593999997E+02  0.45594000000E+02  0.51100000000E-03 0. -1.
         11   -1    0    0    0    0 -0.00000000000E+00 -0.00000000000E+00 -0.45593999997E+02  0.45594000000E+02  0.51100000000E-03 0.  1.
    9900012    2    1    2    0    0  0.46236134479E+01  0.15446406899E+02 -0.95242846714E+01  0.72461513787E+02  0.69999926388E+02 0.  0.
         12    1    1    2    0    0 -0.46236134479E+01 -0.15446406899E+02  0.95242846714E+01  0.18726486213E+02  0.00000000000E+00 0. -1.
         11    1    3    3    0    0 -0.70809802628E+01  0.50094049553E+01  0.10418851252E+02  0.13556802026E+02  0.51100000000E-03 0. -1.
        -11    1    3    3    0    0 -0.61341561094E+01  0.28988110412E+02 -0.12032072575E+02  0.31979824689E+02  0.51100000000E-03 0.  1.
        -12    1    3    3    0    0  0.17838749820E+02 -0.18551108468E+02 -0.79110633487E+01  0.26924887072E+02  0.00000000000E+00 0.  1.
</event>
<event>
 7    1  0.2876796E-013  0.7246156E+02  0.7816164E-02  0.1226708E+00
        -11   -1    0    0    0    0  0.00000000000E+00  0.00000000000E+00  0.45593999997E+02  0.45594000000E+02  0.51100000000E-03 0. -1.
         11   -1    0    0    0    0 -0.00000000000E+00 -0.00000000000E+00 -0.45593999997E+02  0.45594000000E+02  0.51100000000E-03 0.  1.
    9900012    2    1    2    0    0 -0.60102791564E+00  0.37940079850E+01 -0.18328226663E+02  0.72461558166E+02  0.69999984200E+02 0.  0.
         12    1    1    2    0    0  0.60102791564E+00 -0.37940079850E+01  0.18328226663E+02  0.18726441834E+02  0.00000000000E+00 0. -1.
         11    1    3    3    0    0  0.10542906023E+01  0.12412952307E+02  0.31388380429E+00  0.12461598492E+02  0.51100000000E-03 0. -1.
        -11    1    3    3    0    0 -0.24096121949E+02  0.11221904643E+02 -0.12712482836E+02  0.29464579700E+02  0.51100000000E-03 0.  1.
         12    1    3    3    0    0  0.22440803431E+02 -0.19840848965E+02 -0.59296276317E+01  0.30535379974E+02  0.00000000000E+00 0. -1.
</event>
<event>
 7    1  0.2876796E-013  0.7246150E+02  0.7816164E-02  0.1226708E+00
        -11   -1    0    0    0    0  0.00000000000E+00  0.00000000000E+00  0.45593999997E+02  0.45594000000E+02  0.51100000000E-03 0. -1.
         11   -1    0    0    0    0 -0.00000000000E+00 -0.00000000000E+00 -0.45593999997E+02  0.45594000000E+02  0.51100000000E-03 0.  1.
    9900012    2    1    2    0    0 -0.26765285480E+01 -0.37596698168E+01 -0.18148909881E+02  0.72461498670E+02  0.69999906695E+02 0.  0.
         12    1    1    2    0    0  0.26765285480E+01  0.37596698168E+01  0.18148909881E+02  0.18726501330E+02  0.00000000000E+00 0. -1.
         11    1    3    3    0    0  0.19457969020E+01 -0.20335126152E+02 -0.37270087292E+01  0.20765213111E+02  0.51100000000E-03 0.  1.
        -11    1    3    3    0    0  0.13942531990E+02  0.17241318613E+02  0.70844699071E+01  0.23277606834E+02  0.51100000000E-03 0. -1.
         12    1    3    3    0    0 -0.18564857440E+02 -0.66586227802E+00 -0.21506371059E+02  0.28418678725E+02  0.00000000000E+00 0. -1.
</event>
<event>
 7    1  0.2876796E-013  0.7246214E+02  0.7816164E-02  0.1226706E+00
        -11   -1    0    0    0    0  0.00000000000E+00  0.00000000000E+00  0.45593999997E+02  0.45594000000E+02  0.51100000000E-03 0.  1.
         11   -1    0    0    0    0 -0.00000000000E+00 -0.00000000000E+00 -0.45593999997E+02  0.45594000000E+02  0.51100000000E-03 0. -1.
    9900012    2    1    2    0    0 -0.15441882727E+00  0.18671563331E+02  0.14165219402E+01  0.72462144698E+02  0.70000748263E+02 0.  0.
         12    1    1    2    0    0  0.15441882727E+00 -0.18671563331E+02 -0.14165219402E+01  0.18725855302E+02  0.00000000000E+00 0. -1.
         11    1    3    3    0    0  0.12034751236E+02 -0.11953577284E+02 -0.51477828445E+01  0.17726333960E+02  0.51100000000E-03 0. -1.
        -11    1    3    3    0    0  0.10257028877E+02  0.26583605706E+02 -0.53693015915E+01  0.28995243292E+02  0.51100000000E-03 0.  1.
        -12    1    3    3    0    0 -0.22446198940E+02  0.40415349089E+01  0.11933606376E+02  0.25740567445E+02  0.00000000000E+00 0.  1.
</event>
<event>
 7    1  0.2876796E-013  0.7246158E+02  0.7816164E-02  0.1226708E+00
        -11   -1    0    0    0    0  0.00000000000E+00  0.00000000000E+00  0.45593999997E+02  0.45594000000E+02  0.51100000000E-03 0.  1.
         11   -1    0    0    0    0 -0.00000000000E+00 -0.00000000000E+00 -0.45593999997E+02  0.45594000000E+02  0.51100000000E-03 0. -1.
    9900012    2    1    2    0    0 -0.15091485927E+02  0.62149992796E+01  0.91814815773E+01  0.72461581029E+02  0.70000013984E+02 0.  0.
         12    1    1    2    0    0  0.15091485927E+02 -0.62149992796E+01 -0.91814815773E+01  0.18726418971E+02  0.00000000000E+00 0. -1.
         11    1    3    3    0    0 -0.52381264914E+01  0.10865834005E+02 -0.13604765176E+02  0.18182242808E+02  0.51100000000E-03 0. -1.
        -11    1    3    3    0    0 -0.18095702947E+02 -0.19648082494E+02  0.25527740268E+02  0.36948168213E+02  0.51100000000E-03 0.  1.
         12    1    3    3    0    0  0.82423435114E+01  0.14997247768E+02 -0.27414935145E+01  0.17331170008E+02  0.00000000000E+00 0. -1.
</event>
<event>
 7    1  0.2876796E-013  0.7246145E+02  0.7816164E-02  0.1226708E+00
        -11   -1    0    0    0    0  0.00000000000E+00  0.00000000000E+00  0.45593999997E+02  0.45594000000E+02  0.51100000000E-03 0. -1.
         11   -1    0    0    0    0 -0.00000000000E+00 -0.00000000000E+00 -0.45593999997E+02  0.45594000000E+02  0.51100000000E-03 0.  1.
    9900012    2    1    2    0    0  0.80498095027E+01  0.36331679863E+01 -0.16513161163E+02  0.72461445746E+02  0.69999837752E+02 0.  0.
         12    1    1    2    0    0 -0.80498095027E+01 -0.36331679863E+01  0.16513161163E+02  0.18726554254E+02  0.00000000000E+00 0. -1.
         11    1    3    3    0    0  0.46809746809E+00  0.47988333245E+01 -0.22334997798E+02  0.22849508603E+02  0.51100000000E-03 0. -1.
        -11    1    3    3    0    0  0.11264310597E+01  0.21831510900E+02 -0.64035049035E+01  0.22779126199E+02  0.51100000000E-03 0.  1.
         12    1    3    3    0    0  0.64552809749E+01 -0.22997176238E+02  0.12225341538E+02  0.26832810943E+02  0.00000000000E+00 0. -1.
</event>
<event>
 7    1  0.2876796E-013  0.7246156E+02  0.7816164E-02  0.1226708E+00
        -11   -1    0    0    0    0  0.00000000000E+00  0.00000000000E+00  0.45593999997E+02  0.45594000000E+02  0.51100000000E-03 0.  1.
         11   -1    0    0    0    0 -0.00000000000E+00 -0.00000000000E+00 -0.45593999997E+02  0.45594000000E+02  0.51100000000E-03 0. -1.
    9900012    2    1    2    0    0  0.14242672372E+02 -0.39116730167E+01  0.11511928427E+02  0.72461564188E+02  0.69999992045E+02 0.  0.
         12    1    1    2    0    0 -0.14242672372E+02  0.39116730167E+01 -0.11511928427E+02  0.18726435812E+02  0.00000000000E+00 0. -1.
         11    1    3    3    0    0 -0.49483832055E+01  0.15864046109E+02 -0.10506128271E+02  0.19660447269E+02  0.51100000000E-03 0. -1.
        -11    1    3    3    0    0  0.13228022384E+02  0.53315261506E+01  0.22902650820E+02  0.26980310638E+02  0.51100000000E-03 0.  1.
        -12    1    3    3    0    0  0.59630331941E+01 -0.25107245277E+02 -0.88459412182E+00  0.25820806281E+02  0.00000000000E+00 0.  1.
</event>
<event>
 7    1  0.2876796E-013  0.7246149E+02  0.7816164E-02  0.1226708E+00
        -11   -1    0    0    0    0  0.00000000000E+00  0.00000000000E+00  0.45593999997E+02  0.45594000000E+02  0.51100000000E-03 0.  1.
         11   -1    0    0    0    0 -0.00000000000E+00 -0.00000000000E+00 -0.45593999997E+02  0.45594000000E+02  0.51100000000E-03 0. -1.
    9900012    2    1    2    0    0  0.25458933617E+00 -0.13809486424E+02  0.12645774795E+02  0.72461485343E+02  0.69999889336E+02 0.  0.
         12    1    1    2    0    0 -0.25458933617E+00  0.13809486424E+02 -0.12645774795E+02  0.18726514657E+02  0.00000000000E+00 0. -1.
         11    1    3    3    0    0  0.84704954014E+01 -0.11903423908E+00 -0.74308614351E+01  0.11268591901E+02  0.51100000000E-03 0. -1.
        -11    1    3    3    0    0  0.15703836396E+01 -0.52562582731E+01  0.38390648508E+02  0.38780616923E+02  0.51100000000E-03 0.  1.
         12    1    3    3    0    0 -0.97862897048E+01 -0.84341939114E+01 -0.18314012277E+02  0.22412276520E+02  0.00000000000E+00 0. -1.
</event>
<event>
 7    1  0.2876796E-013  0.7246157E+02  0.7816164E-02  0.1226708E+00
        -11   -1    0    0    0    0  0.00000000000E+00  0.00000000000E+00  0.45593999997E+02  0.45594000000E+02  0.51100000000E-03 0.  1.
         11   -1    0    0    0    0 -0.00000000000E+00 -0.00000000000E+00 -0.45593999997E+02  0.45594000000E+02  0.51100000000E-03 0. -1.
    9900012    2    1    2    0    0 -0.43984052616E+01  0.19838167363E+01  0.18094129103E+02  0.72461574669E+02  0.70000005699E+02 0.  0.
         12    1    1    2    0    0  0.43984052616E+01 -0.19838167363E+01 -0.18094129103E+02  0.18726425331E+02  0.00000000000E+00 0. -1.
         11    1    3    3    0    0  0.83618779815E+01 -0.27079969106E+01 -0.87515807399E+01  0.12403403418E+02  0.51100000000E-03 0. -1.
        -11    1    3    3    0    0  0.99394214882E+01 -0.18123998605E+02  0.15847625563E+02  0.26046471185E+02  0.51100000000E-03 0.  1.
         12    1    3    3    0    0 -0.22699704731E+02  0.22815812251E+02  0.10998084280E+02  0.34011700066E+02  0.00000000000E+00 0. -1.
</event>
<event>
 7    1  0.2876796E-013  0.7246157E+02  0.7816164E-02  0.1226708E+00
        -11   -1    0    0    0    0  0.00000000000E+00  0.00000000000E+00  0.45593999997E+02  0.45594000000E+02  0.51100000000E-03 0.  1.
         11   -1    0    0    0    0 -0.00000000000E+00 -0.00000000000E+00 -0.45593999997E+02  0.45594000000E+02  0.51100000000E-03 0. -1.
    9900012    2    1    2    0    0  0.10922748230E+02 -0.15169104446E+02  0.11273359938E+01  0.72461573618E+02  0.70000004330E+02 0.  0.
         12    1    1    2    0    0 -0.10922748230E+02  0.15169104446E+02 -0.11273359938E+01  0.18726426382E+02  0.00000000000E+00 0. -1.
         11    1    3    3    0    0 -0.59250606148E+01  0.79046797549E+01  0.10768465210E+02  0.14613355144E+02  0.51100000000E-03 0. -1.
        -11    1    3    3    0    0  0.32830221976E+02 -0.95667724074E+01  0.13289982798E+01  0.34221526062E+02  0.51100000000E-03 0.  1.
         12    1    3    3    0    0 -0.15982413131E+02 -0.13507011793E+02 -0.10970127496E+02  0.23626692413E+02  0.00000000000E+00 0. -1.
</event>
<event>
 7    1  0.2876796E-013  0.7246154E+02  0.7816164E-02  0.1226708E+00
        -11   -1    0    0    0    0  0.00000000000E+00  0.00000000000E+00  0.45593999997E+02  0.45594000000E+02  0.51100000000E-03 0.  1.
         11   -1    0    0    0    0 -0.00000000000E+00 -0.00000000000E+00 -0.45593999997E+02  0.45594000000E+02  0.51100000000E-03 0. -1.
    9900012    2    1    2    0    0 -0.17286092615E+02 -0.45526301307E+01 -0.55807740837E+01  0.72461535347E+02  0.69999954475E+02 0.  0.
         12    1    1    2    0    0  0.17286092615E+02  0.45526301307E+01  0.55807740837E+01  0.18726464653E+02  0.00000000000E+00 0. -1.
         11    1    3    3    0    0  0.13182150740E+02  0.10606787375E+02 -0.16173452222E+02  0.23406272526E+02  0.51100000000E-03 0. -1.
        -11    1    3    3    0    0  0.47400686959E+01 -0.30175891140E+01 -0.60551291934E+01  0.82606709844E+01  0.51100000000E-03 0.  1.
        -12    1    3    3    0    0 -0.35208312051E+02 -0.12141828392E+02  0.16647807332E+02  0.40794591837E+02  0.00000000000E+00 0.  1.
</event>
<event>
 7    1  0.2876796E-013  0.7246156E+02  0.7816164E-02  0.1226708E+00
        -11   -1    0    0    0    0  0.00000000000E+00  0.00000000000E+00  0.45593999997E+02  0.45594000000E+02  0.51100000000E-03 0. -1.
         11   -1    0    0    0    0 -0.00000000000E+00 -0.00000000000E+00 -0.45593999997E+02  0.45594000000E+02  0.51100000000E-03 0.  1.
    9900012    2    1    2    0    0  0.87433766719E+01 -0.68137762309E+01 -0.15093221976E+02  0.72461560622E+02  0.69999987400E+02 0.  0.
         12    1    1    2    0    0 -0.87433766719E+01  0.68137762309E+01  0.15093221976E+02  0.18726439378E+02  0.00000000000E+00 0. -1.
         11    1    3    3    0    0  0.41924862497E+01  0.13928096036E+02 -0.81235886922E+01  0.16660176879E+02  0.51100000000E-03 0. -1.
        -11    1    3    3    0    0 -0.85539697216E+01  0.37967800343E+01  0.16786762495E+02  0.19219295824E+02  0.51100000000E-03 0.  1.
         12    1    3    3    0    0  0.13104860144E+02 -0.24538652301E+02 -0.23756395779E+02  0.36582087920E+02  0.00000000000E+00 0. -1.
</event>
<event>
 7    1  0.2876796E-013  0.7246140E+02  0.7816164E-02  0.1226708E+00
        -11   -1    0    0    0    0  0.00000000000E+00  0.00000000000E+00  0.45593999997E+02  0.45594000000E+02  0.51100000000E-03 0.  1.
         11   -1    0    0    0    0 -0.00000000000E+00 -0.00000000000E+00 -0.45593999997E+02  0.45594000000E+02  0.51100000000E-03 0. -1.
    9900012    2    1    2    0    0  0.56690765511E+01  0.35989282070E+01  0.17481272097E+02  0.72461398939E+02  0.69999776777E+02 0.  0.
         12    1    1    2    0    0 -0.56690765511E+01 -0.35989282070E+01 -0.17481272097E+02  0.18726601061E+02  0.00000000000E+00 0. -1.
         11    1    3    3    0    0  0.23266908965E+01  0.92162955751E+00  0.11377226106E+02  0.11649213093E+02  0.51100000000E-03 0. -1.
        -11    1    3    3    0    0 -0.20112561096E+02 -0.83712248102E+01  0.21541766400E+02  0.30637235818E+02  0.51100000000E-03 0.  1.
         12    1    3    3    0    0  0.23454946751E+02  0.11048523460E+02 -0.15437720409E+02  0.30174950027E+02  0.00000000000E+00 0. -1.
</event>
<event>
 7    1  0.2876796E-013  0.7246156E+02  0.7816164E-02  0.1226708E+00
        -11   -1    0    0    0    0  0.00000000000E+00  0.00000000000E+00  0.45593999997E+02  0.45594000000E+02  0.51100000000E-03 0.  1.
         11   -1    0    0    0    0 -0.00000000000E+00 -0.00000000000E+00 -0.45593999997E+02  0.45594000000E+02  0.51100000000E-03 0. -1.
    9900012    2    1    2    0    0  0.10583228303E+02 -0.93940519452E+01  0.12264847015E+02  0.72461563992E+02  0.69999991790E+02 0.  0.
         12    1    1    2    0    0 -0.10583228303E+02  0.93940519452E+01 -0.12264847015E+02  0.18726436008E+02  0.00000000000E+00 0. -1.
         11    1    3    3    0    0  0.17515235378E+01  0.48842682519E+01 -0.22770093470E+00  0.51938193111E+01  0.51100000000E-03 0. -1.
        -11    1    3    3    0    0  0.60982891691E+01  0.19627271568E+02  0.23777467217E+02  0.31429076784E+02  0.51100000000E-03 0.  1.
         12    1    3    3    0    0  0.27334155961E+01 -0.33905591765E+02 -0.11284919267E+02  0.35838667897E+02  0.00000000000E+00 0. -1.
</event>
<event>
 7    1  0.2876796E-013  0.7246156E+02  0.7816164E-02  0.1226708E+00
        -11   -1    0    0    0    0  0.00000000000E+00  0.00000000000E+00  0.45593999997E+02  0.45594000000E+02  0.51100000000E-03 0.  1.
         11   -1    0    0    0    0 -0.00000000000E+00 -0.00000000000E+00 -0.45593999997E+02  0.45594000000E+02  0.51100000000E-03 0. -1.
    9900012    2    1    2    0    0 -0.16949326630E+02  0.78701998239E+01  0.12082507590E+01  0.72461559110E+02  0.69999985431E+02 0.  0.
         12    1    1    2    0    0  0.16949326630E+02 -0.78701998239E+01 -0.12082507590E+01  0.18726440890E+02  0.00000000000E+00 0. -1.
         11    1    3    3    0    0  0.16537909959E+01 -0.24471399581E+01 -0.11901649476E+02  0.12262657915E+02  0.51100000000E-03 0. -1.
        -11    1    3    3    0    0  0.11039196164E+02  0.23222551427E+02  0.11854109828E+01  0.25740162124E+02  0.51100000000E-03 0.  1.
        -12    1    3    3    0    0 -0.29642313790E+02 -0.12905211645E+02  0.11924489252E+02  0.34458739071E+02  0.00000000000E+00 0.  1.
</event>
<event>
 7    1  0.2876796E-013  0.7246159E+02  0.7816164E-02  0.1226708E+00
        -11   -1    0    0    0    0  0.00000000000E+00  0.00000000000E+00  0.45593999997E+02  0.45594000000E+02  0.51100000000E-03 0.  1.
         11   -1    0    0    0    0 -0.00000000000E+00 -0.00000000000E+00 -0.45593999997E+02  0.45594000000E+02  0.51100000000E-03 0. -1.
    9900012    2    1    2    0    0  0.18568828234E+02  0.13595131866E+01 -0.20072130380E+01  0.72461586509E+02  0.70000021122E+02 0.  0.
         12    1    1    2    0    0 -0.18568828234E+02 -0.13595131866E+01  0.20072130380E+01  0.18726413491E+02  0.00000000000E+00 0. -1.
         11    1    3    3    0    0 -0.21112623817E+01  0.63744767443E+01  0.10056600556E+02  0.12092419014E+02  0.51100000000E-03 0. -1.
        -11    1    3    3    0    0  0.18855218836E+02  0.51655190989E+01  0.19222703478E+02  0.27417406774E+02  0.51100000000E-03 0.  1.
         12    1    3    3    0    0  0.18248717790E+01 -0.10180482657E+02 -0.31286517072E+02  0.32951760721E+02  0.00000000000E+00 0. -1.
</event>
<event>
 7    1  0.2876796E-013  0.7246158E+02  0.7816164E-02  0.1226708E+00
        -11   -1    0    0    0    0  0.00000000000E+00  0.00000000000E+00  0.45593999997E+02  0.45594000000E+02  0.51100000000E-03 0. -1.
         11   -1    0    0    0    0 -0.00000000000E+00 -0.00000000000E+00 -0.45593999997E+02  0.45594000000E+02  0.51100000000E-03 0.  1.
    9900012    2    1    2    0    0 -0.18250869150E+02 -0.24764858871E+01  0.33840207315E+01  0.72461580070E+02  0.70000012735E+02 0.  0.
         12    1    1    2    0    0  0.18250869150E+02  0.24764858871E+01 -0.33840207315E+01  0.18726419930E+02  0.00000000000E+00 0. -1.
         11    1    3    3    0    0  0.28131673201E+01  0.83335816939E+01 -0.58830282983E+01  0.10581706688E+02  0.51100000000E-03 0. -1.
        -11    1    3    3    0    0 -0.18895125521E+02  0.17433070210E+02 -0.10039909889E+02  0.27599592320E+02  0.51100000000E-03 0.  1.
         12    1    3    3    0    0 -0.21689109486E+01 -0.28243137791E+02  0.19306958918E+02  0.34280281061E+02  0.00000000000E+00 0. -1.
</event>
<event>
 7    1  0.2876796E-013  0.7246159E+02  0.7816164E-02  0.1226708E+00
        -11   -1    0    0    0    0  0.00000000000E+00  0.00000000000E+00  0.45593999997E+02  0.45594000000E+02  0.51100000000E-03 0.  1.
         11   -1    0    0    0    0 -0.00000000000E+00 -0.00000000000E+00 -0.45593999997E+02  0.45594000000E+02  0.51100000000E-03 0. -1.
    9900012    2    1    2    0    0  0.16712878304E+02  0.79338074336E+01  0.29005053360E+01  0.72461587295E+02  0.70000022146E+02 0.  0.
         12    1    1    2    0    0 -0.16712878304E+02 -0.79338074336E+01 -0.29005053360E+01  0.18726412705E+02  0.00000000000E+00 0. -1.
         11    1    3    3    0    0 -0.25068655228E+01  0.10677405510E+02  0.42898096865E+01  0.11776834489E+02  0.51100000000E-03 0. -1.
        -11    1    3    3    0    0  0.30502960941E+02  0.14605035994E+02 -0.13830489365E+02  0.36537927402E+02  0.51100000000E-03 0.  1.
         12    1    3    3    0    0 -0.11283217114E+02 -0.17348634070E+02  0.12441185014E+02  0.24146825404E+02  0.00000000000E+00 0. -1.
</event>
<event>
 7    1  0.2876796E-013  0.7246161E+02  0.7816164E-02  0.1226708E+00
        -11   -1    0    0    0    0  0.00000000000E+00  0.00000000000E+00  0.45593999997E+02  0.45594000000E+02  0.51100000000E-03 0.  1.
         11   -1    0    0    0    0 -0.00000000000E+00 -0.00000000000E+00 -0.45593999997E+02  0.45594000000E+02  0.51100000000E-03 0. -1.
    9900012    2    1    2    0    0 -0.56052669009E+01 -0.14521044388E+02 -0.10411425488E+02  0.72461614128E+02  0.70000057101E+02 0.  0.
         12    1    1    2    0    0  0.56052669009E+01  0.14521044388E+02  0.10411425488E+02  0.18726385872E+02  0.00000000000E+00 0. -1.
         11    1    3    3    0    0 -0.12446737838E+02  0.37111257644E+01 -0.26088317674E+02  0.29142650130E+02  0.51100000000E-03 0. -1.
        -11    1    3    3    0    0 -0.12532720668E+02  0.14110680115E+01  0.68449151667E+01  0.14349671222E+02  0.51100000000E-03 0.  1.
        -12    1    3    3    0    0  0.19374191605E+02 -0.19643238164E+02  0.88319770190E+01  0.28969292776E+02  0.00000000000E+00 0.  1.
</event>
<event>
 7    1  0.2876796E-013  0.7246158E+02  0.7816164E-02  0.1226708E+00
        -11   -1    0    0    0    0  0.00000000000E+00  0.00000000000E+00  0.45593999997E+02  0.45594000000E+02  0.51100000000E-03 0.  1.
         11   -1    0    0    0    0 -0.00000000000E+00 -0.00000000000E+00 -0.45593999997E+02  0.45594000000E+02  0.51100000000E-03 0. -1.
    9900012    2    1    2    0    0  0.17710685067E+02  0.58951423077E+01 -0.15025622429E+01  0.72461581184E+02  0.70000014186E+02 0.  0.
         12    1    1    2    0    0 -0.17710685067E+02 -0.58951423077E+01  0.15025622429E+01  0.18726418816E+02  0.00000000000E+00 0. -1.
         11    1    3    3    0    0  0.19850838401E+02  0.27214144935E+01  0.17755560344E+02  0.26771660491E+02  0.51100000000E-03 0. -1.
        -11    1    3    3    0    0  0.17867620005E+02  0.96347928379E+01 -0.11109711900E+02  0.23141019347E+02  0.51100000000E-03 0.  1.
         12    1    3    3    0    0 -0.20007773339E+02 -0.64610650236E+01 -0.81484106862E+01  0.22548901346E+02  0.00000000000E+00 0. -1.
</event>
<event>
 7    1  0.2876796E-013  0.7246159E+02  0.7816164E-02  0.1226708E+00
        -11   -1    0    0    0    0  0.00000000000E+00  0.00000000000E+00  0.45593999997E+02  0.45594000000E+02  0.51100000000E-03 0.  1.
         11   -1    0    0    0    0 -0.00000000000E+00 -0.00000000000E+00 -0.45593999997E+02  0.45594000000E+02  0.51100000000E-03 0. -1.
    9900012    2    1    2    0    0  0.77276669863E+01  0.38413084617E+01  0.16619440699E+02  0.72461593593E+02  0.70000030351E+02 0.  0.
         12    1    1    2    0    0 -0.77276669863E+01 -0.38413084617E+01 -0.16619440699E+02  0.18726406407E+02  0.00000000000E+00 0. -1.
         11    1    3    3    0    0  0.29471135218E+02  0.11490853592E+02  0.28168928115E+01  0.31757241894E+02  0.51100000000E-03 0. -1.
        -11    1    3    3    0    0 -0.98392923970E+00  0.31030005926E+01  0.16819425655E+02  0.17131544269E+02  0.51100000000E-03 0.  1.
        -12    1    3    3    0    0 -0.20759538992E+02 -0.10752545723E+02 -0.30168777669E+01  0.23572807431E+02  0.00000000000E+00 0.  1.
</event>
<event>
 7    1  0.2876796E-013  0.7246158E+02  0.7816164E-02  0.1226708E+00
        -11   -1    0    0    0    0  0.00000000000E+00  0.00000000000E+00  0.45593999997E+02  0.45594000000E+02  0.51100000000E-03 0.  1.
         11   -1    0    0    0    0 -0.00000000000E+00 -0.00000000000E+00 -0.45593999997E+02  0.45594000000E+02  0.51100000000E-03 0. -1.
    9900012    2    1    2    0    0 -0.17039035692E+02  0.58630277266E+01  0.50965719610E+01  0.72461578100E+02  0.70000010168E+02 0.  0.
         12    1    1    2    0    0  0.17039035692E+02 -0.58630277266E+01 -0.50965719610E+01  0.18726421900E+02  0.00000000000E+00 0. -1.
         11    1    3    3    0    0 -0.21711779278E+02  0.13642422576E+02 -0.19827738264E+02  0.32413828193E+02  0.51100000000E-03 0. -1.
        -11    1    3    3    0    0 -0.49662600866E+01  0.92765738604E+01  0.36756325826E+01  0.11145799073E+02  0.51100000000E-03 0.  1.
        -12    1    3    3    0    0  0.96390036729E+01 -0.17055968710E+02  0.21248677643E+02  0.28901950834E+02  0.00000000000E+00 0.  1.
</event>
<event>
 7    1  0.2876796E-013  0.7246114E+02  0.7816164E-02  0.1226709E+00
        -11   -1    0    0    0    0  0.00000000000E+00  0.00000000000E+00  0.45593999997E+02  0.45594000000E+02  0.51100000000E-03 0.  1.
         11   -1    0    0    0    0 -0.00000000000E+00 -0.00000000000E+00 -0.45593999997E+02  0.45594000000E+02  0.51100000000E-03 0. -1.
    9900012    2    1    2    0    0 -0.10656902976E+02  0.14635814163E+02  0.47873529784E+01  0.72461137321E+02  0.69999435970E+02 0.  0.
         12    1    1    2    0    0  0.10656902976E+02 -0.14635814163E+02 -0.47873529784E+01  0.18726862679E+02  0.00000000000E+00 0. -1.
         11    1    3    3    0    0 -0.51524702419E+01  0.15001122128E+02  0.65729023275E+01  0.17169294102E+02  0.51100000000E-03 0. -1.
        -11    1    3    3    0    0 -0.94278616428E+01  0.92506053824E+01  0.24054822828E+02  0.27442535901E+02  0.51100000000E-03 0.  1.
         12    1    3    3    0    0  0.39234289090E+01 -0.96159133470E+01 -0.25840372177E+02  0.27849307319E+02  0.00000000000E+00 0. -1.
</event>
<event>
 7    1  0.2876796E-013  0.7246157E+02  0.7816164E-02  0.1226708E+00
        -11   -1    0    0    0    0  0.00000000000E+00  0.00000000000E+00  0.45593999997E+02  0.45594000000E+02  0.51100000000E-03 0.  1.
         11   -1    0    0    0    0 -0.00000000000E+00 -0.00000000000E+00 -0.45593999997E+02  0.45594000000E+02  0.51100000000E-03 0. -1.
    9900012    2    1    2    0    0  0.18020902494E+02 -0.17090122187E+01  0.47963928579E+01  0.72461573915E+02  0.70000004717E+02 0.  0.
         12    1    1    2    0    0 -0.18020902494E+02  0.17090122187E+01 -0.47963928579E+01  0.18726426085E+02  0.00000000000E+00 0. -1.
         11    1    3    3    0    0 -0.18246910604E+01 -0.73330728532E+01 -0.20395825471E+02  0.21750704628E+02  0.51100000000E-03 0. -1.
        -11    1    3    3    0    0  0.70283603088E+01 -0.16581282676E+02  0.13628309921E+02  0.22584676561E+02  0.51100000000E-03 0.  1.
         12    1    3    3    0    0  0.12817233245E+02  0.22205343310E+02  0.11563908407E+02  0.28126192726E+02  0.00000000000E+00 0. -1.
</event>
<event>
 7    1  0.2876796E-013  0.7246157E+02  0.7816164E-02  0.1226708E+00
        -11   -1    0    0    0    0  0.00000000000E+00  0.00000000000E+00  0.45593999997E+02  0.45594000000E+02  0.51100000000E-03 0.  1.
         11   -1    0    0    0    0 -0.00000000000E+00 -0.00000000000E+00 -0.45593999997E+02  0.45594000000E+02  0.51100000000E-03 0. -1.
    9900012    2    1    2    0    0  0.52719982716E+01 -0.16373842389E+02  0.74015133030E+01  0.72461572697E+02  0.70000003130E+02 0.  0.
         12    1    1    2    0    0 -0.52719982716E+01  0.16373842389E+02 -0.74015133030E+01  0.18726427303E+02  0.00000000000E+00 0. -1.
         11    1    3    3    0    0  0.93905239365E+01  0.17767125416E+01 -0.42484815748E+01  0.10458883459E+02  0.51100000000E-03 0. -1.
        -11    1    3    3    0    0  0.25154661480E+02 -0.16629379529E+02 -0.77725323333E+00  0.30164505310E+02  0.51100000000E-03 0.  1.
        -12    1    3    3    0    0 -0.29273187145E+02 -0.15211754012E+01  0.12427248111E+02  0.31838183928E+02  0.00000000000E+00 0.  1.
</event>
<event>
 7    1  0.2876796E-013  0.7246188E+02  0.7816164E-02  0.1226707E+00
        -11   -1    0    0    0    0  0.00000000000E+00  0.00000000000E+00  0.45593999997E+02  0.45594000000E+02  0.51100000000E-03 0. -1.
         11   -1    0    0    0    0 -0.00000000000E+00 -0.00000000000E+00 -0.45593999997E+02  0.45594000000E+02  0.51100000000E-03 0.  1.
    9900012    2    1    2    0    0 -0.16847869269E+02  0.66311983260E+01  0.47795287983E+01  0.72461884928E+02  0.70000409868E+02 0.  0.
         12    1    1    2    0    0  0.16847869269E+02 -0.66311983260E+01 -0.47795287983E+01  0.18726115072E+02  0.00000000000E+00 0. -1.
         11    1    3    3    0    0 -0.13304848746E+02 -0.65160984342E+01  0.89596762469E+01  0.17313414962E+02  0.51100000000E-03 0. -1.
        -11    1    3    3    0    0 -0.18140939516E+02  0.21710113326E+02 -0.17799341875E+02  0.33425129448E+02  0.51100000000E-03 0.  1.
         12    1    3    3    0    0  0.14597918992E+02 -0.85628165660E+01  0.13619194427E+02  0.21723340518E+02  0.00000000000E+00 0. -1.
</event>
<event>
 7    1  0.2876796E-013  0.7246157E+02  0.7816164E-02  0.1226708E+00
        -11   -1    0    0    0    0  0.00000000000E+00  0.00000000000E+00  0.45593999997E+02  0.45594000000E+02  0.51100000000E-03 0. -1.
         11   -1    0    0    0    0 -0.00000000000E+00 -0.00000000000E+00 -0.45593999997E+02  0.45594000000E+02  0.51100000000E-03 0.  1.
    9900012    2    1    2    0    0 -0.14453805845E+02  0.63792032646E+01 -0.10053475974E+02  0.72461571701E+02  0.70000001832E+02 0.  0.
         12    1    1    2    0    0  0.14453805845E+02 -0.63792032646E+01  0.10053475974E+02  0.18726428299E+02  0.00000000000E+00 0. -1.
         11    1    3    3    0    0 -0.98424131578E+01 -0.19503208575E+02  0.29985962408E+01  0.22050846269E+02  0.51100000000E-03 0. -1.
        -11    1    3    3    0    0  0.60178460990E+01 -0.67133810309E+01 -0.13368083233E+02  0.16124193193E+02  0.51100000000E-03 0.  1.
        -12    1    3    3    0    0 -0.10629238786E+02  0.32595792871E+02  0.31601101778E+00  0.34286532239E+02  0.00000000000E+00 0.  1.
</event>
<event>
 7    1  0.2876796E-013  0.7246157E+02  0.7816164E-02  0.1226708E+00
        -11   -1    0    0    0    0  0.00000000000E+00  0.00000000000E+00  0.45593999997E+02  0.45594000000E+02  0.51100000000E-03 0.  1.
         11   -1    0    0    0    0 -0.00000000000E+00 -0.00000000000E+00 -0.45593999997E+02  0.45594000000E+02  0.51100000000E-03 0. -1.
    9900012    2    1    2    0    0  0.57867034255E+01  0.59720840439E+01  0.16778781339E+02  0.72461568744E+02  0.69999997980E+02 0.  0.
         12    1    1    2    0    0 -0.57867034255E+01 -0.59720840439E+01 -0.16778781339E+02  0.18726431256E+02  0.00000000000E+00 0. -1.
         11    1    3    3    0    0 -0.84221785846E+01 -0.80671294783E+01  0.20341048938E+02  0.23447173439E+02  0.51100000000E-03 0. -1.
        -11    1    3    3    0    0  0.52441069476E+01  0.39823344140E+01  0.20448265573E+02  0.21482346480E+02  0.51100000000E-03 0.  1.
         12    1    3    3    0    0  0.89647750625E+01  0.10056879108E+02 -0.24010533172E+02  0.27532048825E+02  0.00000000000E+00 0. -1.
</event>
<event>
 7    1  0.2876796E-013  0.7246157E+02  0.7816164E-02  0.1226708E+00
        -11   -1    0    0    0    0  0.00000000000E+00  0.00000000000E+00  0.45593999997E+02  0.45594000000E+02  0.51100000000E-03 0.  1.
         11   -1    0    0    0    0 -0.00000000000E+00 -0.00000000000E+00 -0.45593999997E+02  0.45594000000E+02  0.51100000000E-03 0. -1.
    9900012    2    1    2    0    0 -0.16738195699E+02 -0.55467985854E+01  0.63043590365E+01  0.72461571812E+02  0.70000001977E+02 0.  0.
         12    1    1    2    0    0  0.16738195699E+02  0.55467985854E+01 -0.63043590365E+01  0.18726428188E+02  0.00000000000E+00 0. -1.
         11    1    3    3    0    0 -0.11481421031E+02 -0.17041849804E+02 -0.13452847288E+02  0.24560675358E+02  0.51100000000E-03 0. -1.
        -11    1    3    3    0    0 -0.52925666363E+01  0.12633467639E+02 -0.10725511812E+02  0.17396906911E+02  0.51100000000E-03 0.  1.
        -12    1    3    3    0    0  0.35791968110E-01 -0.11384164199E+01  0.30482718136E+02  0.30503989542E+02  0.00000000000E+00 0.  1.
</event>
<event>
 7    1  0.2876796E-013  0.7246155E+02  0.7816164E-02  0.1226708E+00
        -11   -1    0    0    0    0  0.00000000000E+00  0.00000000000E+00  0.45593999997E+02  0.45594000000E+02  0.51100000000E-03 0. -1.
         11   -1    0    0    0    0 -0.00000000000E+00 -0.00000000000E+00 -0.45593999997E+02  0.45594000000E+02  0.51100000000E-03 0.  1.
    9900012    2    1    2    0    0  0.16741723895E+02 -0.60104410385E+01 -0.58539848984E+01  0.72461551868E+02  0.69999975996E+02 0.  0.
         12    1    1    2    0    0 -0.16741723895E+02  0.60104410385E+01  0.58539848984E+01  0.18726448132E+02  0.00000000000E+00 0. -1.
         11    1    3    3    0    0 -0.13988102390E+02 -0.60631601387E+01  0.23681128575E+01  0.15428443801E+02  0.51100000000E-03 0. -1.
        -11    1    3    3    0    0  0.57501803532E+01  0.85021811712E+00 -0.25820325518E+02  0.26466519511E+02  0.51100000000E-03 0.  1.
         12    1    3    3    0    0  0.24979645932E+02 -0.79749901698E+00  0.17598227762E+02  0.30566588556E+02  0.00000000000E+00 0. -1.
</event>
<event>
 7    1  0.2876796E-013  0.7246153E+02  0.7816164E-02  0.1226708E+00
        -11   -1    0    0    0    0  0.00000000000E+00  0.00000000000E+00  0.45593999997E+02  0.45594000000E+02  0.51100000000E-03 0.  1.
         11   -1    0    0    0    0 -0.00000000000E+00 -0.00000000000E+00 -0.45593999997E+02  0.45594000000E+02  0.51100000000E-03 0. -1.
    9900012    2    1    2    0    0 -0.23710659989E+01 -0.16258087684E+02  0.89851627612E+01  0.72461534264E+02  0.69999953064E+02 0.  0.
         12    1    1    2    0    0  0.23710659989E+01  0.16258087684E+02 -0.89851627612E+01  0.18726465736E+02  0.00000000000E+00 0. -1.
         11    1    3    3    0    0  0.69550792617E+01  0.13076005299E+02  0.60811256218E+01  0.16010469424E+02  0.51100000000E-03 0. -1.
        -11    1    3    3    0    0  0.65660139933E+01 -0.31701097009E+01  0.20070619365E+02  0.21353966780E+02  0.51100000000E-03 0.  1.
        -12    1    3    3    0    0 -0.15892159254E+02 -0.26163983282E+02 -0.17166582225E+02  0.35097098060E+02  0.00000000000E+00 0.  1.
</event>
<event>
 7    1  0.2876796E-013  0.7246159E+02  0.7816164E-02  0.1226708E+00
        -11   -1    0    0    0    0  0.00000000000E+00  0.00000000000E+00  0.45593999997E+02  0.45594000000E+02  0.51100000000E-03 0. -1.
         11   -1    0    0    0    0 -0.00000000000E+00 -0.00000000000E+00 -0.45593999997E+02  0.45594000000E+02  0.51100000000E-03 0.  1.
    9900012    2    1    2    0    0  0.85119909499E+01 -0.15291527756E+02 -0.66628638384E+01  0.72461586420E+02  0.70000021007E+02 0.  0.
         12    1    1    2    0    0 -0.85119909499E+01  0.15291527756E+02  0.66628638384E+01  0.18726413580E+02  0.00000000000E+00 0. -1.
         11    1    3    3    0    0  0.16738358747E+01 -0.14702372485E+02  0.50810165757E+01  0.15645389510E+02  0.51100000000E-03 0. -1.
        -11    1    3    3    0    0  0.17030351290E+02 -0.21530201300E+02  0.52971125452E+01  0.27957858192E+02  0.51100000000E-03 0.  1.
        -12    1    3    3    0    0 -0.10192196215E+02  0.20941046030E+02 -0.17040992959E+02  0.28858338718E+02  0.00000000000E+00 0.  1.
</event>
<event>
 7    1  0.2876796E-013  0.7246156E+02  0.7816164E-02  0.1226708E+00
        -11   -1    0    0    0    0  0.00000000000E+00  0.00000000000E+00  0.45593999997E+02  0.45594000000E+02  0.51100000000E-03 0. -1.
         11   -1    0    0    0    0 -0.00000000000E+00 -0.00000000000E+00 -0.45593999997E+02  0.45594000000E+02  0.51100000000E-03 0.  1.
    9900012    2    1    2    0    0  0.15089063956E+02  0.97665776687E+01 -0.52548702817E+01  0.72461560079E+02  0.69999986693E+02 0.  0.
         12    1    1    2    0    0 -0.15089063956E+02 -0.97665776687E+01  0.52548702817E+01  0.18726439921E+02  0.00000000000E+00 0. -1.
         11    1    3    3    0    0  0.98656116626E+01 -0.11872662141E+02  0.89944275676E+01  0.17865892850E+02  0.51100000000E-03 0. -1.
        -11    1    3    3    0    0 -0.18365486425E+00 -0.15046642260E+02 -0.78262521667E+01  0.16961291096E+02  0.51100000000E-03 0.  1.
        -12    1    3    3    0    0  0.54071071579E+01  0.36685882070E+02 -0.64230456826E+01  0.37634376133E+02  0.00000000000E+00 0.  1.
</event>
<event>
 7    1  0.2876796E-013  0.7246210E+02  0.7816164E-02  0.1226707E+00
        -11   -1    0    0    0    0  0.00000000000E+00  0.00000000000E+00  0.45593999997E+02  0.45594000000E+02  0.51100000000E-03 0.  1.
         11   -1    0    0    0    0 -0.00000000000E+00 -0.00000000000E+00 -0.45593999997E+02  0.45594000000E+02  0.51100000000E-03 0. -1.
    9900012    2    1    2    0    0 -0.16665334109E+01 -0.18610584843E+02  0.12362004664E+01  0.72462098329E+02  0.70000687860E+02 0.  0.
         12    1    1    2    0    0  0.16665334109E+01  0.18610584843E+02 -0.12362004664E+01  0.18725901671E+02  0.00000000000E+00 0. -1.
         11    1    3    3    0    0  0.19008755937E+02 -0.61662094246E+01 -0.60183347770E+00  0.19992927368E+02  0.51100000000E-03 0. -1.
        -11    1    3    3    0    0 -0.27284975780E+01  0.16147387299E+02  0.78826143505E+01  0.18174664368E+02  0.51100000000E-03 0.  1.
        -12    1    3    3    0    0 -0.17946791770E+02 -0.28591762718E+02 -0.60445804064E+01  0.34294506593E+02  0.00000000000E+00 0.  1.
</event>
<event>
 7    1  0.2876796E-013  0.7246159E+02  0.7816164E-02  0.1226708E+00
        -11   -1    0    0    0    0  0.00000000000E+00  0.00000000000E+00  0.45593999997E+02  0.45594000000E+02  0.51100000000E-03 0. -1.
         11   -1    0    0    0    0 -0.00000000000E+00 -0.00000000000E+00 -0.45593999997E+02  0.45594000000E+02  0.51100000000E-03 0.  1.
    9900012    2    1    2    0    0  0.15786135107E+02  0.94755891347E+01 -0.34189761367E+01  0.72461594876E+02  0.70000032022E+02 0.  0.
         12    1    1    2    0    0 -0.15786135107E+02 -0.94755891347E+01  0.34189761367E+01  0.18726405124E+02  0.00000000000E+00 0. -1.
         11    1    3    3    0    0 -0.73894351727E+01 -0.19835190983E+01  0.55034859326E+01  0.94247789288E+01  0.51100000000E-03 0. -1.
        -11    1    3    3    0    0  0.18767833065E+02  0.33941413560E+02 -0.10159215026E+02  0.40093151069E+02  0.51100000000E-03 0.  1.
         12    1    3    3    0    0  0.44077372143E+01 -0.22482305327E+02  0.12367529570E+01  0.22943664878E+02  0.00000000000E+00 0. -1.
</event>
<event>
 7    1  0.2876796E-013  0.7246160E+02  0.7816164E-02  0.1226708E+00
        -11   -1    0    0    0    0  0.00000000000E+00  0.00000000000E+00  0.45593999997E+02  0.45594000000E+02  0.51100000000E-03 0. -1.
         11   -1    0    0    0    0 -0.00000000000E+00 -0.00000000000E+00 -0.45593999997E+02  0.45594000000E+02  0.51100000000E-03 0.  1.
    9900012    2    1    2    0    0 -0.84428149712E+01 -0.16304468775E+02 -0.36825625055E+01  0.72461599030E+02  0.70000037433E+02 0.  0.
         12    1    1    2    0    0  0.84428149712E+01  0.16304468775E+02  0.36825625055E+01  0.18726400970E+02  0.00000000000E+00 0. -1.
         11    1    3    3    0    0 -0.13078041202E+02  0.10530461375E+02 -0.14596147199E+01  0.16853968489E+02  0.51100000000E-03 0. -1.
        -11    1    3    3    0    0 -0.74343376440E+01 -0.10930187292E+02  0.21104452757E+02  0.24902535953E+02  0.51100000000E-03 0.  1.
        -12    1    3    3    0    0  0.12069563874E+02 -0.15904742859E+02 -0.23327400543E+02  0.30705094587E+02  0.00000000000E+00 0.  1.
</event>
<event>
 7    1  0.2876796E-013  0.7246155E+02  0.7816164E-02  0.1226708E+00
        -11   -1    0    0    0    0  0.00000000000E+00  0.00000000000E+00  0.45593999997E+02  0.45594000000E+02  0.51100000000E-03 0.  1.
         11   -1    0    0    0    0 -0.00000000000E+00 -0.00000000000E+00 -0.45593999997E+02  0.45594000000E+02  0.51100000000E-03 0. -1.
    9900012    2    1    2    0    0 -0.68239390560E+01 -0.29301497040E+01  0.17190924800E+02  0.72461553007E+02  0.69999977480E+02 0.  0.
         12    1    1    2    0    0  0.68239390560E+01  0.29301497040E+01 -0.17190924800E+02  0.18726446993E+02  0.00000000000E+00 0. -1.
         11    1    3    3    0    0 -0.69364067076E+01  0.16646184559E+02 -0.16273498109E+01  0.18106834788E+02  0.51100000000E-03 0. -1.
        -11    1    3    3    0    0  0.18524062409E+02  0.46228774059E+00 -0.38640636928E+01  0.18928433284E+02  0.51100000000E-03 0.  1.
        -12    1    3    3    0    0 -0.18411594758E+02 -0.20038622004E+02  0.22682338303E+02  0.35426284934E+02  0.00000000000E+00 0.  1.
</event>
<event>
 7    1  0.2876796E-013  0.7246158E+02  0.7816164E-02  0.1226708E+00
        -11   -1    0    0    0    0  0.00000000000E+00  0.00000000000E+00  0.45593999997E+02  0.45594000000E+02  0.51100000000E-03 0. -1.
         11   -1    0    0    0    0 -0.00000000000E+00 -0.00000000000E+00 -0.45593999997E+02  0.45594000000E+02  0.51100000000E-03 0.  1.
    9900012    2    1    2    0    0 -0.53106770410E+01 -0.17853309097E+02  0.19325339689E+01  0.72461584862E+02  0.70000018978E+02 0.  0.
         12    1    1    2    0    0  0.53106770410E+01  0.17853309097E+02 -0.19325339689E+01  0.18726415138E+02  0.00000000000E+00 0. -1.
         11    1    3    3    0    0  0.23226922375E+02  0.77035199392E+00 -0.16059045217E+02  0.28248474273E+02  0.51100000000E-03 0. -1.
        -11    1    3    3    0    0 -0.17135054652E+01 -0.11301135448E+02  0.66227698916E+00  0.11449470489E+02  0.51100000000E-03 0.  1.
        -12    1    3    3    0    0 -0.26824093950E+02 -0.73225256431E+01  0.17329302196E+02  0.32763640101E+02  0.00000000000E+00 0.  1.
</event>
<event>
 7    1  0.2876796E-013  0.7246161E+02  0.7816164E-02  0.1226708E+00
        -11   -1    0    0    0    0  0.00000000000E+00  0.00000000000E+00  0.45593999997E+02  0.45594000000E+02  0.51100000000E-03 0.  1.
         11   -1    0    0    0    0 -0.00000000000E+00 -0.00000000000E+00 -0.45593999997E+02  0.45594000000E+02  0.51100000000E-03 0. -1.
    9900012    2    1    2    0    0  0.34194794005E+01  0.12333794224E+02  0.13669762849E+02  0.72461608578E+02  0.70000049872E+02 0.  0.
         12    1    1    2    0    0 -0.34194794005E+01 -0.12333794224E+02 -0.13669762849E+02  0.18726391422E+02  0.00000000000E+00 0. -1.
         11    1    3    3    0    0  0.22145277815E+01  0.96971105372E+01 -0.19983680724E+02  0.22322311296E+02  0.51100000000E-03 0. -1.
        -11    1    3    3    0    0  0.10064884096E+02  0.27308886663E+01 -0.42147881601E+01  0.11248292505E+02  0.51100000000E-03 0.  1.
        -12    1    3    3    0    0 -0.88599324771E+01 -0.94204979352E-01  0.37868231732E+02  0.38891004778E+02  0.00000000000E+00 0.  1.
</event>
<event>
 7    1  0.2876796E-013  0.7246166E+02  0.7816164E-02  0.1226708E+00
        -11   -1    0    0    0    0  0.00000000000E+00  0.00000000000E+00  0.45593999997E+02  0.45594000000E+02  0.51100000000E-03 0.  1.
         11   -1    0    0    0    0 -0.00000000000E+00 -0.00000000000E+00 -0.45593999997E+02  0.45594000000E+02  0.51100000000E-03 0. -1.
    9900012    2    1    2    0    0 -0.11025848176E+02  0.33263373702E+01  0.14766249250E+02  0.72461655850E+02  0.70000111452E+02 0.  0.
         12    1    1    2    0    0  0.11025848176E+02 -0.33263373702E+01 -0.14766249250E+02  0.18726344150E+02  0.00000000000E+00 0. -1.
         11    1    3    3    0    0 -0.31642518350E+01  0.38335962200E+01  0.15814155218E+01  0.52163037648E+01  0.51100000000E-03 0. -1.
        -11    1    3    3    0    0  0.12800425458E+02  0.19036615305E+01  0.34871074957E+02  0.37194982028E+02  0.51100000000E-03 0.  1.
         12    1    3    3    0    0 -0.20662021800E+02 -0.24109203803E+01 -0.21686241229E+02  0.30050370057E+02  0.00000000000E+00 0. -1.
</event>
<event>
 7    1  0.2876796E-013  0.7246156E+02  0.7816164E-02  0.1226708E+00
        -11   -1    0    0    0    0  0.00000000000E+00  0.00000000000E+00  0.45593999997E+02  0.45594000000E+02  0.51100000000E-03 0.  1.
         11   -1    0    0    0    0 -0.00000000000E+00 -0.00000000000E+00 -0.45593999997E+02  0.45594000000E+02  0.51100000000E-03 0. -1.
    9900012    2    1    2    0    0 -0.53436963195E+01  0.12551249144E+02  0.12829287480E+02  0.72461559797E+02  0.69999986325E+02 0.  0.
         12    1    1    2    0    0  0.53436963195E+01 -0.12551249144E+02 -0.12829287480E+02  0.18726440203E+02  0.00000000000E+00 0. -1.
         11    1    3    3    0    0  0.13662132253E+02  0.32126673851E+02  0.44053642780E+01  0.35187842576E+02  0.51100000000E-03 0. -1.
        -11    1    3    3    0    0 -0.32860769418E+01  0.56066379869E+01  0.27198104351E+01  0.70448605556E+01  0.51100000000E-03 0.  1.
        -12    1    3    3    0    0 -0.15719751631E+02 -0.25182062694E+02  0.57041127671E+01  0.30228856666E+02  0.00000000000E+00 0.  1.
</event>
<event>
 7    1  0.2876796E-013  0.7246159E+02  0.7816164E-02  0.1226708E+00
        -11   -1    0    0    0    0  0.00000000000E+00  0.00000000000E+00  0.45593999997E+02  0.45594000000E+02  0.51100000000E-03 0.  1.
         11   -1    0    0    0    0 -0.00000000000E+00 -0.00000000000E+00 -0.45593999997E+02  0.45594000000E+02  0.51100000000E-03 0. -1.
    9900012    2    1    2    0    0  0.66439496889E+01  0.17206713662E+02 -0.32350332061E+01  0.72461588108E+02  0.70000023205E+02 0.  0.
         12    1    1    2    0    0 -0.66439496889E+01 -0.17206713662E+02  0.32350332061E+01  0.18726411892E+02  0.00000000000E+00 0. -1.
         11    1    3    3    0    0 -0.11183571875E+02 -0.66734580819E+01  0.11052454916E+01  0.13070152658E+02  0.51100000000E-03 0. -1.
        -11    1    3    3    0    0  0.19598748264E+02 -0.13475589610E+01  0.17246563443E+02  0.26141361853E+02  0.51100000000E-03 0.  1.
         12    1    3    3    0    0 -0.17712267002E+01  0.25227730705E+02 -0.21586842141E+02  0.33250073596E+02  0.00000000000E+00 0. -1.
</event>
<event>
 7    1  0.2876796E-013  0.7246160E+02  0.7816164E-02  0.1226708E+00
        -11   -1    0    0    0    0  0.00000000000E+00  0.00000000000E+00  0.45593999997E+02  0.45594000000E+02  0.51100000000E-03 0. -1.
         11   -1    0    0    0    0 -0.00000000000E+00 -0.00000000000E+00 -0.45593999997E+02  0.45594000000E+02  0.51100000000E-03 0.  1.
    9900012    2    1    2    0    0  0.49405126218E+01  0.74846659824E+01 -0.16439261955E+02  0.72461595555E+02  0.70000032906E+02 0.  0.
         12    1    1    2    0    0 -0.49405126218E+01 -0.74846659824E+01  0.16439261955E+02  0.18726404445E+02  0.00000000000E+00 0. -1.
         11    1    3    3    0    0 -0.72753903502E+01 -0.95482552585E+01  0.13924882664E+02  0.18384853567E+02  0.51100000000E-03 0. -1.
        -11    1    3    3    0    0  0.14111034249E+02 -0.87304302163E+01 -0.38003821197E+01  0.17023060943E+02  0.51100000000E-03 0.  1.
        -12    1    3    3    0    0 -0.18951312773E+01  0.25763351457E+02 -0.26563762499E+02  0.37053681045E+02  0.00000000000E+00 0.  1.
</event>
<event>
 7    1  0.2876796E-013  0.7246154E+02  0.7816164E-02  0.1226708E+00
        -11   -1    0    0    0    0  0.00000000000E+00  0.00000000000E+00  0.45593999997E+02  0.45594000000E+02  0.51100000000E-03 0. -1.
         11   -1    0    0    0    0 -0.00000000000E+00 -0.00000000000E+00 -0.45593999997E+02  0.45594000000E+02  0.51100000000E-03 0.  1.
    9900012    2    1    2    0    0  0.12957651229E+02 -0.13387949234E+02 -0.18820942899E+01  0.72461543074E+02  0.69999964541E+02 0.  0.
         12    1    1    2    0    0 -0.12957651229E+02  0.13387949234E+02  0.18820942899E+01  0.18726456926E+02  0.00000000000E+00 0. -1.
         11    1    3    3    0    0 -0.67646138258E+01  0.13798982193E+02 -0.15487531771E+02  0.21818238939E+02  0.51100000000E-03 0. -1.
        -11    1    3    3    0    0  0.57403002584E+01 -0.10394464708E+02 -0.12067637217E+02  0.16929967864E+02  0.51100000000E-03 0.  1.
         12    1    3    3    0    0  0.13981964796E+02 -0.16792466719E+02  0.25673074698E+02  0.33713336271E+02  0.00000000000E+00 0. -1.
</event>
<event>
 7    1  0.2876796E-013  0.7246149E+02  0.7816164E-02  0.1226708E+00
        -11   -1    0    0    0    0  0.00000000000E+00  0.00000000000E+00  0.45593999997E+02  0.45594000000E+02  0.51100000000E-03 0. -1.
         11   -1    0    0    0    0 -0.00000000000E+00 -0.00000000000E+00 -0.45593999997E+02  0.45594000000E+02  0.51100000000E-03 0.  1.
    9900012    2    1    2    0    0  0.14530568385E+02 -0.53931069796E+01 -0.10509946960E+02  0.72461494570E+02  0.69999901355E+02 0.  0.
         12    1    1    2    0    0 -0.14530568385E+02  0.53931069796E+01  0.10509946960E+02  0.18726505430E+02  0.00000000000E+00 0. -1.
         11    1    3    3    0    0  0.49553335834E+00  0.75510441966E+01 -0.12443853198E+02  0.14564110150E+02  0.51100000000E-03 0. -1.
        -11    1    3    3    0    0  0.23316395050E+02 -0.10963842194E+02 -0.20895795675E+02  0.33173700290E+02  0.51100000000E-03 0.  1.
         12    1    3    3    0    0 -0.92813600234E+01 -0.19803089821E+01  0.22829701913E+02  0.24723684130E+02  0.00000000000E+00 0. -1.
</event>
<event>
 7    1  0.2876796E-013  0.7246154E+02  0.7816164E-02  0.1226708E+00
        -11   -1    0    0    0    0  0.00000000000E+00  0.00000000000E+00  0.45593999997E+02  0.45594000000E+02  0.51100000000E-03 0.  1.
         11   -1    0    0    0    0 -0.00000000000E+00 -0.00000000000E+00 -0.45593999997E+02  0.45594000000E+02  0.51100000000E-03 0. -1.
    9900012    2    1    2    0    0  0.21883841359E+01 -0.16111208743E+02  0.92908743779E+01  0.72461536933E+02  0.69999956541E+02 0.  0.
         12    1    1    2    0    0 -0.21883841359E+01  0.16111208743E+02 -0.92908743779E+01  0.18726463067E+02  0.00000000000E+00 0. -1.
         11    1    3    3    0    0  0.22115103271E+02 -0.39491127606E+01  0.11928169216E+02  0.25435300379E+02  0.51100000000E-03 0. -1.
        -11    1    3    3    0    0  0.34382691990E+00 -0.94694263731E+01  0.16494918071E+02  0.19022896079E+02  0.51100000000E-03 0.  1.
         12    1    3    3    0    0 -0.20270546055E+02 -0.26926696092E+01 -0.19132212909E+02  0.28003340476E+02  0.00000000000E+00 0. -1.
</event>
<event>
 7    1  0.2876796E-013  0.7246154E+02  0.7816164E-02  0.1226708E+00
        -11   -1    0    0    0    0  0.00000000000E+00  0.00000000000E+00  0.45593999997E+02  0.45594000000E+02  0.51100000000E-03 0.  1.
         11   -1    0    0    0    0 -0.00000000000E+00 -0.00000000000E+00 -0.45593999997E+02  0.45594000000E+02  0.51100000000E-03 0. -1.
    9900012    2    1    2    0    0 -0.30629476974E+00 -0.18720754319E+02 -0.34605443146E+00  0.72461542449E+02  0.69999963726E+02 0.  0.
         12    1    1    2    0    0  0.30629476974E+00  0.18720754319E+02  0.34605443146E+00  0.18726457551E+02  0.00000000000E+00 0. -1.
         11    1    3    3    0    0  0.12370807823E+02 -0.22363311754E+02 -0.18768855134E+01  0.25625715567E+02  0.51100000000E-03 0. -1.
        -11    1    3    3    0    0 -0.19120280865E+02 -0.71793558136E+01 -0.15510240931E+02  0.25645581769E+02  0.51100000000E-03 0.  1.
        -12    1    3    3    0    0  0.64431782721E+01  0.10821913249E+02  0.17041072013E+02  0.21190245113E+02  0.00000000000E+00 0.  1.
</event>
<event>
 7    1  0.2876796E-013  0.7246161E+02  0.7816164E-02  0.1226708E+00
        -11   -1    0    0    0    0  0.00000000000E+00  0.00000000000E+00  0.45593999997E+02  0.45594000000E+02  0.51100000000E-03 0. -1.
         11   -1    0    0    0    0 -0.00000000000E+00 -0.00000000000E+00 -0.45593999997E+02  0.45594000000E+02  0.51100000000E-03 0.  1.
    9900012    2    1    2    0    0  0.12676750249E+02  0.10673536707E+02 -0.87208446189E+01  0.72461614509E+02  0.70000057597E+02 0.  0.
         12    1    1    2    0    0 -0.12676750249E+02 -0.10673536707E+02  0.87208446189E+01  0.18726385491E+02  0.00000000000E+00 0. -1.
         11    1    3    3    0    0 -0.25010964593E+01  0.65549849753E+01  0.42558832124E+01  0.82058426565E+01  0.51100000000E-03 0. -1.
        -11    1    3    3    0    0 -0.17280405109E+01 -0.24006389815E+02  0.79364848361E+01  0.25343256850E+02  0.51100000000E-03 0.  1.
         12    1    3    3    0    0  0.16905887219E+02  0.28124941547E+02 -0.20913212667E+02  0.38912515002E+02  0.00000000000E+00 0. -1.
</event>
<event>
 7    1  0.2876796E-013  0.7246160E+02  0.7816164E-02  0.1226708E+00
        -11   -1    0    0    0    0  0.00000000000E+00  0.00000000000E+00  0.45593999997E+02  0.45594000000E+02  0.51100000000E-03 0.  1.
         11   -1    0    0    0    0 -0.00000000000E+00 -0.00000000000E+00 -0.45593999997E+02  0.45594000000E+02  0.51100000000E-03 0. -1.
    9900012    2    1    2    0    0  0.79103225710E+01  0.16771104323E+02 -0.26143586017E+01  0.72461601140E+02  0.70000040182E+02 0.  0.
         12    1    1    2    0    0 -0.79103225710E+01 -0.16771104323E+02  0.26143586017E+01  0.18726398860E+02  0.00000000000E+00 0. -1.
         11    1    3    3    0    0 -0.30186328688E+01 -0.44862173573E+01 -0.15675987985E+01  0.56298895929E+01  0.51100000000E-03 0. -1.
        -11    1    3    3    0    0  0.51519932232E+01 -0.20185590374E+02  0.10631943148E+02  0.23388871462E+02  0.51100000000E-03 0.  1.
         12    1    3    3    0    0  0.57769622167E+01  0.41442912054E+02 -0.11678702951E+02  0.43442840084E+02  0.00000000000E+00 0. -1.
</event>
<event>
 7    1  0.2876796E-013  0.7246162E+02  0.7816164E-02  0.1226708E+00
        -11   -1    0    0    0    0  0.00000000000E+00  0.00000000000E+00  0.45593999997E+02  0.45594000000E+02  0.51100000000E-03 0.  1.
         11   -1    0    0    0    0 -0.00000000000E+00 -0.00000000000E+00 -0.45593999997E+02  0.45594000000E+02  0.51100000000E-03 0. -1.
    9900012    2    1    2    0    0 -0.80844687518E+00  0.16559959377E+02  0.87058399840E+01  0.72461615118E+02  0.70000058391E+02 0.  0.
         12    1    1    2    0    0  0.80844687518E+00 -0.16559959377E+02 -0.87058399840E+01  0.18726384882E+02  0.00000000000E+00 0. -1.
         11    1    3    3    0    0 -0.14980974964E+02 -0.52480959442E+01  0.13641537815E+02  0.20929970762E+02  0.51100000000E-03 0. -1.
        -11    1    3    3    0    0 -0.12492097772E+02  0.10183186019E+02  0.98629408681E+01  0.18895168353E+02  0.51100000000E-03 0.  1.
         12    1    3    3    0    0  0.26664625860E+02  0.11624869302E+02 -0.14798638699E+02  0.32636476003E+02  0.00000000000E+00 0. -1.
</event>
<event>
 7    1  0.2876796E-013  0.7246161E+02  0.7816164E-02  0.1226708E+00
        -11   -1    0    0    0    0  0.00000000000E+00  0.00000000000E+00  0.45593999997E+02  0.45594000000E+02  0.51100000000E-03 0.  1.
         11   -1    0    0    0    0 -0.00000000000E+00 -0.00000000000E+00 -0.45593999997E+02  0.45594000000E+02  0.51100000000E-03 0. -1.
    9900012    2    1    2    0    0 -0.17656405184E+02  0.55951324323E+01 -0.27611041306E+01  0.72461605607E+02  0.70000046001E+02 0.  0.
         12    1    1    2    0    0  0.17656405184E+02 -0.55951324323E+01  0.27611041306E+01  0.18726394393E+02  0.00000000000E+00 0. -1.
         11    1    3    3    0    0  0.47338701542E+01 -0.13774522434E+02  0.36212566559E+01  0.15008680653E+02  0.51100000000E-03 0. -1.
        -11    1    3    3    0    0  0.12869423407E+02  0.14577771370E+01  0.81686235179E+01  0.15312530276E+02  0.51100000000E-03 0.  1.
         12    1    3    3    0    0 -0.35259698745E+02  0.17911877729E+02 -0.14550984304E+02  0.42140394678E+02  0.00000000000E+00 0. -1.
</event>
<event>
 7    1  0.2876796E-013  0.7246157E+02  0.7816164E-02  0.1226708E+00
        -11   -1    0    0    0    0  0.00000000000E+00  0.00000000000E+00  0.45593999997E+02  0.45594000000E+02  0.51100000000E-03 0.  1.
         11   -1    0    0    0    0 -0.00000000000E+00 -0.00000000000E+00 -0.45593999997E+02  0.45594000000E+02  0.51100000000E-03 0. -1.
    9900012    2    1    2    0    0 -0.11267443883E+02 -0.14957279009E+02 -0.60948699468E-01  0.72461569434E+02  0.69999998879E+02 0.  0.
         12    1    1    2    0    0  0.11267443883E+02  0.14957279009E+02  0.60948699468E-01  0.18726430566E+02  0.00000000000E+00 0. -1.
         11    1    3    3    0    0 -0.49663495513E+01  0.46273154405E+01  0.22942541781E+02  0.23925653590E+02  0.51100000000E-03 0. -1.
        -11    1    3    3    0    0  0.24331866633E+01 -0.88131890510E+01  0.95077922418E+01  0.13190557690E+02  0.51100000000E-03 0.  1.
         12    1    3    3    0    0 -0.87342809949E+01 -0.10771405399E+02 -0.32511282723E+02  0.35345358154E+02  0.00000000000E+00 0. -1.
</event>
<event>
 7    1  0.2876796E-013  0.7246177E+02  0.7816164E-02  0.1226707E+00
        -11   -1    0    0    0    0  0.00000000000E+00  0.00000000000E+00  0.45593999997E+02  0.45594000000E+02  0.51100000000E-03 0.  1.
         11   -1    0    0    0    0 -0.00000000000E+00 -0.00000000000E+00 -0.45593999997E+02  0.45594000000E+02  0.51100000000E-03 0. -1.
    9900012    2    1    2    0    0 -0.35272783495E+01 -0.12150593590E+02  0.13805540504E+02  0.72461773318E+02  0.70000264475E+02 0.  0.
         12    1    1    2    0    0  0.35272783495E+01  0.12150593590E+02 -0.13805540504E+02  0.18726226682E+02  0.00000000000E+00 0. -1.
         11    1    3    3    0    0 -0.18190410000E+02  0.97613197006E+01 -0.13881746971E+00  0.20644458065E+02  0.51100000000E-03 0. -1.
        -11    1    3    3    0    0 -0.46435027242E+01  0.10541578695E+02  0.68277367608E+01  0.13390481263E+02  0.51100000000E-03 0.  1.
        -12    1    3    3    0    0  0.19306634375E+02 -0.32453491986E+02  0.71166212127E+01  0.38426833989E+02  0.00000000000E+00 0.  1.
</event>
<event>
 7    1  0.2876796E-013  0.7246154E+02  0.7816164E-02  0.1226708E+00
        -11   -1    0    0    0    0  0.00000000000E+00  0.00000000000E+00  0.45593999997E+02  0.45594000000E+02  0.51100000000E-03 0. -1.
         11   -1    0    0    0    0 -0.00000000000E+00 -0.00000000000E+00 -0.45593999997E+02  0.45594000000E+02  0.51100000000E-03 0.  1.
    9900012    2    1    2    0    0  0.16819392210E+02  0.80222652200E+01 -0.18524148515E+01  0.72461544533E+02  0.69999966441E+02 0.  0.
         12    1    1    2    0    0 -0.16819392210E+02 -0.80222652200E+01  0.18524148515E+01  0.18726455467E+02  0.00000000000E+00 0. -1.
         11    1    3    3    0    0  0.66832797004E+01  0.63535733799E+01 -0.60304090563E+01  0.11018164815E+02  0.51100000000E-03 0. -1.
        -11    1    3    3    0    0  0.27351602269E+01 -0.27673011149E+02 -0.78269616863E+01  0.28888370965E+02  0.51100000000E-03 0.  1.
         12    1    3    3    0    0  0.74009522829E+01  0.29341702989E+02  0.12004955891E+02  0.32555008753E+02  0.00000000000E+00 0. -1.
</event>
<event>
 7    1  0.2876796E-013  0.7246156E+02  0.7816164E-02  0.1226708E+00
        -11   -1    0    0    0    0  0.00000000000E+00  0.00000000000E+00  0.45593999997E+02  0.45594000000E+02  0.51100000000E-03 0.  1.
         11   -1    0    0    0    0 -0.00000000000E+00 -0.00000000000E+00 -0.45593999997E+02  0.45594000000E+02  0.51100000000E-03 0. -1.
    9900012    2    1    2    0    0  0.11248659640E+02  0.34985156541E+01  0.14557041200E+02  0.72461564035E+02  0.69999991846E+02 0.  0.
         12    1    1    2    0    0 -0.11248659640E+02 -0.34985156541E+01 -0.14557041200E+02  0.18726435965E+02  0.00000000000E+00 0. -1.
         11    1    3    3    0    0  0.18828088307E+02 -0.19028891760E+02  0.23858597827E+02  0.35858448397E+02  0.51100000000E-03 0. -1.
        -11    1    3    3    0    0  0.55090258842E+01 -0.86429950571E+00 -0.80198392278E+01  0.97680193145E+01  0.51100000000E-03 0.  1.
        -12    1    3    3    0    0 -0.13088454552E+02  0.23391706920E+02 -0.12817173995E+01  0.26835096323E+02  0.00000000000E+00 0.  1.
</event>
<event>
 7    1  0.2876796E-013  0.7246155E+02  0.7816164E-02  0.1226708E+00
        -11   -1    0    0    0    0  0.00000000000E+00  0.00000000000E+00  0.45593999997E+02  0.45594000000E+02  0.51100000000E-03 0.  1.
         11   -1    0    0    0    0 -0.00000000000E+00 -0.00000000000E+00 -0.45593999997E+02  0.45594000000E+02  0.51100000000E-03 0. -1.
    9900012    2    1    2    0    0  0.95147913173E+01  0.14608843384E+01  0.16062833216E+02  0.72461546845E+02  0.69999969453E+02 0.  0.
         12    1    1    2    0    0 -0.95147913173E+01 -0.14608843384E+01 -0.16062833216E+02  0.18726453155E+02  0.00000000000E+00 0. -1.
         11    1    3    3    0    0  0.14536795842E+02 -0.19883525029E+01 -0.18771511423E+02  0.23825230752E+02  0.51100000000E-03 0. -1.
        -11    1    3    3    0    0 -0.88162216544E+01 -0.12838561091E+02  0.93835514668E+01  0.18182559048E+02  0.51100000000E-03 0.  1.
         12    1    3    3    0    0  0.37942171297E+01  0.16287797932E+02  0.25450793171E+02  0.30453757045E+02  0.00000000000E+00 0. -1.
</event>
<event>
 7    1  0.2876796E-013  0.7246157E+02  0.7816164E-02  0.1226708E+00
        -11   -1    0    0    0    0  0.00000000000E+00  0.00000000000E+00  0.45593999997E+02  0.45594000000E+02  0.51100000000E-03 0. -1.
         11   -1    0    0    0    0 -0.00000000000E+00 -0.00000000000E+00 -0.45593999997E+02  0.45594000000E+02  0.51100000000E-03 0.  1.
    9900012    2    1    2    0    0 -0.86521789557E+01  0.65832503009E+01 -0.15247282523E+02  0.72461574566E+02  0.70000005564E+02 0.  0.
         12    1    1    2    0    0  0.86521789557E+01 -0.65832503009E+01  0.15247282523E+02  0.18726425434E+02  0.00000000000E+00 0. -1.
         11    1    3    3    0    0 -0.24608095836E+02  0.13724802899E+02 -0.15141894976E+02  0.31987584764E+02  0.51100000000E-03 0. -1.
        -11    1    3    3    0    0  0.19226179363E+02 -0.35898586737E+01 -0.15107754137E+02  0.24713908909E+02  0.51100000000E-03 0.  1.
         12    1    3    3    0    0 -0.32702624827E+01 -0.35516939243E+01  0.15002366591E+02  0.15760080893E+02  0.00000000000E+00 0. -1.
</event>
<event>
 7    1  0.2876796E-013  0.7246163E+02  0.7816164E-02  0.1226708E+00
        -11   -1    0    0    0    0  0.00000000000E+00  0.00000000000E+00  0.45593999997E+02  0.45594000000E+02  0.51100000000E-03 0.  1.
         11   -1    0    0    0    0 -0.00000000000E+00 -0.00000000000E+00 -0.45593999997E+02  0.45594000000E+02  0.51100000000E-03 0. -1.
    9900012    2    1    2    0    0 -0.80895020415E+01  0.50082410141E+00  0.16881528240E+02  0.72461631858E+02  0.70000080198E+02 0.  0.
         12    1    1    2    0    0  0.80895020415E+01 -0.50082410141E+00 -0.16881528240E+02  0.18726368142E+02  0.00000000000E+00 0. -1.
         11    1    3    3    0    0 -0.16346656873E+01 -0.61249980886E+01 -0.23489904391E+02  0.24330296793E+02  0.51100000000E-03 0. -1.
        -11    1    3    3    0    0 -0.13245602938E+02 -0.30312349291E+01  0.15583098025E+02  0.20675282990E+02  0.51100000000E-03 0.  1.
        -12    1    3    3    0    0  0.67907665840E+01  0.96570571191E+01  0.24788334606E+02  0.27456052075E+02  0.00000000000E+00 0.  1.
</event>
<event>
 7    1  0.2876796E-013  0.7246156E+02  0.7816164E-02  0.1226708E+00
        -11   -1    0    0    0    0  0.00000000000E+00  0.00000000000E+00  0.45593999997E+02  0.45594000000E+02  0.51100000000E-03 0. -1.
         11   -1    0    0    0    0 -0.00000000000E+00 -0.00000000000E+00 -0.45593999997E+02  0.45594000000E+02  0.51100000000E-03 0.  1.
    9900012    2    1    2    0    0  0.13186339831E+02 -0.12238722243E+01 -0.13240174572E+02  0.72461557624E+02  0.69999983495E+02 0.  0.
         12    1    1    2    0    0 -0.13186339831E+02  0.12238722243E+01  0.13240174572E+02  0.18726442376E+02  0.00000000000E+00 0. -1.
         11    1    3    3    0    0 -0.20591254823E+01  0.76146039662E+00 -0.23089996031E+01  0.31861103427E+01  0.51100000000E-03 0. -1.
        -11    1    3    3    0    0 -0.77442895338E+01 -0.27919833942E+02  0.76286054388E+01  0.29961421343E+02  0.51100000000E-03 0.  1.
         12    1    3    3    0    0  0.22989754847E+02  0.25934501321E+02 -0.18559780408E+02  0.39314025938E+02  0.00000000000E+00 0. -1.
</event>
<event>
 7    1  0.2876796E-013  0.7246160E+02  0.7816164E-02  0.1226708E+00
        -11   -1    0    0    0    0  0.00000000000E+00  0.00000000000E+00  0.45593999997E+02  0.45594000000E+02  0.51100000000E-03 0.  1.
         11   -1    0    0    0    0 -0.00000000000E+00 -0.00000000000E+00 -0.45593999997E+02  0.45594000000E+02  0.51100000000E-03 0. -1.
    9900012    2    1    2    0    0  0.32434675222E+00  0.10749561291E+02  0.15330360745E+02  0.72461595398E+02  0.70000032702E+02 0.  0.
         12    1    1    2    0    0 -0.32434675222E+00 -0.10749561291E+02 -0.15330360745E+02  0.18726404602E+02  0.00000000000E+00 0. -1.
         11    1    3    3    0    0 -0.28728747383E+01  0.94027198634E+01 -0.92411242353E+01  0.13493069609E+02  0.51100000000E-03 0. -1.
        -11    1    3    3    0    0  0.79683888308E+01  0.26095179419E+02  0.67706804581E+01  0.28112198839E+02  0.51100000000E-03 0.  1.
        -12    1    3    3    0    0 -0.47711673403E+01 -0.24748337992E+02  0.17800804522E+02  0.30856326949E+02  0.00000000000E+00 0.  1.
</event>
<event>
 7    1  0.2876796E-013  0.7246160E+02  0.7816164E-02  0.1226708E+00
        -11   -1    0    0    0    0  0.00000000000E+00  0.00000000000E+00  0.45593999997E+02  0.45594000000E+02  0.51100000000E-03 0.  1.
         11   -1    0    0    0    0 -0.00000000000E+00 -0.00000000000E+00 -0.45593999997E+02  0.45594000000E+02  0.51100000000E-03 0. -1.
    9900012    2    1    2    0    0  0.78325577228E+01 -0.15892410484E+02 -0.60630196383E+01  0.72461604762E+02  0.70000044900E+02 0.  0.
         12    1    1    2    0    0 -0.78325577228E+01  0.15892410484E+02  0.60630196383E+01  0.18726395238E+02  0.00000000000E+00 0. -1.
         11    1    3    3    0    0 -0.17154583015E+01 -0.24960787224E+02 -0.31117845898E+02  0.39928736890E+02  0.51100000000E-03 0. -1.
        -11    1    3    3    0    0 -0.37101604493E+01  0.11569009041E+01  0.11094441196E+01  0.40416057177E+01  0.51100000000E-03 0.  1.
        -12    1    3    3    0    0  0.13258176474E+02  0.79114758356E+01  0.23945382140E+02  0.28491262154E+02  0.00000000000E+00 0.  1.
</event>
<event>
 7    1  0.2876796E-013  0.7246159E+02  0.7816164E-02  0.1226708E+00
        -11   -1    0    0    0    0  0.00000000000E+00  0.00000000000E+00  0.45593999997E+02  0.45594000000E+02  0.51100000000E-03 0. -1.
         11   -1    0    0    0    0 -0.00000000000E+00 -0.00000000000E+00 -0.45593999997E+02  0.45594000000E+02  0.51100000000E-03 0.  1.
    9900012    2    1    2    0    0 -0.13063754109E+02 -0.19410670193E+00 -0.13415626441E+02  0.72461591331E+02  0.70000027405E+02 0.  0.
         12    1    1    2    0    0  0.13063754109E+02  0.19410670193E+00  0.13415626441E+02  0.18726408669E+02  0.00000000000E+00 0. -1.
         11    1    3    3    0    0 -0.23206298829E+01 -0.84029038634E+01 -0.87217100799E+01  0.12331356104E+02  0.51100000000E-03 0. -1.
        -11    1    3    3    0    0 -0.17567686805E+01 -0.19502835479E+02 -0.19340986016E+02  0.27523091546E+02  0.51100000000E-03 0.  1.
         12    1    3    3    0    0 -0.89863555455E+01  0.27711632640E+02  0.14647069655E+02  0.32607143681E+02  0.00000000000E+00 0. -1.
</event>
<event>
 7    1  0.2876796E-013  0.7246122E+02  0.7816164E-02  0.1226709E+00
        -11   -1    0    0    0    0  0.00000000000E+00  0.00000000000E+00  0.45593999997E+02  0.45594000000E+02  0.51100000000E-03 0. -1.
         11   -1    0    0    0    0 -0.00000000000E+00 -0.00000000000E+00 -0.45593999997E+02  0.45594000000E+02  0.51100000000E-03 0.  1.
    9900012    2    1    2    0    0 -0.61357991244E+01  0.78388226871E+01 -0.15861816176E+02  0.72461217457E+02  0.69999540362E+02 0.  0.
         12    1    1    2    0    0  0.61357991244E+01 -0.78388226871E+01  0.15861816176E+02  0.18726782543E+02  0.00000000000E+00 0. -1.
         11    1    3    3    0    0  0.27656485953E+02  0.45187447683E+01 -0.21964321573E+02  0.35605220010E+02  0.51100000000E-03 0. -1.
        -11    1    3    3    0    0 -0.14568258017E+02  0.32213116745E+01 -0.35615234101E+01  0.15339342874E+02  0.51100000000E-03 0.  1.
        -12    1    3    3    0    0 -0.19224027060E+02  0.98766244290E-01  0.96640288075E+01  0.21516654572E+02  0.00000000000E+00 0.  1.
</event>
<event>
 7    1  0.2876796E-013  0.7246152E+02  0.7816164E-02  0.1226708E+00
        -11   -1    0    0    0    0  0.00000000000E+00  0.00000000000E+00  0.45593999997E+02  0.45594000000E+02  0.51100000000E-03 0. -1.
         11   -1    0    0    0    0 -0.00000000000E+00 -0.00000000000E+00 -0.45593999997E+02  0.45594000000E+02  0.51100000000E-03 0.  1.
    9900012    2    1    2    0    0  0.92819702655E+01  0.12233947490E+02 -0.10717115141E+02  0.72461521416E+02  0.69999936327E+02 0.  0.
         12    1    1    2    0    0 -0.92819702655E+01 -0.12233947490E+02  0.10717115141E+02  0.18726478584E+02  0.00000000000E+00 0. -1.
         11    1    3    3    0    0 -0.37300338313E+01  0.69893963472E+01 -0.16515396107E+02  0.18317290261E+02  0.51100000000E-03 0. -1.
        -11    1    3    3    0    0  0.15292859644E+02 -0.98134913539E+01 -0.18202102072E+02  0.25719500165E+02  0.51100000000E-03 0.  1.
        -12    1    3    3    0    0 -0.22808555476E+01  0.15058042497E+02  0.24000383038E+02  0.28424730990E+02  0.00000000000E+00 0.  1.
</event>
<event>
 7    1  0.2876796E-013  0.7246159E+02  0.7816164E-02  0.1226708E+00
        -11   -1    0    0    0    0  0.00000000000E+00  0.00000000000E+00  0.45593999997E+02  0.45594000000E+02  0.51100000000E-03 0.  1.
         11   -1    0    0    0    0 -0.00000000000E+00 -0.00000000000E+00 -0.45593999997E+02  0.45594000000E+02  0.51100000000E-03 0. -1.
    9900012    2    1    2    0    0  0.70395177414E+01 -0.90418171513E+01  0.14811122444E+02  0.72461585087E+02  0.70000019271E+02 0.  0.
         12    1    1    2    0    0 -0.70395177414E+01  0.90418171513E+01 -0.14811122444E+02  0.18726414913E+02  0.00000000000E+00 0. -1.
         11    1    3    3    0    0 -0.73346029491E+01  0.11294666316E+02 -0.20938948335E+02  0.24895892136E+02  0.51100000000E-03 0. -1.
        -11    1    3    3    0    0  0.41769052873E+01  0.33255716660E+01  0.39718951638E+01  0.66544658793E+01  0.51100000000E-03 0.  1.
        -12    1    3    3    0    0  0.10197215403E+02 -0.23662055134E+02  0.31778175615E+02  0.40911227072E+02  0.00000000000E+00 0.  1.
</event>
<event>
 7    1  0.2876796E-013  0.7246158E+02  0.7816164E-02  0.1226708E+00
        -11   -1    0    0    0    0  0.00000000000E+00  0.00000000000E+00  0.45593999997E+02  0.45594000000E+02  0.51100000000E-03 0. -1.
         11   -1    0    0    0    0 -0.00000000000E+00 -0.00000000000E+00 -0.45593999997E+02  0.45594000000E+02  0.51100000000E-03 0.  1.
    9900012    2    1    2    0    0  0.13599076628E+02 -0.57111892876E+01 -0.11538031131E+02  0.72461582014E+02  0.70000015267E+02 0.  0.
         12    1    1    2    0    0 -0.13599076628E+02  0.57111892876E+01  0.11538031131E+02  0.18726417986E+02  0.00000000000E+00 0. -1.
         11    1    3    3    0    0 -0.10556867115E+02  0.47718816925E+01 -0.74842311409E+00  0.11609411509E+02  0.51100000000E-03 0. -1.
        -11    1    3    3    0    0 -0.15558203029E+01 -0.28085570453E+02 -0.83598658387E+00  0.28141050413E+02  0.51100000000E-03 0.  1.
         12    1    3    3    0    0  0.25711764046E+02  0.17602499473E+02 -0.99536214332E+01  0.32711120092E+02  0.00000000000E+00 0. -1.
</event>
<event>
 7    1  0.2876796E-013  0.7246155E+02  0.7816164E-02  0.1226708E+00
        -11   -1    0    0    0    0  0.00000000000E+00  0.00000000000E+00  0.45593999997E+02  0.45594000000E+02  0.51100000000E-03 0. -1.
         11   -1    0    0    0    0 -0.00000000000E+00 -0.00000000000E+00 -0.45593999997E+02  0.45594000000E+02  0.51100000000E-03 0.  1.
    9900012    2    1    2    0    0  0.10750945083E+02  0.95937351329E+01 -0.11960665142E+02  0.72461545860E+02  0.69999968170E+02 0.  0.
         12    1    1    2    0    0 -0.10750945083E+02 -0.95937351329E+01  0.11960665142E+02  0.18726454140E+02  0.00000000000E+00 0. -1.
         11    1    3    3    0    0  0.20334795033E+01  0.14459128654E+02  0.20349038311E+02  0.25045654329E+02  0.51100000000E-03 0. -1.
        -11    1    3    3    0    0  0.72586446013E+01 -0.35885788169E+01  0.53508095103E+01  0.97055129720E+01  0.51100000000E-03 0.  1.
        -12    1    3    3    0    0  0.14588209789E+01 -0.12768147041E+01 -0.37660512964E+02  0.37710378560E+02  0.00000000000E+00 0.  1.
</event>
<event>
 7    1  0.2876796E-013  0.7246154E+02  0.7816164E-02  0.1226708E+00
        -11   -1    0    0    0    0  0.00000000000E+00  0.00000000000E+00  0.45593999997E+02  0.45594000000E+02  0.51100000000E-03 0.  1.
         11   -1    0    0    0    0 -0.00000000000E+00 -0.00000000000E+00 -0.45593999997E+02  0.45594000000E+02  0.51100000000E-03 0. -1.
    9900012    2    1    2    0    0  0.16828710513E+01 -0.17087085381E+02  0.74752858519E+01  0.72461536363E+02  0.69999955798E+02 0.  0.
         12    1    1    2    0    0 -0.16828710513E+01  0.17087085381E+02 -0.74752858519E+01  0.18726463637E+02  0.00000000000E+00 0. -1.
         11    1    3    3    0    0 -0.15367826810E+02  0.25652238817E+01  0.30429335070E+01  0.15874820283E+02  0.51100000000E-03 0. -1.
        -11    1    3    3    0    0  0.24970028409E+00  0.19198063107E+01 -0.19894547796E+02  0.19988522676E+02  0.51100000000E-03 0.  1.
        -12    1    3    3    0    0  0.16800997577E+02 -0.21572115573E+02  0.24326900141E+02  0.36598193403E+02  0.00000000000E+00 0.  1.
</event>
<event>
 7    1  0.2876796E-013  0.7246156E+02  0.7816164E-02  0.1226708E+00
        -11   -1    0    0    0    0  0.00000000000E+00  0.00000000000E+00  0.45593999997E+02  0.45594000000E+02  0.51100000000E-03 0.  1.
         11   -1    0    0    0    0 -0.00000000000E+00 -0.00000000000E+00 -0.45593999997E+02  0.45594000000E+02  0.51100000000E-03 0. -1.
    9900012    2    1    2    0    0 -0.78773803543E+01 -0.52911926527E+01  0.16144034377E+02  0.72461556480E+02  0.69999982005E+02 0.  0.
         12    1    1    2    0    0  0.78773803543E+01  0.52911926527E+01 -0.16144034377E+02  0.18726443520E+02  0.00000000000E+00 0. -1.
         11    1    3    3    0    0 -0.13326485549E+02  0.16817238408E+02 -0.14014032270E+02  0.25628262241E+02  0.51100000000E-03 0. -1.
        -11    1    3    3    0    0  0.85978130941E+00  0.65662993655E+01  0.74605751822E+01  0.99757552881E+01  0.51100000000E-03 0.  1.
        -12    1    3    3    0    0  0.45893238857E+01 -0.28674730426E+02  0.22697491465E+02  0.36857538951E+02  0.00000000000E+00 0.  1.
</event>
<event>
 7    1  0.2876796E-013  0.7246170E+02  0.7816164E-02  0.1226708E+00
        -11   -1    0    0    0    0  0.00000000000E+00  0.00000000000E+00  0.45593999997E+02  0.45594000000E+02  0.51100000000E-03 0.  1.
         11   -1    0    0    0    0 -0.00000000000E+00 -0.00000000000E+00 -0.45593999997E+02  0.45594000000E+02  0.51100000000E-03 0. -1.
    9900012    2    1    2    0    0  0.90955288938E+01  0.16116859733E+02  0.28622392434E+01  0.72461702261E+02  0.70000171911E+02 0.  0.
         12    1    1    2    0    0 -0.90955288938E+01 -0.16116859733E+02 -0.28622392434E+01  0.18726297739E+02  0.00000000000E+00 0. -1.
         11    1    3    3    0    0  0.83500347338E+01 -0.23462459397E+02 -0.65300321356E+00  0.24912577034E+02  0.51100000000E-03 0. -1.
        -11    1    3    3    0    0  0.15620983842E+01  0.36756306840E+01 -0.87346556329E+01  0.96044063624E+01  0.51100000000E-03 0.  1.
        -12    1    3    3    0    0 -0.81660422410E+00  0.35903688446E+02  0.12249898090E+02  0.37944718865E+02  0.00000000000E+00 0.  1.
</event>
<event>
 7    1  0.2876796E-013  0.7246151E+02  0.7816164E-02  0.1226708E+00
        -11   -1    0    0    0    0  0.00000000000E+00  0.00000000000E+00  0.45593999997E+02  0.45594000000E+02  0.51100000000E-03 0. -1.
         11   -1    0    0    0    0 -0.00000000000E+00 -0.00000000000E+00 -0.45593999997E+02  0.45594000000E+02  0.51100000000E-03 0.  1.
    9900012    2    1    2    0    0  0.14893886915E+02 -0.32883657950E+01 -0.10864626315E+02  0.72461512823E+02  0.69999925132E+02 0.  0.
         12    1    1    2    0    0 -0.14893886915E+02  0.32883657950E+01  0.10864626315E+02  0.18726487177E+02  0.00000000000E+00 0. -1.
         11    1    3    3    0    0 -0.16160696367E+01 -0.10977388782E+01  0.61154604633E+01  0.64199352532E+01  0.51100000000E-03 0. -1.
        -11    1    3    3    0    0  0.20616707166E+00 -0.26564380989E+02 -0.24097328120E+02  0.35866280334E+02  0.51100000000E-03 0.  1.
         12    1    3    3    0    0  0.16303789480E+02  0.24373754072E+02  0.71172413410E+01  0.30175297236E+02  0.00000000000E+00 0. -1.
</event>
<event>
 7    1  0.2876796E-013  0.7246155E+02  0.7816164E-02  0.1226708E+00
        -11   -1    0    0    0    0  0.00000000000E+00  0.00000000000E+00  0.45593999997E+02  0.45594000000E+02  0.51100000000E-03 0.  1.
         11   -1    0    0    0    0 -0.00000000000E+00 -0.00000000000E+00 -0.45593999997E+02  0.45594000000E+02  0.51100000000E-03 0. -1.
    9900012    2    1    2    0    0  0.22081942046E+01  0.14123451328E+02  0.12096775456E+02  0.72461548775E+02  0.69999971967E+02 0.  0.
         12    1    1    2    0    0 -0.22081942046E+01 -0.14123451328E+02 -0.12096775456E+02  0.18726451225E+02  0.00000000000E+00 0. -1.
         11    1    3    3    0    0  0.15343097818E+01  0.11035190665E+02  0.13913772586E+02  0.17824775099E+02  0.51100000000E-03 0. -1.
        -11    1    3    3    0    0 -0.23865832479E+01  0.51589473885E+01  0.25980345888E+02  0.26594903468E+02  0.51100000000E-03 0.  1.
         12    1    3    3    0    0  0.30604676707E+01 -0.20706867250E+01 -0.27797343018E+02  0.28041870207E+02  0.00000000000E+00 0. -1.
</event>
<event>
 7    1  0.2876796E-013  0.7246155E+02  0.7816164E-02  0.1226708E+00
        -11   -1    0    0    0    0  0.00000000000E+00  0.00000000000E+00  0.45593999997E+02  0.45594000000E+02  0.51100000000E-03 0. -1.
         11   -1    0    0    0    0 -0.00000000000E+00 -0.00000000000E+00 -0.45593999997E+02  0.45594000000E+02  0.51100000000E-03 0.  1.
    9900012    2    1    2    0    0 -0.35149781196E+01  0.63818300669E+01 -0.17251000339E+02  0.72461552422E+02  0.69999976718E+02 0.  0.
         12    1    1    2    0    0  0.35149781196E+01 -0.63818300669E+01  0.17251000339E+02  0.18726447578E+02  0.00000000000E+00 0. -1.
         11    1    3    3    0    0  0.11640289325E+02  0.10142768126E+02  0.16203080086E+02  0.22381060863E+02  0.51100000000E-03 0. -1.
        -11    1    3    3    0    0 -0.19843991478E+01  0.63898836646E+01  0.48890896435E+01  0.82868360083E+01  0.51100000000E-03 0.  1.
        -12    1    3    3    0    0 -0.13170868297E+02 -0.10150821723E+02 -0.38343170069E+02  0.41793655551E+02  0.00000000000E+00 0.  1.
</event>
<event>
 7    1  0.2876796E-013  0.7246174E+02  0.7816164E-02  0.1226708E+00
        -11   -1    0    0    0    0  0.00000000000E+00  0.00000000000E+00  0.45593999997E+02  0.45594000000E+02  0.51100000000E-03 0.  1.
         11   -1    0    0    0    0 -0.00000000000E+00 -0.00000000000E+00 -0.45593999997E+02  0.45594000000E+02  0.51100000000E-03 0. -1.
    9900012    2    1    2    0    0  0.10303722884E+02 -0.12235073394E+02  0.97370024458E+01  0.72461736549E+02  0.70000216577E+02 0.  0.
         12    1    1    2    0    0 -0.10303722884E+02  0.12235073394E+02 -0.97370024458E+01  0.18726263451E+02  0.00000000000E+00 0. -1.
         11    1    3    3    0    0  0.55249148497E+01 -0.25937369528E+02 -0.27118694941E+01  0.26657570380E+02  0.51100000000E-03 0. -1.
        -11    1    3    3    0    0  0.20902136305E+02  0.68171310157E+01 -0.33065449547E+01  0.22232989389E+02  0.51100000000E-03 0.  1.
         12    1    3    3    0    0 -0.16123328271E+02  0.68851651191E+01  0.15755416895E+02  0.23571176779E+02  0.00000000000E+00 0. -1.
</event>
<event>
 7    1  0.2876796E-013  0.7246154E+02  0.7816164E-02  0.1226708E+00
        -11   -1    0    0    0    0  0.00000000000E+00  0.00000000000E+00  0.45593999997E+02  0.45594000000E+02  0.51100000000E-03 0.  1.
         11   -1    0    0    0    0 -0.00000000000E+00 -0.00000000000E+00 -0.45593999997E+02  0.45594000000E+02  0.51100000000E-03 0. -1.
    9900012    2    1    2    0    0  0.53846191916E+01 -0.11402894238E+02  0.13844135576E+02  0.72461542495E+02  0.69999963786E+02 0.  0.
         12    1    1    2    0    0 -0.53846191916E+01  0.11402894238E+02 -0.13844135576E+02  0.18726457505E+02  0.00000000000E+00 0. -1.
         11    1    3    3    0    0  0.18490031249E+02 -0.20680341075E+02  0.55314392735E+01  0.28287003788E+02  0.51100000000E-03 0. -1.
        -11    1    3    3    0    0  0.14111586575E+02  0.45639683167E+01  0.73083307790E+01  0.16534158022E+02  0.51100000000E-03 0.  1.
        -12    1    3    3    0    0 -0.27216998633E+02  0.47134785203E+01  0.10043655233E+01  0.27640380685E+02  0.00000000000E+00 0.  1.
</event>
<event>
 7    1  0.2876796E-013  0.7246148E+02  0.7816164E-02  0.1226708E+00
        -11   -1    0    0    0    0  0.00000000000E+00  0.00000000000E+00  0.45593999997E+02  0.45594000000E+02  0.51100000000E-03 0.  1.
         11   -1    0    0    0    0 -0.00000000000E+00 -0.00000000000E+00 -0.45593999997E+02  0.45594000000E+02  0.51100000000E-03 0. -1.
    9900012    2    1    2    0    0  0.10261486534E+02  0.19439201507E+00  0.15663540218E+02  0.72461484406E+02  0.69999888114E+02 0.  0.
         12    1    1    2    0    0 -0.10261486534E+02 -0.19439201507E+00 -0.15663540218E+02  0.18726515594E+02  0.00000000000E+00 0. -1.
         11    1    3    3    0    0 -0.74510651058E+01  0.28307948238E+02 -0.46111293923E+00  0.29275773774E+02  0.51100000000E-03 0. -1.
        -11    1    3    3    0    0  0.74348659489E+01 -0.10389980509E+01 -0.34183466024E+01  0.82487479282E+01  0.51100000000E-03 0.  1.
        -12    1    3    3    0    0  0.10277685691E+02 -0.27074558172E+02  0.19542999760E+02  0.34936962704E+02  0.00000000000E+00 0.  1.
</event>
<event>
 7    1  0.2876796E-013  0.7246159E+02  0.7816164E-02  0.1226708E+00
        -11   -1    0    0    0    0  0.00000000000E+00  0.00000000000E+00  0.45593999997E+02  0.45594000000E+02  0.51100000000E-03 0. -1.
         11   -1    0    0    0    0 -0.00000000000E+00 -0.00000000000E+00 -0.45593999997E+02  0.45594000000E+02  0.51100000000E-03 0.  1.
    9900012    2    1    2    0    0 -0.12540247542E+02 -0.37764846433E+01 -0.13385014077E+02  0.72461594939E+02  0.70000032104E+02 0.  0.
         12    1    1    2    0    0  0.12540247542E+02  0.37764846433E+01  0.13385014077E+02  0.18726405061E+02  0.00000000000E+00 0. -1.
         11    1    3    3    0    0 -0.16259108895E+02  0.88736760483E+01  0.87268035379E+01  0.20475786894E+02  0.51100000000E-03 0. -1.
        -11    1    3    3    0    0 -0.18889729494E+02  0.20526648437E+01 -0.37716342281E+01  0.19371642634E+02  0.51100000000E-03 0.  1.
        -12    1    3    3    0    0  0.22608590847E+02 -0.14702825535E+02 -0.18340183387E+02  0.32614165411E+02  0.00000000000E+00 0.  1.
</event>
<event>
 7    1  0.2876796E-013  0.7246160E+02  0.7816164E-02  0.1226708E+00
        -11   -1    0    0    0    0  0.00000000000E+00  0.00000000000E+00  0.45593999997E+02  0.45594000000E+02  0.51100000000E-03 0.  1.
         11   -1    0    0    0    0 -0.00000000000E+00 -0.00000000000E+00 -0.45593999997E+02  0.45594000000E+02  0.51100000000E-03 0. -1.
    9900012    2    1    2    0    0  0.41089847873E+01  0.39872899853E+01  0.17829635397E+02  0.72461597895E+02  0.70000035954E+02 0.  0.
         12    1    1    2    0    0 -0.41089847873E+01 -0.39872899853E+01 -0.17829635397E+02  0.18726402105E+02  0.00000000000E+00 0. -1.
         11    1    3    3    0    0  0.20607904944E+02  0.67259244217E+01 -0.90397368296E+01  0.23487031480E+02  0.51100000000E-03 0. -1.
        -11    1    3    3    0    0 -0.81430795352E+01  0.89418424067E+00 -0.88804774425E+01  0.12081895118E+02  0.51100000000E-03 0.  1.
        -12    1    3    3    0    0 -0.83558406218E+01 -0.36328186770E+01  0.35749849670E+02  0.36892671297E+02  0.00000000000E+00 0.  1.
</event>
<event>
 7    1  0.2876796E-013  0.7246157E+02  0.7816164E-02  0.1226708E+00
        -11   -1    0    0    0    0  0.00000000000E+00  0.00000000000E+00  0.45593999997E+02  0.45594000000E+02  0.51100000000E-03 0.  1.
         11   -1    0    0    0    0 -0.00000000000E+00 -0.00000000000E+00 -0.45593999997E+02  0.45594000000E+02  0.51100000000E-03 0. -1.
    9900012    2    1    2    0    0  0.41133386650E+01 -0.11857024006E+02  0.13898581247E+02  0.72461571244E+02  0.70000001238E+02 0.  0.
         12    1    1    2    0    0 -0.41133386650E+01  0.11857024006E+02 -0.13898581247E+02  0.18726428756E+02  0.00000000000E+00 0. -1.
         11    1    3    3    0    0  0.50537113905E+01 -0.73081464796E+01 -0.16594249822E+02  0.18823340065E+02  0.51100000000E-03 0. -1.
        -11    1    3    3    0    0  0.20226020092E+02 -0.95033158850E+01  0.16622793440E+02  0.27851789235E+02  0.51100000000E-03 0.  1.
        -12    1    3    3    0    0 -0.21166392817E+02  0.49544383586E+01  0.13870037629E+02  0.25786441945E+02  0.00000000000E+00 0.  1.
</event>
<event>
 7    1  0.2876796E-013  0.7246155E+02  0.7816164E-02  0.1226708E+00
        -11   -1    0    0    0    0  0.00000000000E+00  0.00000000000E+00  0.45593999997E+02  0.45594000000E+02  0.51100000000E-03 0.  1.
         11   -1    0    0    0    0 -0.00000000000E+00 -0.00000000000E+00 -0.45593999997E+02  0.45594000000E+02  0.51100000000E-03 0. -1.
    9900012    2    1    2    0    0 -0.18724910943E+02  0.23866434623E+00 -0.27861680001E-01  0.72461547406E+02  0.69999970183E+02 0.  0.
         12    1    1    2    0    0  0.18724910943E+02 -0.23866434623E+00  0.27861680001E-01  0.18726452594E+02  0.00000000000E+00 0. -1.
         11    1    3    3    0    0 -0.44887413643E+01  0.14032960272E+02 -0.22019527337E+02  0.26494006066E+02  0.51100000000E-03 0. -1.
        -11    1    3    3    0    0 -0.20357378547E+02  0.25377908640E+01  0.39844267168E+01  0.20898298981E+02  0.51100000000E-03 0.  1.
        -12    1    3    3    0    0  0.61212089685E+01 -0.16332086790E+02  0.18007238940E+02  0.25069242358E+02  0.00000000000E+00 0.  1.
</event>
<event>
 7    1  0.2876796E-013  0.7246158E+02  0.7816164E-02  0.1226708E+00
        -11   -1    0    0    0    0  0.00000000000E+00  0.00000000000E+00  0.45593999997E+02  0.45594000000E+02  0.51100000000E-03 0. -1.
         11   -1    0    0    0    0 -0.00000000000E+00 -0.00000000000E+00 -0.45593999997E+02  0.45594000000E+02  0.51100000000E-03 0.  1.
    9900012    2    1    2    0    0 -0.51929099460E+01  0.16438768289E+02 -0.73129603784E+01  0.72461579999E+02  0.70000012642E+02 0.  0.
         12    1    1    2    0    0  0.51929099460E+01 -0.16438768289E+02  0.73129603784E+01  0.18726420001E+02  0.00000000000E+00 0. -1.
         11    1    3    3    0    0  0.50590363023E+01  0.18140676693E+02  0.24784844546E+01  0.18995285853E+02  0.51100000000E-03 0. -1.
        -11    1    3    3    0    0  0.17601481428E+02  0.10244401990E+02 -0.10977632876E+02  0.23135867056E+02  0.51100000000E-03 0.  1.
         12    1    3    3    0    0 -0.27853427676E+02 -0.11946310395E+02  0.11861880428E+01  0.30330427090E+02  0.00000000000E+00 0. -1.
</event>
<event>
 7    1  0.2876796E-013  0.7246157E+02  0.7816164E-02  0.1226708E+00
        -11   -1    0    0    0    0  0.00000000000E+00  0.00000000000E+00  0.45593999997E+02  0.45594000000E+02  0.51100000000E-03 0.  1.
         11   -1    0    0    0    0 -0.00000000000E+00 -0.00000000000E+00 -0.45593999997E+02  0.45594000000E+02  0.51100000000E-03 0. -1.
    9900012    2    1    2    0    0 -0.10699823702E+02  0.79817422934E+01  0.13133348519E+02  0.72461567329E+02  0.69999996137E+02 0.  0.
         12    1    1    2    0    0  0.10699823702E+02 -0.79817422934E+01 -0.13133348519E+02  0.18726432671E+02  0.00000000000E+00 0. -1.
         11    1    3    3    0    0  0.74999604942E+01 -0.13004778058E+02  0.17095697733E-01  0.15012459901E+02  0.51100000000E-03 0. -1.
        -11    1    3    3    0    0  0.62482105561E+01 -0.47891934228E+01 -0.11708498153E+02  0.14109055180E+02  0.51100000000E-03 0.  1.
        -12    1    3    3    0    0 -0.24447994752E+02  0.25775713774E+02  0.24824750974E+02  0.43340052248E+02  0.00000000000E+00 0.  1.
</event>
<event>
 7    1  0.2876796E-013  0.7246158E+02  0.7816164E-02  0.1226708E+00
        -11   -1    0    0    0    0  0.00000000000E+00  0.00000000000E+00  0.45593999997E+02  0.45594000000E+02  0.51100000000E-03 0.  1.
         11   -1    0    0    0    0 -0.00000000000E+00 -0.00000000000E+00 -0.45593999997E+02  0.45594000000E+02  0.51100000000E-03 0. -1.
    9900012    2    1    2    0    0  0.56858763956E+01 -0.97724414027E+01  0.14928124252E+02  0.72461582963E+02  0.70000016503E+02 0.  0.
         12    1    1    2    0    0 -0.56858763956E+01  0.97724414027E+01 -0.14928124252E+02  0.18726417037E+02  0.00000000000E+00 0. -1.
         11    1    3    3    0    0 -0.17050413499E+01  0.44326560971E+00  0.11790836472E+01  0.21198794574E+01  0.51100000000E-03 0. -1.
        -11    1    3    3    0    0 -0.88228620716E+01  0.23545487602E+02  0.20305507105E+02  0.32319444621E+02  0.51100000000E-03 0.  1.
         12    1    3    3    0    0  0.16213779817E+02 -0.33761194614E+02 -0.65564665003E+01  0.38022258885E+02  0.00000000000E+00 0. -1.
</event>
<event>
 7    1  0.2876796E-013  0.7246153E+02  0.7816164E-02  0.1226708E+00
        -11   -1    0    0    0    0  0.00000000000E+00  0.00000000000E+00  0.45593999997E+02  0.45594000000E+02  0.51100000000E-03 0.  1.
         11   -1    0    0    0    0 -0.00000000000E+00 -0.00000000000E+00 -0.45593999997E+02  0.45594000000E+02  0.51100000000E-03 0. -1.
    9900012    2    1    2    0    0  0.61455109896E+01  0.19582017245E+01  0.17580641930E+02  0.72461525959E+02  0.69999942245E+02 0.  0.
         12    1    1    2    0    0 -0.61455109896E+01 -0.19582017245E+01 -0.17580641930E+02  0.18726474041E+02  0.00000000000E+00 0. -1.
         11    1    3    3    0    0  0.31812817475E+01  0.11648511597E+01 -0.10536068611E+02  0.11067347189E+02  0.51100000000E-03 0. -1.
        -11    1    3    3    0    0  0.78483684700E+01  0.26850103110E+02  0.16227463616E+02  0.32339689243E+02  0.51100000000E-03 0.  1.
         12    1    3    3    0    0 -0.48841392279E+01 -0.26056752545E+02  0.11889246925E+02  0.29054489527E+02  0.00000000000E+00 0. -1.
</event>
<event>
 7    1  0.2876796E-013  0.7246151E+02  0.7816164E-02  0.1226708E+00
        -11   -1    0    0    0    0  0.00000000000E+00  0.00000000000E+00  0.45593999997E+02  0.45594000000E+02  0.51100000000E-03 0.  1.
         11   -1    0    0    0    0 -0.00000000000E+00 -0.00000000000E+00 -0.45593999997E+02  0.45594000000E+02  0.51100000000E-03 0. -1.
    9900012    2    1    2    0    0 -0.13797846068E+02  0.33670310130E+01  0.12205082662E+02  0.72461508157E+02  0.69999919055E+02 0.  0.
         12    1    1    2    0    0  0.13797846068E+02 -0.33670310130E+01 -0.12205082662E+02  0.18726491843E+02  0.00000000000E+00 0. -1.
         11    1    3    3    0    0 -0.10068581746E+02  0.10163772384E+02  0.97595878370E+01  0.17318434180E+02  0.51100000000E-03 0. -1.
        -11    1    3    3    0    0  0.84769390599E+01 -0.20393104504E+02  0.20007459634E+02  0.29799926986E+02  0.51100000000E-03 0.  1.
         12    1    3    3    0    0 -0.12206203381E+02  0.13596363133E+02 -0.17561964809E+02  0.25343146990E+02  0.00000000000E+00 0. -1.
</event>
<event>
 7    1  0.2876796E-013  0.7246144E+02  0.7816164E-02  0.1226708E+00
        -11   -1    0    0    0    0  0.00000000000E+00  0.00000000000E+00  0.45593999997E+02  0.45594000000E+02  0.51100000000E-03 0.  1.
         11   -1    0    0    0    0 -0.00000000000E+00 -0.00000000000E+00 -0.45593999997E+02  0.45594000000E+02  0.51100000000E-03 0. -1.
    9900012    2    1    2    0    0  0.10639795564E+02  0.85340983984E+01  0.12831522254E+02  0.72461440026E+02  0.69999830300E+02 0.  0.
         12    1    1    2    0    0 -0.10639795564E+02 -0.85340983984E+01 -0.12831522254E+02  0.18726559974E+02  0.00000000000E+00 0. -1.
         11    1    3    3    0    0  0.18639912468E+02  0.68953196313E+01 -0.15739015507E+02  0.25351693810E+02  0.51100000000E-03 0. -1.
        -11    1    3    3    0    0  0.11302216281E+02  0.10492136332E+02  0.16898396834E+02  0.22877518080E+02  0.51100000000E-03 0.  1.
        -12    1    3    3    0    0 -0.19302333185E+02 -0.88533575652E+01  0.11672140928E+02  0.24232228135E+02  0.00000000000E+00 0.  1.
</event>
<event>
 7    1  0.2876796E-013  0.7246166E+02  0.7816164E-02  0.1226708E+00
        -11   -1    0    0    0    0  0.00000000000E+00  0.00000000000E+00  0.45593999997E+02  0.45594000000E+02  0.51100000000E-03 0.  1.
         11   -1    0    0    0    0 -0.00000000000E+00 -0.00000000000E+00 -0.45593999997E+02  0.45594000000E+02  0.51100000000E-03 0. -1.
    9900012    2    1    2    0    0  0.17393259650E+02 -0.68790918023E+01  0.91015913650E+00  0.72461660931E+02  0.70000118071E+02 0.  0.
         12    1    1    2    0    0 -0.17393259650E+02  0.68790918023E+01 -0.91015913650E+00  0.18726339069E+02  0.00000000000E+00 0. -1.
         11    1    3    3    0    0  0.90449087209E+01  0.29366472916E+01 -0.62177306288E+01  0.11361973663E+02  0.51100000000E-03 0. -1.
        -11    1    3    3    0    0  0.32746030787E+02 -0.10693678337E+02 -0.31902821935E+01  0.34595305887E+02  0.51100000000E-03 0.  1.
         12    1    3    3    0    0 -0.24397679858E+02  0.87793924319E+00  0.10318171959E+02  0.26504381380E+02  0.00000000000E+00 0. -1.
</event>
<event>
 7    1  0.2876796E-013  0.7246162E+02  0.7816164E-02  0.1226708E+00
        -11   -1    0    0    0    0  0.00000000000E+00  0.00000000000E+00  0.45593999997E+02  0.45594000000E+02  0.51100000000E-03 0.  1.
         11   -1    0    0    0    0 -0.00000000000E+00 -0.00000000000E+00 -0.45593999997E+02  0.45594000000E+02  0.51100000000E-03 0. -1.
    9900012    2    1    2    0    0  0.23714982223E+01  0.89644896314E+01  0.16269330392E+02  0.72461623159E+02  0.70000068866E+02 0.  0.
         12    1    1    2    0    0 -0.23714982223E+01 -0.89644896314E+01 -0.16269330392E+02  0.18726376841E+02  0.00000000000E+00 0. -1.
         11    1    3    3    0    0  0.13870543937E+02 -0.14113297865E+02 -0.70409805557E+01  0.21003632381E+02  0.51100000000E-03 0. -1.
        -11    1    3    3    0    0 -0.59395404013E+01 -0.84940143402E+01 -0.20704996919E+01  0.10569455474E+02  0.51100000000E-03 0.  1.
        -12    1    3    3    0    0 -0.55595053136E+01  0.31571801837E+02  0.25380810640E+02  0.40888535304E+02  0.00000000000E+00 0.  1.
</event>
<event>
 7    1  0.2876796E-013  0.7246157E+02  0.7816164E-02  0.1226708E+00
        -11   -1    0    0    0    0  0.00000000000E+00  0.00000000000E+00  0.45593999997E+02  0.45594000000E+02  0.51100000000E-03 0.  1.
         11   -1    0    0    0    0 -0.00000000000E+00 -0.00000000000E+00 -0.45593999997E+02  0.45594000000E+02  0.51100000000E-03 0. -1.
    9900012    2    1    2    0    0  0.77858432238E+01 -0.13614481718E+02  0.10232584059E+02  0.72461568314E+02  0.69999997420E+02 0.  0.
         12    1    1    2    0    0 -0.77858432238E+01  0.13614481718E+02 -0.10232584059E+02  0.18726431686E+02  0.00000000000E+00 0. -1.
         11    1    3    3    0    0 -0.20327267950E+02  0.50897791927E+01  0.21597658639E+02  0.30092566084E+02  0.51100000000E-03 0. -1.
        -11    1    3    3    0    0  0.20682902933E+01 -0.76940182750E+01  0.52792725824E+01  0.95575342643E+01  0.51100000000E-03 0.  1.
        -12    1    3    3    0    0  0.26044820881E+02 -0.11010242636E+02 -0.16644347162E+02  0.32811467966E+02  0.00000000000E+00 0.  1.
</event>
<event>
 7    1  0.2876796E-013  0.7246155E+02  0.7816164E-02  0.1226708E+00
        -11   -1    0    0    0    0  0.00000000000E+00  0.00000000000E+00  0.45593999997E+02  0.45594000000E+02  0.51100000000E-03 0.  1.
         11   -1    0    0    0    0 -0.00000000000E+00 -0.00000000000E+00 -0.45593999997E+02  0.45594000000E+02  0.51100000000E-03 0. -1.
    9900012    2    1    2    0    0 -0.18398824347E+02  0.28709252072E+01 -0.19801123603E+01  0.72461553624E+02  0.69999978284E+02 0.  0.
         12    1    1    2    0    0  0.18398824347E+02 -0.28709252072E+01  0.19801123603E+01  0.18726446376E+02  0.00000000000E+00 0. -1.
         11    1    3    3    0    0 -0.11976096255E+02 -0.23477953916E+01 -0.60654240588E+01  0.13628220500E+02  0.51100000000E-03 0. -1.
        -11    1    3    3    0    0  0.62776414155E+01 -0.22646921732E+02 -0.94786705763E+01  0.25340423079E+02  0.51100000000E-03 0.  1.
         12    1    3    3    0    0 -0.12700369508E+02  0.27865642331E+02  0.13563982275E+02  0.33492910045E+02  0.00000000000E+00 0. -1.
</event>
<event>
 7    1  0.2876796E-013  0.7246172E+02  0.7816164E-02  0.1226708E+00
        -11   -1    0    0    0    0  0.00000000000E+00  0.00000000000E+00  0.45593999997E+02  0.45594000000E+02  0.51100000000E-03 0. -1.
         11   -1    0    0    0    0 -0.00000000000E+00 -0.00000000000E+00 -0.45593999997E+02  0.45594000000E+02  0.51100000000E-03 0.  1.
    9900012    2    1    2    0    0  0.16401266551E+02 -0.51087691114E+01 -0.74546976678E+01  0.72461719440E+02  0.70000194289E+02 0.  0.
         12    1    1    2    0    0 -0.16401266551E+02  0.51087691114E+01  0.74546976678E+01  0.18726280560E+02  0.00000000000E+00 0. -1.
         11    1    3    3    0    0 -0.57955974266E+01 -0.53593262160E+01 -0.24989046225E+01  0.82798461094E+01  0.51100000000E-03 0. -1.
        -11    1    3    3    0    0  0.14045129245E+02 -0.28985882088E+02  0.41934608888E+01  0.32481258141E+02  0.51100000000E-03 0.  1.
         12    1    3    3    0    0  0.81517347322E+01  0.29236439193E+02 -0.91492539341E+01  0.31700615189E+02  0.00000000000E+00 0. -1.
</event>
<event>
 7    1  0.2876796E-013  0.7246157E+02  0.7816164E-02  0.1226708E+00
        -11   -1    0    0    0    0  0.00000000000E+00  0.00000000000E+00  0.45593999997E+02  0.45594000000E+02  0.51100000000E-03 0. -1.
         11   -1    0    0    0    0 -0.00000000000E+00 -0.00000000000E+00 -0.45593999997E+02  0.45594000000E+02  0.51100000000E-03 0.  1.
    9900012    2    1    2    0    0  0.13675870688E+02 -0.25521441389E+01  0.12535407773E+02  0.72461566095E+02  0.69999994529E+02 0.  0.
         12    1    1    2    0    0 -0.13675870688E+02  0.25521441389E+01 -0.12535407773E+02  0.18726433905E+02  0.00000000000E+00 0. -1.
         11    1    3    3    0    0  0.21466760304E+01 -0.78180267656E+01  0.30336771372E+02  0.31401424459E+02  0.51100000000E-03 0. -1.
        -11    1    3    3    0    0  0.10814383858E+02  0.16832340612E+02 -0.22613683935E+00  0.20008241473E+02  0.51100000000E-03 0.  1.
        -12    1    3    3    0    0  0.71481079947E+00 -0.11566457985E+02 -0.17575226760E+02  0.21051900163E+02  0.00000000000E+00 0.  1.
</event>
<event>
 7    1  0.2876796E-013  0.7246153E+02  0.7816164E-02  0.1226708E+00
        -11   -1    0    0    0    0  0.00000000000E+00  0.00000000000E+00  0.45593999997E+02  0.45594000000E+02  0.51100000000E-03 0. -1.
         11   -1    0    0    0    0 -0.00000000000E+00 -0.00000000000E+00 -0.45593999997E+02  0.45594000000E+02  0.51100000000E-03 0.  1.
    9900012    2    1    2    0    0 -0.17052720968E+02  0.74964073953E+01 -0.19207464334E+01  0.72461529881E+02  0.69999947354E+02 0.  0.
         12    1    1    2    0    0  0.17052720968E+02 -0.74964073953E+01  0.19207464334E+01  0.18726470119E+02  0.00000000000E+00 0. -1.
         11    1    3    3    0    0  0.72324776848E+01 -0.58568365693E+01  0.32089603646E+01  0.98442213985E+01  0.51100000000E-03 0. -1.
        -11    1    3    3    0    0  0.16631562198E+02 -0.36554740496E+01 -0.66477852526E+01  0.18280164132E+02  0.51100000000E-03 0.  1.
        -12    1    3    3    0    0 -0.40916760851E+02  0.17008718014E+02  0.15180784546E+01  0.44337144351E+02  0.00000000000E+00 0.  1.
</event>
<event>
 7    1  0.2876796E-013  0.7246149E+02  0.7816164E-02  0.1226708E+00
        -11   -1    0    0    0    0  0.00000000000E+00  0.00000000000E+00  0.45593999997E+02  0.45594000000E+02  0.51100000000E-03 0. -1.
         11   -1    0    0    0    0 -0.00000000000E+00 -0.00000000000E+00 -0.45593999997E+02  0.45594000000E+02  0.51100000000E-03 0.  1.
    9900012    2    1    2    0    0  0.12533155817E+01  0.86583303045E+01 -0.16557312636E+02  0.72461492441E+02  0.69999898582E+02 0.  0.
         12    1    1    2    0    0 -0.12533155817E+01 -0.86583303045E+01  0.16557312636E+02  0.18726507559E+02  0.00000000000E+00 0. -1.
         11    1    3    3    0    0 -0.29847540161E+01 -0.87928991885E+01 -0.56405510457E+01  0.10864605333E+02  0.51100000000E-03 0. -1.
        -11    1    3    3    0    0  0.19411685672E+02 -0.13314816376E+02  0.45366725954E+01  0.23972469089E+02  0.51100000000E-03 0.  1.
         12    1    3    3    0    0 -0.15173616074E+02  0.30766045869E+02 -0.15453434186E+02  0.37624418019E+02  0.00000000000E+00 0. -1.
</event>
<event>
 7    1  0.2876796E-013  0.7246156E+02  0.7816164E-02  0.1226708E+00
        -11   -1    0    0    0    0  0.00000000000E+00  0.00000000000E+00  0.45593999997E+02  0.45594000000E+02  0.51100000000E-03 0.  1.
         11   -1    0    0    0    0 -0.00000000000E+00 -0.00000000000E+00 -0.45593999997E+02  0.45594000000E+02  0.51100000000E-03 0. -1.
    9900012    2    1    2    0    0 -0.14979296838E+02  0.84055389271E+01  0.74596961444E+01  0.72461561872E+02  0.69999989028E+02 0.  0.
         12    1    1    2    0    0  0.14979296838E+02 -0.84055389271E+01 -0.74596961444E+01  0.18726438128E+02  0.00000000000E+00 0. -1.
         11    1    3    3    0    0 -0.34994414179E+01 -0.93516999798E+01  0.55173070112E+01  0.11407938449E+02  0.51100000000E-03 0. -1.
        -11    1    3    3    0    0 -0.27823222138E+02  0.17159410273E+02  0.18682131030E+02  0.37651016867E+02  0.51100000000E-03 0.  1.
         12    1    3    3    0    0  0.16343366718E+02  0.59782863426E+00 -0.16739741897E+02  0.23402606555E+02  0.00000000000E+00 0. -1.
</event>
<event>
 7    1  0.2876796E-013  0.7246152E+02  0.7816164E-02  0.1226708E+00
        -11   -1    0    0    0    0  0.00000000000E+00  0.00000000000E+00  0.45593999997E+02  0.45594000000E+02  0.51100000000E-03 0.  1.
         11   -1    0    0    0    0 -0.00000000000E+00 -0.00000000000E+00 -0.45593999997E+02  0.45594000000E+02  0.51100000000E-03 0. -1.
    9900012    2    1    2    0    0  0.11541777217E+02  0.10889916644E+02  0.99437485727E+01  0.72461520312E+02  0.69999934888E+02 0.  0.
         12    1    1    2    0    0 -0.11541777217E+02 -0.10889916644E+02 -0.99437485727E+01  0.18726479688E+02  0.00000000000E+00 0. -1.
         11    1    3    3    0    0  0.11441033949E+02  0.57861768227E+01  0.28977007198E+01  0.13144343642E+02  0.51100000000E-03 0. -1.
        -11    1    3    3    0    0  0.28458730149E+02 -0.44374902692E+01  0.57374641670E+01  0.29368505868E+02  0.51100000000E-03 0.  1.
         12    1    3    3    0    0 -0.28357986881E+02  0.95412300904E+01  0.13085836859E+01  0.29948670802E+02  0.00000000000E+00 0. -1.
</event>
<event>
 7    1  0.2876796E-013  0.7246151E+02  0.7816164E-02  0.1226708E+00
        -11   -1    0    0    0    0  0.00000000000E+00  0.00000000000E+00  0.45593999997E+02  0.45594000000E+02  0.51100000000E-03 0.  1.
         11   -1    0    0    0    0 -0.00000000000E+00 -0.00000000000E+00 -0.45593999997E+02  0.45594000000E+02  0.51100000000E-03 0. -1.
    9900012    2    1    2    0    0  0.47392082689E+01  0.17168843513E+02  0.57837792181E+01  0.72461511151E+02  0.69999922954E+02 0.  0.
         12    1    1    2    0    0 -0.47392082689E+01 -0.17168843513E+02 -0.57837792181E+01  0.18726488849E+02  0.00000000000E+00 0. -1.
         11    1    3    3    0    0  0.45610617438E+01  0.17707789049E+01  0.38021467376E+01  0.61963910655E+01  0.51100000000E-03 0. -1.
        -11    1    3    3    0    0 -0.64011214071E+01  0.15641970569E+02  0.31647366527E+02  0.35877589202E+02  0.51100000000E-03 0.  1.
         12    1    3    3    0    0  0.65792679322E+01 -0.24390596165E+00 -0.29665734047E+02  0.30387530883E+02  0.00000000000E+00 0. -1.
</event>
<event>
 7    1  0.2876796E-013  0.7246148E+02  0.7816164E-02  0.1226708E+00
        -11   -1    0    0    0    0  0.00000000000E+00  0.00000000000E+00  0.45593999997E+02  0.45594000000E+02  0.51100000000E-03 0. -1.
         11   -1    0    0    0    0 -0.00000000000E+00 -0.00000000000E+00 -0.45593999997E+02  0.45594000000E+02  0.51100000000E-03 0.  1.
    9900012    2    1    2    0    0  0.73685865303E+00 -0.18210165118E+02 -0.43045860043E+01  0.72461480436E+02  0.69999882943E+02 0.  0.
         12    1    1    2    0    0 -0.73685865303E+00  0.18210165118E+02  0.43045860043E+01  0.18726519564E+02  0.00000000000E+00 0. -1.
         11    1    3    3    0    0  0.18479691173E+01  0.18520763254E+01  0.72991110515E+01  0.77538505903E+01  0.51100000000E-03 0. -1.
        -11    1    3    3    0    0 -0.69939983289E+01  0.19005632324E+02  0.64719807666E+01  0.21260682208E+02  0.51100000000E-03 0.  1.
        -12    1    3    3    0    0  0.58828878646E+01 -0.39067873767E+02 -0.18075677822E+02  0.43446947638E+02  0.00000000000E+00 0.  1.
</event>
<event>
 7    1  0.2876796E-013  0.7246151E+02  0.7816164E-02  0.1226708E+00
        -11   -1    0    0    0    0  0.00000000000E+00  0.00000000000E+00  0.45593999997E+02  0.45594000000E+02  0.51100000000E-03 0.  1.
         11   -1    0    0    0    0 -0.00000000000E+00 -0.00000000000E+00 -0.45593999997E+02  0.45594000000E+02  0.51100000000E-03 0. -1.
    9900012    2    1    2    0    0  0.64174181198E+01  0.16942326752E+02  0.47387350961E+01  0.72461513373E+02  0.69999925849E+02 0.  0.
         12    1    1    2    0    0 -0.64174181198E+01 -0.16942326752E+02 -0.47387350961E+01  0.18726486627E+02  0.00000000000E+00 0. -1.
         11    1    3    3    0    0  0.72081902685E+01  0.41324917552E+01 -0.26555607261E+02  0.27825092494E+02  0.51100000000E-03 0. -1.
        -11    1    3    3    0    0  0.12841607671E+02  0.51477052438E+01  0.64134524108E+01  0.15249200928E+02  0.51100000000E-03 0.  1.
        -12    1    3    3    0    0 -0.13632379820E+02  0.76621297528E+01  0.24880889946E+02  0.29387219950E+02  0.00000000000E+00 0.  1.
</event>
<event>
 7    1  0.2876796E-013  0.7246150E+02  0.7816164E-02  0.1226708E+00
        -11   -1    0    0    0    0  0.00000000000E+00  0.00000000000E+00  0.45593999997E+02  0.45594000000E+02  0.51100000000E-03 0.  1.
         11   -1    0    0    0    0 -0.00000000000E+00 -0.00000000000E+00 -0.45593999997E+02  0.45594000000E+02  0.51100000000E-03 0. -1.
    9900012    2    1    2    0    0  0.52324971928E+01 -0.75354900426E+01  0.16325413355E+02  0.72461501174E+02  0.69999909958E+02 0.  0.
         12    1    1    2    0    0 -0.52324971928E+01  0.75354900426E+01 -0.16325413355E+02  0.18726498826E+02  0.00000000000E+00 0. -1.
         11    1    3    3    0    0 -0.40624221311E+01 -0.75230946272E+01  0.30390375126E+00  0.85552664536E+01  0.51100000000E-03 0. -1.
        -11    1    3    3    0    0 -0.11899229032E+02 -0.95468860883E+01 -0.17436884849E+02  0.23168505325E+02  0.51100000000E-03 0.  1.
        -12    1    3    3    0    0  0.21194148355E+02  0.95344906730E+01  0.33458394453E+02  0.40737729395E+02  0.00000000000E+00 0.  1.
</event>
<event>
 7    1  0.2876796E-013  0.7246155E+02  0.7816164E-02  0.1226708E+00
        -11   -1    0    0    0    0  0.00000000000E+00  0.00000000000E+00  0.45593999997E+02  0.45594000000E+02  0.51100000000E-03 0. -1.
         11   -1    0    0    0    0 -0.00000000000E+00 -0.00000000000E+00 -0.45593999997E+02  0.45594000000E+02  0.51100000000E-03 0.  1.
    9900012    2    1    2    0    0 -0.11966566605E+02 -0.11283178583E+02 -0.89538372926E+01  0.72461547119E+02  0.69999969810E+02 0.  0.
         12    1    1    2    0    0  0.11966566605E+02  0.11283178583E+02  0.89538372926E+01  0.18726452881E+02  0.00000000000E+00 0. -1.
         11    1    3    3    0    0 -0.46221414080E+01 -0.22122938001E+02  0.20203642445E+02  0.30314612736E+02  0.51100000000E-03 0. -1.
        -11    1    3    3    0    0 -0.13750073084E+02  0.53250441711E+01 -0.35304396566E+01  0.15161946104E+02  0.51100000000E-03 0.  1.
        -12    1    3    3    0    0  0.64056478869E+01  0.55147152477E+01 -0.25627040081E+02  0.26984988279E+02  0.00000000000E+00 0.  1.
</event>
<event>
 7    1  0.2876796E-013  0.7246153E+02  0.7816164E-02  0.1226708E+00
        -11   -1    0    0    0    0  0.00000000000E+00  0.00000000000E+00  0.45593999997E+02  0.45594000000E+02  0.51100000000E-03 0.  1.
         11   -1    0    0    0    0 -0.00000000000E+00 -0.00000000000E+00 -0.45593999997E+02  0.45594000000E+02  0.51100000000E-03 0. -1.
    9900012    2    1    2    0    0 -0.30742680275E+01 -0.77352960416E+01  0.16774827733E+02  0.72461527449E+02  0.69999944186E+02 0.  0.
         12    1    1    2    0    0  0.30742680275E+01  0.77352960416E+01 -0.16774827733E+02  0.18726472551E+02  0.00000000000E+00 0. -1.
         11    1    3    3    0    0  0.15845407878E+02  0.14105216377E+02 -0.14631286225E+02  0.25770304941E+02  0.51100000000E-03 0. -1.
        -11    1    3    3    0    0  0.81489218792E+00 -0.12796805184E+02  0.10908811844E+02  0.16835214531E+02  0.51100000000E-03 0.  1.
        -12    1    3    3    0    0 -0.19734568093E+02 -0.90437072344E+01  0.20497302114E+02  0.29856007977E+02  0.00000000000E+00 0.  1.
</event>
<event>
 7    1  0.2876796E-013  0.7246164E+02  0.7816164E-02  0.1226708E+00
        -11   -1    0    0    0    0  0.00000000000E+00  0.00000000000E+00  0.45593999997E+02  0.45594000000E+02  0.51100000000E-03 0.  1.
         11   -1    0    0    0    0 -0.00000000000E+00 -0.00000000000E+00 -0.45593999997E+02  0.45594000000E+02  0.51100000000E-03 0. -1.
    9900012    2    1    2    0    0  0.87552853804E+01  0.82745653031E+00  0.16532907646E+02  0.72461635120E+02  0.70000084447E+02 0.  0.
         12    1    1    2    0    0 -0.87552853804E+01 -0.82745653031E+00 -0.16532907646E+02  0.18726364880E+02  0.00000000000E+00 0. -1.
         11    1    3    3    0    0  0.18443091947E+02  0.27420481889E+01  0.17564566220E+02  0.25616019511E+02  0.51100000000E-03 0. -1.
        -11    1    3    3    0    0 -0.18214440015E+02 -0.22379123444E+01  0.18175306812E+02  0.25828585999E+02  0.51100000000E-03 0.  1.
         12    1    3    3    0    0  0.85266334486E+01  0.32332068579E+00 -0.19206965386E+02  0.21017029609E+02  0.00000000000E+00 0. -1.
</event>
<event>
 7    1  0.2876796E-013  0.7246158E+02  0.7816164E-02  0.1226708E+00
        -11   -1    0    0    0    0  0.00000000000E+00  0.00000000000E+00  0.45593999997E+02  0.45594000000E+02  0.51100000000E-03 0.  1.
         11   -1    0    0    0    0 -0.00000000000E+00 -0.00000000000E+00 -0.45593999997E+02  0.45594000000E+02  0.51100000000E-03 0. -1.
    9900012    2    1    2    0    0 -0.16098180244E+02 -0.22856127537E+01  0.92899557507E+01  0.72461582546E+02  0.70000015959E+02 0.  0.
         12    1    1    2    0    0  0.16098180244E+02  0.22856127537E+01 -0.92899557507E+01  0.18726417454E+02  0.00000000000E+00 0. -1.
         11    1    3    3    0    0  0.87243742680E+00  0.12361601140E+02 -0.89946308607E-01  0.12392676079E+02  0.51100000000E-03 0. -1.
        -11    1    3    3    0    0  0.69986927107E+01 -0.37009783496E+01 -0.19456942843E+02  0.21005988800E+02  0.51100000000E-03 0.  1.
        -12    1    3    3    0    0 -0.23969310382E+02 -0.10946235544E+02  0.28836844902E+02  0.39062917667E+02  0.00000000000E+00 0.  1.
</event>
<event>
 7    1  0.2876796E-013  0.7246161E+02  0.7816164E-02  0.1226708E+00
        -11   -1    0    0    0    0  0.00000000000E+00  0.00000000000E+00  0.45593999997E+02  0.45594000000E+02  0.51100000000E-03 0.  1.
         11   -1    0    0    0    0 -0.00000000000E+00 -0.00000000000E+00 -0.45593999997E+02  0.45594000000E+02  0.51100000000E-03 0. -1.
    9900012    2    1    2    0    0  0.15679230342E+00 -0.86889794518E+01  0.16587792726E+02  0.72461606453E+02  0.70000047104E+02 0.  0.
         12    1    1    2    0    0 -0.15679230342E+00  0.86889794518E+01 -0.16587792726E+02  0.18726393547E+02  0.00000000000E+00 0. -1.
         11    1    3    3    0    0 -0.67993405251E+01 -0.40669631728E+01 -0.53932376703E+01  0.95842701264E+01  0.51100000000E-03 0. -1.
        -11    1    3    3    0    0 -0.14736796206E+02 -0.22557054487E+02  0.21913528826E+02  0.34730341424E+02  0.51100000000E-03 0.  1.
         12    1    3    3    0    0  0.21692929035E+02  0.17935038208E+02  0.67501570372E-01  0.28146994903E+02  0.00000000000E+00 0. -1.
</event>
<event>
 7    1  0.2876796E-013  0.7246158E+02  0.7816164E-02  0.1226708E+00
        -11   -1    0    0    0    0  0.00000000000E+00  0.00000000000E+00  0.45593999997E+02  0.45594000000E+02  0.51100000000E-03 0.  1.
         11   -1    0    0    0    0 -0.00000000000E+00 -0.00000000000E+00 -0.45593999997E+02  0.45594000000E+02  0.51100000000E-03 0. -1.
    9900012    2    1    2    0    0 -0.18693933950E+02 -0.70250731378E+00 -0.84978593886E+00  0.72461579649E+02  0.70000012186E+02 0.  0.
         12    1    1    2    0    0  0.18693933950E+02  0.70250731378E+00  0.84978593886E+00  0.18726420351E+02  0.00000000000E+00 0. -1.
         11    1    3    3    0    0  0.95565511732E+01 -0.69636405836E+00 -0.70516269837E+01  0.11896975944E+02  0.51100000000E-03 0. -1.
        -11    1    3    3    0    0  0.19508738840E+01 -0.20189198485E+00  0.24943259284E+02  0.25020248864E+02  0.51100000000E-03 0.  1.
        -12    1    3    3    0    0 -0.30201359007E+02  0.19574872943E+00 -0.18741418239E+02  0.35544354840E+02  0.00000000000E+00 0.  1.
</event>
<event>
 7    1  0.2876796E-013  0.7246156E+02  0.7816164E-02  0.1226708E+00
        -11   -1    0    0    0    0  0.00000000000E+00  0.00000000000E+00  0.45593999997E+02  0.45594000000E+02  0.51100000000E-03 0. -1.
         11   -1    0    0    0    0 -0.00000000000E+00 -0.00000000000E+00 -0.45593999997E+02  0.45594000000E+02  0.51100000000E-03 0.  1.
    9900012    2    1    2    0    0 -0.16592180898E+02  0.33361342037E+01  0.80155604787E+01  0.72461562320E+02  0.69999989612E+02 0.  0.
         12    1    1    2    0    0  0.16592180898E+02 -0.33361342037E+01 -0.80155604787E+01  0.18726437680E+02  0.00000000000E+00 0. -1.
         11    1    3    3    0    0  0.13517726946E+01 -0.17327045805E+02  0.17953476925E+00  0.17380622508E+02  0.51100000000E-03 0. -1.
        -11    1    3    3    0    0  0.41119944125E+01  0.77863861285E+01 -0.17196085014E+02  0.19319462908E+02  0.51100000000E-03 0.  1.
        -12    1    3    3    0    0 -0.22055948006E+02  0.12876793881E+02  0.25032110724E+02  0.35761476904E+02  0.00000000000E+00 0.  1.
</event>
<event>
 7    1  0.2876796E-013  0.7246160E+02  0.7816164E-02  0.1226708E+00
        -11   -1    0    0    0    0  0.00000000000E+00  0.00000000000E+00  0.45593999997E+02  0.45594000000E+02  0.51100000000E-03 0. -1.
         11   -1    0    0    0    0 -0.00000000000E+00 -0.00000000000E+00 -0.45593999997E+02  0.45594000000E+02  0.51100000000E-03 0.  1.
    9900012    2    1    2    0    0 -0.15908278279E+02  0.86073417979E+01 -0.48495947539E+01  0.72461595649E+02  0.70000033029E+02 0.  0.
         12    1    1    2    0    0  0.15908278279E+02 -0.86073417979E+01  0.48495947539E+01  0.18726404351E+02  0.00000000000E+00 0. -1.
         11    1    3    3    0    0 -0.63906240517E+01  0.13305445535E+02  0.26133209674E+02  0.30013656971E+02  0.51100000000E-03 0. -1.
        -11    1    3    3    0    0 -0.16117390968E+02  0.34782183470E+01 -0.10849983121E+02  0.19738045204E+02  0.51100000000E-03 0.  1.
        -12    1    3    3    0    0  0.65997367403E+01 -0.81763220839E+01 -0.20132821307E+02  0.22709893475E+02  0.00000000000E+00 0.  1.
</event>
<event>
 7    1  0.2876796E-013  0.7246157E+02  0.7816164E-02  0.1226708E+00
        -11   -1    0    0    0    0  0.00000000000E+00  0.00000000000E+00  0.45593999997E+02  0.45594000000E+02  0.51100000000E-03 0. -1.
         11   -1    0    0    0    0 -0.00000000000E+00 -0.00000000000E+00 -0.45593999997E+02  0.45594000000E+02  0.51100000000E-03 0.  1.
    9900012    2    1    2    0    0  0.16510690761E+01 -0.17393119608E+02 -0.67403633344E+01  0.72461571171E+02  0.70000001142E+02 0.  0.
         12    1    1    2    0    0 -0.16510690761E+01  0.17393119608E+02  0.67403633344E+01  0.18726428829E+02  0.00000000000E+00 0. -1.
         11    1    3    3    0    0  0.29745085231E+01 -0.12579325907E+01  0.12467995738E+01  0.34618787956E+01  0.51100000000E-03 0. -1.
        -11    1    3    3    0    0  0.26740662752E+02 -0.89480087495E+01 -0.22983841222E+02  0.36378384552E+02  0.51100000000E-03 0.  1.
         12    1    3    3    0    0 -0.28064102199E+02 -0.71871782681E+01  0.14996678314E+02  0.32621307824E+02  0.00000000000E+00 0. -1.
</event>
<event>
 7    1  0.2876796E-013  0.7246157E+02  0.7816164E-02  0.1226708E+00
        -11   -1    0    0    0    0  0.00000000000E+00  0.00000000000E+00  0.45593999997E+02  0.45594000000E+02  0.51100000000E-03 0. -1.
         11   -1    0    0    0    0 -0.00000000000E+00 -0.00000000000E+00 -0.45593999997E+02  0.45594000000E+02  0.51100000000E-03 0.  1.
    9900012    2    1    2    0    0 -0.30292618035E+01  0.53635264428E+01 -0.17684327406E+02  0.72461567378E+02  0.69999996200E+02 0.  0.
         12    1    1    2    0    0  0.30292618035E+01 -0.53635264428E+01  0.17684327406E+02  0.18726432622E+02  0.00000000000E+00 0. -1.
         11    1    3    3    0    0 -0.90236078491E+01 -0.84537705981E+01 -0.27248418762E+02  0.29922701436E+02  0.51100000000E-03 0. -1.
        -11    1    3    3    0    0 -0.10323497734E+02 -0.18970857683E+01 -0.85461439077E+01  0.13535513135E+02  0.51100000000E-03 0.  1.
         12    1    3    3    0    0  0.16317843780E+02  0.15714382809E+02  0.18110235264E+02  0.29003352806E+02  0.00000000000E+00 0. -1.
</event>
<event>
 7    1  0.2876796E-013  0.7246148E+02  0.7816164E-02  0.1226708E+00
        -11   -1    0    0    0    0  0.00000000000E+00  0.00000000000E+00  0.45593999997E+02  0.45594000000E+02  0.51100000000E-03 0.  1.
         11   -1    0    0    0    0 -0.00000000000E+00 -0.00000000000E+00 -0.45593999997E+02  0.45594000000E+02  0.51100000000E-03 0. -1.
    9900012    2    1    2    0    0  0.82038541956E+01 -0.62888976477E+01  0.15615025942E+02  0.72461481572E+02  0.69999884422E+02 0.  0.
         12    1    1    2    0    0 -0.82038541956E+01  0.62888976477E+01 -0.15615025942E+02  0.18726518428E+02  0.00000000000E+00 0. -1.
         11    1    3    3    0    0 -0.27011400780E+02  0.20432715081E-01  0.17771141603E+02  0.32333104765E+02  0.51100000000E-03 0. -1.
        -11    1    3    3    0    0  0.11802410471E+02  0.63772433922E+01 -0.14068245238E+01  0.13488709416E+02  0.51100000000E-03 0.  1.
        -12    1    3    3    0    0  0.23412844505E+02 -0.12686573755E+02 -0.74929113757E+00  0.26639667390E+02  0.00000000000E+00 0.  1.
</event>
<event>
 7    1  0.2876796E-013  0.7246158E+02  0.7816164E-02  0.1226708E+00
        -11   -1    0    0    0    0  0.00000000000E+00  0.00000000000E+00  0.45593999997E+02  0.45594000000E+02  0.51100000000E-03 0.  1.
         11   -1    0    0    0    0 -0.00000000000E+00 -0.00000000000E+00 -0.45593999997E+02  0.45594000000E+02  0.51100000000E-03 0. -1.
    9900012    2    1    2    0    0 -0.10411076906E+02  0.13725701162E+02  0.73412190894E+01  0.72461577692E+02  0.70000009637E+02 0.  0.
         12    1    1    2    0    0  0.10411076906E+02 -0.13725701162E+02 -0.73412190894E+01  0.18726422308E+02  0.00000000000E+00 0. -1.
         11    1    3    3    0    0  0.82213719118E+01 -0.87299772356E+01 -0.92399524316E+01  0.15138698089E+02  0.51100000000E-03 0. -1.
        -11    1    3    3    0    0 -0.38088694765E+01  0.53846253318E+01  0.30211558424E+02  0.30923129520E+02  0.51100000000E-03 0.  1.
         12    1    3    3    0    0 -0.14823579342E+02  0.17071053066E+02 -0.13630386903E+02  0.26399750082E+02  0.00000000000E+00 0. -1.
</event>
<event>
 7    1  0.2876796E-013  0.7246169E+02  0.7816164E-02  0.1226708E+00
        -11   -1    0    0    0    0  0.00000000000E+00  0.00000000000E+00  0.45593999997E+02  0.45594000000E+02  0.51100000000E-03 0. -1.
         11   -1    0    0    0    0 -0.00000000000E+00 -0.00000000000E+00 -0.45593999997E+02  0.45594000000E+02  0.51100000000E-03 0.  1.
    9900012    2    1    2    0    0 -0.17584800233E+02 -0.58929070548E+01  0.25929323892E+01  0.72461685596E+02  0.70000150201E+02 0.  0.
         12    1    1    2    0    0  0.17584800233E+02  0.58929070548E+01 -0.25929323892E+01  0.18726314404E+02  0.00000000000E+00 0. -1.
         11    1    3    3    0    0 -0.42978742211E+01 -0.14905665080E+01  0.94733489819E+01  0.10508941551E+02  0.51100000000E-03 0.  1.
        -11    1    3    3    0    0 -0.12404643036E+02 -0.30810596127E+02  0.38452764107E+01  0.33435821412E+02  0.51100000000E-03 0. -1.
        -12    1    3    3    0    0 -0.88228297638E+00  0.26408255580E+02 -0.10725693003E+02  0.28516922633E+02  0.00000000000E+00 0.  1.
</event>
<event>
 7    1  0.2876796E-013  0.7246155E+02  0.7816164E-02  0.1226708E+00
        -11   -1    0    0    0    0  0.00000000000E+00  0.00000000000E+00  0.45593999997E+02  0.45594000000E+02  0.51100000000E-03 0.  1.
         11   -1    0    0    0    0 -0.00000000000E+00 -0.00000000000E+00 -0.45593999997E+02  0.45594000000E+02  0.51100000000E-03 0. -1.
    9900012    2    1    2    0    0 -0.89964058249E-01 -0.16285416580E+02  0.92442934480E+01  0.72461552177E+02  0.69999976399E+02 0.  0.
         12    1    1    2    0    0  0.89964058249E-01  0.16285416580E+02 -0.92442934480E+01  0.18726447823E+02  0.00000000000E+00 0. -1.
         11    1    3    3    0    0 -0.45064697758E+01  0.18338963343E+02  0.22613663100E+00  0.18885893794E+02  0.51100000000E-03 0. -1.
        -11    1    3    3    0    0  0.25007130300E+01 -0.68063540346E+00 -0.12878488847E+02  0.13136677870E+02  0.51100000000E-03 0.  1.
        -12    1    3    3    0    0  0.19157926875E+01 -0.33943744520E+02  0.21896645664E+02  0.40438980514E+02  0.00000000000E+00 0.  1.
</event>
<event>
 7    1  0.2876796E-013  0.7246154E+02  0.7816164E-02  0.1226708E+00
        -11   -1    0    0    0    0  0.00000000000E+00  0.00000000000E+00  0.45593999997E+02  0.45594000000E+02  0.51100000000E-03 0.  1.
         11   -1    0    0    0    0 -0.00000000000E+00 -0.00000000000E+00 -0.45593999997E+02  0.45594000000E+02  0.51100000000E-03 0. -1.
    9900012    2    1    2    0    0 -0.48513157284E+01 -0.16188147786E+02  0.80677677288E+01  0.72461540934E+02  0.69999961752E+02 0.  0.
         12    1    1    2    0    0  0.48513157284E+01  0.16188147786E+02 -0.80677677288E+01  0.18726459066E+02  0.00000000000E+00 0. -1.
         11    1    3    3    0    0  0.91769573953E+01 -0.22084803652E+02 -0.58715522349E+01  0.24625804053E+02  0.51100000000E-03 0. -1.
        -11    1    3    3    0    0  0.13424565890E+02  0.45243053573E+01  0.14596516879E+02  0.20340762364E+02  0.51100000000E-03 0.  1.
        -12    1    3    3    0    0 -0.27452839014E+02  0.13723505084E+01 -0.65719691497E+00  0.27494974516E+02  0.00000000000E+00 0.  1.
</event>
<event>
 7    1  0.2876796E-013  0.7246155E+02  0.7816164E-02  0.1226708E+00
        -11   -1    0    0    0    0  0.00000000000E+00  0.00000000000E+00  0.45593999997E+02  0.45594000000E+02  0.51100000000E-03 0.  1.
         11   -1    0    0    0    0 -0.00000000000E+00 -0.00000000000E+00 -0.45593999997E+02  0.45594000000E+02  0.51100000000E-03 0. -1.
    9900012    2    1    2    0    0 -0.17061352209E+02  0.57028863076E+01 -0.52026054296E+01  0.72461554670E+02  0.69999979647E+02 0.  0.
         12    1    1    2    0    0  0.17061352209E+02 -0.57028863076E+01  0.52026054296E+01  0.18726445330E+02  0.00000000000E+00 0. -1.
         11    1    3    3    0    0  0.87900511244E+01 -0.84506190001E+01  0.55822997038E+01  0.13410444829E+02  0.51100000000E-03 0. -1.
        -11    1    3    3    0    0  0.13168323361E+02  0.10691241820E+02  0.35648634299E+01  0.17332502512E+02  0.51100000000E-03 0.  1.
        -12    1    3    3    0    0 -0.39019726694E+02  0.34622634875E+01 -0.14349768563E+02  0.41718607330E+02  0.00000000000E+00 0.  1.
</event>
<event>
 7    1  0.2876796E-013  0.7246156E+02  0.7816164E-02  0.1226708E+00
        -11   -1    0    0    0    0  0.00000000000E+00  0.00000000000E+00  0.45593999997E+02  0.45594000000E+02  0.51100000000E-03 0. -1.
         11   -1    0    0    0    0 -0.00000000000E+00 -0.00000000000E+00 -0.45593999997E+02  0.45594000000E+02  0.51100000000E-03 0.  1.
    9900012    2    1    2    0    0 -0.17087601833E+02  0.53372626261E+01 -0.54961023403E+01  0.72461557474E+02  0.69999983299E+02 0.  0.
         12    1    1    2    0    0  0.17087601833E+02 -0.53372626261E+01  0.54961023403E+01  0.18726442526E+02  0.00000000000E+00 0. -1.
         11    1    3    3    0    0  0.11687316904E+02  0.23454571352E+01  0.69086096843E+01  0.13777642528E+02  0.51100000000E-03 0. -1.
        -11    1    3    3    0    0 -0.12604873871E+01 -0.20822451957E+02 -0.62609248717E+01  0.21779864886E+02  0.51100000000E-03 0.  1.
         12    1    3    3    0    0 -0.27514431350E+02  0.23814257448E+02 -0.61437871529E+01  0.36904050060E+02  0.00000000000E+00 0. -1.
</event>
<event>
 7    1  0.2876796E-013  0.7246157E+02  0.7816164E-02  0.1226708E+00
        -11   -1    0    0    0    0  0.00000000000E+00  0.00000000000E+00  0.45593999997E+02  0.45594000000E+02  0.51100000000E-03 0.  1.
         11   -1    0    0    0    0 -0.00000000000E+00 -0.00000000000E+00 -0.45593999997E+02  0.45594000000E+02  0.51100000000E-03 0. -1.
    9900012    2    1    2    0    0 -0.17239706374E+02  0.33248749206E+00  0.73048767675E+01  0.72461568189E+02  0.69999997258E+02 0.  0.
         12    1    1    2    0    0  0.17239706374E+02 -0.33248749206E+00 -0.73048767675E+01  0.18726431811E+02  0.00000000000E+00 0. -1.
         11    1    3    3    0    0  0.10177951350E+02  0.19124764635E+02 -0.40873822560E+01  0.22046632622E+02  0.51100000000E-03 0. -1.
        -11    1    3    3    0    0 -0.27684820317E+01  0.73139031649E+01  0.12211927777E+02  0.14501339681E+02  0.51100000000E-03 0.  1.
        -12    1    3    3    0    0 -0.24649175692E+02 -0.26106180308E+02 -0.81966875346E+00  0.35913595885E+02  0.00000000000E+00 0.  1.
</event>
<event>
 7    1  0.2876796E-013  0.7246160E+02  0.7816164E-02  0.1226708E+00
        -11   -1    0    0    0    0  0.00000000000E+00  0.00000000000E+00  0.45593999997E+02  0.45594000000E+02  0.51100000000E-03 0.  1.
         11   -1    0    0    0    0 -0.00000000000E+00 -0.00000000000E+00 -0.45593999997E+02  0.45594000000E+02  0.51100000000E-03 0. -1.
    9900012    2    1    2    0    0 -0.66701564991E+01 -0.12139447304E+00  0.17497777790E+02  0.72461602805E+02  0.70000042351E+02 0.  0.
         12    1    1    2    0    0  0.66701564991E+01  0.12139447304E+00 -0.17497777790E+02  0.18726397195E+02  0.00000000000E+00 0. -1.
         11    1    3    3    0    0 -0.18125557397E+01  0.52871260097E+01  0.13139401822E+02  0.14278758358E+02  0.51100000000E-03 0. -1.
        -11    1    3    3    0    0  0.15700040513E+02 -0.11088969328E+02  0.22917147112E+02  0.29910736281E+02  0.51100000000E-03 0.  1.
         12    1    3    3    0    0 -0.20557641273E+02  0.56804488454E+01 -0.18558771144E+02  0.28272108166E+02  0.00000000000E+00 0. -1.
</event>
<event>
 7    1  0.2876796E-013  0.7246144E+02  0.7816164E-02  0.1226708E+00
        -11   -1    0    0    0    0  0.00000000000E+00  0.00000000000E+00  0.45593999997E+02  0.45594000000E+02  0.51100000000E-03 0.  1.
         11   -1    0    0    0    0 -0.00000000000E+00 -0.00000000000E+00 -0.45593999997E+02  0.45594000000E+02  0.51100000000E-03 0. -1.
    9900012    2    1    2    0    0 -0.77741132317E+01  0.16578546713E+02  0.39241449974E+01  0.72461442344E+02  0.69999833321E+02 0.  0.
         12    1    1    2    0    0  0.77741132317E+01 -0.16578546713E+02 -0.39241449974E+01  0.18726557656E+02  0.00000000000E+00 0. -1.
         11    1    3    3    0    0 -0.91925023232E+01 -0.15731955711E+01  0.17965041295E+01  0.94976034143E+01  0.51100000000E-03 0. -1.
        -11    1    3    3    0    0  0.12719012501E+02 -0.10106942547E+02  0.21454492603E+02  0.26911313973E+02  0.51100000000E-03 0.  1.
         12    1    3    3    0    0 -0.11300623409E+02  0.28258684831E+02 -0.19326851735E+02  0.36052524958E+02  0.00000000000E+00 0. -1.
</event>
<event>
 7    1  0.2876796E-013  0.7246159E+02  0.7816164E-02  0.1226708E+00
        -11   -1    0    0    0    0  0.00000000000E+00  0.00000000000E+00  0.45593999997E+02  0.45594000000E+02  0.51100000000E-03 0. -1.
         11   -1    0    0    0    0 -0.00000000000E+00 -0.00000000000E+00 -0.45593999997E+02  0.45594000000E+02  0.51100000000E-03 0.  1.
    9900012    2    1    2    0    0  0.13196768741E+02 -0.23857222199E+01  0.13070275687E+02  0.72461588645E+02  0.70000023905E+02 0.  0.
         12    1    1    2    0    0 -0.13196768741E+02  0.23857222199E+01 -0.13070275687E+02  0.18726411355E+02  0.00000000000E+00 0. -1.
         11    1    3    3    0    0  0.77623236183E+01  0.66073533013E+00  0.60997381176E+01  0.98942935319E+01  0.51100000000E-03 0. -1.
        -11    1    3    3    0    0  0.20545173867E+02  0.20679669854E+02 -0.86304242871E+01  0.30401268693E+02  0.51100000000E-03 0.  1.
        -12    1    3    3    0    0 -0.15110728745E+02 -0.23726127404E+02  0.15600961856E+02  0.32166026420E+02  0.00000000000E+00 0.  1.
</event>
<event>
 7    1  0.2876796E-013  0.7246157E+02  0.7816164E-02  0.1226708E+00
        -11   -1    0    0    0    0  0.00000000000E+00  0.00000000000E+00  0.45593999997E+02  0.45594000000E+02  0.51100000000E-03 0. -1.
         11   -1    0    0    0    0 -0.00000000000E+00 -0.00000000000E+00 -0.45593999997E+02  0.45594000000E+02  0.51100000000E-03 0.  1.
    9900012    2    1    2    0    0 -0.78500482380E+01 -0.34638098049E+01 -0.16645056910E+02  0.72461570676E+02  0.70000000497E+02 0.  0.
         12    1    1    2    0    0  0.78500482380E+01  0.34638098049E+01  0.16645056910E+02  0.18726429324E+02  0.00000000000E+00 0. -1.
         11    1    3    3    0    0  0.21457645516E+02  0.88934848403E+01  0.52918981461E+01  0.23822863176E+02  0.51100000000E-03 0. -1.
        -11    1    3    3    0    0 -0.84207176502E+01 -0.16784939458E+02 -0.19626016853E+02  0.27162901467E+02  0.51100000000E-03 0.  1.
        -12    1    3    3    0    0 -0.20886976103E+02  0.44276448132E+01 -0.23109382033E+01  0.21475806032E+02  0.00000000000E+00 0.  1.
</event>
<event>
 7    1  0.2876796E-013  0.7246157E+02  0.7816164E-02  0.1226708E+00
        -11   -1    0    0    0    0  0.00000000000E+00  0.00000000000E+00  0.45593999997E+02  0.45594000000E+02  0.51100000000E-03 0. -1.
         11   -1    0    0    0    0 -0.00000000000E+00 -0.00000000000E+00 -0.45593999997E+02  0.45594000000E+02  0.51100000000E-03 0.  1.
    9900012    2    1    2    0    0 -0.29331289314E-01 -0.17808392979E+02 -0.57913323595E+01  0.72461568110E+02  0.69999997155E+02 0.  0.
         12    1    1    2    0    0  0.29331289314E-01  0.17808392979E+02  0.57913323595E+01  0.18726431890E+02  0.00000000000E+00 0. -1.
         11    1    3    3    0    0 -0.24992676168E+01 -0.49174775291E+01 -0.51549330301E-01  0.55163920695E+01  0.51100000000E-03 0. -1.
        -11    1    3    3    0    0 -0.59374380684E+01 -0.38298376802E+02 -0.95441627256E+01  0.39913780563E+02  0.51100000000E-03 0.  1.
        -12    1    3    3    0    0  0.84073743958E+01  0.25407461352E+02  0.38043796963E+01  0.27031395477E+02  0.00000000000E+00 0.  1.
</event>
<event>
 7    1  0.2876796E-013  0.7246154E+02  0.7816164E-02  0.1226708E+00
        -11   -1    0    0    0    0  0.00000000000E+00  0.00000000000E+00  0.45593999997E+02  0.45594000000E+02  0.51100000000E-03 0.  1.
         11   -1    0    0    0    0 -0.00000000000E+00 -0.00000000000E+00 -0.45593999997E+02  0.45594000000E+02  0.51100000000E-03 0. -1.
    9900012    2    1    2    0    0  0.13997201280E+01 -0.48756535537E+01  0.18026342917E+02  0.72461541366E+02  0.69999962315E+02 0.  0.
         12    1    1    2    0    0 -0.13997201280E+01  0.48756535537E+01 -0.18026342917E+02  0.18726458634E+02  0.00000000000E+00 0. -1.
         11    1    3    3    0    0 -0.24981319052E+02  0.10082570461E+02  0.14650696719E+02  0.30665411188E+02  0.51100000000E-03 0. -1.
        -11    1    3    3    0    0 -0.62284375498E+01 -0.31263290557E+01  0.46146635606E+00  0.69842908828E+01  0.51100000000E-03 0.  1.
        -12    1    3    3    0    0  0.32609476730E+02 -0.11831894959E+02  0.29141798421E+01  0.34811839295E+02  0.00000000000E+00 0.  1.
</event>
<event>
 7    1  0.2876796E-013  0.7246159E+02  0.7816164E-02  0.1226708E+00
        -11   -1    0    0    0    0  0.00000000000E+00  0.00000000000E+00  0.45593999997E+02  0.45594000000E+02  0.51100000000E-03 0.  1.
         11   -1    0    0    0    0 -0.00000000000E+00 -0.00000000000E+00 -0.45593999997E+02  0.45594000000E+02  0.51100000000E-03 0. -1.
    9900012    2    1    2    0    0  0.11745745788E+02  0.37679088746E+01  0.14089674399E+02  0.72461585339E+02  0.70000019598E+02 0.  0.
         12    1    1    2    0    0 -0.11745745788E+02 -0.37679088746E+01 -0.14089674399E+02  0.18726414661E+02  0.00000000000E+00 0. -1.
         11    1    3    3    0    0 -0.18499649104E+01 -0.89829188836E+01 -0.12168878113E+02  0.15238005008E+02  0.51100000000E-03 0. -1.
        -11    1    3    3    0    0  0.30145089989E+02  0.10514818804E+01  0.12095944658E+02  0.32498368297E+02  0.51100000000E-03 0.  1.
         12    1    3    3    0    0 -0.16549379291E+02  0.11699345878E+02  0.14162607854E+02  0.24725212033E+02  0.00000000000E+00 0. -1.
</event>
<event>
 7    1  0.2876796E-013  0.7246153E+02  0.7816164E-02  0.1226708E+00
        -11   -1    0    0    0    0  0.00000000000E+00  0.00000000000E+00  0.45593999997E+02  0.45594000000E+02  0.51100000000E-03 0. -1.
         11   -1    0    0    0    0 -0.00000000000E+00 -0.00000000000E+00 -0.45593999997E+02  0.45594000000E+02  0.51100000000E-03 0.  1.
    9900012    2    1    2    0    0 -0.35274649242E+01  0.73559219788E+01 -0.16856094268E+02  0.72461534479E+02  0.69999953344E+02 0.  0.
         12    1    1    2    0    0  0.35274649242E+01 -0.73559219788E+01  0.16856094268E+02  0.18726465521E+02  0.00000000000E+00 0. -1.
         11    1    3    3    0    0  0.25465531132E+01 -0.13422949665E+02 -0.10319645400E+02  0.17121787053E+02  0.51100000000E-03 0. -1.
        -11    1    3    3    0    0  0.14952242929E+02 -0.83745906473E+00 -0.17698745025E+02  0.23184401696E+02  0.51100000000E-03 0.  1.
         12    1    3    3    0    0 -0.21026260966E+02  0.21616330709E+02  0.11162296157E+02  0.32155345730E+02  0.00000000000E+00 0. -1.
</event>
<event>
 7    1  0.2876796E-013  0.7246136E+02  0.7816164E-02  0.1226709E+00
        -11   -1    0    0    0    0  0.00000000000E+00  0.00000000000E+00  0.45593999997E+02  0.45594000000E+02  0.51100000000E-03 0. -1.
         11   -1    0    0    0    0 -0.00000000000E+00 -0.00000000000E+00 -0.45593999997E+02  0.45594000000E+02  0.51100000000E-03 0.  1.
    9900012    2    1    2    0    0  0.12185514444E+02 -0.13946486652E+02 -0.27741223410E+01  0.72461361034E+02  0.69999727400E+02 0.  0.
         12    1    1    2    0    0 -0.12185514444E+02  0.13946486652E+02  0.27741223410E+01  0.18726638966E+02  0.00000000000E+00 0. -1.
         11    1    3    3    0    0  0.54921552297E+01 -0.14499390116E+02  0.12306268785E+02  0.19794957299E+02  0.51100000000E-03 0. -1.
        -11    1    3    3    0    0 -0.13919284382E+02 -0.16121351746E+02 -0.15178062873E+02  0.26153738789E+02  0.51100000000E-03 0.  1.
        -12    1    3    3    0    0  0.20612643596E+02  0.16674255210E+02  0.97671746893E-01  0.26512664947E+02  0.00000000000E+00 0.  1.
</event>
<event>
 7    1  0.2876796E-013  0.7246164E+02  0.7816164E-02  0.1226708E+00
        -11   -1    0    0    0    0  0.00000000000E+00  0.00000000000E+00  0.45593999997E+02  0.45594000000E+02  0.51100000000E-03 0.  1.
         11   -1    0    0    0    0 -0.00000000000E+00 -0.00000000000E+00 -0.45593999997E+02  0.45594000000E+02  0.51100000000E-03 0. -1.
    9900012    2    1    2    0    0  0.14947752296E+02  0.91618473944E+01  0.65804003518E+01  0.72461643836E+02  0.70000095801E+02 0.  0.
         12    1    1    2    0    0 -0.14947752296E+02 -0.91618473944E+01 -0.65804003518E+01  0.18726356164E+02  0.00000000000E+00 0. -1.
         11    1    3    3    0    0  0.28697986184E+01  0.20554182226E+02  0.54929003013E+01  0.21468164921E+02  0.51100000000E-03 0. -1.
        -11    1    3    3    0    0  0.16669949697E+01 -0.24405519129E+01 -0.23042120482E+02  0.23230894999E+02  0.51100000000E-03 0.  1.
        -12    1    3    3    0    0  0.10410958708E+02 -0.89517829190E+01  0.24129620532E+02  0.27762583916E+02  0.00000000000E+00 0.  1.
</event>
<event>
 7    1  0.2876796E-013  0.7246152E+02  0.7816164E-02  0.1226708E+00
        -11   -1    0    0    0    0  0.00000000000E+00  0.00000000000E+00  0.45593999997E+02  0.45594000000E+02  0.51100000000E-03 0.  1.
         11   -1    0    0    0    0 -0.00000000000E+00 -0.00000000000E+00 -0.45593999997E+02  0.45594000000E+02  0.51100000000E-03 0. -1.
    9900012    2    1    2    0    0  0.15700256720E+02 -0.10098237526E+02  0.14861501116E+01  0.72461518633E+02  0.69999932702E+02 0.  0.
         12    1    1    2    0    0 -0.15700256720E+02  0.10098237526E+02 -0.14861501116E+01  0.18726481367E+02  0.00000000000E+00 0. -1.
         11    1    3    3    0    0  0.13476809870E+02 -0.50946696545E+01 -0.21213918948E+02  0.25643915858E+02  0.51100000000E-03 0. -1.
        -11    1    3    3    0    0  0.51135285752E+01 -0.18242733686E+02 -0.15804236425E+01  0.19011660790E+02  0.51100000000E-03 0.  1.
         12    1    3    3    0    0 -0.28900817251E+01  0.13239165815E+02  0.24280492702E+02  0.27805941985E+02  0.00000000000E+00 0. -1.
</event>
<event>
 7    1  0.2876796E-013  0.7246159E+02  0.7816164E-02  0.1226708E+00
        -11   -1    0    0    0    0  0.00000000000E+00  0.00000000000E+00  0.45593999997E+02  0.45594000000E+02  0.51100000000E-03 0.  1.
         11   -1    0    0    0    0 -0.00000000000E+00 -0.00000000000E+00 -0.45593999997E+02  0.45594000000E+02  0.51100000000E-03 0. -1.
    9900012    2    1    2    0    0  0.13996276376E+02 -0.10128395485E+02  0.72248464942E+01  0.72461586719E+02  0.70000021396E+02 0.  0.
         12    1    1    2    0    0 -0.13996276376E+02  0.10128395485E+02 -0.72248464942E+01  0.18726413281E+02  0.00000000000E+00 0. -1.
         11    1    3    3    0    0  0.66893135164E+01  0.18661984869E+02  0.13970736309E+02  0.24252795053E+02  0.51100000000E-03 0. -1.
        -11    1    3    3    0    0  0.11520555212E+02  0.32728210124E+01  0.60653632791E+01  0.13424722781E+02  0.51100000000E-03 0.  1.
        -12    1    3    3    0    0 -0.42135923523E+01 -0.32063201367E+02 -0.12811253094E+02  0.34784068886E+02  0.00000000000E+00 0.  1.
</event>
<event>
 7    1  0.2876796E-013  0.7246155E+02  0.7816164E-02  0.1226708E+00
        -11   -1    0    0    0    0  0.00000000000E+00  0.00000000000E+00  0.45593999997E+02  0.45594000000E+02  0.51100000000E-03 0. -1.
         11   -1    0    0    0    0 -0.00000000000E+00 -0.00000000000E+00 -0.45593999997E+02  0.45594000000E+02  0.51100000000E-03 0.  1.
    9900012    2    1    2    0    0  0.12475231862E+02 -0.13952473439E+02 -0.61395858666E+00  0.72461551586E+02  0.69999975629E+02 0.  0.
         12    1    1    2    0    0 -0.12475231862E+02  0.13952473439E+02  0.61395858666E+00  0.18726448414E+02  0.00000000000E+00 0. -1.
         11    1    3    3    0    0  0.99025664425E+01 -0.18391114921E+02 -0.63452383470E+00  0.20897285731E+02  0.51100000000E-03 0. -1.
        -11    1    3    3    0    0  0.19321771480E+02  0.96751156068E+00  0.18229314053E+02  0.26581475182E+02  0.51100000000E-03 0.  1.
         12    1    3    3    0    0 -0.16749106061E+02  0.34711299217E+01 -0.18208748804E+02  0.24982790673E+02  0.00000000000E+00 0. -1.
</event>
<event>
 7    1  0.2876796E-013  0.7246157E+02  0.7816164E-02  0.1226708E+00
        -11   -1    0    0    0    0  0.00000000000E+00  0.00000000000E+00  0.45593999997E+02  0.45594000000E+02  0.51100000000E-03 0. -1.
         11   -1    0    0    0    0 -0.00000000000E+00 -0.00000000000E+00 -0.45593999997E+02  0.45594000000E+02  0.51100000000E-03 0.  1.
    9900012    2    1    2    0    0  0.10651706933E+02  0.14899422310E+02 -0.39022604956E+01  0.72461567271E+02  0.69999996062E+02 0.  0.
         12    1    1    2    0    0 -0.10651706933E+02 -0.14899422310E+02  0.39022604956E+01  0.18726432729E+02  0.00000000000E+00 0. -1.
         11    1    3    3    0    0 -0.93995001960E+01  0.88760527194E+01  0.26299598738E+02  0.29305354627E+02  0.51100000000E-03 0. -1.
        -11    1    3    3    0    0  0.21086375645E+01  0.71384852367E+01  0.62588224831E+00  0.74696755420E+01  0.51100000000E-03 0.  1.
        -12    1    3    3    0    0  0.17942569565E+02 -0.11151156458E+01 -0.30827741481E+02  0.35686537102E+02  0.00000000000E+00 0.  1.
</event>
<event>
 7    1  0.2876796E-013  0.7246156E+02  0.7816164E-02  0.1226708E+00
        -11   -1    0    0    0    0  0.00000000000E+00  0.00000000000E+00  0.45593999997E+02  0.45594000000E+02  0.51100000000E-03 0. -1.
         11   -1    0    0    0    0 -0.00000000000E+00 -0.00000000000E+00 -0.45593999997E+02  0.45594000000E+02  0.51100000000E-03 0.  1.
    9900012    2    1    2    0    0 -0.45565535437E+01 -0.17264648441E+02 -0.56435193192E+01  0.72461559433E+02  0.69999985852E+02 0.  0.
         12    1    1    2    0    0  0.45565535437E+01  0.17264648441E+02  0.56435193192E+01  0.18726440567E+02  0.00000000000E+00 0. -1.
         11    1    3    3    0    0  0.12576337866E+02 -0.13731655957E+02  0.45798228789E+01  0.19175438126E+02  0.51100000000E-03 0. -1.
        -11    1    3    3    0    0  0.17202137610E+02 -0.50179083947E+01 -0.39994254757E+01  0.18359965888E+02  0.51100000000E-03 0.  1.
        -12    1    3    3    0    0 -0.34335029020E+02  0.14849159109E+01 -0.62239167225E+01  0.34926155420E+02  0.00000000000E+00 0.  1.
</event>
<event>
 7    1  0.2876796E-013  0.7246163E+02  0.7816164E-02  0.1226708E+00
        -11   -1    0    0    0    0  0.00000000000E+00  0.00000000000E+00  0.45593999997E+02  0.45594000000E+02  0.51100000000E-03 0.  1.
         11   -1    0    0    0    0 -0.00000000000E+00 -0.00000000000E+00 -0.45593999997E+02  0.45594000000E+02  0.51100000000E-03 0. -1.
    9900012    2    1    2    0    0  0.10036108027E+01  0.47338096751E+01  0.18090352553E+02  0.72461627041E+02  0.70000073923E+02 0.  0.
         12    1    1    2    0    0 -0.10036108027E+01 -0.47338096751E+01 -0.18090352553E+02  0.18726372959E+02  0.00000000000E+00 0. -1.
         11    1    3    3    0    0  0.30169233109E+01  0.77027573343E+01 -0.12971853189E+02  0.15385164030E+02  0.51100000000E-03 0. -1.
        -11    1    3    3    0    0 -0.58676006486E+01  0.20633760782E+02  0.23892129492E+02  0.32109417206E+02  0.51100000000E-03 0.  1.
        -12    1    3    3    0    0  0.38542881404E+01 -0.23602708441E+02  0.71700762496E+01  0.24967045805E+02  0.00000000000E+00 0.  1.
</event>
<event>
 7    1  0.2876796E-013  0.7246156E+02  0.7816164E-02  0.1226708E+00
        -11   -1    0    0    0    0  0.00000000000E+00  0.00000000000E+00  0.45593999997E+02  0.45594000000E+02  0.51100000000E-03 0. -1.
         11   -1    0    0    0    0 -0.00000000000E+00 -0.00000000000E+00 -0.45593999997E+02  0.45594000000E+02  0.51100000000E-03 0.  1.
    9900012    2    1    2    0    0 -0.10990550119E+02 -0.49722700791E+01 -0.14323547899E+02  0.72461556502E+02  0.69999982033E+02 0.  0.
         12    1    1    2    0    0  0.10990550119E+02  0.49722700791E+01  0.14323547899E+02  0.18726443498E+02  0.00000000000E+00 0. -1.
         11    1    3    3    0    0 -0.13576512782E+02  0.34654810507E+01  0.67229259863E+01  0.15541203053E+02  0.51100000000E-03 0. -1.
        -11    1    3    3    0    0  0.16749730782E+00  0.21855014894E+02 -0.44840780952E+01  0.22310909618E+02  0.51100000000E-03 0.  1.
         12    1    3    3    0    0  0.24184653552E+01 -0.30292766023E+02 -0.16562395790E+02  0.34609443832E+02  0.00000000000E+00 0. -1.
</event>
<event>
 7    1  0.2876796E-013  0.7246151E+02  0.7816164E-02  0.1226708E+00
        -11   -1    0    0    0    0  0.00000000000E+00  0.00000000000E+00  0.45593999997E+02  0.45594000000E+02  0.51100000000E-03 0. -1.
         11   -1    0    0    0    0 -0.00000000000E+00 -0.00000000000E+00 -0.45593999997E+02  0.45594000000E+02  0.51100000000E-03 0.  1.
    9900012    2    1    2    0    0  0.86825325503E+01  0.14664424934E+02  0.77620667676E+01  0.72461510456E+02  0.69999922049E+02 0.  0.
         12    1    1    2    0    0 -0.86825325503E+01 -0.14664424934E+02 -0.77620667676E+01  0.18726489544E+02  0.00000000000E+00 0. -1.
         11    1    3    3    0    0 -0.10909099468E+02  0.24035991669E+02  0.21784622096E+01  0.26485525190E+02  0.51100000000E-03 0. -1.
        -11    1    3    3    0    0  0.21783728151E+02  0.11410325374E+02  0.11775889939E+01  0.24619363384E+02  0.51100000000E-03 0.  1.
         12    1    3    3    0    0 -0.21920961331E+01 -0.20781892109E+02  0.44060155642E+01  0.21356621883E+02  0.00000000000E+00 0. -1.
</event>
<event>
 7    1  0.2876796E-013  0.7246161E+02  0.7816164E-02  0.1226708E+00
        -11   -1    0    0    0    0  0.00000000000E+00  0.00000000000E+00  0.45593999997E+02  0.45594000000E+02  0.51100000000E-03 0. -1.
         11   -1    0    0    0    0 -0.00000000000E+00 -0.00000000000E+00 -0.45593999997E+02  0.45594000000E+02  0.51100000000E-03 0.  1.
    9900012    2    1    2    0    0 -0.93655724669E+01  0.15328083344E+02 -0.52927985596E+01  0.72461606774E+02  0.70000047522E+02 0.  0.
         12    1    1    2    0    0  0.93655724669E+01 -0.15328083344E+02  0.52927985596E+01  0.18726393226E+02  0.00000000000E+00 0. -1.
         11    1    3    3    0    0  0.16451398235E+02  0.31091407042E-01  0.10757165853E+02  0.19656197191E+02  0.51100000000E-03 0. -1.
        -11    1    3    3    0    0  0.26498104441E+01  0.20646762577E+02 -0.10496187036E+02  0.23312662715E+02  0.51100000000E-03 0.  1.
        -12    1    3    3    0    0 -0.28466781146E+02 -0.53497706398E+01 -0.55537773771E+01  0.29492746868E+02  0.00000000000E+00 0.  1.
</event>
<event>
 7    1  0.2876796E-013  0.7246146E+02  0.7816164E-02  0.1226708E+00
        -11   -1    0    0    0    0  0.00000000000E+00  0.00000000000E+00  0.45593999997E+02  0.45594000000E+02  0.51100000000E-03 0.  1.
         11   -1    0    0    0    0 -0.00000000000E+00 -0.00000000000E+00 -0.45593999997E+02  0.45594000000E+02  0.51100000000E-03 0. -1.
    9900012    2    1    2    0    0  0.11157746191E+02  0.15012119586E+02  0.90797601672E+00  0.72461455872E+02  0.69999850943E+02 0.  0.
         12    1    1    2    0    0 -0.11157746191E+02 -0.15012119586E+02 -0.90797601672E+00  0.18726544128E+02  0.00000000000E+00 0. -1.
         11    1    3    3    0    0 -0.15526021546E+02 -0.14337501959E+02 -0.12885804604E+02  0.24752076034E+02  0.51100000000E-03 0. -1.
        -11    1    3    3    0    0  0.72214556896E+01  0.19249746550E+00  0.10158826314E+02  0.12465481535E+02  0.51100000000E-03 0.  1.
        -12    1    3    3    0    0  0.19462312047E+02  0.29157124079E+02  0.36349543067E+01  0.35243898303E+02  0.00000000000E+00 0.  1.
</event>
<event>
 7    1  0.2876796E-013  0.7246159E+02  0.7816164E-02  0.1226708E+00
        -11   -1    0    0    0    0  0.00000000000E+00  0.00000000000E+00  0.45593999997E+02  0.45594000000E+02  0.51100000000E-03 0.  1.
         11   -1    0    0    0    0 -0.00000000000E+00 -0.00000000000E+00 -0.45593999997E+02  0.45594000000E+02  0.51100000000E-03 0. -1.
    9900012    2    1    2    0    0 -0.16302776084E+02 -0.78768411546E+01  0.47805141965E+01  0.72461589489E+02  0.70000025005E+02 0.  0.
         12    1    1    2    0    0  0.16302776084E+02  0.78768411546E+01 -0.47805141965E+01  0.18726410511E+02  0.00000000000E+00 0. -1.
         11    1    3    3    0    0 -0.18298143808E+02 -0.10572580868E+02  0.26165232587E+01  0.21294312087E+02  0.51100000000E-03 0. -1.
        -11    1    3    3    0    0 -0.50686934813E+01 -0.41192794551E+01  0.25250086032E+02  0.26081161050E+02  0.51100000000E-03 0.  1.
         12    1    3    3    0    0  0.70640612050E+01  0.68150191686E+01 -0.23086095094E+02  0.25086116353E+02  0.00000000000E+00 0. -1.
</event>
<event>
 7    1  0.2876796E-013  0.7246157E+02  0.7816164E-02  0.1226708E+00
        -11   -1    0    0    0    0  0.00000000000E+00  0.00000000000E+00  0.45593999997E+02  0.45594000000E+02  0.51100000000E-03 0.  1.
         11   -1    0    0    0    0 -0.00000000000E+00 -0.00000000000E+00 -0.45593999997E+02  0.45594000000E+02  0.51100000000E-03 0. -1.
    9900012    2    1    2    0    0 -0.41051252771E+01  0.11234950952E+01  0.18236365459E+02  0.72461566278E+02  0.69999994768E+02 0.  0.
         12    1    1    2    0    0  0.41051252771E+01 -0.11234950952E+01 -0.18236365459E+02  0.18726433722E+02  0.00000000000E+00 0. -1.
         11    1    3    3    0    0 -0.32192294229E+02  0.22198143055E+01 -0.70113565308E+01  0.33021667189E+02  0.51100000000E-03 0. -1.
        -11    1    3    3    0    0  0.59470626840E+01 -0.34737084183E+01  0.18317385206E+01  0.71266732078E+01  0.51100000000E-03 0.  1.
        -12    1    3    3    0    0  0.22140106268E+02  0.23773892080E+01  0.23415983470E+02  0.32313225881E+02  0.00000000000E+00 0.  1.
</event>
<event>
 7    1  0.2876796E-013  0.7246158E+02  0.7816164E-02  0.1226708E+00
        -11   -1    0    0    0    0  0.00000000000E+00  0.00000000000E+00  0.45593999997E+02  0.45594000000E+02  0.51100000000E-03 0.  1.
         11   -1    0    0    0    0 -0.00000000000E+00 -0.00000000000E+00 -0.45593999997E+02  0.45594000000E+02  0.51100000000E-03 0. -1.
    9900012    2    1    2    0    0 -0.58724909047E+01 -0.16438091744E+02  0.67809994075E+01  0.72461575820E+02  0.70000007198E+02 0.  0.
         12    1    1    2    0    0  0.58724909047E+01  0.16438091744E+02 -0.67809994075E+01  0.18726424180E+02  0.00000000000E+00 0. -1.
         11    1    3    3    0    0 -0.10979599748E+02  0.22866107928E+02  0.59340439016E+01  0.26050400759E+02  0.51100000000E-03 0. -1.
        -11    1    3    3    0    0  0.42168617176E+01 -0.19356935585E+01 -0.68250182329E+01  0.82528605004E+01  0.51100000000E-03 0.  1.
        -12    1    3    3    0    0  0.89024712569E+00 -0.37368506113E+02  0.76719737388E+01  0.38158314561E+02  0.00000000000E+00 0.  1.
</event>
<event>
 7    1  0.2876796E-013  0.7246169E+02  0.7816164E-02  0.1226708E+00
        -11   -1    0    0    0    0  0.00000000000E+00  0.00000000000E+00  0.45593999997E+02  0.45594000000E+02  0.51100000000E-03 0.  1.
         11   -1    0    0    0    0 -0.00000000000E+00 -0.00000000000E+00 -0.45593999997E+02  0.45594000000E+02  0.51100000000E-03 0. -1.
    9900012    2    1    2    0    0 -0.64203724439E+01 -0.12730203449E+02  0.12140655073E+02  0.72461687823E+02  0.70000153102E+02 0.  0.
         12    1    1    2    0    0  0.64203724439E+01  0.12730203449E+02 -0.12140655073E+02  0.18726312177E+02  0.00000000000E+00 0. -1.
         11    1    3    3    0    0  0.10717011858E+02 -0.14912947974E+02 -0.90965048134E+01  0.20493822497E+02  0.51100000000E-03 0. -1.
        -11    1    3    3    0    0  0.85027192094E+00  0.19438404766E+02  0.37058736887E+00  0.19460520996E+02  0.51100000000E-03 0.  1.
        -12    1    3    3    0    0 -0.17987656223E+02 -0.17255660240E+02  0.20866572518E+02  0.32507344330E+02  0.00000000000E+00 0.  1.
</event>
<event>
 7    1  0.2876796E-013  0.7246151E+02  0.7816164E-02  0.1226708E+00
        -11   -1    0    0    0    0  0.00000000000E+00  0.00000000000E+00  0.45593999997E+02  0.45594000000E+02  0.51100000000E-03 0.  1.
         11   -1    0    0    0    0 -0.00000000000E+00 -0.00000000000E+00 -0.45593999997E+02  0.45594000000E+02  0.51100000000E-03 0. -1.
    9900012    2    1    2    0    0  0.71757352726E+01  0.12194627975E+02  0.12267074856E+02  0.72461514647E+02  0.69999927510E+02 0.  0.
         12    1    1    2    0    0 -0.71757352726E+01 -0.12194627975E+02 -0.12267074856E+02  0.18726485353E+02  0.00000000000E+00 0. -1.
         11    1    3    3    0    0  0.10001585109E+02 -0.24243885055E+01  0.12377937757E+02  0.16097288831E+02  0.51100000000E-03 0. -1.
        -11    1    3    3    0    0 -0.31431101017E+01 -0.11722836745E+02  0.19881472058E+02  0.23293281733E+02  0.51100000000E-03 0.  1.
         12    1    3    3    0    0  0.31726026510E+00  0.26341853225E+02 -0.19992334959E+02  0.33070944083E+02  0.00000000000E+00 0. -1.
</event>
<event>
 7    1  0.2876796E-013  0.7246163E+02  0.7816164E-02  0.1226708E+00
        -11   -1    0    0    0    0  0.00000000000E+00  0.00000000000E+00  0.45593999997E+02  0.45594000000E+02  0.51100000000E-03 0.  1.
         11   -1    0    0    0    0 -0.00000000000E+00 -0.00000000000E+00 -0.45593999997E+02  0.45594000000E+02  0.51100000000E-03 0. -1.
    9900012    2    1    2    0    0  0.14628562251E+02  0.11289143805E+02 -0.30392709974E+01  0.72461634374E+02  0.70000083475E+02 0.  0.
         12    1    1    2    0    0 -0.14628562251E+02 -0.11289143805E+02  0.30392709974E+01  0.18726365626E+02  0.00000000000E+00 0. -1.
         11    1    3    3    0    0  0.11510284308E+02  0.44393803550E+01  0.90533540874E+01  0.15302220861E+02  0.51100000000E-03 0. -1.
        -11    1    3    3    0    0  0.82408468923E+01  0.23269838963E+02  0.12086789004E+02  0.27486131622E+02  0.51100000000E-03 0.  1.
         12    1    3    3    0    0 -0.51225689493E+01 -0.16420075513E+02 -0.24179414089E+02  0.29673281891E+02  0.00000000000E+00 0. -1.
</event>
<event>
 7    1  0.2876796E-013  0.7246161E+02  0.7816164E-02  0.1226708E+00
        -11   -1    0    0    0    0  0.00000000000E+00  0.00000000000E+00  0.45593999997E+02  0.45594000000E+02  0.51100000000E-03 0.  1.
         11   -1    0    0    0    0 -0.00000000000E+00 -0.00000000000E+00 -0.45593999997E+02  0.45594000000E+02  0.51100000000E-03 0. -1.
    9900012    2    1    2    0    0 -0.14913635839E+02 -0.95017518785E-01  0.11324840917E+02  0.72461612627E+02  0.70000055146E+02 0.  0.
         12    1    1    2    0    0  0.14913635839E+02  0.95017518785E-01 -0.11324840917E+02  0.18726387373E+02  0.00000000000E+00 0. -1.
         11    1    3    3    0    0  0.11501988985E+02  0.86450006725E+01 -0.12474034676E+02  0.19042933823E+02  0.51100000000E-03 0. -1.
        -11    1    3    3    0    0 -0.32267601194E+01 -0.14464273411E+02  0.25478133217E+02  0.29474776651E+02  0.51100000000E-03 0.  1.
        -12    1    3    3    0    0 -0.23188864705E+02  0.57242552193E+01 -0.16792576240E+01  0.23943902152E+02  0.00000000000E+00 0.  1.
</event>
<event>
 7    1  0.2876796E-013  0.7246157E+02  0.7816164E-02  0.1226708E+00
        -11   -1    0    0    0    0  0.00000000000E+00  0.00000000000E+00  0.45593999997E+02  0.45594000000E+02  0.51100000000E-03 0.  1.
         11   -1    0    0    0    0 -0.00000000000E+00 -0.00000000000E+00 -0.45593999997E+02  0.45594000000E+02  0.51100000000E-03 0. -1.
    9900012    2    1    2    0    0 -0.12557742818E+02 -0.12109168774E+01  0.13838926928E+02  0.72461571539E+02  0.70000001622E+02 0.  0.
         12    1    1    2    0    0  0.12557742818E+02  0.12109168774E+01 -0.13838926928E+02  0.18726428461E+02  0.00000000000E+00 0. -1.
         11    1    3    3    0    0 -0.41496348472E+01  0.88026967163E+01  0.17521349227E+02  0.20042570140E+02  0.51100000000E-03 0.  1.
        -11    1    3    3    0    0 -0.14655343068E+02  0.17517781934E+02 -0.72509814984E+01  0.23963065273E+02  0.51100000000E-03 0. -1.
         12    1    3    3    0    0  0.62472350967E+01 -0.27531395528E+02  0.35685592003E+01  0.28455936126E+02  0.00000000000E+00 0. -1.
</event>
<event>
 7    1  0.2876796E-013  0.7246165E+02  0.7816164E-02  0.1226708E+00
        -11   -1    0    0    0    0  0.00000000000E+00  0.00000000000E+00  0.45593999997E+02  0.45594000000E+02  0.51100000000E-03 0.  1.
         11   -1    0    0    0    0 -0.00000000000E+00 -0.00000000000E+00 -0.45593999997E+02  0.45594000000E+02  0.51100000000E-03 0. -1.
    9900012    2    1    2    0    0  0.12601763883E+02 -0.13244595120E+02 -0.40561373041E+01  0.72461654850E+02  0.70000110149E+02 0.  0.
         12    1    1    2    0    0 -0.12601763883E+02  0.13244595120E+02  0.40561373041E+01  0.18726345150E+02  0.00000000000E+00 0. -1.
         11    1    3    3    0    0 -0.36352120651E+01 -0.19390374916E+02 -0.26579275988E+02  0.33100744983E+02  0.51100000000E-03 0. -1.
        -11    1    3    3    0    0  0.91338943123E+01 -0.65909782691E+01 -0.13926850082E+01  0.11349387281E+02  0.51100000000E-03 0.  1.
        -12    1    3    3    0    0  0.71030816359E+01  0.12736758066E+02  0.23915823692E+02  0.28011522586E+02  0.00000000000E+00 0.  1.
</event>
<event>
 7    1  0.2876796E-013  0.7246154E+02  0.7816164E-02  0.1226708E+00
        -11   -1    0    0    0    0  0.00000000000E+00  0.00000000000E+00  0.45593999997E+02  0.45594000000E+02  0.51100000000E-03 0.  1.
         11   -1    0    0    0    0 -0.00000000000E+00 -0.00000000000E+00 -0.45593999997E+02  0.45594000000E+02  0.51100000000E-03 0. -1.
    9900012    2    1    2    0    0 -0.13042110687E+02  0.20425372658E+01  0.13282000408E+02  0.72461544262E+02  0.69999966088E+02 0.  0.
         12    1    1    2    0    0  0.13042110687E+02 -0.20425372658E+01 -0.13282000408E+02  0.18726455738E+02  0.00000000000E+00 0. -1.
         11    1    3    3    0    0  0.50980008146E+01  0.12307427115E+02  0.62314601132E+01  0.14706919117E+02  0.51100000000E-03 0. -1.
        -11    1    3    3    0    0  0.99266291566E+01 -0.86198580893E+01  0.22212831179E+02  0.25811814914E+02  0.51100000000E-03 0.  1.
         12    1    3    3    0    0 -0.28066740658E+02 -0.16450317604E+01 -0.15162290884E+02  0.31942810232E+02  0.00000000000E+00 0. -1.
</event>
<event>
 7    1  0.2876796E-013  0.7246157E+02  0.7816164E-02  0.1226708E+00
        -11   -1    0    0    0    0  0.00000000000E+00  0.00000000000E+00  0.45593999997E+02  0.45594000000E+02  0.51100000000E-03 0. -1.
         11   -1    0    0    0    0 -0.00000000000E+00 -0.00000000000E+00 -0.45593999997E+02  0.45594000000E+02  0.51100000000E-03 0.  1.
    9900012    2    1    2    0    0  0.30636972626E+01  0.18151316244E+02  0.34383998588E+01  0.72461571726E+02  0.70000001865E+02 0.  0.
         12    1    1    2    0    0 -0.30636972626E+01 -0.18151316244E+02 -0.34383998588E+01  0.18726428274E+02  0.00000000000E+00 0. -1.
         11    1    3    3    0    0  0.20871406766E+02  0.19343741030E+02 -0.71472825260E+01  0.29340749567E+02  0.51100000000E-03 0.  1.
        -11    1    3    3    0    0 -0.64088684624E+01  0.42022969770E+01  0.23711076180E+02  0.24918828799E+02  0.51100000000E-03 0. -1.
         12    1    3    3    0    0 -0.11398841041E+02 -0.53947217622E+01 -0.13125393795E+02  0.18201993359E+02  0.00000000000E+00 0. -1.
</event>
<event>
 7    1  0.2876796E-013  0.7246158E+02  0.7816164E-02  0.1226708E+00
        -11   -1    0    0    0    0  0.00000000000E+00  0.00000000000E+00  0.45593999997E+02  0.45594000000E+02  0.51100000000E-03 0. -1.
         11   -1    0    0    0    0 -0.00000000000E+00 -0.00000000000E+00 -0.45593999997E+02  0.45594000000E+02  0.51100000000E-03 0.  1.
    9900012    2    1    2    0    0  0.98918842782E+01  0.15521631684E+02 -0.34508505275E+01  0.72461580319E+02  0.70000013059E+02 0.  0.
         12    1    1    2    0    0 -0.98918842782E+01 -0.15521631684E+02  0.34508505275E+01  0.18726419681E+02  0.00000000000E+00 0. -1.
         11    1    3    3    0    0 -0.38352844855E+01  0.60945619350E+01 -0.15830599521E+02  0.17391405168E+02  0.51100000000E-03 0. -1.
        -11    1    3    3    0    0  0.59051750217E+00  0.29556353246E+02  0.81403406763E+01  0.30662548405E+02  0.51100000000E-03 0.  1.
         12    1    3    3    0    0  0.13136651262E+02 -0.20129283497E+02  0.42394083174E+01  0.24407626746E+02  0.00000000000E+00 0. -1.
</event>
<event>
 7    1  0.2876796E-013  0.7246155E+02  0.7816164E-02  0.1226708E+00
        -11   -1    0    0    0    0  0.00000000000E+00  0.00000000000E+00  0.45593999997E+02  0.45594000000E+02  0.51100000000E-03 0. -1.
         11   -1    0    0    0    0 -0.00000000000E+00 -0.00000000000E+00 -0.45593999997E+02  0.45594000000E+02  0.51100000000E-03 0.  1.
    9900012    2    1    2    0    0  0.17481550394E+02 -0.19049557650E+01  0.64378903068E+01  0.72461550998E+02  0.69999974862E+02 0.  0.
         12    1    1    2    0    0 -0.17481550394E+02  0.19049557650E+01 -0.64378903068E+01  0.18726449002E+02  0.00000000000E+00 0. -1.
         11    1    3    3    0    0 -0.81426803607E+01 -0.18643161881E+02 -0.98789133853E+00  0.20367784807E+02  0.51100000000E-03 0. -1.
        -11    1    3    3    0    0  0.18261246457E+02 -0.50664782654E+00 -0.14442133209E+02  0.23287443528E+02  0.51100000000E-03 0.  1.
        -12    1    3    3    0    0  0.73629842976E+01  0.17244853942E+02  0.21867914855E+02  0.28806322663E+02  0.00000000000E+00 0.  1.
</event>
<event>
 7    1  0.2876796E-013  0.7246146E+02  0.7816164E-02  0.1226708E+00
        -11   -1    0    0    0    0  0.00000000000E+00  0.00000000000E+00  0.45593999997E+02  0.45594000000E+02  0.51100000000E-03 0.  1.
         11   -1    0    0    0    0 -0.00000000000E+00 -0.00000000000E+00 -0.45593999997E+02  0.45594000000E+02  0.51100000000E-03 0. -1.
    9900012    2    1    2    0    0  0.21594469518E+01  0.11139009089E+01  0.18568231583E+02  0.72461462400E+02  0.69999859447E+02 0.  0.
         12    1    1    2    0    0 -0.21594469518E+01 -0.11139009089E+01 -0.18568231583E+02  0.18726537600E+02  0.00000000000E+00 0. -1.
         11    1    3    3    0    0  0.15233008690E+02  0.25937862204E+02  0.19931704354E+02  0.36084485422E+02  0.51100000000E-03 0. -1.
        -11    1    3    3    0    0 -0.49966930074E+01  0.38989247107E+01  0.11232767171E+01  0.64366377678E+01  0.51100000000E-03 0.  1.
        -12    1    3    3    0    0 -0.80768687306E+01 -0.28722886006E+02 -0.24867494885E+01  0.29940339210E+02  0.00000000000E+00 0.  1.
</event>
<event>
 7    1  0.2876796E-013  0.7246154E+02  0.7816164E-02  0.1226708E+00
        -11   -1    0    0    0    0  0.00000000000E+00  0.00000000000E+00  0.45593999997E+02  0.45594000000E+02  0.51100000000E-03 0. -1.
         11   -1    0    0    0    0 -0.00000000000E+00 -0.00000000000E+00 -0.45593999997E+02  0.45594000000E+02  0.51100000000E-03 0.  1.
    9900012    2    1    2    0    0 -0.88690092453E+01  0.14611400288E+02 -0.76503668000E+01  0.72461535957E+02  0.69999955270E+02 0.  0.
         12    1    1    2    0    0  0.88690092453E+01 -0.14611400288E+02  0.76503668000E+01  0.18726464043E+02  0.00000000000E+00 0. -1.
         11    1    3    3    0    0  0.67075311029E+01  0.18988601664E+02  0.60365185737E+01  0.21023737142E+02  0.51100000000E-03 0. -1.
        -11    1    3    3    0    0 -0.68434409892E+01  0.91981153675E+01 -0.27752667237E+02  0.30027463262E+02  0.51100000000E-03 0.  1.
         12    1    3    3    0    0 -0.87330993591E+01 -0.13575316744E+02  0.14065781864E+02  0.21410335554E+02  0.00000000000E+00 0. -1.
</event>
<event>
 7    1  0.2876796E-013  0.7246180E+02  0.7816164E-02  0.1226707E+00
        -11   -1    0    0    0    0  0.00000000000E+00  0.00000000000E+00  0.45593999997E+02  0.45594000000E+02  0.51100000000E-03 0. -1.
         11   -1    0    0    0    0 -0.00000000000E+00 -0.00000000000E+00 -0.45593999997E+02  0.45594000000E+02  0.51100000000E-03 0.  1.
    9900012    2    1    2    0    0 -0.12887158564E+02 -0.12941391645E+02 -0.41366804095E+01  0.72461799147E+02  0.70000298123E+02 0.  0.
         12    1    1    2    0    0  0.12887158564E+02  0.12941391645E+02  0.41366804095E+01  0.18726200853E+02  0.00000000000E+00 0. -1.
         11    1    3    3    0    0 -0.28239182127E+02  0.98519573090E+00  0.39201066812E+01  0.28526991683E+02  0.51100000000E-03 0. -1.
        -11    1    3    3    0    0  0.21940676824E+01  0.13009183957E+02 -0.30649342487E+01  0.13544246839E+02  0.51100000000E-03 0.  1.
        -12    1    3    3    0    0  0.13157955881E+02 -0.26935771333E+02 -0.49918528420E+01  0.30390560625E+02  0.00000000000E+00 0.  1.
</event>
<event>
 7    1  0.2876796E-013  0.7246143E+02  0.7816164E-02  0.1226708E+00
        -11   -1    0    0    0    0  0.00000000000E+00  0.00000000000E+00  0.45593999997E+02  0.45594000000E+02  0.51100000000E-03 0.  1.
         11   -1    0    0    0    0 -0.00000000000E+00 -0.00000000000E+00 -0.45593999997E+02  0.45594000000E+02  0.51100000000E-03 0. -1.
    9900012    2    1    2    0    0  0.73052539660E+01 -0.17173676270E+02  0.15434946422E+01  0.72461434168E+02  0.69999822671E+02 0.  0.
         12    1    1    2    0    0 -0.73052539660E+01  0.17173676270E+02 -0.15434946422E+01  0.18726565832E+02  0.00000000000E+00 0. -1.
         11    1    3    3    0    0  0.10245864478E+02 -0.21550184486E+01  0.12308310096E+01  0.10542143457E+02  0.51100000000E-03 0. -1.
        -11    1    3    3    0    0 -0.66586817918E+01 -0.16890271411E+02  0.28300573325E+02  0.33623529891E+02  0.51100000000E-03 0.  1.
        -12    1    3    3    0    0  0.37180712793E+01  0.18716135901E+01 -0.27987909692E+02  0.28295760821E+02  0.00000000000E+00 0.  1.
</event>
<event>
 7    1  0.2876796E-013  0.7246163E+02  0.7816164E-02  0.1226708E+00
        -11   -1    0    0    0    0  0.00000000000E+00  0.00000000000E+00  0.45593999997E+02  0.45594000000E+02  0.51100000000E-03 0. -1.
         11   -1    0    0    0    0 -0.00000000000E+00 -0.00000000000E+00 -0.45593999997E+02  0.45594000000E+02  0.51100000000E-03 0.  1.
    9900012    2    1    2    0    0  0.83180551925E+01  0.35525314793E+00 -0.16773813030E+02  0.72461626871E+02  0.70000073702E+02 0.  0.
         12    1    1    2    0    0 -0.83180551925E+01 -0.35525314793E+00  0.16773813030E+02  0.18726373129E+02  0.00000000000E+00 0. -1.
         11    1    3    3    0    0 -0.27245364282E+02 -0.23389907180E+01 -0.53080473521E+01  0.27855988933E+02  0.51100000000E-03 0. -1.
        -11    1    3    3    0    0 -0.27997353320E+01  0.25148355993E+01  0.15842296778E+01  0.40832217615E+01  0.51100000000E-03 0.  1.
        -12    1    3    3    0    0  0.38363154807E+02  0.17940826670E+00 -0.13049995356E+02  0.40522416177E+02  0.00000000000E+00 0.  1.
</event>
<event>
 7    1  0.2876796E-013  0.7246155E+02  0.7816164E-02  0.1226708E+00
        -11   -1    0    0    0    0  0.00000000000E+00  0.00000000000E+00  0.45593999997E+02  0.45594000000E+02  0.51100000000E-03 0.  1.
         11   -1    0    0    0    0 -0.00000000000E+00 -0.00000000000E+00 -0.45593999997E+02  0.45594000000E+02  0.51100000000E-03 0. -1.
    9900012    2    1    2    0    0  0.10706078052E+02  0.78741014318E+01  0.13193115626E+02  0.72461551310E+02  0.69999975269E+02 0.  0.
         12    1    1    2    0    0 -0.10706078052E+02 -0.78741014318E+01 -0.13193115626E+02  0.18726448690E+02  0.00000000000E+00 0. -1.
         11    1    3    3    0    0 -0.24269555156E+02  0.16656596427E+02  0.15651296613E+02  0.33337915320E+02  0.51100000000E-03 0. -1.
        -11    1    3    3    0    0  0.15827309466E+02 -0.65745351765E+01  0.58843173930E+01  0.18120525080E+02  0.51100000000E-03 0.  1.
        -12    1    3    3    0    0  0.19148323742E+02 -0.22079598187E+01 -0.83424983798E+01  0.21003110910E+02  0.00000000000E+00 0.  1.
</event>
<event>
 7    1  0.2876796E-013  0.7246158E+02  0.7816164E-02  0.1226708E+00
        -11   -1    0    0    0    0  0.00000000000E+00  0.00000000000E+00  0.45593999997E+02  0.45594000000E+02  0.51100000000E-03 0. -1.
         11   -1    0    0    0    0 -0.00000000000E+00 -0.00000000000E+00 -0.45593999997E+02  0.45594000000E+02  0.51100000000E-03 0.  1.
    9900012    2    1    2    0    0  0.68435499995E+01 -0.10212640984E+02 -0.14126099662E+02  0.72461577380E+02  0.70000009231E+02 0.  0.
         12    1    1    2    0    0 -0.68435499995E+01  0.10212640984E+02  0.14126099662E+02  0.18726422620E+02  0.00000000000E+00 0. -1.
         11    1    3    3    0    0  0.15188378097E+02 -0.23851728088E+02 -0.21279720036E+02  0.35389521713E+02  0.51100000000E-03 0. -1.
        -11    1    3    3    0    0  0.68982134828E+01  0.34656479401E+01 -0.95470204257E+01  0.12277689692E+02  0.51100000000E-03 0.  1.
         12    1    3    3    0    0 -0.15243041580E+02  0.10173439164E+02  0.16700640799E+02  0.24794365976E+02  0.00000000000E+00 0. -1.
</event>
<event>
 7    1  0.2876796E-013  0.7246158E+02  0.7816164E-02  0.1226708E+00
        -11   -1    0    0    0    0  0.00000000000E+00  0.00000000000E+00  0.45593999997E+02  0.45594000000E+02  0.51100000000E-03 0.  1.
         11   -1    0    0    0    0 -0.00000000000E+00 -0.00000000000E+00 -0.45593999997E+02  0.45594000000E+02  0.51100000000E-03 0. -1.
    9900012    2    1    2    0    0  0.58485923836E+01 -0.16188797186E+02  0.73753303465E+01  0.72461583233E+02  0.70000016855E+02 0.  0.
         12    1    1    2    0    0 -0.58485923836E+01  0.16188797186E+02 -0.73753303465E+01  0.18726416767E+02  0.00000000000E+00 0. -1.
         11    1    3    3    0    0 -0.11492949626E+02 -0.64763325645E+01 -0.16743140538E+02  0.21315804698E+02  0.51100000000E-03 0. -1.
        -11    1    3    3    0    0 -0.73249000325E+01  0.10296198723E+02  0.11103790191E+02  0.16821415681E+02  0.51100000000E-03 0.  1.
         12    1    3    3    0    0  0.24666442042E+02 -0.20008663344E+02  0.13014680693E+02  0.34324362855E+02  0.00000000000E+00 0. -1.
</event>
<event>
 7    1  0.2876796E-013  0.7246158E+02  0.7816164E-02  0.1226708E+00
        -11   -1    0    0    0    0  0.00000000000E+00  0.00000000000E+00  0.45593999997E+02  0.45594000000E+02  0.51100000000E-03 0. -1.
         11   -1    0    0    0    0 -0.00000000000E+00 -0.00000000000E+00 -0.45593999997E+02  0.45594000000E+02  0.51100000000E-03 0.  1.
    9900012    2    1    2    0    0 -0.75099557627E+00  0.90317577813E+01 -0.16387253962E+02  0.72461581886E+02  0.70000015100E+02 0.  0.
         12    1    1    2    0    0  0.75099557627E+00 -0.90317577813E+01  0.16387253962E+02  0.18726418114E+02  0.00000000000E+00 0. -1.
         11    1    3    3    0    0  0.20372144208E+01  0.12624260500E+01 -0.42676617032E+01  0.48945785112E+01  0.51100000000E-03 0. -1.
        -11    1    3    3    0    0  0.26288475903E+01  0.36756131747E+02 -0.46105156001E+01  0.37137325093E+02  0.51100000000E-03 0.  1.
         12    1    3    3    0    0 -0.54170575873E+01 -0.28986800016E+02 -0.75090766585E+01  0.30429678282E+02  0.00000000000E+00 0. -1.
</event>
<event>
 7    1  0.2876796E-013  0.7246159E+02  0.7816164E-02  0.1226708E+00
        -11   -1    0    0    0    0  0.00000000000E+00  0.00000000000E+00  0.45593999997E+02  0.45594000000E+02  0.51100000000E-03 0.  1.
         11   -1    0    0    0    0 -0.00000000000E+00 -0.00000000000E+00 -0.45593999997E+02  0.45594000000E+02  0.51100000000E-03 0. -1.
    9900012    2    1    2    0    0  0.82422078024E+01  0.78396129462E+01 -0.14875653538E+02  0.72461585800E+02  0.70000020199E+02 0.  0.
         12    1    1    2    0    0 -0.82422078024E+01 -0.78396129462E+01  0.14875653538E+02  0.18726414200E+02  0.00000000000E+00 0. -1.
         11    1    3    3    0    0 -0.27614515680E-01 -0.19584989385E+02  0.16897258325E+02  0.25866772333E+02  0.51100000000E-03 0. -1.
        -11    1    3    3    0    0  0.18644375287E+01 -0.14591107683E+01  0.88592856353E+00  0.25278451719E+01  0.51100000000E-03 0.  1.
        -12    1    3    3    0    0  0.64053847894E+01  0.28883713099E+02 -0.32658840427E+02  0.44066968295E+02  0.00000000000E+00 0.  1.
</event>
<event>
 7    1  0.2876796E-013  0.7246158E+02  0.7816164E-02  0.1226708E+00
        -11   -1    0    0    0    0  0.00000000000E+00  0.00000000000E+00  0.45593999997E+02  0.45594000000E+02  0.51100000000E-03 0.  1.
         11   -1    0    0    0    0 -0.00000000000E+00 -0.00000000000E+00 -0.45593999997E+02  0.45594000000E+02  0.51100000000E-03 0. -1.
    9900012    2    1    2    0    0  0.66521202590E+01 -0.10723016084E+02 -0.13836368795E+02  0.72461578043E+02  0.70000010095E+02 0.  0.
         12    1    1    2    0    0 -0.66521202590E+01  0.10723016084E+02  0.13836368795E+02  0.18726421957E+02  0.00000000000E+00 0. -1.
         11    1    3    3    0    0  0.22912583817E+02 -0.22879520313E+01 -0.39616118616E+01  0.23364836624E+02  0.51100000000E-03 0. -1.
        -11    1    3    3    0    0  0.26706917918E+01 -0.10605212344E+01 -0.24115456953E+02  0.24286056992E+02  0.51100000000E-03 0.  1.
        -12    1    3    3    0    0 -0.18931155350E+02 -0.73745428185E+01  0.14240700020E+02  0.24810684427E+02  0.00000000000E+00 0.  1.
</event>
<event>
 7    1  0.2876796E-013  0.7246166E+02  0.7816164E-02  0.1226708E+00
        -11   -1    0    0    0    0  0.00000000000E+00  0.00000000000E+00  0.45593999997E+02  0.45594000000E+02  0.51100000000E-03 0.  1.
         11   -1    0    0    0    0 -0.00000000000E+00 -0.00000000000E+00 -0.45593999997E+02  0.45594000000E+02  0.51100000000E-03 0. -1.
    9900012    2    1    2    0    0  0.13609015454E+02  0.96973006582E+01  0.84518073422E+01  0.72461655214E+02  0.70000110624E+02 0.  0.
         12    1    1    2    0    0 -0.13609015454E+02 -0.96973006582E+01 -0.84518073422E+01  0.18726344786E+02  0.00000000000E+00 0. -1.
         11    1    3    3    0    0  0.74747654182E+01 -0.17305645363E+02 -0.85914142677E+00  0.18870495588E+02  0.51100000000E-03 0. -1.
        -11    1    3    3    0    0 -0.34327055341E+01 -0.92853989636E+01 -0.75491133060E+01  0.12449546705E+02  0.51100000000E-03 0.  1.
        -12    1    3    3    0    0  0.95669555700E+01  0.36288344985E+02  0.16860062075E+02  0.41141612921E+02  0.00000000000E+00 0.  1.
</event>
<event>
 7    1  0.2876796E-013  0.7246147E+02  0.7816164E-02  0.1226708E+00
        -11   -1    0    0    0    0  0.00000000000E+00  0.00000000000E+00  0.45593999997E+02  0.45594000000E+02  0.51100000000E-03 0.  1.
         11   -1    0    0    0    0 -0.00000000000E+00 -0.00000000000E+00 -0.45593999997E+02  0.45594000000E+02  0.51100000000E-03 0. -1.
    9900012    2    1    2    0    0  0.61524963175E+01 -0.14388691330E+02  0.10285677799E+02  0.72461472908E+02  0.69999873136E+02 0.  0.
         12    1    1    2    0    0 -0.61524963175E+01  0.14388691330E+02 -0.10285677799E+02  0.18726527092E+02  0.00000000000E+00 0. -1.
         11    1    3    3    0    0  0.34763664418E+02 -0.64190865222E+00 -0.37082680060E+01  0.34966779411E+02  0.51100000000E-03 0. -1.
        -11    1    3    3    0    0 -0.22145297951E+01  0.11816328161E+00 -0.25633423132E+01  0.33895174952E+01  0.51100000000E-03 0.  1.
        -12    1    3    3    0    0 -0.26396638305E+02 -0.13864945960E+02  0.16557288118E+02  0.34105176002E+02  0.00000000000E+00 0.  1.
</event>
<event>
 7    1  0.2876796E-013  0.7246153E+02  0.7816164E-02  0.1226708E+00
        -11   -1    0    0    0    0  0.00000000000E+00  0.00000000000E+00  0.45593999997E+02  0.45594000000E+02  0.51100000000E-03 0. -1.
         11   -1    0    0    0    0 -0.00000000000E+00 -0.00000000000E+00 -0.45593999997E+02  0.45594000000E+02  0.51100000000E-03 0.  1.
    9900012    2    1    2    0    0 -0.87763382871E+01 -0.90306839290E+01  0.13860132912E+02  0.72461530757E+02  0.69999948495E+02 0.  0.
         12    1    1    2    0    0  0.87763382871E+01  0.90306839290E+01 -0.13860132912E+02  0.18726469243E+02  0.00000000000E+00 0. -1.
         11    1    3    3    0    0 -0.13404216356E+02 -0.14076365577E+02  0.11902184147E+01  0.19473923696E+02  0.51100000000E-03 0. -1.
        -11    1    3    3    0    0 -0.58439806111E+01 -0.19592440234E+02 -0.48247316229E+01  0.21006995482E+02  0.51100000000E-03 0.  1.
         12    1    3    3    0    0  0.10471858680E+02  0.24638121882E+02  0.17494646121E+02  0.31980611579E+02  0.00000000000E+00 0. -1.
</event>
<event>
 7    1  0.2876796E-013  0.7246152E+02  0.7816164E-02  0.1226708E+00
        -11   -1    0    0    0    0  0.00000000000E+00  0.00000000000E+00  0.45593999997E+02  0.45594000000E+02  0.51100000000E-03 0.  1.
         11   -1    0    0    0    0 -0.00000000000E+00 -0.00000000000E+00 -0.45593999997E+02  0.45594000000E+02  0.51100000000E-03 0. -1.
    9900012    2    1    2    0    0  0.35262188308E+01 -0.32944699887E+01  0.18094014273E+02  0.72461518636E+02  0.69999932706E+02 0.  0.
         12    1    1    2    0    0 -0.35262188308E+01  0.32944699887E+01 -0.18094014273E+02  0.18726481364E+02  0.00000000000E+00 0. -1.
         11    1    3    3    0    0 -0.24823240093E+01 -0.14321469434E+02 -0.14751032065E+01  0.14609666285E+02  0.51100000000E-03 0. -1.
        -11    1    3    3    0    0  0.24704389205E+02 -0.85456234647E+01  0.34991418806E+01  0.26373822638E+02  0.51100000000E-03 0.  1.
         12    1    3    3    0    0 -0.18695846364E+02  0.19572622910E+02  0.16069975599E+02  0.31478029713E+02  0.00000000000E+00 0. -1.
</event>
<event>
 7    1  0.2876796E-013  0.7246159E+02  0.7816164E-02  0.1226708E+00
        -11   -1    0    0    0    0  0.00000000000E+00  0.00000000000E+00  0.45593999997E+02  0.45594000000E+02  0.51100000000E-03 0.  1.
         11   -1    0    0    0    0 -0.00000000000E+00 -0.00000000000E+00 -0.45593999997E+02  0.45594000000E+02  0.51100000000E-03 0. -1.
    9900012    2    1    2    0    0  0.89388647321E+01  0.15319787055E+02 -0.60066034346E+01  0.72461589161E+02  0.70000024577E+02 0.  0.
         12    1    1    2    0    0 -0.89388647321E+01 -0.15319787055E+02  0.60066034346E+01  0.18726410839E+02  0.00000000000E+00 0. -1.
         11    1    3    3    0    0 -0.44565828015E+01  0.27894001314E+02 -0.55593354550E+01  0.28789627482E+02  0.51100000000E-03 0. -1.
        -11    1    3    3    0    0  0.22711625569E+02 -0.27428169039E+01 -0.12033164876E+02  0.25848366249E+02  0.51100000000E-03 0.  1.
         12    1    3    3    0    0 -0.93161780351E+01 -0.98313973553E+01  0.11585896897E+02  0.17823595430E+02  0.00000000000E+00 0. -1.
</event>
<event>
 7    1  0.2876796E-013  0.7246154E+02  0.7816164E-02  0.1226708E+00
        -11   -1    0    0    0    0  0.00000000000E+00  0.00000000000E+00  0.45593999997E+02  0.45594000000E+02  0.51100000000E-03 0. -1.
         11   -1    0    0    0    0 -0.00000000000E+00 -0.00000000000E+00 -0.45593999997E+02  0.45594000000E+02  0.51100000000E-03 0.  1.
    9900012    2    1    2    0    0 -0.51131161884E+01 -0.16215273348E+02  0.78486443928E+01  0.72461541026E+02  0.69999961872E+02 0.  0.
         12    1    1    2    0    0  0.51131161884E+01  0.16215273348E+02 -0.78486443928E+01  0.18726458974E+02  0.00000000000E+00 0. -1.
         11    1    3    3    0    0 -0.50038258772E+01  0.85535644718E+01 -0.47703784293E+01  0.10998102073E+02  0.51100000000E-03 0. -1.
        -11    1    3    3    0    0 -0.13139596534E+02 -0.85723759831E+01 -0.18364009752E+02  0.24153084307E+02  0.51100000000E-03 0.  1.
         12    1    3    3    0    0  0.13030306223E+02 -0.16196461837E+02  0.30983032575E+02  0.37310354646E+02  0.00000000000E+00 0. -1.
</event>
<event>
 7    1  0.2876796E-013  0.7246160E+02  0.7816164E-02  0.1226708E+00
        -11   -1    0    0    0    0  0.00000000000E+00  0.00000000000E+00  0.45593999997E+02  0.45594000000E+02  0.51100000000E-03 0.  1.
         11   -1    0    0    0    0 -0.00000000000E+00 -0.00000000000E+00 -0.45593999997E+02  0.45594000000E+02  0.51100000000E-03 0. -1.
    9900012    2    1    2    0    0 -0.13836810992E+01  0.16527577586E+02  0.86949787783E+01  0.72461600180E+02  0.70000038932E+02 0.  0.
         12    1    1    2    0    0  0.13836810992E+01 -0.16527577586E+02 -0.86949787783E+01  0.18726399820E+02  0.00000000000E+00 0. -1.
         11    1    3    3    0    0 -0.45761103808E+01  0.13108355196E+02 -0.34126937005E+01  0.14297420771E+02  0.51100000000E-03 0. -1.
        -11    1    3    3    0    0 -0.17606815835E+02  0.12193433696E+02 -0.12478069585E+02  0.24786730522E+02  0.51100000000E-03 0.  1.
         12    1    3    3    0    0  0.20799245116E+02 -0.87742113051E+01  0.24585742064E+02  0.33377448888E+02  0.00000000000E+00 0. -1.
</event>
<event>
 7    1  0.3030446E-013  0.7246162E+02  0.7816164E-02  0.1226708E+00
        -11   -1    0    0    0    0  0.00000000000E+00  0.00000000000E+00  0.45593999997E+02  0.45594000000E+02  0.51100000000E-03 0. -1.
         11   -1    0    0    0    0 -0.00000000000E+00 -0.00000000000E+00 -0.45593999997E+02  0.45594000000E+02  0.51100000000E-03 0.  1.
    9900012    2    1    2    0    0  0.16328316513E+02  0.26678774326E+01 -0.87718742605E+01  0.72461621060E+02  0.70000066132E+02 0.  0.
         12    1    1    2    0    0 -0.16328316513E+02 -0.26678774326E+01  0.87718742605E+01  0.18726378940E+02  0.00000000000E+00 0. -1.
         11    1    3    3    0    0 -0.10774383264E+02  0.13631221230E+02  0.81972169100E+01  0.19211764423E+02  0.51100000000E-03 0. -1.
        -11    1    3    3    0    0 -0.57148243577E+01  0.10005051022E+02 -0.42531135550E+01  0.12282069800E+02  0.51100000000E-03 0.  1.
        -12    1    3    3    0    0  0.32817524135E+02 -0.20968394819E+02 -0.12715977615E+02  0.40967786837E+02  0.00000000000E+00 0.  1.
</event>
<event>
 7    1  0.2876796E-013  0.7246161E+02  0.7816164E-02  0.1226708E+00
        -11   -1    0    0    0    0  0.00000000000E+00  0.00000000000E+00  0.45593999997E+02  0.45594000000E+02  0.51100000000E-03 0.  1.
         11   -1    0    0    0    0 -0.00000000000E+00 -0.00000000000E+00 -0.45593999997E+02  0.45594000000E+02  0.51100000000E-03 0. -1.
    9900012    2    1    2    0    0 -0.14979267495E+02  0.38918969492E+01 -0.10542878094E+02  0.72461612333E+02  0.70000054763E+02 0.  0.
         12    1    1    2    0    0  0.14979267495E+02 -0.38918969492E+01  0.10542878094E+02  0.18726387667E+02  0.00000000000E+00 0. -1.
         11    1    3    3    0    0  0.97851809187E+01 -0.82202117265E+01  0.48185959776E+01  0.13657983522E+02  0.51100000000E-03 0. -1.
        -11    1    3    3    0    0  0.62812859413E+01 -0.16711414574E+01  0.13011627222E+02  0.14544748539E+02  0.51100000000E-03 0.  1.
         12    1    3    3    0    0 -0.31045734355E+02  0.13783250133E+02 -0.28373101294E+02  0.44258880271E+02  0.00000000000E+00 0. -1.
</event>
<event>
 7    1  0.2876796E-013  0.7246158E+02  0.7816164E-02  0.1226708E+00
        -11   -1    0    0    0    0  0.00000000000E+00  0.00000000000E+00  0.45593999997E+02  0.45594000000E+02  0.51100000000E-03 0. -1.
         11   -1    0    0    0    0 -0.00000000000E+00 -0.00000000000E+00 -0.45593999997E+02  0.45594000000E+02  0.51100000000E-03 0.  1.
    9900012    2    1    2    0    0  0.67972962768E+01  0.17159889994E+02  0.31644228936E+01  0.72461584606E+02  0.70000018643E+02 0.  0.
         12    1    1    2    0    0 -0.67972962768E+01 -0.17159889994E+02 -0.31644228936E+01  0.18726415394E+02  0.00000000000E+00 0. -1.
         11    1    3    3    0    0 -0.16197208616E+01  0.40714246097E+02 -0.47338373396E+01  0.41020513735E+02  0.51100000000E-03 0.  1.
        -11    1    3    3    0    0  0.10322753461E+02 -0.74172523874E+01 -0.12856676310E+01  0.12776064085E+02  0.51100000000E-03 0. -1.
        -12    1    3    3    0    0 -0.19057363227E+01 -0.16137103716E+02  0.91839278643E+01  0.18665006785E+02  0.00000000000E+00 0.  1.
</event>
<event>
 7    1  0.2876796E-013  0.7246146E+02  0.7816164E-02  0.1226708E+00
        -11   -1    0    0    0    0  0.00000000000E+00  0.00000000000E+00  0.45593999997E+02  0.45594000000E+02  0.51100000000E-03 0.  1.
         11   -1    0    0    0    0 -0.00000000000E+00 -0.00000000000E+00 -0.45593999997E+02  0.45594000000E+02  0.51100000000E-03 0. -1.
    9900012    2    1    2    0    0  0.50445871680E+01  0.11776876681E+02  0.13657992390E+02  0.72461456267E+02  0.69999851458E+02 0.  0.
         12    1    1    2    0    0 -0.50445871680E+01 -0.11776876681E+02 -0.13657992390E+02  0.18726543733E+02  0.00000000000E+00 0. -1.
         11    1    3    3    0    0 -0.33749631285E+01 -0.51138933479E+01 -0.14044043822E+02  0.15322449165E+02  0.51100000000E-03 0. -1.
        -11    1    3    3    0    0  0.57675554838E+01  0.18232921877E+02 -0.84199305079E+01  0.20894960312E+02  0.51100000000E-03 0.  1.
         12    1    3    3    0    0  0.26519948128E+01 -0.13421518473E+01  0.36121966719E+02  0.36244046790E+02  0.00000000000E+00 0. -1.
</event>
<event>
 7    1  0.2876796E-013  0.7246158E+02  0.7816164E-02  0.1226708E+00
        -11   -1    0    0    0    0  0.00000000000E+00  0.00000000000E+00  0.45593999997E+02  0.45594000000E+02  0.51100000000E-03 0.  1.
         11   -1    0    0    0    0 -0.00000000000E+00 -0.00000000000E+00 -0.45593999997E+02  0.45594000000E+02  0.51100000000E-03 0. -1.
    9900012    2    1    2    0    0  0.87722097002E+01 -0.24935632507E+01  0.16355707771E+02  0.72461582900E+02  0.70000016421E+02 0.  0.
         12    1    1    2    0    0 -0.87722097002E+01  0.24935632507E+01 -0.16355707771E+02  0.18726417100E+02  0.00000000000E+00 0. -1.
         11    1    3    3    0    0 -0.76188667231E+01  0.15920429360E+02 -0.19273007755E+02  0.26133427432E+02  0.51100000000E-03 0. -1.
        -11    1    3    3    0    0  0.11022965640E+02 -0.53657658410E+01  0.63033676924E+01  0.13785124558E+02  0.51100000000E-03 0.  1.
        -12    1    3    3    0    0  0.53681107832E+01 -0.13048226770E+02  0.29325347834E+02  0.32543030910E+02  0.00000000000E+00 0.  1.
</event>
<event>
 7    1  0.2876796E-013  0.7246156E+02  0.7816164E-02  0.1226708E+00
        -11   -1    0    0    0    0  0.00000000000E+00  0.00000000000E+00  0.45593999997E+02  0.45594000000E+02  0.51100000000E-03 0. -1.
         11   -1    0    0    0    0 -0.00000000000E+00 -0.00000000000E+00 -0.45593999997E+02  0.45594000000E+02  0.51100000000E-03 0.  1.
    9900012    2    1    2    0    0 -0.16668506141E+02 -0.81639397052E+01 -0.24880787486E+01  0.72461560286E+02  0.69999986963E+02 0.  0.
         12    1    1    2    0    0  0.16668506141E+02  0.81639397052E+01  0.24880787486E+01  0.18726439714E+02  0.00000000000E+00 0. -1.
         11    1    3    3    0    0 -0.60833688318E+01  0.86749743340E+01 -0.39708693283E+01  0.11315050133E+02  0.51100000000E-03 0. -1.
        -11    1    3    3    0    0 -0.19274397289E+01  0.12950541727E+02 -0.19648410081E+02  0.23611259473E+02  0.51100000000E-03 0.  1.
        -12    1    3    3    0    0 -0.86576975804E+01 -0.29789455767E+02  0.21131200660E+02  0.37535250680E+02  0.00000000000E+00 0.  1.
</event>
<event>
 7    1  0.2876796E-013  0.7246154E+02  0.7816164E-02  0.1226708E+00
        -11   -1    0    0    0    0  0.00000000000E+00  0.00000000000E+00  0.45593999997E+02  0.45594000000E+02  0.51100000000E-03 0.  1.
         11   -1    0    0    0    0 -0.00000000000E+00 -0.00000000000E+00 -0.45593999997E+02  0.45594000000E+02  0.51100000000E-03 0. -1.
    9900012    2    1    2    0    0 -0.16488301896E+02  0.85244795769E+01  0.24798212390E+01  0.72461538379E+02  0.69999958424E+02 0.  0.
         12    1    1    2    0    0  0.16488301896E+02 -0.85244795769E+01 -0.24798212390E+01  0.18726461621E+02  0.00000000000E+00 0. -1.
         11    1    3    3    0    0 -0.30218444629E+01  0.72233996157E+01 -0.70342666880E+01  0.10525680694E+02  0.51100000000E-03 0. -1.
        -11    1    3    3    0    0 -0.85029451062E+01  0.24317263780E+02  0.23228974501E+02  0.34687384592E+02  0.51100000000E-03 0.  1.
         12    1    3    3    0    0 -0.49635123267E+01 -0.23016183818E+02 -0.13714886574E+02  0.27248473093E+02  0.00000000000E+00 0. -1.
</event>
<event>
 7    1  0.2876796E-013  0.7246155E+02  0.7816164E-02  0.1226708E+00
        -11   -1    0    0    0    0  0.00000000000E+00  0.00000000000E+00  0.45593999997E+02  0.45594000000E+02  0.51100000000E-03 0.  1.
         11   -1    0    0    0    0 -0.00000000000E+00 -0.00000000000E+00 -0.45593999997E+02  0.45594000000E+02  0.51100000000E-03 0. -1.
    9900012    2    1    2    0    0 -0.74455466725E+01  0.24225242044E+01  0.17011024572E+02  0.72461554909E+02  0.69999979957E+02 0.  0.
         12    1    1    2    0    0  0.74455466725E+01 -0.24225242044E+01 -0.17011024572E+02  0.18726445091E+02  0.00000000000E+00 0. -1.
         11    1    3    3    0    0 -0.16840313031E+02 -0.19733445948E+02  0.70235067324E+01  0.26876284696E+02  0.51100000000E-03 0. -1.
        -11    1    3    3    0    0  0.85042830721E-01 -0.10510156774E+02  0.24377729493E+01  0.10789502533E+02  0.51100000000E-03 0.  1.
         12    1    3    3    0    0  0.93097235274E+01  0.32666126926E+02  0.75497448903E+01  0.34795767680E+02  0.00000000000E+00 0. -1.
</event>
<event>
 7    1  0.2876796E-013  0.7246145E+02  0.7816164E-02  0.1226708E+00
        -11   -1    0    0    0    0  0.00000000000E+00  0.00000000000E+00  0.45593999997E+02  0.45594000000E+02  0.51100000000E-03 0.  1.
         11   -1    0    0    0    0 -0.00000000000E+00 -0.00000000000E+00 -0.45593999997E+02  0.45594000000E+02  0.51100000000E-03 0. -1.
    9900012    2    1    2    0    0  0.45497368965E+01 -0.88526319242E+01  0.15862364121E+02  0.72461446838E+02  0.69999839175E+02 0.  0.
         12    1    1    2    0    0 -0.45497368965E+01  0.88526319242E+01 -0.15862364121E+02  0.18726553162E+02  0.00000000000E+00 0. -1.
         11    1    3    3    0    0  0.20820356695E+01 -0.30769088937E+01  0.74094978661E+01  0.82887212378E+01  0.51100000000E-03 0. -1.
        -11    1    3    3    0    0 -0.18507338134E+02 -0.60163965597E+00  0.28967716165E+02  0.34380403069E+02  0.51100000000E-03 0.  1.
         12    1    3    3    0    0  0.20975039361E+02 -0.51740833745E+01 -0.20514849910E+02  0.29792322531E+02  0.00000000000E+00 0. -1.
</event>
<event>
 7    1  0.2876796E-013  0.7246154E+02  0.7816164E-02  0.1226708E+00
        -11   -1    0    0    0    0  0.00000000000E+00  0.00000000000E+00  0.45593999997E+02  0.45594000000E+02  0.51100000000E-03 0. -1.
         11   -1    0    0    0    0 -0.00000000000E+00 -0.00000000000E+00 -0.45593999997E+02  0.45594000000E+02  0.51100000000E-03 0.  1.
    9900012    2    1    2    0    0 -0.24403300759E+01 -0.30657848764E+01 -0.18311905137E+02  0.72461544982E+02  0.69999967026E+02 0.  0.
         12    1    1    2    0    0  0.24403300759E+01  0.30657848764E+01  0.18311905137E+02  0.18726455018E+02  0.00000000000E+00 0. -1.
         11    1    3    3    0    0 -0.17484901434E+02  0.58061270333E+01  0.14583914423E+01  0.18481336400E+02  0.51100000000E-03 0. -1.
        -11    1    3    3    0    0 -0.12597355490E+02 -0.16543236554E+02 -0.37683524804E+01  0.21132262579E+02  0.51100000000E-03 0.  1.
         12    1    3    3    0    0  0.27641926848E+02  0.76713246443E+01 -0.16001944099E+02  0.32847946003E+02  0.00000000000E+00 0. -1.
</event>
<event>
 7    1  0.2876796E-013  0.7246154E+02  0.7816164E-02  0.1226708E+00
        -11   -1    0    0    0    0  0.00000000000E+00  0.00000000000E+00  0.45593999997E+02  0.45594000000E+02  0.51100000000E-03 0.  1.
         11   -1    0    0    0    0 -0.00000000000E+00 -0.00000000000E+00 -0.45593999997E+02  0.45594000000E+02  0.51100000000E-03 0. -1.
    9900012    2    1    2    0    0  0.66029300571E+01 -0.40653634325E+01  0.17045652650E+02  0.72461544397E+02  0.69999966265E+02 0.  0.
         12    1    1    2    0    0 -0.66029300571E+01  0.40653634325E+01 -0.17045652650E+02  0.18726455603E+02  0.00000000000E+00 0. -1.
         11    1    3    3    0    0 -0.11088721090E+02 -0.77347930563E+01  0.56479160316E+01  0.14652157343E+02  0.51100000000E-03 0. -1.
        -11    1    3    3    0    0  0.32262718366E+02  0.12804009247E+01  0.22483856612E+02  0.39345218659E+02  0.51100000000E-03 0.  1.
         12    1    3    3    0    0 -0.14571067219E+02  0.23890286991E+01 -0.11086119994E+02  0.18464168396E+02  0.00000000000E+00 0. -1.
</event>
<event>
 7    1  0.2876796E-013  0.7246155E+02  0.7816164E-02  0.1226708E+00
        -11   -1    0    0    0    0  0.00000000000E+00  0.00000000000E+00  0.45593999997E+02  0.45594000000E+02  0.51100000000E-03 0. -1.
         11   -1    0    0    0    0 -0.00000000000E+00 -0.00000000000E+00 -0.45593999997E+02  0.45594000000E+02  0.51100000000E-03 0.  1.
    9900012    2    1    2    0    0  0.33052240513E+01 -0.12924177286E+02 -0.13142344847E+02  0.72461545647E+02  0.69999967892E+02 0.  0.
         12    1    1    2    0    0 -0.33052240513E+01  0.12924177286E+02  0.13142344847E+02  0.18726454353E+02  0.00000000000E+00 0. -1.
         11    1    3    3    0    0 -0.86155529901E+01 -0.23074786709E+02  0.72565134625E+01  0.25677432170E+02  0.51100000000E-03 0. -1.
        -11    1    3    3    0    0 -0.83494332423E+01 -0.10225581858E+02 -0.45559516760E+01  0.13965394936E+02  0.51100000000E-03 0.  1.
         12    1    3    3    0    0  0.20270210284E+02  0.20376191280E+02 -0.15842906634E+02  0.32818718540E+02  0.00000000000E+00 0. -1.
</event>
<event>
 7    1  0.2876796E-013  0.7246163E+02  0.7816164E-02  0.1226708E+00
        -11   -1    0    0    0    0  0.00000000000E+00  0.00000000000E+00  0.45593999997E+02  0.45594000000E+02  0.51100000000E-03 0.  1.
         11   -1    0    0    0    0 -0.00000000000E+00 -0.00000000000E+00 -0.45593999997E+02  0.45594000000E+02  0.51100000000E-03 0. -1.
    9900012    2    1    2    0    0 -0.71749348951E+01 -0.13032399620E+02 -0.11373377990E+02  0.72461632025E+02  0.70000080416E+02 0.  0.
         12    1    1    2    0    0  0.71749348951E+01  0.13032399620E+02  0.11373377990E+02  0.18726367975E+02  0.00000000000E+00 0. -1.
         11    1    3    3    0    0 -0.29453562865E+01  0.13250209640E+02  0.10438208458E+02  0.17123065591E+02  0.51100000000E-03 0. -1.
        -11    1    3    3    0    0  0.10391313811E+01  0.46990890112E+00  0.11914614623E+02  0.11969070568E+02  0.51100000000E-03 0.  1.
         12    1    3    3    0    0 -0.52687099897E+01 -0.26752518161E+02 -0.33726201071E+02  0.43369495866E+02  0.00000000000E+00 0. -1.
</event>
<event>
 7    1  0.2876796E-013  0.7246155E+02  0.7816164E-02  0.1226708E+00
        -11   -1    0    0    0    0  0.00000000000E+00  0.00000000000E+00  0.45593999997E+02  0.45594000000E+02  0.51100000000E-03 0. -1.
         11   -1    0    0    0    0 -0.00000000000E+00 -0.00000000000E+00 -0.45593999997E+02  0.45594000000E+02  0.51100000000E-03 0.  1.
    9900012    2    1    2    0    0 -0.62097640887E+01 -0.12522622007E+02 -0.12462050161E+02  0.72461550092E+02  0.69999973682E+02 0.  0.
         12    1    1    2    0    0  0.62097640887E+01  0.12522622007E+02  0.12462050161E+02  0.18726449908E+02  0.00000000000E+00 0. -1.
         11    1    3    3    0    0  0.84841915326E+01  0.31205789947E+01 -0.32148890285E+02  0.33395668372E+02  0.51100000000E-03 0. -1.
        -11    1    3    3    0    0  0.63126417761E+01  0.21433362009E+00  0.20396893035E+00  0.63195718748E+01  0.51100000000E-03 0.  1.
         12    1    3    3    0    0 -0.21006597397E+02 -0.15857534622E+02  0.19482871194E+02  0.32746309845E+02  0.00000000000E+00 0. -1.
</event>
<event>
 7    1  0.2876796E-013  0.7246157E+02  0.7816164E-02  0.1226708E+00
        -11   -1    0    0    0    0  0.00000000000E+00  0.00000000000E+00  0.45593999997E+02  0.45594000000E+02  0.51100000000E-03 0.  1.
         11   -1    0    0    0    0 -0.00000000000E+00 -0.00000000000E+00 -0.45593999997E+02  0.45594000000E+02  0.51100000000E-03 0. -1.
    9900012    2    1    2    0    0 -0.43381758300E+01 -0.35448926068E+01  0.17868773811E+02  0.72461571867E+02  0.70000002049E+02 0.  0.
         12    1    1    2    0    0  0.43381758300E+01  0.35448926068E+01 -0.17868773811E+02  0.18726428133E+02  0.00000000000E+00 0. -1.
         11    1    3    3    0    0 -0.22289627648E+01  0.11583998003E+02  0.52767834706E+01  0.12922914872E+02  0.51100000000E-03 0. -1.
        -11    1    3    3    0    0 -0.27669853191E+02 -0.57513851017E+01 -0.25651082255E+01  0.28377437986E+02  0.51100000000E-03 0.  1.
        -12    1    3    3    0    0  0.25560640125E+02 -0.93775055083E+01  0.15157098565E+02  0.31161219009E+02  0.00000000000E+00 0.  1.
</event>
<event>
 7    1  0.2876796E-013  0.7246156E+02  0.7816164E-02  0.1226708E+00
        -11   -1    0    0    0    0  0.00000000000E+00  0.00000000000E+00  0.45593999997E+02  0.45594000000E+02  0.51100000000E-03 0. -1.
         11   -1    0    0    0    0 -0.00000000000E+00 -0.00000000000E+00 -0.45593999997E+02  0.45594000000E+02  0.51100000000E-03 0.  1.
    9900012    2    1    2    0    0  0.64778649730E+01  0.42761536711E+01 -0.17042042775E+02  0.72461562891E+02  0.69999990356E+02 0.  0.
         12    1    1    2    0    0 -0.64778649730E+01 -0.42761536711E+01  0.17042042775E+02  0.18726437109E+02  0.00000000000E+00 0. -1.
         11    1    3    3    0    0 -0.13274026648E+02 -0.66736987890E+01 -0.20188560549E+02  0.25066232590E+02  0.51100000000E-03 0. -1.
        -11    1    3    3    0    0 -0.93307952886E+01  0.13791446914E+02 -0.43852065470E+01  0.17219111052E+02  0.51100000000E-03 0.  1.
         12    1    3    3    0    0  0.29082686909E+02 -0.28415944543E+01  0.75317243206E+01  0.30176219249E+02  0.00000000000E+00 0. -1.
</event>
<event>
 7    1  0.2876796E-013  0.7246159E+02  0.7816164E-02  0.1226708E+00
        -11   -1    0    0    0    0  0.00000000000E+00  0.00000000000E+00  0.45593999997E+02  0.45594000000E+02  0.51100000000E-03 0.  1.
         11   -1    0    0    0    0 -0.00000000000E+00 -0.00000000000E+00 -0.45593999997E+02  0.45594000000E+02  0.51100000000E-03 0. -1.
    9900012    2    1    2    0    0  0.10440895068E+02 -0.14200375647E+02  0.63257829866E+01  0.72461588472E+02  0.70000023679E+02 0.  0.
         12    1    1    2    0    0 -0.10440895068E+02  0.14200375647E+02 -0.63257829866E+01  0.18726411528E+02  0.00000000000E+00 0. -1.
         11    1    3    3    0    0  0.66183280987E+01  0.95169717653E+01 -0.12124661590E+02  0.16774457885E+02  0.51100000000E-03 0. -1.
        -11    1    3    3    0    0 -0.89407939035E+01 -0.21753241028E+02 -0.91333781183E+01  0.25230138465E+02  0.51100000000E-03 0.  1.
        -12    1    3    3    0    0  0.12763360873E+02 -0.19641063841E+01  0.27583822695E+02  0.30456992122E+02  0.00000000000E+00 0.  1.
</event>
<event>
 7    1  0.2876796E-013  0.7246157E+02  0.7816164E-02  0.1226708E+00
        -11   -1    0    0    0    0  0.00000000000E+00  0.00000000000E+00  0.45593999997E+02  0.45594000000E+02  0.51100000000E-03 0. -1.
         11   -1    0    0    0    0 -0.00000000000E+00 -0.00000000000E+00 -0.45593999997E+02  0.45594000000E+02  0.51100000000E-03 0.  1.
    9900012    2    1    2    0    0 -0.12695739517E+00  0.15698695192E+02 -0.10208525692E+02  0.72461570930E+02  0.70000000828E+02 0.  0.
         12    1    1    2    0    0  0.12695739517E+00 -0.15698695192E+02  0.10208525692E+02  0.18726429070E+02  0.00000000000E+00 0. -1.
         11    1    3    3    0    0  0.81641729540E+01  0.38402848783E+01  0.23924080836E+01  0.93340840295E+01  0.51100000000E-03 0. -1.
        -11    1    3    3    0    0  0.37533857319E+01  0.14363711348E+02 -0.34751528979E+02  0.37789851479E+02  0.51100000000E-03 0.  1.
        -12    1    3    3    0    0 -0.12044516081E+02 -0.25053010344E+01  0.22150595204E+02  0.25337635422E+02  0.00000000000E+00 0.  1.
</event>
<event>
 7    1  0.2876796E-013  0.7246155E+02  0.7816164E-02  0.1226708E+00
        -11   -1    0    0    0    0  0.00000000000E+00  0.00000000000E+00  0.45593999997E+02  0.45594000000E+02  0.51100000000E-03 0.  1.
         11   -1    0    0    0    0 -0.00000000000E+00 -0.00000000000E+00 -0.45593999997E+02  0.45594000000E+02  0.51100000000E-03 0. -1.
    9900012    2    1    2    0    0 -0.34492060944E+01  0.32867861255E+01  0.18110220868E+02  0.72461545835E+02  0.69999968137E+02 0.  0.
         12    1    1    2    0    0  0.34492060944E+01 -0.32867861255E+01 -0.18110220868E+02  0.18726454165E+02  0.00000000000E+00 0. -1.
         11    1    3    3    0    0  0.10118854118E+02 -0.10738582657E+02 -0.10498877902E+02  0.18108970253E+02  0.51100000000E-03 0. -1.
        -11    1    3    3    0    0  0.10020633882E+02  0.14300407157E+02  0.24989962889E+02  0.30486275498E+02  0.51100000000E-03 0.  1.
        -12    1    3    3    0    0 -0.23588694094E+02 -0.27503837492E+00  0.36191358813E+01  0.23866300084E+02  0.00000000000E+00 0.  1.
</event>
<event>
 7    1  0.2876796E-013  0.7246154E+02  0.7816164E-02  0.1226708E+00
        -11   -1    0    0    0    0  0.00000000000E+00  0.00000000000E+00  0.45593999997E+02  0.45594000000E+02  0.51100000000E-03 0. -1.
         11   -1    0    0    0    0 -0.00000000000E+00 -0.00000000000E+00 -0.45593999997E+02  0.45594000000E+02  0.51100000000E-03 0.  1.
    9900012    2    1    2    0    0 -0.31833196964E+01  0.84341030480E+01 -0.16413794080E+02  0.72461541322E+02  0.69999962258E+02 0.  0.
         12    1    1    2    0    0  0.31833196964E+01 -0.84341030480E+01  0.16413794080E+02  0.18726458678E+02  0.00000000000E+00 0. -1.
         11    1    3    3    0    0  0.16950182961E+02  0.25195564261E+02 -0.52180118990E+01  0.30811569406E+02  0.51100000000E-03 0. -1.
        -11    1    3    3    0    0 -0.13334436338E+02 -0.29706388196E+01  0.89313669606E+01  0.16321801479E+02  0.51100000000E-03 0.  1.
        -12    1    3    3    0    0 -0.67990663189E+01 -0.13790822394E+02 -0.20127149142E+02  0.25328170437E+02  0.00000000000E+00 0.  1.
</event>
<event>
 7    1  0.2876796E-013  0.7246157E+02  0.7816164E-02  0.1226708E+00
        -11   -1    0    0    0    0  0.00000000000E+00  0.00000000000E+00  0.45593999997E+02  0.45594000000E+02  0.51100000000E-03 0. -1.
         11   -1    0    0    0    0 -0.00000000000E+00 -0.00000000000E+00 -0.45593999997E+02  0.45594000000E+02  0.51100000000E-03 0.  1.
    9900012    2    1    2    0    0 -0.15520769996E+02 -0.18120872278E+01 -0.10319946714E+02  0.72461567837E+02  0.69999996798E+02 0.  0.
         12    1    1    2    0    0  0.15520769996E+02  0.18120872278E+01  0.10319946714E+02  0.18726432163E+02  0.00000000000E+00 0. -1.
         11    1    3    3    0    0 -0.95706003043E+01  0.48885447085E+01  0.95767265562E+01  0.14394719565E+02  0.51100000000E-03 0. -1.
        -11    1    3    3    0    0 -0.28672177233E+02  0.46558279186E+01 -0.12382319409E+02  0.31576768598E+02  0.51100000000E-03 0.  1.
        -12    1    3    3    0    0  0.22722007542E+02 -0.11356459855E+02 -0.75143538613E+01  0.26490079674E+02  0.00000000000E+00 0.  1.
</event>
<event>
 7    1  0.2876796E-013  0.7246156E+02  0.7816164E-02  0.1226708E+00
        -11   -1    0    0    0    0  0.00000000000E+00  0.00000000000E+00  0.45593999997E+02  0.45594000000E+02  0.51100000000E-03 0.  1.
         11   -1    0    0    0    0 -0.00000000000E+00 -0.00000000000E+00 -0.45593999997E+02  0.45594000000E+02  0.51100000000E-03 0. -1.
    9900012    2    1    2    0    0 -0.13559873656E+02 -0.10802521575E+02  0.70791958348E+01  0.72461557209E+02  0.69999982954E+02 0.  0.
         12    1    1    2    0    0  0.13559873656E+02  0.10802521575E+02 -0.70791958348E+01  0.18726442791E+02  0.00000000000E+00 0. -1.
         11    1    3    3    0    0 -0.11856780951E+02  0.25978906474E+02 -0.57157402802E+00  0.28562449706E+02  0.51100000000E-03 0. -1.
        -11    1    3    3    0    0 -0.38347411747E+01 -0.68501755640E+00 -0.43132498751E+01  0.58119371706E+01  0.51100000000E-03 0.  1.
        -12    1    3    3    0    0  0.21316484697E+01 -0.36096410492E+02  0.11964019738E+02  0.38087170332E+02  0.00000000000E+00 0.  1.
</event>
<event>
 7    1  0.2876796E-013  0.7246158E+02  0.7816164E-02  0.1226708E+00
        -11   -1    0    0    0    0  0.00000000000E+00  0.00000000000E+00  0.45593999997E+02  0.45594000000E+02  0.51100000000E-03 0.  1.
         11   -1    0    0    0    0 -0.00000000000E+00 -0.00000000000E+00 -0.45593999997E+02  0.45594000000E+02  0.51100000000E-03 0. -1.
    9900012    2    1    2    0    0  0.16867391057E+02 -0.20024110605E+01  0.78841846205E+01  0.72461577537E+02  0.70000009435E+02 0.  0.
         12    1    1    2    0    0 -0.16867391057E+02  0.20024110605E+01 -0.78841846205E+01  0.18726422463E+02  0.00000000000E+00 0. -1.
         11    1    3    3    0    0  0.82024838988E+01  0.17474288230E+02  0.13768696864E+02  0.23710936397E+02  0.51100000000E-03 0. -1.
        -11    1    3    3    0    0  0.80829573891E+01  0.45982637625E+00  0.16736902715E+02  0.18592190651E+02  0.51100000000E-03 0.  1.
         12    1    3    3    0    0  0.58194976945E+00 -0.19936525667E+02 -0.22621414958E+02  0.30158450489E+02  0.00000000000E+00 0. -1.
</event>
<event>
 7    1  0.2876796E-013  0.7246155E+02  0.7816164E-02  0.1226708E+00
        -11   -1    0    0    0    0  0.00000000000E+00  0.00000000000E+00  0.45593999997E+02  0.45594000000E+02  0.51100000000E-03 0.  1.
         11   -1    0    0    0    0 -0.00000000000E+00 -0.00000000000E+00 -0.45593999997E+02  0.45594000000E+02  0.51100000000E-03 0. -1.
    9900012    2    1    2    0    0 -0.16148855369E+02 -0.85060264062E+00 -0.94430286255E+01  0.72461552281E+02  0.69999976534E+02 0.  0.
         12    1    1    2    0    0  0.16148855369E+02  0.85060264062E+00  0.94430286255E+01  0.18726447719E+02  0.00000000000E+00 0. -1.
         11    1    3    3    0    0 -0.16416865442E+02  0.28518692773E+02 -0.20446823454E+02  0.38741475166E+02  0.51100000000E-03 0. -1.
        -11    1    3    3    0    0 -0.88175368507E+00 -0.87100792498E+01  0.95834545454E+01  0.12980199204E+02  0.51100000000E-03 0.  1.
        -12    1    3    3    0    0  0.11497637586E+01 -0.20659216164E+02  0.14203402830E+01  0.20739877910E+02  0.00000000000E+00 0.  1.
</event>
<event>
 7    1  0.2876796E-013  0.7246158E+02  0.7816164E-02  0.1226708E+00
        -11   -1    0    0    0    0  0.00000000000E+00  0.00000000000E+00  0.45593999997E+02  0.45594000000E+02  0.51100000000E-03 0.  1.
         11   -1    0    0    0    0 -0.00000000000E+00 -0.00000000000E+00 -0.45593999997E+02  0.45594000000E+02  0.51100000000E-03 0. -1.
    9900012    2    1    2    0    0 -0.10964791846E+02  0.86334137645E+01  0.12486645103E+02  0.72461580177E+02  0.70000012874E+02 0.  0.
         12    1    1    2    0    0  0.10964791846E+02 -0.86334137645E+01 -0.12486645103E+02  0.18726419823E+02  0.00000000000E+00 0. -1.
         11    1    3    3    0    0  0.40692048783E+01  0.23056633442E+02 -0.12818544649E+02  0.26692355857E+02  0.51100000000E-03 0. -1.
        -11    1    3    3    0    0  0.36879653417E+01  0.65192114071E+01 -0.65631454656E+00  0.75187734889E+01  0.51100000000E-03 0.  1.
        -12    1    3    3    0    0 -0.18721962066E+02 -0.20942431085E+02  0.25961504299E+02  0.38250450831E+02  0.00000000000E+00 0.  1.
</event>
<event>
 7    1  0.2876796E-013  0.7246159E+02  0.7816164E-02  0.1226708E+00
        -11   -1    0    0    0    0  0.00000000000E+00  0.00000000000E+00  0.45593999997E+02  0.45594000000E+02  0.51100000000E-03 0.  1.
         11   -1    0    0    0    0 -0.00000000000E+00 -0.00000000000E+00 -0.45593999997E+02  0.45594000000E+02  0.51100000000E-03 0. -1.
    9900012    2    1    2    0    0 -0.10206105783E+02 -0.10214199013E+02  0.11924088672E+02  0.72461592245E+02  0.70000028595E+02 0.  0.
         12    1    1    2    0    0  0.10206105783E+02  0.10214199013E+02 -0.11924088672E+02  0.18726407755E+02  0.00000000000E+00 0. -1.
         11    1    3    3    0    0 -0.80354103011E+01  0.25426135735E+02  0.62583170181E+00  0.26672980012E+02  0.51100000000E-03 0. -1.
        -11    1    3    3    0    0 -0.87424393315E+01 -0.60392108481E+01 -0.45687629975E+01  0.11566153584E+02  0.51100000000E-03 0.  1.
        -12    1    3    3    0    0  0.65717438492E+01 -0.29601123900E+02  0.15867019968E+02  0.34222458650E+02  0.00000000000E+00 0.  1.
</event>
<event>
 7    1  0.2876796E-013  0.7246157E+02  0.7816164E-02  0.1226708E+00
        -11   -1    0    0    0    0  0.00000000000E+00  0.00000000000E+00  0.45593999997E+02  0.45594000000E+02  0.51100000000E-03 0.  1.
         11   -1    0    0    0    0 -0.00000000000E+00 -0.00000000000E+00 -0.45593999997E+02  0.45594000000E+02  0.51100000000E-03 0. -1.
    9900012    2    1    2    0    0  0.21536020896E+01 -0.16136919879E+02  0.92542398727E+01  0.72461571063E+02  0.70000001001E+02 0.  0.
         12    1    1    2    0    0 -0.21536020896E+01  0.16136919879E+02 -0.92542398727E+01  0.18726428937E+02  0.00000000000E+00 0. -1.
         11    1    3    3    0    0  0.85974284319E+01  0.16589026232E+02  0.94386816019E+01  0.20933233807E+02  0.51100000000E-03 0. -1.
        -11    1    3    3    0    0  0.81985983784E+01  0.26911331526E+01 -0.87168179276E+01  0.12265485235E+02  0.51100000000E-03 0.  1.
        -12    1    3    3    0    0 -0.14642424721E+02 -0.35417079263E+02  0.85323761985E+01  0.39262852021E+02  0.00000000000E+00 0.  1.
</event>
<event>
 7    1  0.2876796E-013  0.7246160E+02  0.7816164E-02  0.1226708E+00
        -11   -1    0    0    0    0  0.00000000000E+00  0.00000000000E+00  0.45593999997E+02  0.45594000000E+02  0.51100000000E-03 0.  1.
         11   -1    0    0    0    0 -0.00000000000E+00 -0.00000000000E+00 -0.45593999997E+02  0.45594000000E+02  0.51100000000E-03 0. -1.
    9900012    2    1    2    0    0  0.21245009600E+01  0.15308597565E+01  0.18542414136E+02  0.72461597304E+02  0.70000035185E+02 0.  0.
         12    1    1    2    0    0 -0.21245009600E+01 -0.15308597565E+01 -0.18542414136E+02  0.18726402696E+02  0.00000000000E+00 0. -1.
         11    1    3    3    0    0  0.29893436601E+01 -0.21993552187E+01  0.27972724256E+02  0.28217842608E+02  0.51100000000E-03 0. -1.
        -11    1    3    3    0    0 -0.92057128758E+01 -0.13061970858E+02  0.86720712091E+01  0.18181448005E+02  0.51100000000E-03 0.  1.
         12    1    3    3    0    0  0.83408701757E+01  0.16792185833E+02 -0.18102381328E+02  0.26062306692E+02  0.00000000000E+00 0. -1.
</event>
<event>
 7    1  0.2876796E-013  0.7246159E+02  0.7816164E-02  0.1226708E+00
        -11   -1    0    0    0    0  0.00000000000E+00  0.00000000000E+00  0.45593999997E+02  0.45594000000E+02  0.51100000000E-03 0. -1.
         11   -1    0    0    0    0 -0.00000000000E+00 -0.00000000000E+00 -0.45593999997E+02  0.45594000000E+02  0.51100000000E-03 0.  1.
    9900012    2    1    2    0    0  0.12970912161E+02  0.33698102316E+01 -0.13079693125E+02  0.72461586688E+02  0.70000021356E+02 0.  0.
         12    1    1    2    0    0 -0.12970912161E+02 -0.33698102316E+01  0.13079693125E+02  0.18726413312E+02  0.00000000000E+00 0. -1.
         11    1    3    3    0    0  0.21665303148E+02 -0.41941324729E+01  0.14307018394E+02  0.26299560515E+02  0.51100000000E-03 0. -1.
        -11    1    3    3    0    0 -0.71818235307E+01  0.10068282105E+02  0.52204075365E+01  0.13423917047E+02  0.51100000000E-03 0.  1.
        -12    1    3    3    0    0 -0.15125674569E+01 -0.25043394002E+01 -0.32607119055E+02  0.32738109127E+02  0.00000000000E+00 0.  1.
</event>
<event>
 7    1  0.2876796E-013  0.7246158E+02  0.7816164E-02  0.1226708E+00
        -11   -1    0    0    0    0  0.00000000000E+00  0.00000000000E+00  0.45593999997E+02  0.45594000000E+02  0.51100000000E-03 0.  1.
         11   -1    0    0    0    0 -0.00000000000E+00 -0.00000000000E+00 -0.45593999997E+02  0.45594000000E+02  0.51100000000E-03 0. -1.
    9900012    2    1    2    0    0  0.13618841528E+02 -0.49600937618E+01 -0.11857639500E+02  0.72461575109E+02  0.70000006271E+02 0.  0.
         12    1    1    2    0    0 -0.13618841528E+02  0.49600937618E+01  0.11857639500E+02  0.18726424891E+02  0.00000000000E+00 0. -1.
         11    1    3    3    0    0 -0.11395358911E+02 -0.71537503084E+01 -0.24342460236E+02  0.27813408974E+02  0.51100000000E-03 0. -1.
        -11    1    3    3    0    0 -0.42689357754E+01 -0.60542119025E+01  0.12142365135E+02  0.14223724046E+02  0.51100000000E-03 0.  1.
        -12    1    3    3    0    0  0.29283136215E+02  0.82478684491E+01  0.34245560087E+00  0.30424442088E+02  0.00000000000E+00 0.  1.
</event>
<event>
 7    1  0.2876796E-013  0.7246158E+02  0.7816164E-02  0.1226708E+00
        -11   -1    0    0    0    0  0.00000000000E+00  0.00000000000E+00  0.45593999997E+02  0.45594000000E+02  0.51100000000E-03 0. -1.
         11   -1    0    0    0    0 -0.00000000000E+00 -0.00000000000E+00 -0.45593999997E+02  0.45594000000E+02  0.51100000000E-03 0.  1.
    9900012    2    1    2    0    0  0.12954279602E+02 -0.68683686752E+01 -0.11648652380E+02  0.72461576141E+02  0.70000007617E+02 0.  0.
         12    1    1    2    0    0 -0.12954279602E+02  0.68683686752E+01  0.11648652380E+02  0.18726423859E+02  0.00000000000E+00 0. -1.
         11    1    3    3    0    0  0.44630566142E+01  0.13098463014E+02  0.12976394279E+02  0.18970382611E+02  0.51100000000E-03 0. -1.
        -11    1    3    3    0    0 -0.77025457520E+01  0.90954669018E+01  0.29692775885E+00  0.11922453421E+02  0.51100000000E-03 0.  1.
        -12    1    3    3    0    0  0.16193768740E+02 -0.29062298591E+02 -0.24921974418E+02  0.41568740109E+02  0.00000000000E+00 0.  1.
</event>
<event>
 7    1  0.2876796E-013  0.7246153E+02  0.7816164E-02  0.1226708E+00
        -11   -1    0    0    0    0  0.00000000000E+00  0.00000000000E+00  0.45593999997E+02  0.45594000000E+02  0.51100000000E-03 0.  1.
         11   -1    0    0    0    0 -0.00000000000E+00 -0.00000000000E+00 -0.45593999997E+02  0.45594000000E+02  0.51100000000E-03 0. -1.
    9900012    2    1    2    0    0 -0.14120601328E+02 -0.83157325420E+01  0.90630009876E+01  0.72461527388E+02  0.69999944107E+02 0.  0.
         12    1    1    2    0    0  0.14120601328E+02  0.83157325420E+01 -0.90630009876E+01  0.18726472612E+02  0.00000000000E+00 0. -1.
         11    1    3    3    0    0 -0.12838714936E+02 -0.11028484964E+02 -0.19040899963E+02  0.25475791518E+02  0.51100000000E-03 0. -1.
        -11    1    3    3    0    0  0.12031973165E+02 -0.81710440234E+01  0.61015274518E+00  0.14557012926E+02  0.51100000000E-03 0.  1.
        -12    1    3    3    0    0 -0.13313859558E+02  0.10883796445E+02  0.27493748206E+02  0.32428722944E+02  0.00000000000E+00 0.  1.
</event>
<event>
 7    1  0.2876796E-013  0.7246155E+02  0.7816164E-02  0.1226708E+00
        -11   -1    0    0    0    0  0.00000000000E+00  0.00000000000E+00  0.45593999997E+02  0.45594000000E+02  0.51100000000E-03 0.  1.
         11   -1    0    0    0    0 -0.00000000000E+00 -0.00000000000E+00 -0.45593999997E+02  0.45594000000E+02  0.51100000000E-03 0. -1.
    9900012    2    1    2    0    0  0.11870973533E+02  0.69967087056E+01  0.12680932602E+02  0.72461548201E+02  0.69999971220E+02 0.  0.
         12    1    1    2    0    0 -0.11870973533E+02 -0.69967087056E+01 -0.12680932602E+02  0.18726451799E+02  0.00000000000E+00 0. -1.
         11    1    3    3    0    0 -0.75706019647E+01 -0.15128864125E+02  0.11375919472E+02  0.20386468255E+02  0.51100000000E-03 0. -1.
        -11    1    3    3    0    0  0.14495449164E+02 -0.28049589448E+01  0.16754421027E+02  0.22331512832E+02  0.51100000000E-03 0.  1.
         12    1    3    3    0    0  0.49461263330E+01  0.24930531775E+02 -0.15449407897E+02  0.29743567114E+02  0.00000000000E+00 0. -1.
</event>
<event>
 7    1  0.2876796E-013  0.7246161E+02  0.7816164E-02  0.1226708E+00
        -11   -1    0    0    0    0  0.00000000000E+00  0.00000000000E+00  0.45593999997E+02  0.45594000000E+02  0.51100000000E-03 0.  1.
         11   -1    0    0    0    0 -0.00000000000E+00 -0.00000000000E+00 -0.45593999997E+02  0.45594000000E+02  0.51100000000E-03 0. -1.
    9900012    2    1    2    0    0 -0.11966532967E+02 -0.10110485787E+02  0.10259530972E+02  0.72461606598E+02  0.70000047292E+02 0.  0.
         12    1    1    2    0    0  0.11966532967E+02  0.10110485787E+02 -0.10259530972E+02  0.18726393402E+02  0.00000000000E+00 0. -1.
         11    1    3    3    0    0  0.62556852546E+01  0.13911844267E+02 -0.30033088917E+01  0.15546474631E+02  0.51100000000E-03 0. -1.
        -11    1    3    3    0    0  0.89355482123E+01 -0.44764104065E+01  0.20386996408E+02  0.22704887024E+02  0.51100000000E-03 0.  1.
        -12    1    3    3    0    0 -0.27157766434E+02 -0.19545919647E+02 -0.71241565442E+01  0.34210244942E+02  0.00000000000E+00 0.  1.
</event>
<event>
 7    1  0.2876796E-013  0.7246153E+02  0.7816164E-02  0.1226708E+00
        -11   -1    0    0    0    0  0.00000000000E+00  0.00000000000E+00  0.45593999997E+02  0.45594000000E+02  0.51100000000E-03 0.  1.
         11   -1    0    0    0    0 -0.00000000000E+00 -0.00000000000E+00 -0.45593999997E+02  0.45594000000E+02  0.51100000000E-03 0. -1.
    9900012    2    1    2    0    0  0.12935100561E+02  0.68028396934E+01  0.11708332658E+02  0.72461534555E+02  0.69999953443E+02 0.  0.
         12    1    1    2    0    0 -0.12935100561E+02 -0.68028396934E+01 -0.11708332658E+02  0.18726465445E+02  0.00000000000E+00 0. -1.
         11    1    3    3    0    0  0.24063048810E+02  0.22325302131E+02 -0.70022072932E+01  0.33563080021E+02  0.51100000000E-03 0. -1.
        -11    1    3    3    0    0  0.54473555090E+01 -0.68702209346E+00 -0.42396499835E+01  0.69368806853E+01  0.51100000000E-03 0.  1.
        -12    1    3    3    0    0 -0.16575303758E+02 -0.14835440344E+02  0.22950189934E+02  0.31961573849E+02  0.00000000000E+00 0.  1.
</event>
<event>
 7    1  0.2876796E-013  0.7246162E+02  0.7816164E-02  0.1226708E+00
        -11   -1    0    0    0    0  0.00000000000E+00  0.00000000000E+00  0.45593999997E+02  0.45594000000E+02  0.51100000000E-03 0.  1.
         11   -1    0    0    0    0 -0.00000000000E+00 -0.00000000000E+00 -0.45593999997E+02  0.45594000000E+02  0.51100000000E-03 0. -1.
    9900012    2    1    2    0    0  0.94310415564E+01 -0.36500204562E+01  0.15761034854E+02  0.72461617172E+02  0.70000061067E+02 0.  0.
         12    1    1    2    0    0 -0.94310415564E+01  0.36500204562E+01 -0.15761034854E+02  0.18726382828E+02  0.00000000000E+00 0. -1.
         11    1    3    3    0    0 -0.18748683730E+02  0.11323250522E+02  0.19393367137E+02  0.29254603624E+02  0.51100000000E-03 0. -1.
        -11    1    3    3    0    0  0.46761073711E+01  0.70874399289E+01 -0.67143926505E+01  0.10825010569E+02  0.51100000000E-03 0.  1.
         12    1    3    3    0    0  0.23503617916E+02 -0.22060710907E+02  0.30820603670E+01  0.32382002979E+02  0.00000000000E+00 0. -1.
</event>
<event>
 7    1  0.2876796E-013  0.7246158E+02  0.7816164E-02  0.1226708E+00
        -11   -1    0    0    0    0  0.00000000000E+00  0.00000000000E+00  0.45593999997E+02  0.45594000000E+02  0.51100000000E-03 0.  1.
         11   -1    0    0    0    0 -0.00000000000E+00 -0.00000000000E+00 -0.45593999997E+02  0.45594000000E+02  0.51100000000E-03 0. -1.
    9900012    2    1    2    0    0  0.15809957966E+02  0.44185129778E+01  0.90111529619E+01  0.72461577343E+02  0.70000009183E+02 0.  0.
         12    1    1    2    0    0 -0.15809957966E+02 -0.44185129778E+01 -0.90111529619E+01  0.18726422657E+02  0.00000000000E+00 0. -1.
         11    1    3    3    0    0  0.24608945668E+02  0.16627279990E+02 -0.17679718218E+02  0.34563551370E+02  0.51100000000E-03 0. -1.
        -11    1    3    3    0    0 -0.83292105388E+01 -0.95430322111E+01  0.17224043185E+01  0.12783265971E+02  0.51100000000E-03 0.  1.
        -12    1    3    3    0    0 -0.46977716376E+00 -0.26657348010E+01  0.24968466861E+02  0.25114760003E+02  0.00000000000E+00 0.  1.
</event>
<event>
 7    1  0.2876796E-013  0.7246158E+02  0.7816164E-02  0.1226708E+00
        -11   -1    0    0    0    0  0.00000000000E+00  0.00000000000E+00  0.45593999997E+02  0.45594000000E+02  0.51100000000E-03 0.  1.
         11   -1    0    0    0    0 -0.00000000000E+00 -0.00000000000E+00 -0.45593999997E+02  0.45594000000E+02  0.51100000000E-03 0. -1.
    9900012    2    1    2    0    0  0.17961098356E+02 -0.50084819212E+01 -0.17299862108E+01  0.72461580225E+02  0.70000012936E+02 0.  0.
         12    1    1    2    0    0 -0.17961098356E+02  0.50084819212E+01  0.17299862108E+01  0.18726419775E+02  0.00000000000E+00 0. -1.
         11    1    3    3    0    0  0.13566512670E+02 -0.29420562443E+01 -0.21969760144E+02  0.25988003425E+02  0.51100000000E-03 0. -1.
        -11    1    3    3    0    0  0.11518439159E+01  0.16255483615E+02 -0.31373863307E+01  0.16595501958E+02  0.51100000000E-03 0.  1.
        -12    1    3    3    0    0  0.32427417705E+01 -0.18321909292E+02  0.23377160264E+02  0.29878074843E+02  0.00000000000E+00 0.  1.
</event>
<event>
 7    1  0.2876796E-013  0.7246190E+02  0.7816164E-02  0.1226707E+00
        -11   -1    0    0    0    0  0.00000000000E+00  0.00000000000E+00  0.45593999997E+02  0.45594000000E+02  0.51100000000E-03 0. -1.
         11   -1    0    0    0    0 -0.00000000000E+00 -0.00000000000E+00 -0.45593999997E+02  0.45594000000E+02  0.51100000000E-03 0.  1.
    9900012    2    1    2    0    0 -0.16737497721E+02 -0.15917918809E+01 -0.82455506188E+01  0.72461902265E+02  0.70000432452E+02 0.  0.
         12    1    1    2    0    0  0.16737497721E+02  0.15917918809E+01  0.82455506188E+01  0.18726097735E+02  0.00000000000E+00 0. -1.
         11    1    3    3    0    0 -0.21983367033E+01  0.26930713924E+02  0.96294262278E+01  0.28684872083E+02  0.51100000000E-03 0. -1.
        -11    1    3    3    0    0 -0.14646739636E+02 -0.77589045648E+01 -0.30617192239E+00  0.16577735778E+02  0.51100000000E-03 0.  1.
        -12    1    3    3    0    0  0.10757861806E+00 -0.20763601240E+02 -0.17568804924E+02  0.27199294404E+02  0.00000000000E+00 0.  1.
</event>
<event>
 7    1  0.2876796E-013  0.7246160E+02  0.7816164E-02  0.1226708E+00
        -11   -1    0    0    0    0  0.00000000000E+00  0.00000000000E+00  0.45593999997E+02  0.45594000000E+02  0.51100000000E-03 0. -1.
         11   -1    0    0    0    0 -0.00000000000E+00 -0.00000000000E+00 -0.45593999997E+02  0.45594000000E+02  0.51100000000E-03 0.  1.
    9900012    2    1    2    0    0 -0.87178460955E+01  0.16363352944E+02 -0.26302175936E+01  0.72461596055E+02  0.70000033558E+02 0.  0.
         12    1    1    2    0    0  0.87178460955E+01 -0.16363352944E+02  0.26302175936E+01  0.18726403945E+02  0.00000000000E+00 0. -1.
         11    1    3    3    0    0 -0.41483017213E+01  0.28402798515E+02 -0.34118143641E+01  0.28906190482E+02  0.51100000000E-03 0. -1.
        -11    1    3    3    0    0  0.51436121836E+01  0.13820536244E+02 -0.45271871996E+01  0.15425932470E+02  0.51100000000E-03 0.  1.
         12    1    3    3    0    0 -0.97131565578E+01 -0.25859981815E+02  0.53087839702E+01  0.28129473103E+02  0.00000000000E+00 0. -1.
</event>
<event>
 7    1  0.2876796E-013  0.7246153E+02  0.7816164E-02  0.1226708E+00
        -11   -1    0    0    0    0  0.00000000000E+00  0.00000000000E+00  0.45593999997E+02  0.45594000000E+02  0.51100000000E-03 0.  1.
         11   -1    0    0    0    0 -0.00000000000E+00 -0.00000000000E+00 -0.45593999997E+02  0.45594000000E+02  0.51100000000E-03 0. -1.
    9900012    2    1    2    0    0 -0.15233909241E+02 -0.44353953459E+01  0.99466568196E+01  0.72461529309E+02  0.69999946609E+02 0.  0.
         12    1    1    2    0    0  0.15233909241E+02  0.44353953459E+01 -0.99466568196E+01  0.18726470691E+02  0.00000000000E+00 0. -1.
         11    1    3    3    0    0 -0.81829625639E+01 -0.16982879966E+02 -0.24227501716E+02  0.30697734899E+02  0.51100000000E-03 0. -1.
        -11    1    3    3    0    0 -0.23565741983E+01 -0.35635911595E+01  0.71425655852E+00  0.43316032362E+01  0.51100000000E-03 0.  1.
        -12    1    3    3    0    0 -0.46943724789E+01  0.16111075780E+02  0.33459901977E+02  0.37432191174E+02  0.00000000000E+00 0.  1.
</event>
<event>
 7    1  0.2876796E-013  0.7246161E+02  0.7816164E-02  0.1226708E+00
        -11   -1    0    0    0    0  0.00000000000E+00  0.00000000000E+00  0.45593999997E+02  0.45594000000E+02  0.51100000000E-03 0.  1.
         11   -1    0    0    0    0 -0.00000000000E+00 -0.00000000000E+00 -0.45593999997E+02  0.45594000000E+02  0.51100000000E-03 0. -1.
    9900012    2    1    2    0    0  0.23213667040E+01  0.18525289128E+02 -0.14500199588E+01  0.72461611172E+02  0.70000053250E+02 0.  0.
         12    1    1    2    0    0 -0.23213667040E+01 -0.18525289128E+02  0.14500199588E+01  0.18726388828E+02  0.00000000000E+00 0. -1.
         11    1    3    3    0    0  0.43452241887E+01  0.26159985799E+02  0.12218410794E+02  0.29197866238E+02  0.51100000000E-03 0. -1.
        -11    1    3    3    0    0  0.81663478903E+01  0.14378178546E+02 -0.31907878394E+01  0.16840498314E+02  0.51100000000E-03 0.  1.
         12    1    3    3    0    0 -0.10190205375E+02 -0.22012875217E+02 -0.10477642913E+02  0.26423246620E+02  0.00000000000E+00 0. -1.
</event>
<event>
 7    1  0.2876796E-013  0.7246157E+02  0.7816164E-02  0.1226708E+00
        -11   -1    0    0    0    0  0.00000000000E+00  0.00000000000E+00  0.45593999997E+02  0.45594000000E+02  0.51100000000E-03 0.  1.
         11   -1    0    0    0    0 -0.00000000000E+00 -0.00000000000E+00 -0.45593999997E+02  0.45594000000E+02  0.51100000000E-03 0. -1.
    9900012    2    1    2    0    0 -0.52542526449E+01 -0.17863616318E+01  0.17885216902E+02  0.72461568349E+02  0.69999997466E+02 0.  0.
         12    1    1    2    0    0  0.52542526449E+01  0.17863616318E+01 -0.17885216902E+02  0.18726431651E+02  0.00000000000E+00 0. -1.
         11    1    3    3    0    0  0.13530599731E+02  0.16502545378E+01  0.49789035585E+01  0.14511717680E+02  0.51100000000E-03 0. -1.
        -11    1    3    3    0    0  0.50935732111E+01 -0.22948780218E+02  0.13498951987E+02  0.27107428992E+02  0.51100000000E-03 0.  1.
         12    1    3    3    0    0 -0.23878425587E+02  0.19512164048E+02 -0.59263864295E+00  0.30842421677E+02  0.00000000000E+00 0. -1.
</event>
<event>
 7    1  0.2876796E-013  0.7246159E+02  0.7816164E-02  0.1226708E+00
        -11   -1    0    0    0    0  0.00000000000E+00  0.00000000000E+00  0.45593999997E+02  0.45594000000E+02  0.51100000000E-03 0. -1.
         11   -1    0    0    0    0 -0.00000000000E+00 -0.00000000000E+00 -0.45593999997E+02  0.45594000000E+02  0.51100000000E-03 0.  1.
    9900012    2    1    2    0    0 -0.14741906988E+02 -0.90140299834E+01 -0.72181647159E+01  0.72461589237E+02  0.70000024677E+02 0.  0.
         12    1    1    2    0    0  0.14741906988E+02  0.90140299834E+01  0.72181647159E+01  0.18726410763E+02  0.00000000000E+00 0. -1.
         11    1    3    3    0    0 -0.14515638310E+01  0.19820767885E+02 -0.13822841949E+02  0.24208280338E+02  0.51100000000E-03 0. -1.
        -11    1    3    3    0    0  0.87436226887E+01  0.28485050517E+01  0.16881581897E+01  0.93495880704E+01  0.51100000000E-03 0.  1.
         12    1    3    3    0    0 -0.22033965846E+02 -0.31683302920E+02  0.49165190438E+01  0.38903720829E+02  0.00000000000E+00 0. -1.
</event>
<event>
 7    1  0.2876796E-013  0.7246160E+02  0.7816164E-02  0.1226708E+00
        -11   -1    0    0    0    0  0.00000000000E+00  0.00000000000E+00  0.45593999997E+02  0.45594000000E+02  0.51100000000E-03 0. -1.
         11   -1    0    0    0    0 -0.00000000000E+00 -0.00000000000E+00 -0.45593999997E+02  0.45594000000E+02  0.51100000000E-03 0.  1.
    9900012    2    1    2    0    0  0.88293408019E+01  0.13099712804E+02 -0.10055758939E+02  0.72461600923E+02  0.70000039900E+02 0.  0.
         12    1    1    2    0    0 -0.88293408019E+01 -0.13099712804E+02  0.10055758939E+02  0.18726399077E+02  0.00000000000E+00 0. -1.
         11    1    3    3    0    0  0.18978010259E+01 -0.22129977605E+01  0.11813310995E+02  0.12167716497E+02  0.51100000000E-03 0. -1.
        -11    1    3    3    0    0 -0.19586081725E+02  0.47328930685E+01  0.53498194261E+01  0.20847912181E+02  0.51100000000E-03 0.  1.
        -12    1    3    3    0    0  0.26517621501E+02  0.10579817496E+02 -0.27218889361E+02  0.39445972245E+02  0.00000000000E+00 0.  1.
</event>
<event>
 7    1  0.2876796E-013  0.7246151E+02  0.7816164E-02  0.1226708E+00
        -11   -1    0    0    0    0  0.00000000000E+00  0.00000000000E+00  0.45593999997E+02  0.45594000000E+02  0.51100000000E-03 0. -1.
         11   -1    0    0    0    0 -0.00000000000E+00 -0.00000000000E+00 -0.45593999997E+02  0.45594000000E+02  0.51100000000E-03 0.  1.
    9900012    2    1    2    0    0 -0.15304045940E+02 -0.79338275511E+01 -0.73158634397E+01  0.72461513421E+02  0.69999925912E+02 0.  0.
         12    1    1    2    0    0  0.15304045940E+02  0.79338275511E+01  0.73158634397E+01  0.18726486579E+02  0.00000000000E+00 0. -1.
         11    1    3    3    0    0 -0.25695175734E+02 -0.20296217964E+02 -0.78087176083E+01  0.33662361631E+02  0.51100000000E-03 0. -1.
        -11    1    3    3    0    0 -0.94023081226E+01 -0.59669622124E+01  0.34567457049E+01  0.11660065489E+02  0.51100000000E-03 0.  1.
         12    1    3    3    0    0  0.19793437917E+02  0.18329352625E+02 -0.29638915363E+01  0.27139086301E+02  0.00000000000E+00 0. -1.
</event>
<event>
 7    1  0.2876796E-013  0.7246156E+02  0.7816164E-02  0.1226708E+00
        -11   -1    0    0    0    0  0.00000000000E+00  0.00000000000E+00  0.45593999997E+02  0.45594000000E+02  0.51100000000E-03 0.  1.
         11   -1    0    0    0    0 -0.00000000000E+00 -0.00000000000E+00 -0.45593999997E+02  0.45594000000E+02  0.51100000000E-03 0. -1.
    9900012    2    1    2    0    0 -0.18001527292E+02 -0.50802146220E+01  0.90330113267E+00  0.72461560979E+02  0.69999987865E+02 0.  0.
         12    1    1    2    0    0  0.18001527292E+02  0.50802146220E+01 -0.90330113267E+00  0.18726439021E+02  0.00000000000E+00 0. -1.
         11    1    3    3    0    0  0.88139585483E+01 -0.21666991178E+02 -0.82294855997E+01  0.24796548258E+02  0.51100000000E-03 0. -1.
        -11    1    3    3    0    0 -0.18610043247E+02 -0.25846234403E+01  0.17037845826E+02  0.25363402348E+02  0.51100000000E-03 0.  1.
        -12    1    3    3    0    0 -0.82054425933E+01  0.19171399997E+02 -0.79050590937E+01  0.22301610374E+02  0.00000000000E+00 0.  1.
</event>
<event>
 7    1  0.2876796E-013  0.7246157E+02  0.7816164E-02  0.1226708E+00
        -11   -1    0    0    0    0  0.00000000000E+00  0.00000000000E+00  0.45593999997E+02  0.45594000000E+02  0.51100000000E-03 0.  1.
         11   -1    0    0    0    0 -0.00000000000E+00 -0.00000000000E+00 -0.45593999997E+02  0.45594000000E+02  0.51100000000E-03 0. -1.
    9900012    2    1    2    0    0  0.68361559325E+01  0.17392122642E+02  0.12083343101E+01  0.72461574027E+02  0.70000004862E+02 0.  0.
         12    1    1    2    0    0 -0.68361559325E+01 -0.17392122642E+02 -0.12083343101E+01  0.18726425973E+02  0.00000000000E+00 0. -1.
         11    1    3    3    0    0  0.79978010916E+01  0.15024583428E+02 -0.11916773954E+02  0.20777690710E+02  0.51100000000E-03 0. -1.
        -11    1    3    3    0    0  0.18583408576E+02 -0.14757548095E+02  0.80523020373E+01  0.25059287069E+02  0.51100000000E-03 0.  1.
         12    1    3    3    0    0 -0.19745053735E+02  0.17125087309E+02  0.50728062272E+01  0.26624596247E+02  0.00000000000E+00 0. -1.
</event>
<event>
 7    1  0.2876796E-013  0.7246167E+02  0.7816164E-02  0.1226708E+00
        -11   -1    0    0    0    0  0.00000000000E+00  0.00000000000E+00  0.45593999997E+02  0.45594000000E+02  0.51100000000E-03 0.  1.
         11   -1    0    0    0    0 -0.00000000000E+00 -0.00000000000E+00 -0.45593999997E+02  0.45594000000E+02  0.51100000000E-03 0. -1.
    9900012    2    1    2    0    0  0.14941834374E+02 -0.87343442688E+01  0.71503920162E+01  0.72461673872E+02  0.70000134929E+02 0.  0.
         12    1    1    2    0    0 -0.14941834374E+02  0.87343442688E+01 -0.71503920162E+01  0.18726326128E+02  0.00000000000E+00 0. -1.
         11    1    3    3    0    0 -0.20102213408E+01 -0.15035661590E+02  0.21023872643E+02  0.25925187183E+02  0.51100000000E-03 0. -1.
        -11    1    3    3    0    0 -0.61967942629E+01  0.10540179986E+02  0.78330037108E+01  0.14520730032E+02  0.51100000000E-03 0.  1.
         12    1    3    3    0    0  0.23148849978E+02 -0.42388626652E+01 -0.21706484338E+02  0.32015756657E+02  0.00000000000E+00 0. -1.
</event>
<event>
 7    1  0.2876796E-013  0.7246159E+02  0.7816164E-02  0.1226708E+00
        -11   -1    0    0    0    0  0.00000000000E+00  0.00000000000E+00  0.45593999997E+02  0.45594000000E+02  0.51100000000E-03 0.  1.
         11   -1    0    0    0    0 -0.00000000000E+00 -0.00000000000E+00 -0.45593999997E+02  0.45594000000E+02  0.51100000000E-03 0. -1.
    9900012    2    1    2    0    0  0.53037746639E+00 -0.13837094043E+02  0.12606814885E+02  0.72461594757E+02  0.70000031867E+02 0.  0.
         12    1    1    2    0    0 -0.53037746639E+00  0.13837094043E+02 -0.12606814885E+02  0.18726405243E+02  0.00000000000E+00 0. -1.
         11    1    3    3    0    0 -0.23884389408E+02 -0.98335478978E+01  0.70279277996E+01  0.26768535468E+02  0.51100000000E-03 0. -1.
        -11    1    3    3    0    0  0.90641203251E+01 -0.19062421372E+02  0.10586788243E+02  0.23613857614E+02  0.51100000000E-03 0.  1.
         12    1    3    3    0    0  0.15350646550E+02  0.15058875227E+02 -0.50079011578E+01  0.22079201675E+02  0.00000000000E+00 0. -1.
</event>
<event>
 7    1  0.2876796E-013  0.7246149E+02  0.7816164E-02  0.1226708E+00
        -11   -1    0    0    0    0  0.00000000000E+00  0.00000000000E+00  0.45593999997E+02  0.45594000000E+02  0.51100000000E-03 0. -1.
         11   -1    0    0    0    0 -0.00000000000E+00 -0.00000000000E+00 -0.45593999997E+02  0.45594000000E+02  0.51100000000E-03 0.  1.
    9900012    2    1    2    0    0 -0.27108824006E+01  0.18292557600E+02 -0.29522253566E+01  0.72461489874E+02  0.69999895237E+02 0.  0.
         12    1    1    2    0    0  0.27108824006E+01 -0.18292557600E+02  0.29522253566E+01  0.18726510126E+02  0.00000000000E+00 0. -1.
         11    1    3    3    0    0 -0.22860662076E+00  0.87202164388E+01 -0.16116973817E+02  0.18326245688E+02  0.51100000000E-03 0.  1.
        -11    1    3    3    0    0 -0.95749518724E+01 -0.89535846972E+01 -0.14849969778E+02  0.19808280717E+02  0.51100000000E-03 0. -1.
        -12    1    3    3    0    0  0.70926760925E+01  0.18525925858E+02  0.28014718238E+02  0.34326963470E+02  0.00000000000E+00 0.  1.
</event>
<event>
 7    1  0.2876796E-013  0.7246159E+02  0.7816164E-02  0.1226708E+00
        -11   -1    0    0    0    0  0.00000000000E+00  0.00000000000E+00  0.45593999997E+02  0.45594000000E+02  0.51100000000E-03 0.  1.
         11   -1    0    0    0    0 -0.00000000000E+00 -0.00000000000E+00 -0.45593999997E+02  0.45594000000E+02  0.51100000000E-03 0. -1.
    9900012    2    1    2    0    0 -0.93050421016E+01 -0.38119619526E+01  0.15797580783E+02  0.72461590279E+02  0.70000026033E+02 0.  0.
         12    1    1    2    0    0  0.93050421016E+01  0.38119619526E+01 -0.15797580783E+02  0.18726409721E+02  0.00000000000E+00 0. -1.
         11    1    3    3    0    0 -0.61560171800E+01  0.85813555862E+01  0.30001059346E+02  0.31805656311E+02  0.51100000000E-03 0. -1.
        -11    1    3    3    0    0  0.48371287715E+00  0.10394407935E+02  0.41186184996E+01  0.11191099726E+02  0.51100000000E-03 0.  1.
         12    1    3    3    0    0 -0.36327377988E+01 -0.22787725474E+02 -0.18322097062E+02  0.29464834242E+02  0.00000000000E+00 0. -1.
</event>
<event>
 7    1  0.2876796E-013  0.7246164E+02  0.7816164E-02  0.1226708E+00
        -11   -1    0    0    0    0  0.00000000000E+00  0.00000000000E+00  0.45593999997E+02  0.45594000000E+02  0.51100000000E-03 0.  1.
         11   -1    0    0    0    0 -0.00000000000E+00 -0.00000000000E+00 -0.45593999997E+02  0.45594000000E+02  0.51100000000E-03 0. -1.
    9900012    2    1    2    0    0  0.14315198784E+02  0.11680174763E+02  0.30536921876E+01  0.72461643315E+02  0.70000095123E+02 0.  0.
         12    1    1    2    0    0 -0.14315198784E+02 -0.11680174763E+02 -0.30536921876E+01  0.18726356685E+02  0.00000000000E+00 0. -1.
         11    1    3    3    0    0  0.72009632572E+00  0.12001452369E+01 -0.16890201986E+01  0.21935534642E+01  0.51100000000E-03 0. -1.
        -11    1    3    3    0    0 -0.17161565486E+02  0.25297631434E+02 -0.11242401398E+02  0.32571169392E+02  0.51100000000E-03 0.  1.
         12    1    3    3    0    0  0.30756667945E+02 -0.14817601908E+02  0.15985113784E+02  0.37696920459E+02  0.00000000000E+00 0. -1.
</event>
<event>
 7    1  0.2876796E-013  0.7246162E+02  0.7816164E-02  0.1226708E+00
        -11   -1    0    0    0    0  0.00000000000E+00  0.00000000000E+00  0.45593999997E+02  0.45594000000E+02  0.51100000000E-03 0.  1.
         11   -1    0    0    0    0 -0.00000000000E+00 -0.00000000000E+00 -0.45593999997E+02  0.45594000000E+02  0.51100000000E-03 0. -1.
    9900012    2    1    2    0    0 -0.18024432673E+02  0.49216695654E+01  0.12546461879E+01  0.72461624441E+02  0.70000070536E+02 0.  0.
         12    1    1    2    0    0  0.18024432673E+02 -0.49216695654E+01 -0.12546461879E+01  0.18726375559E+02  0.00000000000E+00 0. -1.
         11    1    3    3    0    0  0.26280826821E+00 -0.18677021622E+02  0.49224397171E+01  0.19316589189E+02  0.51100000000E-03 0. -1.
        -11    1    3    3    0    0 -0.21392100353E+02 -0.57328356228E+01  0.43701826665E+01  0.22574008474E+02  0.51100000000E-03 0.  1.
        -12    1    3    3    0    0  0.31048594113E+01  0.29331526810E+02 -0.80379761957E+01  0.30571026779E+02  0.00000000000E+00 0.  1.
</event>
<event>
 7    1  0.2876796E-013  0.7246154E+02  0.7816164E-02  0.1226708E+00
        -11   -1    0    0    0    0  0.00000000000E+00  0.00000000000E+00  0.45593999997E+02  0.45594000000E+02  0.51100000000E-03 0. -1.
         11   -1    0    0    0    0 -0.00000000000E+00 -0.00000000000E+00 -0.45593999997E+02  0.45594000000E+02  0.51100000000E-03 0.  1.
    9900012    2    1    2    0    0 -0.18070850575E+02  0.10969585299E+01  0.47876274557E+01  0.72461539172E+02  0.69999959457E+02 0.  0.
         12    1    1    2    0    0  0.18070850575E+02 -0.10969585299E+01 -0.47876274557E+01  0.18726460828E+02  0.00000000000E+00 0. -1.
         11    1    3    3    0    0 -0.13372166377E+02 -0.21440919163E+02  0.31357692216E+01  0.25462931823E+02  0.51100000000E-03 0. -1.
        -11    1    3    3    0    0 -0.19947492690E+02  0.54329125048E+01  0.95328370466E+01  0.22766070924E+02  0.51100000000E-03 0.  1.
         12    1    3    3    0    0  0.15248808492E+02  0.17104965188E+02 -0.78809788124E+01  0.24232536424E+02  0.00000000000E+00 0. -1.
</event>
<event>
 7    1  0.2876796E-013  0.7246154E+02  0.7816164E-02  0.1226708E+00
        -11   -1    0    0    0    0  0.00000000000E+00  0.00000000000E+00  0.45593999997E+02  0.45594000000E+02  0.51100000000E-03 0.  1.
         11   -1    0    0    0    0 -0.00000000000E+00 -0.00000000000E+00 -0.45593999997E+02  0.45594000000E+02  0.51100000000E-03 0. -1.
    9900012    2    1    2    0    0  0.82524350982E+01 -0.12930428912E+02  0.10741586445E+02  0.72461538608E+02  0.69999958723E+02 0.  0.
         12    1    1    2    0    0 -0.82524350982E+01  0.12930428912E+02 -0.10741586445E+02  0.18726461392E+02  0.00000000000E+00 0. -1.
         11    1    3    3    0    0  0.29571627509E+00 -0.28195770115E+01  0.34355073570E+01  0.44542309886E+01  0.51100000000E-03 0. -1.
        -11    1    3    3    0    0 -0.25583741587E+02 -0.29078625003E+01  0.18740859577E+02  0.31846558932E+02  0.51100000000E-03 0.  1.
         12    1    3    3    0    0  0.33540460410E+02 -0.72029894000E+01 -0.11434780489E+02  0.36160748687E+02  0.00000000000E+00 0. -1.
</event>
<event>
 7    1  0.2876796E-013  0.7246156E+02  0.7816164E-02  0.1226708E+00
        -11   -1    0    0    0    0  0.00000000000E+00  0.00000000000E+00  0.45593999997E+02  0.45594000000E+02  0.51100000000E-03 0.  1.
         11   -1    0    0    0    0 -0.00000000000E+00 -0.00000000000E+00 -0.45593999997E+02  0.45594000000E+02  0.51100000000E-03 0. -1.
    9900012    2    1    2    0    0  0.98725411151E+01  0.12753841880E+02  0.95158725163E+01  0.72461564661E+02  0.69999992661E+02 0.  0.
         12    1    1    2    0    0 -0.98725411151E+01 -0.12753841880E+02 -0.95158725163E+01  0.18726435339E+02  0.00000000000E+00 0. -1.
         11    1    3    3    0    0 -0.29738623367E+00 -0.19948737037E+01  0.75867294803E+01  0.78502499408E+01  0.51100000000E-03 0. -1.
        -11    1    3    3    0    0  0.12128205266E+02 -0.19942970379E+02  0.14708324164E+02  0.27588951240E+02  0.51100000000E-03 0.  1.
         12    1    3    3    0    0 -0.19582779174E+01  0.34691685963E+02 -0.12779181128E+02  0.37022363480E+02  0.00000000000E+00 0. -1.
</event>
<event>
 7    1  0.2876796E-013  0.7246154E+02  0.7816164E-02  0.1226708E+00
        -11   -1    0    0    0    0  0.00000000000E+00  0.00000000000E+00  0.45593999997E+02  0.45594000000E+02  0.51100000000E-03 0. -1.
         11   -1    0    0    0    0 -0.00000000000E+00 -0.00000000000E+00 -0.45593999997E+02  0.45594000000E+02  0.51100000000E-03 0.  1.
    9900012    2    1    2    0    0  0.55282031542E+01  0.95940894957E+01 -0.15102071719E+02  0.72461544020E+02  0.69999965772E+02 0.  0.
         12    1    1    2    0    0 -0.55282031542E+01 -0.95940894957E+01  0.15102071719E+02  0.18726455980E+02  0.00000000000E+00 0. -1.
         11    1    3    3    0    0 -0.20964100221E+02  0.59577811027E+01  0.64775336904E+01  0.22736470631E+02  0.51100000000E-03 0. -1.
        -11    1    3    3    0    0 -0.87967374882E+01  0.26150708559E+01 -0.69418410677E+01  0.11506969353E+02  0.51100000000E-03 0.  1.
        -12    1    3    3    0    0  0.35289040864E+02  0.10212375371E+01 -0.14637764342E+02  0.38218104036E+02  0.00000000000E+00 0.  1.
</event>
<event>
 7    1  0.2876796E-013  0.7246159E+02  0.7816164E-02  0.1226708E+00
        -11   -1    0    0    0    0  0.00000000000E+00  0.00000000000E+00  0.45593999997E+02  0.45594000000E+02  0.51100000000E-03 0.  1.
         11   -1    0    0    0    0 -0.00000000000E+00 -0.00000000000E+00 -0.45593999997E+02  0.45594000000E+02  0.51100000000E-03 0. -1.
    9900012    2    1    2    0    0  0.11621037268E+02 -0.13682238750E+02  0.53316314521E+01  0.72461589283E+02  0.70000024736E+02 0.  0.
         12    1    1    2    0    0 -0.11621037268E+02  0.13682238750E+02 -0.53316314521E+01  0.18726410717E+02  0.00000000000E+00 0. -1.
         11    1    3    3    0    0  0.56856407300E+00 -0.75722109570E+01  0.57347250706E+01  0.95157088952E+01  0.51100000000E-03 0. -1.
        -11    1    3    3    0    0  0.30850074175E+02  0.43311711214E+01  0.16166693850E+02  0.35097693802E+02  0.51100000000E-03 0.  1.
         12    1    3    3    0    0 -0.19797600981E+02 -0.10441198915E+02 -0.16569787468E+02  0.27848186586E+02  0.00000000000E+00 0. -1.
</event>
<event>
 7    1  0.2876796E-013  0.7246156E+02  0.7816164E-02  0.1226708E+00
        -11   -1    0    0    0    0  0.00000000000E+00  0.00000000000E+00  0.45593999997E+02  0.45594000000E+02  0.51100000000E-03 0.  1.
         11   -1    0    0    0    0 -0.00000000000E+00 -0.00000000000E+00 -0.45593999997E+02  0.45594000000E+02  0.51100000000E-03 0. -1.
    9900012    2    1    2    0    0  0.16374284224E+02 -0.60516430567E+01  0.67779008631E+01  0.72461561267E+02  0.69999988240E+02 0.  0.
         12    1    1    2    0    0 -0.16374284224E+02  0.60516430567E+01 -0.67779008631E+01  0.18726438733E+02  0.00000000000E+00 0. -1.
         11    1    3    3    0    0  0.71537555662E+01 -0.79373846946E+01 -0.24012366550E+01  0.10951905415E+02  0.51100000000E-03 0. -1.
        -11    1    3    3    0    0  0.33304063310E+02 -0.68539138651E+01 -0.80806465344E+00  0.34011611796E+02  0.51100000000E-03 0.  1.
         12    1    3    3    0    0 -0.24083534652E+02  0.87396555030E+01  0.99872021715E+01  0.27498044055E+02  0.00000000000E+00 0. -1.
</event>
<event>
 7    1  0.2876796E-013  0.7246156E+02  0.7816164E-02  0.1226708E+00
        -11   -1    0    0    0    0  0.00000000000E+00  0.00000000000E+00  0.45593999997E+02  0.45594000000E+02  0.51100000000E-03 0.  1.
         11   -1    0    0    0    0 -0.00000000000E+00 -0.00000000000E+00 -0.45593999997E+02  0.45594000000E+02  0.51100000000E-03 0. -1.
    9900012    2    1    2    0    0 -0.10144960224E+02 -0.14674075931E+02 -0.56947911397E+01  0.72461564981E+02  0.69999993079E+02 0.  0.
         12    1    1    2    0    0  0.10144960224E+02  0.14674075931E+02  0.56947911397E+01  0.18726435019E+02  0.00000000000E+00 0. -1.
         11    1    3    3    0    0 -0.31622403851E+02 -0.79522542617E+01 -0.20425983377E+02  0.38476428762E+02  0.51100000000E-03 0. -1.
        -11    1    3    3    0    0 -0.41390739990E+01 -0.24363646468E+00  0.13052339363E+01  0.43468296706E+01  0.51100000000E-03 0.  1.
        -12    1    3    3    0    0  0.25616517625E+02 -0.64781852045E+01  0.13425958301E+02  0.29638306549E+02  0.00000000000E+00 0.  1.
</event>
<event>
 7    1  0.2876796E-013  0.7246158E+02  0.7816164E-02  0.1226708E+00
        -11   -1    0    0    0    0  0.00000000000E+00  0.00000000000E+00  0.45593999997E+02  0.45594000000E+02  0.51100000000E-03 0. -1.
         11   -1    0    0    0    0 -0.00000000000E+00 -0.00000000000E+00 -0.45593999997E+02  0.45594000000E+02  0.51100000000E-03 0.  1.
    9900012    2    1    2    0    0  0.11502685979E+02 -0.14163823722E+02 -0.42134424058E+01  0.72461580586E+02  0.70000013407E+02 0.  0.
         12    1    1    2    0    0 -0.11502685979E+02  0.14163823722E+02  0.42134424058E+01  0.18726419414E+02  0.00000000000E+00 0. -1.
         11    1    3    3    0    0  0.13947346352E+02  0.85545777711E+00 -0.41321505483E+01  0.14571717355E+02  0.51100000000E-03 0. -1.
        -11    1    3    3    0    0 -0.11271782562E+02 -0.24246811588E+02 -0.20578224447E+02  0.33740543504E+02  0.51100000000E-03 0.  1.
         12    1    3    3    0    0  0.88271221893E+01  0.92275300887E+01  0.20496932589E+02  0.24149319727E+02  0.00000000000E+00 0. -1.
</event>
<event>
 7    1  0.2876796E-013  0.7246174E+02  0.7816164E-02  0.1226708E+00
        -11   -1    0    0    0    0  0.00000000000E+00  0.00000000000E+00  0.45593999997E+02  0.45594000000E+02  0.51100000000E-03 0.  1.
         11   -1    0    0    0    0 -0.00000000000E+00 -0.00000000000E+00 -0.45593999997E+02  0.45594000000E+02  0.51100000000E-03 0. -1.
    9900012    2    1    2    0    0  0.42320578298E+01 -0.85445304226E+00  0.18221752806E+02  0.72461743599E+02  0.70000225761E+02 0.  0.
         12    1    1    2    0    0 -0.42320578298E+01  0.85445304226E+00 -0.18221752806E+02  0.18726256401E+02  0.00000000000E+00 0. -1.
         11    1    3    3    0    0 -0.41230820151E+00 -0.42755374146E+01 -0.14731614745E+02  0.15345054300E+02  0.51100000000E-03 0. -1.
        -11    1    3    3    0    0  0.10691456077E+02 -0.14503708827E+02 -0.12167791870E+01  0.18059494861E+02  0.51100000000E-03 0.  1.
         12    1    3    3    0    0 -0.60470900455E+01  0.17924793199E+02  0.34170146738E+02  0.39057194438E+02  0.00000000000E+00 0. -1.
</event>
<event>
 7    1  0.2876796E-013  0.7246140E+02  0.7816164E-02  0.1226708E+00
        -11   -1    0    0    0    0  0.00000000000E+00  0.00000000000E+00  0.45593999997E+02  0.45594000000E+02  0.51100000000E-03 0. -1.
         11   -1    0    0    0    0 -0.00000000000E+00 -0.00000000000E+00 -0.45593999997E+02  0.45594000000E+02  0.51100000000E-03 0.  1.
    9900012    2    1    2    0    0  0.16519885151E+02 -0.54483774641E+01 -0.69349989571E+01  0.72461397720E+02  0.69999775190E+02 0.  0.
         12    1    1    2    0    0 -0.16519885151E+02  0.54483774641E+01  0.69349989571E+01  0.18726602280E+02  0.00000000000E+00 0. -1.
         11    1    3    3    0    0  0.26757595276E+02 -0.13602667341E+02 -0.17314958486E+02  0.34652694720E+02  0.51100000000E-03 0. -1.
        -11    1    3    3    0    0  0.66758696986E+01  0.16186891642E+02  0.34684852692E+01  0.17849736345E+02  0.51100000000E-03 0.  1.
        -12    1    3    3    0    0 -0.16913579823E+02 -0.80326017647E+01  0.69114742596E+01  0.19958966656E+02  0.00000000000E+00 0.  1.
</event>
<event>
 7    1  0.2876796E-013  0.7246157E+02  0.7816164E-02  0.1226708E+00
        -11   -1    0    0    0    0  0.00000000000E+00  0.00000000000E+00  0.45593999997E+02  0.45594000000E+02  0.51100000000E-03 0.  1.
         11   -1    0    0    0    0 -0.00000000000E+00 -0.00000000000E+00 -0.45593999997E+02  0.45594000000E+02  0.51100000000E-03 0. -1.
    9900012    2    1    2    0    0 -0.98714108239E+01  0.14183388047E+02  0.72156786725E+01  0.72461567696E+02  0.69999996615E+02 0.  0.
         12    1    1    2    0    0  0.98714108239E+01 -0.14183388047E+02 -0.72156786725E+01  0.18726432304E+02  0.00000000000E+00 0. -1.
         11    1    3    3    0    0  0.63158948794E+01 -0.49451433186E+00 -0.12192803846E+01  0.64514895543E+01  0.51100000000E-03 0. -1.
        -11    1    3    3    0    0  0.97530279569E+01  0.28850656912E+02  0.17458540505E+02  0.35103882911E+02  0.51100000000E-03 0.  1.
         12    1    3    3    0    0 -0.25940333660E+02 -0.14172754533E+02 -0.90235814483E+01  0.30906195230E+02  0.00000000000E+00 0. -1.
</event>
<event>
 7    1  0.2876796E-013  0.7246155E+02  0.7816164E-02  0.1226708E+00
        -11   -1    0    0    0    0  0.00000000000E+00  0.00000000000E+00  0.45593999997E+02  0.45594000000E+02  0.51100000000E-03 0.  1.
         11   -1    0    0    0    0 -0.00000000000E+00 -0.00000000000E+00 -0.45593999997E+02  0.45594000000E+02  0.51100000000E-03 0. -1.
    9900012    2    1    2    0    0  0.14963870870E+02 -0.11130226114E+02 -0.16972131591E+01  0.72461550863E+02  0.69999974687E+02 0.  0.
         12    1    1    2    0    0 -0.14963870870E+02  0.11130226114E+02  0.16972131591E+01  0.18726449137E+02  0.00000000000E+00 0. -1.
         11    1    3    3    0    0  0.50287862436E+01  0.63641669998E+01 -0.72854373740E+01  0.10902701990E+02  0.51100000000E-03 0. -1.
        -11    1    3    3    0    0  0.30005169888E+02 -0.40188771339E+01 -0.11033941490E+02  0.32221257867E+02  0.51100000000E-03 0.  1.
        -12    1    3    3    0    0 -0.20070085262E+02 -0.13475515980E+02  0.16622165705E+02  0.29337591007E+02  0.00000000000E+00 0.  1.
</event>
<event>
 7    1  0.2876796E-013  0.7246154E+02  0.7816164E-02  0.1226708E+00
        -11   -1    0    0    0    0  0.00000000000E+00  0.00000000000E+00  0.45593999997E+02  0.45594000000E+02  0.51100000000E-03 0.  1.
         11   -1    0    0    0    0 -0.00000000000E+00 -0.00000000000E+00 -0.45593999997E+02  0.45594000000E+02  0.51100000000E-03 0. -1.
    9900012    2    1    2    0    0 -0.55650224879E+01  0.14287484459E+02  0.10750741294E+02  0.72461544761E+02  0.69999966737E+02 0.  0.
         12    1    1    2    0    0  0.55650224879E+01 -0.14287484459E+02 -0.10750741294E+02  0.18726455239E+02  0.00000000000E+00 0. -1.
         11    1    3    3    0    0  0.17677957792E+02 -0.50215203619E+01  0.71025799815E+01  0.19702093826E+02  0.51100000000E-03 0. -1.
        -11    1    3    3    0    0 -0.11507373795E+02  0.12819518868E+02  0.23294662880E+02  0.28972418515E+02  0.51100000000E-03 0.  1.
         12    1    3    3    0    0 -0.11735606485E+02  0.64894859537E+01 -0.19646501567E+02  0.23787032420E+02  0.00000000000E+00 0. -1.
</event>
<event>
 7    1  0.2876796E-013  0.7246156E+02  0.7816164E-02  0.1226708E+00
        -11   -1    0    0    0    0  0.00000000000E+00  0.00000000000E+00  0.45593999997E+02  0.45594000000E+02  0.51100000000E-03 0. -1.
         11   -1    0    0    0    0 -0.00000000000E+00 -0.00000000000E+00 -0.45593999997E+02  0.45594000000E+02  0.51100000000E-03 0.  1.
    9900012    2    1    2    0    0  0.90232396319E+00  0.72126584905E+01 -0.17258127194E+02  0.72461559194E+02  0.69999985540E+02 0.  0.
         12    1    1    2    0    0 -0.90232396319E+00 -0.72126584905E+01  0.17258127194E+02  0.18726440806E+02  0.00000000000E+00 0. -1.
         11    1    3    3    0    0  0.13453098306E+02  0.92546579920E+01 -0.13465906528E+02  0.21165188104E+02  0.51100000000E-03 0.  1.
        -11    1    3    3    0    0  0.13940465971E+02  0.95645833643E+01 -0.12574861932E+02  0.21070002356E+02  0.51100000000E-03 0. -1.
        -12    1    3    3    0    0 -0.26491240314E+02 -0.11606582866E+02  0.87826412670E+01  0.30226368734E+02  0.00000000000E+00 0.  1.
</event>
<event>
 7    1  0.2876796E-013  0.7246156E+02  0.7816164E-02  0.1226708E+00
        -11   -1    0    0    0    0  0.00000000000E+00  0.00000000000E+00  0.45593999997E+02  0.45594000000E+02  0.51100000000E-03 0. -1.
         11   -1    0    0    0    0 -0.00000000000E+00 -0.00000000000E+00 -0.45593999997E+02  0.45594000000E+02  0.51100000000E-03 0.  1.
    9900012    2    1    2    0    0 -0.98044841093E+01  0.14509771445E+02 -0.66346112529E+01  0.72461563006E+02  0.69999990505E+02 0.  0.
         12    1    1    2    0    0  0.98044841093E+01 -0.14509771445E+02  0.66346112529E+01  0.18726436994E+02  0.00000000000E+00 0. -1.
         11    1    3    3    0    0  0.30523663940E+01 -0.13746716482E+01  0.14509490499E+02  0.14890667465E+02  0.51100000000E-03 0. -1.
        -11    1    3    3    0    0 -0.11608416550E+02  0.12748237039E+02  0.14034010470E+02  0.22231201779E+02  0.51100000000E-03 0.  1.
        -12    1    3    3    0    0 -0.12484339531E+01  0.31362060543E+01 -0.35178112221E+02  0.35339693762E+02  0.00000000000E+00 0.  1.
</event>
<event>
 7    1  0.2876796E-013  0.7246158E+02  0.7816164E-02  0.1226708E+00
        -11   -1    0    0    0    0  0.00000000000E+00  0.00000000000E+00  0.45593999997E+02  0.45594000000E+02  0.51100000000E-03 0.  1.
         11   -1    0    0    0    0 -0.00000000000E+00 -0.00000000000E+00 -0.45593999997E+02  0.45594000000E+02  0.51100000000E-03 0. -1.
    9900012    2    1    2    0    0 -0.92825283760E+01 -0.53136444512E+01  0.15371354239E+02  0.72461583324E+02  0.70000016973E+02 0.  0.
         12    1    1    2    0    0  0.92825283760E+01  0.53136444512E+01 -0.15371354239E+02  0.18726416676E+02  0.00000000000E+00 0. -1.
         11    1    3    3    0    0  0.26974797869E+01 -0.38629524024E+01  0.11909670142E+02  0.12807772703E+02  0.51100000000E-03 0. -1.
        -11    1    3    3    0    0  0.61190795631E+00 -0.29075003405E+02 -0.14240923121E+00  0.29081790436E+02  0.51100000000E-03 0.  1.
        -12    1    3    3    0    0 -0.12591916119E+02  0.27624311356E+02  0.36040933285E+01  0.30572020184E+02  0.00000000000E+00 0.  1.
</event>
<event>
 7    1  0.2876796E-013  0.7246157E+02  0.7816164E-02  0.1226708E+00
        -11   -1    0    0    0    0  0.00000000000E+00  0.00000000000E+00  0.45593999997E+02  0.45594000000E+02  0.51100000000E-03 0. -1.
         11   -1    0    0    0    0 -0.00000000000E+00 -0.00000000000E+00 -0.45593999997E+02  0.45594000000E+02  0.51100000000E-03 0.  1.
    9900012    2    1    2    0    0 -0.12737080064E+02  0.37455539080E+01 -0.13206701936E+02  0.72461565244E+02  0.69999993421E+02 0.  0.
         12    1    1    2    0    0  0.12737080064E+02 -0.37455539080E+01  0.13206701936E+02  0.18726434756E+02  0.00000000000E+00 0. -1.
         11    1    3    3    0    0 -0.17740657455E+01 -0.11678994826E+02  0.82395845725E+01  0.14402672794E+02  0.51100000000E-03 0. -1.
        -11    1    3    3    0    0  0.15103728498E+02  0.36120049581E+00  0.69896329459E+01  0.16646562687E+02  0.51100000000E-03 0.  1.
        -12    1    3    3    0    0 -0.26066742816E+02  0.15063348238E+02 -0.28435919455E+02  0.41412329763E+02  0.00000000000E+00 0.  1.
</event>
<event>
 7    1  0.2876796E-013  0.7246197E+02  0.7816164E-02  0.1226707E+00
        -11   -1    0    0    0    0  0.00000000000E+00  0.00000000000E+00  0.45593999997E+02  0.45594000000E+02  0.51100000000E-03 0.  1.
         11   -1    0    0    0    0 -0.00000000000E+00 -0.00000000000E+00 -0.45593999997E+02  0.45594000000E+02  0.51100000000E-03 0. -1.
    9900012    2    1    2    0    0 -0.10900541773E+02  0.13284200379E+02  0.74412615545E+01  0.72461970945E+02  0.70000521920E+02 0.  0.
         12    1    1    2    0    0  0.10900541773E+02 -0.13284200379E+02 -0.74412615545E+01  0.18726029055E+02  0.00000000000E+00 0. -1.
         11    1    3    3    0    0 -0.11306562735E+02  0.12899966011E+02  0.11896232965E+02  0.20875053125E+02  0.51100000000E-03 0. -1.
        -11    1    3    3    0    0 -0.20959699979E+02  0.13192590822E+02  0.43907703174E+01  0.25152183603E+02  0.51100000000E-03 0.  1.
        -12    1    3    3    0    0  0.21365720941E+02 -0.12808356453E+02 -0.88457417282E+01  0.26434734216E+02  0.00000000000E+00 0.  1.
</event>
<event>
 7    1  0.2876796E-013  0.7246160E+02  0.7816164E-02  0.1226708E+00
        -11   -1    0    0    0    0  0.00000000000E+00  0.00000000000E+00  0.45593999997E+02  0.45594000000E+02  0.51100000000E-03 0. -1.
         11   -1    0    0    0    0 -0.00000000000E+00 -0.00000000000E+00 -0.45593999997E+02  0.45594000000E+02  0.51100000000E-03 0.  1.
    9900012    2    1    2    0    0 -0.62050785573E+01  0.57819332298E+01 -0.16695634367E+02  0.72461602624E+02  0.70000042115E+02 0.  0.
         12    1    1    2    0    0  0.62050785573E+01 -0.57819332298E+01  0.16695634367E+02  0.18726397376E+02  0.00000000000E+00 0. -1.
         11    1    3    3    0    0 -0.17412927075E+00  0.75037894256E+01 -0.87523603062E+01  0.11530003813E+02  0.51100000000E-03 0. -1.
        -11    1    3    3    0    0 -0.31226970132E+02  0.97562196345E+01 -0.37844393162E+01  0.32933713219E+02  0.51100000000E-03 0.  1.
         12    1    3    3    0    0  0.25196020845E+02 -0.11478075830E+02 -0.41588347443E+01  0.27997885592E+02  0.00000000000E+00 0. -1.
</event>
<event>
 7    1  0.2876796E-013  0.7246154E+02  0.7816164E-02  0.1226708E+00
        -11   -1    0    0    0    0  0.00000000000E+00  0.00000000000E+00  0.45593999997E+02  0.45594000000E+02  0.51100000000E-03 0.  1.
         11   -1    0    0    0    0 -0.00000000000E+00 -0.00000000000E+00 -0.45593999997E+02  0.45594000000E+02  0.51100000000E-03 0. -1.
    9900012    2    1    2    0    0  0.23743440058E+01 -0.10675782371E+02  0.15200998844E+02  0.72461542659E+02  0.69999964000E+02 0.  0.
         12    1    1    2    0    0 -0.23743440058E+01  0.10675782371E+02 -0.15200998844E+02  0.18726457341E+02  0.00000000000E+00 0. -1.
         11    1    3    3    0    0  0.88715127535E+01 -0.29651056501E+01  0.10283421412E+02  0.13901235422E+02  0.51100000000E-03 0. -1.
        -11    1    3    3    0    0 -0.94289203242E+01  0.17299582463E+02  0.20909818406E+02  0.28729785901E+02  0.51100000000E-03 0.  1.
         12    1    3    3    0    0  0.29317515765E+01 -0.25010259185E+02 -0.15992240975E+02  0.29830521336E+02  0.00000000000E+00 0. -1.
</event>
<event>
 7    1  0.2876796E-013  0.7246158E+02  0.7816164E-02  0.1226708E+00
        -11   -1    0    0    0    0  0.00000000000E+00  0.00000000000E+00  0.45593999997E+02  0.45594000000E+02  0.51100000000E-03 0.  1.
         11   -1    0    0    0    0 -0.00000000000E+00 -0.00000000000E+00 -0.45593999997E+02  0.45594000000E+02  0.51100000000E-03 0. -1.
    9900012    2    1    2    0    0 -0.13624097934E+02  0.32208771362E+01  0.12437395701E+02  0.72461577334E+02  0.70000009170E+02 0.  0.
         12    1    1    2    0    0  0.13624097934E+02 -0.32208771362E+01 -0.12437395701E+02  0.18726422666E+02  0.00000000000E+00 0. -1.
         11    1    3    3    0    0  0.65940296458E+01  0.15502698067E+02  0.64298154511E+01  0.18032121376E+02  0.51100000000E-03 0. -1.
        -11    1    3    3    0    0  0.84931983542E+01 -0.72714210669E+01  0.19371385960E+02  0.22366460983E+02  0.51100000000E-03 0.  1.
         12    1    3    3    0    0 -0.28711325934E+02 -0.50103998643E+01 -0.13363805710E+02  0.32062994975E+02  0.00000000000E+00 0. -1.
</event>
<event>
 7    1  0.2876796E-013  0.7246151E+02  0.7816164E-02  0.1226708E+00
        -11   -1    0    0    0    0  0.00000000000E+00  0.00000000000E+00  0.45593999997E+02  0.45594000000E+02  0.51100000000E-03 0. -1.
         11   -1    0    0    0    0 -0.00000000000E+00 -0.00000000000E+00 -0.45593999997E+02  0.45594000000E+02  0.51100000000E-03 0.  1.
    9900012    2    1    2    0    0 -0.15139227361E+01  0.18431607365E+02  0.29437201177E+01  0.72461505393E+02  0.69999915454E+02 0.  0.
         12    1    1    2    0    0  0.15139227361E+01 -0.18431607365E+02 -0.29437201177E+01  0.18726494607E+02  0.00000000000E+00 0. -1.
         11    1    3    3    0    0  0.25420615904E+02  0.13361916167E+02  0.11229257700E+02  0.30835770549E+02  0.51100000000E-03 0. -1.
        -11    1    3    3    0    0  0.47580376790E+01  0.27986164440E+01 -0.81598821774E+01  0.98516421964E+01  0.51100000000E-03 0.  1.
        -12    1    3    3    0    0 -0.31692576320E+02  0.22710747545E+01 -0.12565540489E+00  0.31774092648E+02  0.00000000000E+00 0.  1.
</event>
<event>
 7    1  0.2876796E-013  0.7246156E+02  0.7816164E-02  0.1226708E+00
        -11   -1    0    0    0    0  0.00000000000E+00  0.00000000000E+00  0.45593999997E+02  0.45594000000E+02  0.51100000000E-03 0.  1.
         11   -1    0    0    0    0 -0.00000000000E+00 -0.00000000000E+00 -0.45593999997E+02  0.45594000000E+02  0.51100000000E-03 0. -1.
    9900012    2    1    2    0    0  0.14725885939E+02 -0.10458436349E+02  0.49445850125E+01  0.72461560709E+02  0.69999987514E+02 0.  0.
         12    1    1    2    0    0 -0.14725885939E+02  0.10458436349E+02 -0.49445850125E+01  0.18726439291E+02  0.00000000000E+00 0. -1.
         11    1    3    3    0    0 -0.58593772845E+01 -0.18314801445E+02  0.17714848220E+02  0.26145364826E+02  0.51100000000E-03 0. -1.
        -11    1    3    3    0    0 -0.98472898813E+01  0.33609965947E+01  0.41558963130E+01  0.11204324636E+02  0.51100000000E-03 0.  1.
         12    1    3    3    0    0  0.30432553105E+02  0.44953685013E+01 -0.16926159520E+02  0.35111871248E+02  0.00000000000E+00 0. -1.
</event>
<event>
 7    1  0.2876796E-013  0.7246169E+02  0.7816164E-02  0.1226708E+00
        -11   -1    0    0    0    0  0.00000000000E+00  0.00000000000E+00  0.45593999997E+02  0.45594000000E+02  0.51100000000E-03 0. -1.
         11   -1    0    0    0    0 -0.00000000000E+00 -0.00000000000E+00 -0.45593999997E+02  0.45594000000E+02  0.51100000000E-03 0.  1.
    9900012    2    1    2    0    0 -0.31055257788E+01 -0.11720755339E+02 -0.14270750351E+02  0.72461689321E+02  0.70000155054E+02 0.  0.
         12    1    1    2    0    0  0.31055257788E+01  0.11720755339E+02  0.14270750351E+02  0.18726310679E+02  0.00000000000E+00 0. -1.
         11    1    3    3    0    0 -0.11958285359E+02  0.28670321808E+00  0.13754336611E+01  0.12040540083E+02  0.51100000000E-03 0. -1.
        -11    1    3    3    0    0 -0.23128103316E+02 -0.12655735943E+02 -0.75811568750E+01  0.27432658549E+02  0.51100000000E-03 0.  1.
         12    1    3    3    0    0  0.31980862897E+02  0.64827738660E+00 -0.80650271369E+01  0.32988490689E+02  0.00000000000E+00 0. -1.
</event>
<event>
 7    1  0.2876796E-013  0.7246152E+02  0.7816164E-02  0.1226708E+00
        -11   -1    0    0    0    0  0.00000000000E+00  0.00000000000E+00  0.45593999997E+02  0.45594000000E+02  0.51100000000E-03 0.  1.
         11   -1    0    0    0    0 -0.00000000000E+00 -0.00000000000E+00 -0.45593999997E+02  0.45594000000E+02  0.51100000000E-03 0. -1.
    9900012    2    1    2    0    0  0.15682314231E+01  0.13130885351E+02  0.13259022672E+02  0.72461516557E+02  0.69999929998E+02 0.  0.
         12    1    1    2    0    0 -0.15682314231E+01 -0.13130885351E+02 -0.13259022672E+02  0.18726483443E+02  0.00000000000E+00 0. -1.
         11    1    3    3    0    0  0.13662823773E+02 -0.17860327887E+02  0.21383316288E+01  0.22588415794E+02  0.51100000000E-03 0. -1.
        -11    1    3    3    0    0  0.85547233933E+01 -0.16907803666E+00  0.90202385710E+01  0.12432883168E+02  0.51100000000E-03 0.  1.
        -12    1    3    3    0    0 -0.20649315744E+02  0.31160291275E+02  0.21004524725E+01  0.37440217595E+02  0.00000000000E+00 0.  1.
</event>
<event>
 7    1  0.2876796E-013  0.7246156E+02  0.7816164E-02  0.1226708E+00
        -11   -1    0    0    0    0  0.00000000000E+00  0.00000000000E+00  0.45593999997E+02  0.45594000000E+02  0.51100000000E-03 0. -1.
         11   -1    0    0    0    0 -0.00000000000E+00 -0.00000000000E+00 -0.45593999997E+02  0.45594000000E+02  0.51100000000E-03 0.  1.
    9900012    2    1    2    0    0 -0.13900736118E+02 -0.67027288422E+01 -0.10607659812E+02  0.72461561865E+02  0.69999989019E+02 0.  0.
         12    1    1    2    0    0  0.13900736118E+02  0.67027288422E+01  0.10607659812E+02  0.18726438135E+02  0.00000000000E+00 0. -1.
         11    1    3    3    0    0 -0.44280394560E+01  0.36723191501E+01 -0.80422607358E+00  0.58086350550E+01  0.51100000000E-03 0. -1.
        -11    1    3    3    0    0  0.11320223326E+02  0.17135280810E+01 -0.31961541507E+02  0.33950313259E+02  0.51100000000E-03 0.  1.
         12    1    3    3    0    0 -0.20792919988E+02 -0.12088576073E+02  0.22158107769E+02  0.32702613550E+02  0.00000000000E+00 0. -1.
</event>
<event>
 7    1  0.2876796E-013  0.7246151E+02  0.7816164E-02  0.1226708E+00
        -11   -1    0    0    0    0  0.00000000000E+00  0.00000000000E+00  0.45593999997E+02  0.45594000000E+02  0.51100000000E-03 0. -1.
         11   -1    0    0    0    0 -0.00000000000E+00 -0.00000000000E+00 -0.45593999997E+02  0.45594000000E+02  0.51100000000E-03 0.  1.
    9900012    2    1    2    0    0 -0.31742572771E+01 -0.89191109995E+01 -0.16157194825E+02  0.72461510876E+02  0.69999922597E+02 0.  0.
         12    1    1    2    0    0  0.31742572771E+01  0.89191109995E+01  0.16157194825E+02  0.18726489124E+02  0.00000000000E+00 0. -1.
         11    1    3    3    0    0  0.50160475250E+01 -0.25110441307E+02  0.15458953697E+02  0.29911105715E+02  0.51100000000E-03 0. -1.
        -11    1    3    3    0    0  0.50764033445E+01 -0.85244458059E+00 -0.12683296282E+01  0.53014331068E+01  0.51100000000E-03 0.  1.
         12    1    3    3    0    0 -0.13266708147E+02  0.17043774888E+02 -0.30347818894E+02  0.37248972055E+02  0.00000000000E+00 0. -1.
</event>
<event>
 7    1  0.2876796E-013  0.7246158E+02  0.7816164E-02  0.1226708E+00
        -11   -1    0    0    0    0  0.00000000000E+00  0.00000000000E+00  0.45593999997E+02  0.45594000000E+02  0.51100000000E-03 0.  1.
         11   -1    0    0    0    0 -0.00000000000E+00 -0.00000000000E+00 -0.45593999997E+02  0.45594000000E+02  0.51100000000E-03 0. -1.
    9900012    2    1    2    0    0  0.16115310417E+02  0.37972796273E+01  0.87496495136E+01  0.72461576716E+02  0.70000008365E+02 0.  0.
         12    1    1    2    0    0 -0.16115310417E+02 -0.37972796273E+01 -0.87496495136E+01  0.18726423284E+02  0.00000000000E+00 0. -1.
         11    1    3    3    0    0  0.14889813136E+02 -0.14546385897E+02 -0.22634821919E+02  0.30751244552E+02  0.51100000000E-03 0. -1.
        -11    1    3    3    0    0 -0.42486413791E+00  0.10719447796E+02  0.15093087487E+01  0.10833516684E+02  0.51100000000E-03 0.  1.
        -12    1    3    3    0    0  0.16503614182E+01  0.76242177283E+01  0.29875162684E+02  0.30876815480E+02  0.00000000000E+00 0.  1.
</event>
<event>
 7    1  0.2876796E-013  0.7246165E+02  0.7816164E-02  0.1226708E+00
        -11   -1    0    0    0    0  0.00000000000E+00  0.00000000000E+00  0.45593999997E+02  0.45594000000E+02  0.51100000000E-03 0. -1.
         11   -1    0    0    0    0 -0.00000000000E+00 -0.00000000000E+00 -0.45593999997E+02  0.45594000000E+02  0.51100000000E-03 0.  1.
    9900012    2    1    2    0    0  0.17539459937E+02 -0.35410950811E+01  0.55230590657E+01  0.72461649830E+02  0.70000103609E+02 0.  0.
         12    1    1    2    0    0 -0.17539459937E+02  0.35410950811E+01 -0.55230590657E+01  0.18726350170E+02  0.00000000000E+00 0. -1.
         11    1    3    3    0    0  0.10072476672E+01 -0.47939554236E+01  0.91090192087E+01  0.10342668305E+02  0.51100000000E-03 0. -1.
        -11    1    3    3    0    0  0.23175807344E+02 -0.32963304497E+01  0.23914074680E+02  0.33464411075E+02  0.51100000000E-03 0.  1.
        -12    1    3    3    0    0 -0.66435950743E+01  0.45491907922E+01 -0.27500034823E+02  0.28654570450E+02  0.00000000000E+00 0.  1.
</event>
<event>
 7    1  0.2876796E-013  0.7246172E+02  0.7816164E-02  0.1226708E+00
        -11   -1    0    0    0    0  0.00000000000E+00  0.00000000000E+00  0.45593999997E+02  0.45594000000E+02  0.51100000000E-03 0.  1.
         11   -1    0    0    0    0 -0.00000000000E+00 -0.00000000000E+00 -0.45593999997E+02  0.45594000000E+02  0.51100000000E-03 0. -1.
    9900012    2    1    2    0    0 -0.15102467737E+02 -0.61950855940E+01  0.91766078373E+01  0.72461715033E+02  0.70000188549E+02 0.  0.
         12    1    1    2    0    0  0.15102467737E+02  0.61950855940E+01 -0.91766078373E+01  0.18726284967E+02  0.00000000000E+00 0. -1.
         11    1    3    3    0    0 -0.22380046361E+02 -0.19712821493E+02 -0.48430282374E+01  0.30214511896E+02  0.51100000000E-03 0. -1.
        -11    1    3    3    0    0  0.54695624446E+01 -0.76268742775E+01 -0.75073087441E+01  0.12018527756E+02  0.51100000000E-03 0.  1.
        -12    1    3    3    0    0  0.18080161796E+01  0.21144610177E+02  0.21526944819E+02  0.30228675381E+02  0.00000000000E+00 0.  1.
</event>
<event>
 7    1  0.2876796E-013  0.7246152E+02  0.7816164E-02  0.1226708E+00
        -11   -1    0    0    0    0  0.00000000000E+00  0.00000000000E+00  0.45593999997E+02  0.45594000000E+02  0.51100000000E-03 0. -1.
         11   -1    0    0    0    0 -0.00000000000E+00 -0.00000000000E+00 -0.45593999997E+02  0.45594000000E+02  0.51100000000E-03 0.  1.
    9900012    2    1    2    0    0  0.76172483597E+01  0.62397338800E+01 -0.15928720355E+02  0.72461524528E+02  0.69999940381E+02 0.  0.
         12    1    1    2    0    0 -0.76172483597E+01 -0.62397338800E+01  0.15928720355E+02  0.18726475472E+02  0.00000000000E+00 0. -1.
         11    1    3    3    0    0 -0.16414374113E+02  0.81803426840E+01  0.98366572159E+01  0.20811283223E+02  0.51100000000E-03 0. -1.
        -11    1    3    3    0    0 -0.14399860394E+01 -0.78909174918E+01 -0.24145230072E+02  0.25442725368E+02  0.51100000000E-03 0.  1.
        -12    1    3    3    0    0  0.25471608512E+02  0.59503086879E+01 -0.16201474983E+01  0.26207515937E+02  0.00000000000E+00 0.  1.
</event>
<event>
 7    1  0.2876796E-013  0.7246157E+02  0.7816164E-02  0.1226708E+00
        -11   -1    0    0    0    0  0.00000000000E+00  0.00000000000E+00  0.45593999997E+02  0.45594000000E+02  0.51100000000E-03 0. -1.
         11   -1    0    0    0    0 -0.00000000000E+00 -0.00000000000E+00 -0.45593999997E+02  0.45594000000E+02  0.51100000000E-03 0.  1.
    9900012    2    1    2    0    0 -0.40849584454E+01  0.15361615785E+02 -0.99001543092E+01  0.72461570005E+02  0.69999999623E+02 0.  0.
         12    1    1    2    0    0  0.40849584454E+01 -0.15361615785E+02  0.99001543092E+01  0.18726429995E+02  0.00000000000E+00 0. -1.
         11    1    3    3    0    0  0.10481458535E+02  0.35373697728E+02  0.48263517793E+01  0.37208240159E+02  0.51100000000E-03 0. -1.
        -11    1    3    3    0    0  0.45886750713E+01 -0.64452503452E+01 -0.78090089690E+00  0.79502828499E+01  0.51100000000E-03 0.  1.
        -12    1    3    3    0    0 -0.19155092051E+02 -0.13566831598E+02 -0.13945605192E+02  0.27303046996E+02  0.00000000000E+00 0.  1.
</event>
<event>
 7    1  0.2876796E-013  0.7246162E+02  0.7816164E-02  0.1226708E+00
        -11   -1    0    0    0    0  0.00000000000E+00  0.00000000000E+00  0.45593999997E+02  0.45594000000E+02  0.51100000000E-03 0.  1.
         11   -1    0    0    0    0 -0.00000000000E+00 -0.00000000000E+00 -0.45593999997E+02  0.45594000000E+02  0.51100000000E-03 0. -1.
    9900012    2    1    2    0    0  0.37031565574E+01  0.18278482626E+02  0.16914958414E+01  0.72461616105E+02  0.70000059677E+02 0.  0.
         12    1    1    2    0    0 -0.37031565574E+01 -0.18278482626E+02 -0.16914958414E+01  0.18726383895E+02  0.00000000000E+00 0. -1.
         11    1    3    3    0    0 -0.25336062870E+02  0.72838450228E+01 -0.17723651301E+01  0.26421804603E+02  0.51100000000E-03 0. -1.
        -11    1    3    3    0    0  0.88664178771E+01 -0.89179786825E+01  0.11002446193E+02  0.16709205015E+02  0.51100000000E-03 0.  1.
        -12    1    3    3    0    0  0.20172801550E+02  0.19912616286E+02 -0.75385852211E+01  0.29330606487E+02  0.00000000000E+00 0.  1.
</event>
<event>
 7    1  0.2876796E-013  0.7246158E+02  0.7816164E-02  0.1226708E+00
        -11   -1    0    0    0    0  0.00000000000E+00  0.00000000000E+00  0.45593999997E+02  0.45594000000E+02  0.51100000000E-03 0. -1.
         11   -1    0    0    0    0 -0.00000000000E+00 -0.00000000000E+00 -0.45593999997E+02  0.45594000000E+02  0.51100000000E-03 0.  1.
    9900012    2    1    2    0    0 -0.15477510123E+02 -0.68250547420E+01 -0.80339373569E+01  0.72461579058E+02  0.70000011417E+02 0.  0.
         12    1    1    2    0    0  0.15477510123E+02  0.68250547420E+01  0.80339373569E+01  0.18726420942E+02  0.00000000000E+00 0. -1.
         11    1    3    3    0    0 -0.11932551228E+02 -0.55373070247E+01 -0.20396605375E+02  0.24270744921E+02  0.51100000000E-03 0. -1.
        -11    1    3    3    0    0  0.12597600072E+02 -0.15915439362E+02 -0.43200740847E+01  0.20752440291E+02  0.51100000000E-03 0.  1.
         12    1    3    3    0    0 -0.16142558967E+02  0.14627691644E+02  0.16682742103E+02  0.27438393847E+02  0.00000000000E+00 0. -1.
</event>
<event>
 7    1  0.2876796E-013  0.7246162E+02  0.7816164E-02  0.1226708E+00
        -11   -1    0    0    0    0  0.00000000000E+00  0.00000000000E+00  0.45593999997E+02  0.45594000000E+02  0.51100000000E-03 0.  1.
         11   -1    0    0    0    0 -0.00000000000E+00 -0.00000000000E+00 -0.45593999997E+02  0.45594000000E+02  0.51100000000E-03 0. -1.
    9900012    2    1    2    0    0 -0.29134092027E+01  0.49528557636E+01  0.17822983421E+02  0.72461615634E+02  0.70000059064E+02 0.  0.
         12    1    1    2    0    0  0.29134092027E+01 -0.49528557636E+01 -0.17822983421E+02  0.18726384366E+02  0.00000000000E+00 0. -1.
         11    1    3    3    0    0  0.71532817115E+01  0.24127279628E+02 -0.35284011044E+01  0.25411506766E+02  0.51100000000E-03 0. -1.
        -11    1    3    3    0    0  0.96385243586E+01  0.41965087614E+01  0.15459840650E+01  0.10625530791E+02  0.51100000000E-03 0.  1.
        -12    1    3    3    0    0 -0.19705215273E+02 -0.23370932626E+02  0.19805400460E+02  0.36424578078E+02  0.00000000000E+00 0.  1.
</event>
<event>
 7    1  0.2876796E-013  0.7246158E+02  0.7816164E-02  0.1226708E+00
        -11   -1    0    0    0    0  0.00000000000E+00  0.00000000000E+00  0.45593999997E+02  0.45594000000E+02  0.51100000000E-03 0. -1.
         11   -1    0    0    0    0 -0.00000000000E+00 -0.00000000000E+00 -0.45593999997E+02  0.45594000000E+02  0.51100000000E-03 0.  1.
    9900012    2    1    2    0    0 -0.34364149673E-01 -0.15509179211E+02 -0.10494907832E+02  0.72461577195E+02  0.70000008989E+02 0.  0.
         12    1    1    2    0    0  0.34364149673E-01  0.15509179211E+02  0.10494907832E+02  0.18726422805E+02  0.00000000000E+00 0. -1.
         11    1    3    3    0    0 -0.25674921504E+02  0.53810970026E+00 -0.31932033127E+01  0.25878324983E+02  0.51100000000E-03 0. -1.
        -11    1    3    3    0    0  0.11482274050E+02 -0.26185674832E+02 -0.43873348084E+01  0.28927165273E+02  0.51100000000E-03 0.  1.
        -12    1    3    3    0    0  0.14158283304E+02  0.10138385921E+02 -0.29143697107E+01  0.17656086939E+02  0.00000000000E+00 0.  1.
</event>
<event>
 7    1  0.2876796E-013  0.7246158E+02  0.7816164E-02  0.1226708E+00
        -11   -1    0    0    0    0  0.00000000000E+00  0.00000000000E+00  0.45593999997E+02  0.45594000000E+02  0.51100000000E-03 0.  1.
         11   -1    0    0    0    0 -0.00000000000E+00 -0.00000000000E+00 -0.45593999997E+02  0.45594000000E+02  0.51100000000E-03 0. -1.
    9900012    2    1    2    0    0  0.15756856336E+02 -0.54046587505E+01  0.85551054050E+01  0.72461583196E+02  0.70000016807E+02 0.  0.
         12    1    1    2    0    0 -0.15756856336E+02  0.54046587505E+01 -0.85551054050E+01  0.18726416804E+02  0.00000000000E+00 0. -1.
         11    1    3    3    0    0  0.69563099874E+01 -0.34382027981E+02  0.65942935663E+01  0.35693119850E+02  0.51100000000E-03 0. -1.
        -11    1    3    3    0    0 -0.61995826768E+01  0.38417925689E+01 -0.94067094429E+00  0.73538464490E+01  0.51100000000E-03 0.  1.
        -12    1    3    3    0    0  0.15000129026E+02  0.25135576661E+02  0.29014827830E+01  0.29414616898E+02  0.00000000000E+00 0.  1.
</event>
<event>
 7    1  0.2876796E-013  0.7246156E+02  0.7816164E-02  0.1226708E+00
        -11   -1    0    0    0    0  0.00000000000E+00  0.00000000000E+00  0.45593999997E+02  0.45594000000E+02  0.51100000000E-03 0.  1.
         11   -1    0    0    0    0 -0.00000000000E+00 -0.00000000000E+00 -0.45593999997E+02  0.45594000000E+02  0.51100000000E-03 0. -1.
    9900012    2    1    2    0    0  0.48227206593E+01  0.12163593399E+02  0.13396560181E+02  0.72461562442E+02  0.69999989770E+02 0.  0.
         12    1    1    2    0    0 -0.48227206593E+01 -0.12163593399E+02 -0.13396560181E+02  0.18726437558E+02  0.00000000000E+00 0. -1.
         11    1    3    3    0    0 -0.70227448152E+01 -0.18454384580E+02 -0.53806859497E+01  0.20465459597E+02  0.51100000000E-03 0. -1.
        -11    1    3    3    0    0 -0.69070869958E+00 -0.48633243066E+00  0.18439502510E+02  0.18458842077E+02  0.51100000000E-03 0.  1.
         12    1    3    3    0    0  0.12536174174E+02  0.31104310411E+02  0.33774362083E+00  0.33537260768E+02  0.00000000000E+00 0. -1.
</event>
<event>
 7    1  0.2876796E-013  0.7246156E+02  0.7816164E-02  0.1226708E+00
        -11   -1    0    0    0    0  0.00000000000E+00  0.00000000000E+00  0.45593999997E+02  0.45594000000E+02  0.51100000000E-03 0.  1.
         11   -1    0    0    0    0 -0.00000000000E+00 -0.00000000000E+00 -0.45593999997E+02  0.45594000000E+02  0.51100000000E-03 0. -1.
    9900012    2    1    2    0    0  0.21448568110E+01  0.17850247376E+02 -0.52390483464E+01  0.72461564949E+02  0.69999993037E+02 0.  0.
         12    1    1    2    0    0 -0.21448568110E+01 -0.17850247376E+02  0.52390483464E+01  0.18726435051E+02  0.00000000000E+00 0. -1.
         11    1    3    3    0    0  0.21525479365E+00  0.99359340535E+01  0.24785145609E+02  0.26703418569E+02  0.51100000000E-03 0. -1.
        -11    1    3    3    0    0  0.45889519633E+01  0.76156745446E+01  0.52877705908E+01  0.10344926146E+02  0.51100000000E-03 0.  1.
         12    1    3    3    0    0 -0.26593499459E+01  0.29863877809E+00 -0.35311964546E+02  0.35413220234E+02  0.00000000000E+00 0. -1.
</event>
<event>
 7    1  0.2876796E-013  0.7246155E+02  0.7816164E-02  0.1226708E+00
        -11   -1    0    0    0    0  0.00000000000E+00  0.00000000000E+00  0.45593999997E+02  0.45594000000E+02  0.51100000000E-03 0.  1.
         11   -1    0    0    0    0 -0.00000000000E+00 -0.00000000000E+00 -0.45593999997E+02  0.45594000000E+02  0.51100000000E-03 0. -1.
    9900012    2    1    2    0    0 -0.55463633290E+01  0.83606434704E+01  0.15811941639E+02  0.72461548019E+02  0.69999970982E+02 0.  0.
         12    1    1    2    0    0  0.55463633290E+01 -0.83606434704E+01 -0.15811941639E+02  0.18726451981E+02  0.00000000000E+00 0. -1.
         11    1    3    3    0    0  0.21831919518E+01 -0.95084076674E+00 -0.28504415989E+00  0.23982651430E+01  0.51100000000E-03 0. -1.
        -11    1    3    3    0    0 -0.10241775443E+02 -0.17932739180E+02  0.32246713058E+02  0.38292657287E+02  0.51100000000E-03 0.  1.
         12    1    3    3    0    0  0.25122201621E+01  0.27244223417E+02 -0.16149727260E+02  0.31770625589E+02  0.00000000000E+00 0. -1.
</event>
<event>
 7    1  0.2876796E-013  0.7246156E+02  0.7816164E-02  0.1226708E+00
        -11   -1    0    0    0    0  0.00000000000E+00  0.00000000000E+00  0.45593999997E+02  0.45594000000E+02  0.51100000000E-03 0.  1.
         11   -1    0    0    0    0 -0.00000000000E+00 -0.00000000000E+00 -0.45593999997E+02  0.45594000000E+02  0.51100000000E-03 0. -1.
    9900012    2    1    2    0    0  0.15409444646E+02 -0.10547267773E+02 -0.14084097293E+01  0.72461562546E+02  0.69999989906E+02 0.  0.
         12    1    1    2    0    0 -0.15409444646E+02  0.10547267773E+02  0.14084097293E+01  0.18726437454E+02  0.00000000000E+00 0. -1.
         11    1    3    3    0    0  0.45550181176E+01  0.69270019883E+01  0.35703653237E+01  0.90265749542E+01  0.51100000000E-03 0. -1.
        -11    1    3    3    0    0  0.72207584513E+01  0.19429717865E+02  0.10518904349E+02  0.23244367874E+02  0.51100000000E-03 0.  1.
         12    1    3    3    0    0  0.36336680771E+01 -0.36903987626E+02 -0.15497679402E+02  0.40190619717E+02  0.00000000000E+00 0. -1.
</event>
<event>
 7    1  0.2876796E-013  0.7246154E+02  0.7816164E-02  0.1226708E+00
        -11   -1    0    0    0    0  0.00000000000E+00  0.00000000000E+00  0.45593999997E+02  0.45594000000E+02  0.51100000000E-03 0.  1.
         11   -1    0    0    0    0 -0.00000000000E+00 -0.00000000000E+00 -0.45593999997E+02  0.45594000000E+02  0.51100000000E-03 0. -1.
    9900012    2    1    2    0    0 -0.45691382106E+01  0.17276590104E+02 -0.55966537958E+01  0.72461544827E+02  0.69999966825E+02 0.  0.
         12    1    1    2    0    0  0.45691382106E+01 -0.17276590104E+02  0.55966537958E+01  0.18726455173E+02  0.00000000000E+00 0. -1.
         11    1    3    3    0    0 -0.17781446537E+02 -0.47584343539E+00 -0.10859358476E+02  0.20840631821E+02  0.51100000000E-03 0. -1.
        -11    1    3    3    0    0 -0.44781809291E+01 -0.83201658253E+01  0.15789910041E+02  0.18401101140E+02  0.51100000000E-03 0.  1.
        -12    1    3    3    0    0  0.17690489256E+02  0.26072599365E+02 -0.10527205361E+02  0.33219811867E+02  0.00000000000E+00 0.  1.
</event>
<event>
 7    1  0.2876796E-013  0.7246149E+02  0.7816164E-02  0.1226708E+00
        -11   -1    0    0    0    0  0.00000000000E+00  0.00000000000E+00  0.45593999997E+02  0.45594000000E+02  0.51100000000E-03 0. -1.
         11   -1    0    0    0    0 -0.00000000000E+00 -0.00000000000E+00 -0.45593999997E+02  0.45594000000E+02  0.51100000000E-03 0.  1.
    9900012    2    1    2    0    0  0.34653074612E+01  0.46003458313E+01 -0.17818825479E+02  0.72461492611E+02  0.69999898803E+02 0.  0.
         12    1    1    2    0    0 -0.34653074612E+01 -0.46003458313E+01  0.17818825479E+02  0.18726507389E+02  0.00000000000E+00 0. -1.
         11    1    3    3    0    0 -0.70099809239E+00 -0.14364665118E+02  0.57816373548E+00  0.14393376110E+02  0.51100000000E-03 0. -1.
        -11    1    3    3    0    0  0.22725010851E+02  0.64459007083E+01 -0.25327708316E+02  0.34633344668E+02  0.51100000000E-03 0.  1.
        -12    1    3    3    0    0 -0.18558705297E+02  0.12519110241E+02  0.69307191022E+01  0.23434771832E+02  0.00000000000E+00 0.  1.
</event>
<event>
 7    1  0.2876796E-013  0.7246145E+02  0.7816164E-02  0.1226708E+00
        -11   -1    0    0    0    0  0.00000000000E+00  0.00000000000E+00  0.45593999997E+02  0.45594000000E+02  0.51100000000E-03 0. -1.
         11   -1    0    0    0    0 -0.00000000000E+00 -0.00000000000E+00 -0.45593999997E+02  0.45594000000E+02  0.51100000000E-03 0.  1.
    9900012    2    1    2    0    0  0.49786161465E+00  0.76864075547E+01 -0.17069125756E+02  0.72461447158E+02  0.69999839592E+02 0.  0.
         12    1    1    2    0    0 -0.49786161465E+00 -0.76864075547E+01  0.17069125756E+02  0.18726552842E+02  0.00000000000E+00 0. -1.
         11    1    3    3    0    0 -0.19673589941E+01  0.22779281470E+02 -0.92673764454E+01  0.24670841740E+02  0.51100000000E-03 0. -1.
        -11    1    3    3    0    0  0.21541237921E+02  0.91644724124E+00 -0.76767590407E+01  0.22886621340E+02  0.51100000000E-03 0.  1.
         12    1    3    3    0    0 -0.19076017312E+02 -0.16009321157E+02 -0.12499026972E+00  0.24903984078E+02  0.00000000000E+00 0. -1.
</event>
<event>
 7    1  0.2876796E-013  0.7246154E+02  0.7816164E-02  0.1226708E+00
        -11   -1    0    0    0    0  0.00000000000E+00  0.00000000000E+00  0.45593999997E+02  0.45594000000E+02  0.51100000000E-03 0. -1.
         11   -1    0    0    0    0 -0.00000000000E+00 -0.00000000000E+00 -0.45593999997E+02  0.45594000000E+02  0.51100000000E-03 0.  1.
    9900012    2    1    2    0    0 -0.38478537104E+01 -0.14881203797E+02 -0.10696912642E+02  0.72461544257E+02  0.69999966081E+02 0.  0.
         12    1    1    2    0    0  0.38478537104E+01  0.14881203797E+02  0.10696912642E+02  0.18726455743E+02  0.00000000000E+00 0. -1.
         11    1    3    3    0    0  0.10429334999E+01  0.11671181246E+02 -0.22761916808E+02  0.25600957775E+02  0.51100000000E-03 0. -1.
        -11    1    3    3    0    0 -0.82731590033E+01  0.55724920648E+01 -0.40449332912E+01  0.10763796417E+02  0.51100000000E-03 0.  1.
         12    1    3    3    0    0  0.33823717931E+01 -0.32124877108E+02  0.16109937458E+02  0.36096790065E+02  0.00000000000E+00 0. -1.
</event>
<event>
 7    1  0.2876796E-013  0.7246157E+02  0.7816164E-02  0.1226708E+00
        -11   -1    0    0    0    0  0.00000000000E+00  0.00000000000E+00  0.45593999997E+02  0.45594000000E+02  0.51100000000E-03 0.  1.
         11   -1    0    0    0    0 -0.00000000000E+00 -0.00000000000E+00 -0.45593999997E+02  0.45594000000E+02  0.51100000000E-03 0. -1.
    9900012    2    1    2    0    0  0.40959757452E+00  0.10249601144E+02  0.15667065113E+02  0.72461574206E+02  0.70000005095E+02 0.  0.
         12    1    1    2    0    0 -0.40959757452E+00 -0.10249601144E+02 -0.15667065113E+02  0.18726425794E+02  0.00000000000E+00 0. -1.
         11    1    3    3    0    0  0.15187428384E+02  0.25643149917E+02  0.11814327537E+02  0.32059436271E+02  0.51100000000E-03 0. -1.
        -11    1    3    3    0    0 -0.47051073482E-01  0.41859966050E+01 -0.10986310819E+02  0.11756862126E+02  0.51100000000E-03 0.  1.
        -12    1    3    3    0    0 -0.14730779736E+02 -0.19579545379E+02  0.14839048395E+02  0.28645275808E+02  0.00000000000E+00 0.  1.
</event>
<event>
 7    1  0.2876796E-013  0.7246156E+02  0.7816164E-02  0.1226708E+00
        -11   -1    0    0    0    0  0.00000000000E+00  0.00000000000E+00  0.45593999997E+02  0.45594000000E+02  0.51100000000E-03 0. -1.
         11   -1    0    0    0    0 -0.00000000000E+00 -0.00000000000E+00 -0.45593999997E+02  0.45594000000E+02  0.51100000000E-03 0.  1.
    9900012    2    1    2    0    0  0.67537845014E+01  0.10319718931E+02 -0.14091466127E+02  0.72461558226E+02  0.69999984279E+02 0.  0.
         12    1    1    2    0    0 -0.67537845014E+01 -0.10319718931E+02  0.14091466127E+02  0.18726441774E+02  0.00000000000E+00 0. -1.
         11    1    3    3    0    0  0.29016856475E+02  0.10516690100E+02 -0.49119942468E+01  0.31252302604E+02  0.51100000000E-03 0. -1.
        -11    1    3    3    0    0 -0.89068854088E+01 -0.11713261346E+02 -0.16505523727E+02  0.22112562330E+02  0.51100000000E-03 0.  1.
         12    1    3    3    0    0 -0.13356186565E+02  0.11516290178E+02  0.73260518470E+01  0.19096693291E+02  0.00000000000E+00 0. -1.
</event>
<event>
 7    1  0.2876796E-013  0.7246155E+02  0.7816164E-02  0.1226708E+00
        -11   -1    0    0    0    0  0.00000000000E+00  0.00000000000E+00  0.45593999997E+02  0.45594000000E+02  0.51100000000E-03 0.  1.
         11   -1    0    0    0    0 -0.00000000000E+00 -0.00000000000E+00 -0.45593999997E+02  0.45594000000E+02  0.51100000000E-03 0. -1.
    9900012    2    1    2    0    0  0.77295860910E+00  0.15119946812E+02  0.11021333810E+02  0.72461546637E+02  0.69999969182E+02 0.  0.
         12    1    1    2    0    0 -0.77295860910E+00 -0.15119946812E+02 -0.11021333810E+02  0.18726453363E+02  0.00000000000E+00 0. -1.
         11    1    3    3    0    0 -0.63313565759E+01  0.34231511836E+02  0.14276212310E+02  0.37625692244E+02  0.51100000000E-03 0. -1.
        -11    1    3    3    0    0 -0.74456775921E+01 -0.33131177577E+01  0.72672583992E+01  0.10919153309E+02  0.51100000000E-03 0.  1.
        -12    1    3    3    0    0  0.14549992777E+02 -0.15798447266E+02 -0.10522136899E+02  0.23916701084E+02  0.00000000000E+00 0.  1.
</event>
<event>
 7    1  0.2876796E-013  0.7246157E+02  0.7816164E-02  0.1226708E+00
        -11   -1    0    0    0    0  0.00000000000E+00  0.00000000000E+00  0.45593999997E+02  0.45594000000E+02  0.51100000000E-03 0.  1.
         11   -1    0    0    0    0 -0.00000000000E+00 -0.00000000000E+00 -0.45593999997E+02  0.45594000000E+02  0.51100000000E-03 0. -1.
    9900012    2    1    2    0    0 -0.69018390917E+01 -0.48088775217E+01  0.16730764730E+02  0.72461570166E+02  0.69999999833E+02 0.  0.
         12    1    1    2    0    0  0.69018390917E+01  0.48088775217E+01 -0.16730764730E+02  0.18726429834E+02  0.00000000000E+00 0. -1.
         11    1    3    3    0    0 -0.10303908849E+01  0.93492484971E+01 -0.12537211212E+02  0.15673283577E+02  0.51100000000E-03 0. -1.
        -11    1    3    3    0    0  0.39863040317E+01 -0.22050457098E+02 -0.25533693931E+01  0.22552892799E+02  0.51100000000E-03 0.  1.
        -12    1    3    3    0    0 -0.98577522385E+01  0.78923310793E+01  0.31821345335E+02  0.34235393791E+02  0.00000000000E+00 0.  1.
</event>
<event>
 7    1  0.2876796E-013  0.7246159E+02  0.7816164E-02  0.1226708E+00
        -11   -1    0    0    0    0  0.00000000000E+00  0.00000000000E+00  0.45593999997E+02  0.45594000000E+02  0.51100000000E-03 0.  1.
         11   -1    0    0    0    0 -0.00000000000E+00 -0.00000000000E+00 -0.45593999997E+02  0.45594000000E+02  0.51100000000E-03 0. -1.
    9900012    2    1    2    0    0  0.10386207807E+01 -0.58257002087E+01  0.17766853635E+02  0.72461585390E+02  0.70000019665E+02 0.  0.
         12    1    1    2    0    0 -0.10386207807E+01  0.58257002087E+01 -0.17766853635E+02  0.18726414610E+02  0.00000000000E+00 0. -1.
         11    1    3    3    0    0 -0.17568541930E+01 -0.93537745155E+01  0.26757981725E+02  0.28400162334E+02  0.51100000000E-03 0.  1.
        -11    1    3    3    0    0  0.64819662863E+01  0.62197263128E+00  0.16710607628E+02  0.17934523814E+02  0.51100000000E-03 0. -1.
         12    1    3    3    0    0 -0.36864913125E+01  0.29061016755E+01 -0.25701735717E+02  0.26126899242E+02  0.00000000000E+00 0. -1.
</event>
<event>
 7    1  0.2876796E-013  0.7246159E+02  0.7816164E-02  0.1226708E+00
        -11   -1    0    0    0    0  0.00000000000E+00  0.00000000000E+00  0.45593999997E+02  0.45594000000E+02  0.51100000000E-03 0.  1.
         11   -1    0    0    0    0 -0.00000000000E+00 -0.00000000000E+00 -0.45593999997E+02  0.45594000000E+02  0.51100000000E-03 0. -1.
    9900012    2    1    2    0    0 -0.56953384451E-01 -0.48701437507E+01  0.18081945813E+02  0.72461593291E+02  0.70000029957E+02 0.  0.
         12    1    1    2    0    0  0.56953384451E-01  0.48701437507E+01 -0.18081945813E+02  0.18726406709E+02  0.00000000000E+00 0. -1.
         11    1    3    3    0    0  0.19491513478E+02  0.50254833483E+01  0.56965019936E+01  0.20919481728E+02  0.51100000000E-03 0. -1.
        -11    1    3    3    0    0  0.78495927715E+00  0.46699892092E+01  0.23643541934E+02  0.24113109209E+02  0.51100000000E-03 0.  1.
         12    1    3    3    0    0 -0.20333426139E+02 -0.14565616308E+02 -0.11258098114E+02  0.27429002354E+02  0.00000000000E+00 0. -1.
</event>
<event>
 7    1  0.2876796E-013  0.7246160E+02  0.7816164E-02  0.1226708E+00
        -11   -1    0    0    0    0  0.00000000000E+00  0.00000000000E+00  0.45593999997E+02  0.45594000000E+02  0.51100000000E-03 0.  1.
         11   -1    0    0    0    0 -0.00000000000E+00 -0.00000000000E+00 -0.45593999997E+02  0.45594000000E+02  0.51100000000E-03 0. -1.
    9900012    2    1    2    0    0 -0.11776483847E+02  0.91209483291E+01 -0.11349046569E+02  0.72461598096E+02  0.70000036217E+02 0.  0.
         12    1    1    2    0    0  0.11776483847E+02 -0.91209483291E+01  0.11349046569E+02  0.18726401904E+02  0.00000000000E+00 0. -1.
         11    1    3    3    0    0 -0.26306321488E+01  0.98714435384E+01 -0.30498084339E+02  0.32163624977E+02  0.51100000000E-03 0. -1.
        -11    1    3    3    0    0 -0.74269386020E+01 -0.33664806239E+01 -0.89023585216E+01  0.12072472667E+02  0.51100000000E-03 0.  1.
         12    1    3    3    0    0 -0.17189130965E+01  0.26159854147E+01  0.28051396291E+02  0.28225500453E+02  0.00000000000E+00 0. -1.
</event>
<event>
 7    1  0.2876796E-013  0.7246156E+02  0.7816164E-02  0.1226708E+00
        -11   -1    0    0    0    0  0.00000000000E+00  0.00000000000E+00  0.45593999997E+02  0.45594000000E+02  0.51100000000E-03 0.  1.
         11   -1    0    0    0    0 -0.00000000000E+00 -0.00000000000E+00 -0.45593999997E+02  0.45594000000E+02  0.51100000000E-03 0. -1.
    9900012    2    1    2    0    0 -0.15043328533E+02 -0.43797225457E+01 -0.10256506385E+02  0.72461558102E+02  0.69999984117E+02 0.  0.
         12    1    1    2    0    0  0.15043328533E+02  0.43797225457E+01  0.10256506385E+02  0.18726441898E+02  0.00000000000E+00 0. -1.
         11    1    3    3    0    0 -0.11131164845E+02 -0.11045926858E+01 -0.16888580544E+02  0.20257026160E+02  0.51100000000E-03 0. -1.
        -11    1    3    3    0    0  0.45360352224E+01 -0.25956509533E+02 -0.21958178282E+01  0.26441210617E+02  0.51100000000E-03 0.  1.
        -12    1    3    3    0    0 -0.84481989107E+01  0.22681379673E+02  0.88278919869E+01  0.25763321324E+02  0.00000000000E+00 0.  1.
</event>
<event>
 7    1  0.2876796E-013  0.7246157E+02  0.7816164E-02  0.1226708E+00
        -11   -1    0    0    0    0  0.00000000000E+00  0.00000000000E+00  0.45593999997E+02  0.45594000000E+02  0.51100000000E-03 0. -1.
         11   -1    0    0    0    0 -0.00000000000E+00 -0.00000000000E+00 -0.45593999997E+02  0.45594000000E+02  0.51100000000E-03 0.  1.
    9900012    2    1    2    0    0 -0.77629969885E+01 -0.16239103974E+02 -0.51678387089E+01  0.72461570094E+02  0.69999999739E+02 0.  0.
         12    1    1    2    0    0  0.77629969885E+01  0.16239103974E+02  0.51678387089E+01  0.18726429906E+02  0.00000000000E+00 0. -1.
         11    1    3    3    0    0 -0.75589375931E+01 -0.18063604124E+02 -0.19269978080E+02  0.27472957375E+02  0.51100000000E-03 0.  1.
        -11    1    3    3    0    0  0.34180508628E+00  0.15277131389E+02 -0.93730339771E+01  0.17926554058E+02  0.51100000000E-03 0. -1.
        -12    1    3    3    0    0 -0.54586448170E+00 -0.13452631238E+02  0.23475173348E+02  0.27062058661E+02  0.00000000000E+00 0.  1.
</event>
<event>
 7    1  0.2876796E-013  0.7246198E+02  0.7816164E-02  0.1226707E+00
        -11   -1    0    0    0    0  0.00000000000E+00  0.00000000000E+00  0.45593999997E+02  0.45594000000E+02  0.51100000000E-03 0.  1.
         11   -1    0    0    0    0 -0.00000000000E+00 -0.00000000000E+00 -0.45593999997E+02  0.45594000000E+02  0.51100000000E-03 0. -1.
    9900012    2    1    2    0    0 -0.55117457424E+01  0.16830464087E+02 -0.60843995947E+01  0.72461981177E+02  0.70000535249E+02 0.  0.
         12    1    1    2    0    0  0.55117457424E+01 -0.16830464087E+02  0.60843995947E+01  0.18726018823E+02  0.00000000000E+00 0. -1.
         11    1    3    3    0    0  0.17045311854E+02 -0.18872220407E+01  0.87050525337E+01  0.19232321833E+02  0.51100000000E-03 0. -1.
        -11    1    3    3    0    0 -0.12396852926E+02 -0.10690546233E+02  0.40411162563E+01  0.16861208796E+02  0.51100000000E-03 0.  1.
        -12    1    3    3    0    0 -0.10160204670E+02  0.29408232361E+02 -0.18830568385E+02  0.36368450547E+02  0.00000000000E+00 0.  1.
</event>
<event>
 7    1  0.2876796E-013  0.7246154E+02  0.7816164E-02  0.1226708E+00
        -11   -1    0    0    0    0  0.00000000000E+00  0.00000000000E+00  0.45593999997E+02  0.45594000000E+02  0.51100000000E-03 0.  1.
         11   -1    0    0    0    0 -0.00000000000E+00 -0.00000000000E+00 -0.45593999997E+02  0.45594000000E+02  0.51100000000E-03 0. -1.
    9900012    2    1    2    0    0 -0.78399797650E+01  0.15487312207E+02  0.70255308818E+01  0.72461542612E+02  0.69999963939E+02 0.  0.
         12    1    1    2    0    0  0.78399797650E+01 -0.15487312207E+02 -0.70255308818E+01  0.18726457388E+02  0.00000000000E+00 0. -1.
         11    1    3    3    0    0  0.52386120036E+00 -0.29240468842E+01 -0.23156790083E+02  0.23346550236E+02  0.51100000000E-03 0. -1.
        -11    1    3    3    0    0  0.35942045412E+01  0.11436920761E+01 -0.61114489626E+01  0.71816534679E+01  0.51100000000E-03 0.  1.
        -12    1    3    3    0    0 -0.11958045507E+02  0.17267667015E+02  0.36293769927E+02  0.41933338908E+02  0.00000000000E+00 0.  1.
</event>
<event>
 7    1  0.2876796E-013  0.7246169E+02  0.7816164E-02  0.1226708E+00
        -11   -1    0    0    0    0  0.00000000000E+00  0.00000000000E+00  0.45593999997E+02  0.45594000000E+02  0.51100000000E-03 0.  1.
         11   -1    0    0    0    0 -0.00000000000E+00 -0.00000000000E+00 -0.45593999997E+02  0.45594000000E+02  0.51100000000E-03 0. -1.
    9900012    2    1    2    0    0  0.98716870400E+00 -0.13145163993E+02  0.13300560483E+02  0.72461688360E+02  0.70000153803E+02 0.  0.
         12    1    1    2    0    0 -0.98716870400E+00  0.13145163993E+02 -0.13300560483E+02  0.18726311640E+02  0.00000000000E+00 0. -1.
         11    1    3    3    0    0 -0.25206807216E+01  0.17154299888E+02  0.13521650855E+02  0.21987698335E+02  0.51100000000E-03 0. -1.
        -11    1    3    3    0    0  0.13850224992E+02  0.39056633579E+01 -0.27473685337E+01  0.14650289168E+02  0.51100000000E-03 0.  1.
        -12    1    3    3    0    0 -0.10342375566E+02 -0.34205127239E+02  0.25262781620E+01  0.35823700858E+02  0.00000000000E+00 0.  1.
</event>
<event>
 7    1  0.2876796E-013  0.7246168E+02  0.7816164E-02  0.1226708E+00
        -11   -1    0    0    0    0  0.00000000000E+00  0.00000000000E+00  0.45593999997E+02  0.45594000000E+02  0.51100000000E-03 0. -1.
         11   -1    0    0    0    0 -0.00000000000E+00 -0.00000000000E+00 -0.45593999997E+02  0.45594000000E+02  0.51100000000E-03 0.  1.
    9900012    2    1    2    0    0  0.17606888742E+02  0.63419186541E+01 -0.67279092815E+00  0.72461678658E+02  0.70000141163E+02 0.  0.
         12    1    1    2    0    0 -0.17606888742E+02 -0.63419186541E+01  0.67279092815E+00  0.18726321342E+02  0.00000000000E+00 0. -1.
         11    1    3    3    0    0 -0.28772953534E+01 -0.70013564076E+01 -0.60876167230E+01  0.97137478722E+01  0.51100000000E-03 0. -1.
        -11    1    3    3    0    0 -0.13945764195E+02  0.68309553591E+01 -0.15499646462E+02  0.21940495227E+02  0.51100000000E-03 0.  1.
        -12    1    3    3    0    0  0.34429948290E+02  0.65123197025E+01  0.20914472256E+02  0.40807435559E+02  0.00000000000E+00 0.  1.
</event>
<event>
 7    1  0.2876796E-013  0.7246169E+02  0.7816164E-02  0.1226708E+00
        -11   -1    0    0    0    0  0.00000000000E+00  0.00000000000E+00  0.45593999997E+02  0.45594000000E+02  0.51100000000E-03 0.  1.
         11   -1    0    0    0    0 -0.00000000000E+00 -0.00000000000E+00 -0.45593999997E+02  0.45594000000E+02  0.51100000000E-03 0. -1.
    9900012    2    1    2    0    0  0.18226536874E+02 -0.39616282470E+01 -0.16654450388E+01  0.72461685574E+02  0.70000150173E+02 0.  0.
         12    1    1    2    0    0 -0.18226536874E+02  0.39616282470E+01  0.16654450388E+01  0.18726314426E+02  0.00000000000E+00 0. -1.
         11    1    3    3    0    0  0.12472726277E+01 -0.12393538326E+02  0.26161975348E+01  0.12727920924E+02  0.51100000000E-03 0. -1.
        -11    1    3    3    0    0 -0.11359863248E+02 -0.11217211452E+02  0.13524493401E+02  0.20923294382E+02  0.51100000000E-03 0.  1.
        -12    1    3    3    0    0  0.28339127495E+02  0.19649121531E+02 -0.17806135975E+02  0.38810470268E+02  0.00000000000E+00 0.  1.
</event>
<event>
 7    1  0.2876796E-013  0.7246153E+02  0.7816164E-02  0.1226708E+00
        -11   -1    0    0    0    0  0.00000000000E+00  0.00000000000E+00  0.45593999997E+02  0.45594000000E+02  0.51100000000E-03 0.  1.
         11   -1    0    0    0    0 -0.00000000000E+00 -0.00000000000E+00 -0.45593999997E+02  0.45594000000E+02  0.51100000000E-03 0. -1.
    9900012    2    1    2    0    0  0.30292510582E+01 -0.17632837964E+02 -0.55305704584E+01  0.72461533536E+02  0.69999952115E+02 0.  0.
         12    1    1    2    0    0 -0.30292510582E+01  0.17632837964E+02  0.55305704584E+01  0.18726466464E+02  0.00000000000E+00 0. -1.
         11    1    3    3    0    0 -0.52798390729E+00 -0.31433175940E+01 -0.39895497426E+01  0.51064390639E+01  0.51100000000E-03 0. -1.
        -11    1    3    3    0    0 -0.28497780026E+02 -0.14586737373E+01 -0.12365452647E+02  0.31099125630E+02  0.51100000000E-03 0.  1.
        -12    1    3    3    0    0  0.32055014992E+02 -0.13030846633E+02  0.10824431931E+02  0.36255968843E+02  0.00000000000E+00 0.  1.
</event>
<event>
 7    1  0.2876796E-013  0.7246159E+02  0.7816164E-02  0.1226708E+00
        -11   -1    0    0    0    0  0.00000000000E+00  0.00000000000E+00  0.45593999997E+02  0.45594000000E+02  0.51100000000E-03 0. -1.
         11   -1    0    0    0    0 -0.00000000000E+00 -0.00000000000E+00 -0.45593999997E+02  0.45594000000E+02  0.51100000000E-03 0.  1.
    9900012    2    1    2    0    0 -0.20733672794E+01  0.20589135632E-01 -0.18611264280E+02  0.72461589936E+02  0.70000025587E+02 0.  0.
         12    1    1    2    0    0  0.20733672794E+01 -0.20589135632E-01  0.18611264280E+02  0.18726410064E+02  0.00000000000E+00 0. -1.
         11    1    3    3    0    0 -0.20349266510E+02 -0.83787410986E+00 -0.40471597201E+01  0.20764734108E+02  0.51100000000E-03 0. -1.
        -11    1    3    3    0    0 -0.60524040035E+01 -0.10137075054E+02  0.99588564207E+01  0.15445734244E+02  0.51100000000E-03 0.  1.
        -12    1    3    3    0    0  0.24328303234E+02  0.10995538300E+02 -0.24522960981E+02  0.36251121583E+02  0.00000000000E+00 0.  1.
</event>
<event>
 7    1  0.2876796E-013  0.7246159E+02  0.7816164E-02  0.1226708E+00
        -11   -1    0    0    0    0  0.00000000000E+00  0.00000000000E+00  0.45593999997E+02  0.45594000000E+02  0.51100000000E-03 0.  1.
         11   -1    0    0    0    0 -0.00000000000E+00 -0.00000000000E+00 -0.45593999997E+02  0.45594000000E+02  0.51100000000E-03 0. -1.
    9900012    2    1    2    0    0  0.14124032446E+02  0.63689723639E+01 -0.10517900837E+02  0.72461592456E+02  0.70000028869E+02 0.  0.
         12    1    1    2    0    0 -0.14124032446E+02 -0.63689723639E+01  0.10517900837E+02  0.18726407544E+02  0.00000000000E+00 0. -1.
         11    1    3    3    0    0  0.40698828271E+01  0.23953086421E+02 -0.11474003772E+02  0.26869444693E+02  0.51100000000E-03 0. -1.
        -11    1    3    3    0    0  0.10229521206E+01 -0.17937264431E+00  0.18950243092E+02  0.18978680647E+02  0.51100000000E-03 0.  1.
        -12    1    3    3    0    0  0.90311974979E+01 -0.17404741413E+02 -0.17994140158E+02  0.26613467115E+02  0.00000000000E+00 0.  1.
</event>
<event>
 7    1  0.2876796E-013  0.7246161E+02  0.7816164E-02  0.1226708E+00
        -11   -1    0    0    0    0  0.00000000000E+00  0.00000000000E+00  0.45593999997E+02  0.45594000000E+02  0.51100000000E-03 0. -1.
         11   -1    0    0    0    0 -0.00000000000E+00 -0.00000000000E+00 -0.45593999997E+02  0.45594000000E+02  0.51100000000E-03 0.  1.
    9900012    2    1    2    0    0  0.10464532779E+01 -0.18260524788E+02 -0.40169665669E+01  0.72461605515E+02  0.70000045882E+02 0.  0.
         12    1    1    2    0    0 -0.10464532779E+01  0.18260524788E+02  0.40169665669E+01  0.18726394485E+02  0.00000000000E+00 0. -1.
         11    1    3    3    0    0  0.11226681066E+02  0.18672449445E+01  0.18175689685E+01  0.11525125971E+02  0.51100000000E-03 0. -1.
        -11    1    3    3    0    0 -0.13772717028E+01 -0.38510545762E+02 -0.10677681346E+02  0.39987146578E+02  0.51100000000E-03 0.  1.
         12    1    3    3    0    0 -0.88029560849E+01  0.18382776030E+02  0.48431458107E+01  0.20949332966E+02  0.00000000000E+00 0. -1.
</event>
<event>
 7    1  0.2876796E-013  0.7246159E+02  0.7816164E-02  0.1226708E+00
        -11   -1    0    0    0    0  0.00000000000E+00  0.00000000000E+00  0.45593999997E+02  0.45594000000E+02  0.51100000000E-03 0. -1.
         11   -1    0    0    0    0 -0.00000000000E+00 -0.00000000000E+00 -0.45593999997E+02  0.45594000000E+02  0.51100000000E-03 0.  1.
    9900012    2    1    2    0    0  0.17948254420E+02  0.44089305003E+01 -0.30165934538E+01  0.72461592418E+02  0.70000028820E+02 0.  0.
         12    1    1    2    0    0 -0.17948254420E+02 -0.44089305003E+01  0.30165934538E+01  0.18726407582E+02  0.00000000000E+00 0. -1.
         11    1    3    3    0    0  0.11302246931E+02  0.12380994759E+02  0.14758696807E+02  0.22334926654E+02  0.51100000000E-03 0. -1.
        -11    1    3    3    0    0  0.15164429727E+02  0.12247098035E+02 -0.20177771324E+02  0.28055191945E+02  0.51100000000E-03 0.  1.
         12    1    3    3    0    0 -0.85184222379E+01 -0.20219162294E+02  0.24024810632E+01  0.22071473819E+02  0.00000000000E+00 0. -1.
</event>
<event>
 7    1  0.2876796E-013  0.7246155E+02  0.7816164E-02  0.1226708E+00
        -11   -1    0    0    0    0  0.00000000000E+00  0.00000000000E+00  0.45593999997E+02  0.45594000000E+02  0.51100000000E-03 0.  1.
         11   -1    0    0    0    0 -0.00000000000E+00 -0.00000000000E+00 -0.45593999997E+02  0.45594000000E+02  0.51100000000E-03 0. -1.
    9900012    2    1    2    0    0 -0.16302962232E+02  0.60374506348E+01  0.69600636982E+01  0.72461551474E+02  0.69999975483E+02 0.  0.
         12    1    1    2    0    0  0.16302962232E+02 -0.60374506348E+01 -0.69600636982E+01  0.18726448526E+02  0.00000000000E+00 0. -1.
         11    1    3    3    0    0  0.14432669989E+02 -0.47273580411E+01  0.83710647030E+01  0.17341412906E+02  0.51100000000E-03 0.  1.
        -11    1    3    3    0    0 -0.12224583790E+02  0.23289887378E+02 -0.13654313819E+02  0.29636119670E+02  0.51100000000E-03 0. -1.
        -12    1    3    3    0    0 -0.18511048431E+02 -0.12525078703E+02  0.12243312814E+02  0.25484018898E+02  0.00000000000E+00 0.  1.
</event>
<event>
 7    1  0.2876796E-013  0.7246156E+02  0.7816164E-02  0.1226708E+00
        -11   -1    0    0    0    0  0.00000000000E+00  0.00000000000E+00  0.45593999997E+02  0.45594000000E+02  0.51100000000E-03 0. -1.
         11   -1    0    0    0    0 -0.00000000000E+00 -0.00000000000E+00 -0.45593999997E+02  0.45594000000E+02  0.51100000000E-03 0.  1.
    9900012    2    1    2    0    0 -0.13683515486E+02  0.12550960700E+02  0.24319799866E+01  0.72461555137E+02  0.69999980255E+02 0.  0.
         12    1    1    2    0    0  0.13683515486E+02 -0.12550960700E+02 -0.24319799866E+01  0.18726444863E+02  0.00000000000E+00 0. -1.
         11    1    3    3    0    0 -0.18375516523E+02 -0.28715472942E+01 -0.16439876010E+02  0.24822870802E+02  0.51100000000E-03 0. -1.
        -11    1    3    3    0    0  0.40868553773E+01 -0.77043006547E+01 -0.82397828424E+01  0.11998027213E+02  0.51100000000E-03 0.  1.
         12    1    3    3    0    0  0.60514565998E+00  0.23126808649E+02  0.27111638839E+02  0.35640657122E+02  0.00000000000E+00 0. -1.
</event>
<event>
 7    1  0.2876796E-013  0.7246149E+02  0.7816164E-02  0.1226708E+00
        -11   -1    0    0    0    0  0.00000000000E+00  0.00000000000E+00  0.45593999997E+02  0.45594000000E+02  0.51100000000E-03 0. -1.
         11   -1    0    0    0    0 -0.00000000000E+00 -0.00000000000E+00 -0.45593999997E+02  0.45594000000E+02  0.51100000000E-03 0.  1.
    9900012    2    1    2    0    0 -0.14266262039E+02  0.38213203262E+01 -0.11513192173E+02  0.72461486293E+02  0.69999890573E+02 0.  0.
         12    1    1    2    0    0  0.14266262039E+02 -0.38213203262E+01  0.11513192173E+02  0.18726513707E+02  0.00000000000E+00 0. -1.
         11    1    3    3    0    0 -0.63094704430E+01 -0.22209812352E+02 -0.55636947353E+01  0.23749523813E+02  0.51100000000E-03 0. -1.
        -11    1    3    3    0    0 -0.61577414164E+01 -0.73096697674E+01 -0.11404581976E+02  0.14879971162E+02  0.51100000000E-03 0.  1.
        -12    1    3    3    0    0 -0.17990501792E+01  0.33340802445E+02  0.54550845387E+01  0.33831991319E+02  0.00000000000E+00 0.  1.
</event>
<event>
 7    1  0.2876796E-013  0.7246151E+02  0.7816164E-02  0.1226708E+00
        -11   -1    0    0    0    0  0.00000000000E+00  0.00000000000E+00  0.45593999997E+02  0.45594000000E+02  0.51100000000E-03 0.  1.
         11   -1    0    0    0    0 -0.00000000000E+00 -0.00000000000E+00 -0.45593999997E+02  0.45594000000E+02  0.51100000000E-03 0. -1.
    9900012    2    1    2    0    0 -0.28015859497E+00  0.18689178359E+02  0.11478501773E+01  0.72461509762E+02  0.69999921146E+02 0.  0.
         12    1    1    2    0    0  0.28015859497E+00 -0.18689178359E+02 -0.11478501773E+01  0.18726490238E+02  0.00000000000E+00 0. -1.
         11    1    3    3    0    0 -0.19144641757E+02  0.11973783636E+02 -0.10046902225E+02  0.24714955941E+02  0.51100000000E-03 0. -1.
        -11    1    3    3    0    0 -0.94868898661E+01 -0.69167927999E+01  0.11289513637E+02  0.16287916392E+02  0.51100000000E-03 0.  1.
        -12    1    3    3    0    0  0.28351373028E+02  0.13632187524E+02 -0.94761234536E-01  0.31458637430E+02  0.00000000000E+00 0.  1.
</event>
<event>
 7    1  0.2876796E-013  0.7246156E+02  0.7816164E-02  0.1226708E+00
        -11   -1    0    0    0    0  0.00000000000E+00  0.00000000000E+00  0.45593999997E+02  0.45594000000E+02  0.51100000000E-03 0. -1.
         11   -1    0    0    0    0 -0.00000000000E+00 -0.00000000000E+00 -0.45593999997E+02  0.45594000000E+02  0.51100000000E-03 0.  1.
    9900012    2    1    2    0    0  0.98246739829E+01  0.48086555707E+01 -0.15199740158E+02  0.72461561788E+02  0.69999988918E+02 0.  0.
         12    1    1    2    0    0 -0.98246739829E+01 -0.48086555707E+01  0.15199740158E+02  0.18726438212E+02  0.00000000000E+00 0. -1.
         11    1    3    3    0    0  0.17476099177E+01  0.90081207565E+01  0.23225992831E+02  0.24972927806E+02  0.51100000000E-03 0. -1.
        -11    1    3    3    0    0  0.38906381287E+01  0.41514088653E+01  0.19745211115E+01  0.60224575130E+01  0.51100000000E-03 0.  1.
        -12    1    3    3    0    0  0.41864259364E+01 -0.83508740512E+01 -0.40400254100E+02  0.41466176468E+02  0.00000000000E+00 0.  1.
</event>
<event>
 7    1  0.2876796E-013  0.7246158E+02  0.7816164E-02  0.1226708E+00
        -11   -1    0    0    0    0  0.00000000000E+00  0.00000000000E+00  0.45593999997E+02  0.45594000000E+02  0.51100000000E-03 0.  1.
         11   -1    0    0    0    0 -0.00000000000E+00 -0.00000000000E+00 -0.45593999997E+02  0.45594000000E+02  0.51100000000E-03 0. -1.
    9900012    2    1    2    0    0 -0.11876726887E+02  0.88101658444E+01  0.11489264648E+02  0.72461578401E+02  0.70000010560E+02 0.  0.
         12    1    1    2    0    0  0.11876726887E+02 -0.88101658444E+01 -0.11489264648E+02  0.18726421599E+02  0.00000000000E+00 0. -1.
         11    1    3    3    0    0 -0.42823242219E+01 -0.10054066264E+02 -0.69054600263E+01  0.12927023154E+02  0.51100000000E-03 0. -1.
        -11    1    3    3    0    0 -0.27984373836E+02  0.27466362074E+01  0.18289122815E+02  0.33543422649E+02  0.51100000000E-03 0.  1.
         12    1    3    3    0    0  0.20389971171E+02  0.16117595901E+02  0.10560185968E+00  0.25991132598E+02  0.00000000000E+00 0. -1.
</event>
<event>
 7    1  0.2876796E-013  0.7246156E+02  0.7816164E-02  0.1226708E+00
        -11   -1    0    0    0    0  0.00000000000E+00  0.00000000000E+00  0.45593999997E+02  0.45594000000E+02  0.51100000000E-03 0.  1.
         11   -1    0    0    0    0 -0.00000000000E+00 -0.00000000000E+00 -0.45593999997E+02  0.45594000000E+02  0.51100000000E-03 0. -1.
    9900012    2    1    2    0    0 -0.88610393693E+01  0.16483441070E+02 -0.67663958964E+00  0.72461556415E+02  0.69999981920E+02 0.  0.
         12    1    1    2    0    0  0.88610393693E+01 -0.16483441070E+02  0.67663958964E+00  0.18726443585E+02  0.00000000000E+00 0. -1.
         11    1    3    3    0    0 -0.29111730468E+02  0.64193758280E+01  0.15911784962E+02  0.33791805779E+02  0.51100000000E-03 0. -1.
        -11    1    3    3    0    0 -0.55738990472E+01  0.54767319959E+01 -0.77136579878E+01  0.10980139514E+02  0.51100000000E-03 0.  1.
        -12    1    3    3    0    0  0.25824590146E+02  0.45873332460E+01 -0.88747665641E+01  0.27689611122E+02  0.00000000000E+00 0.  1.
</event>
<event>
 7    1  0.2876796E-013  0.7246156E+02  0.7816164E-02  0.1226708E+00
        -11   -1    0    0    0    0  0.00000000000E+00  0.00000000000E+00  0.45593999997E+02  0.45594000000E+02  0.51100000000E-03 0.  1.
         11   -1    0    0    0    0 -0.00000000000E+00 -0.00000000000E+00 -0.45593999997E+02  0.45594000000E+02  0.51100000000E-03 0. -1.
    9900012    2    1    2    0    0  0.17043217399E+02  0.68899507000E+01  0.35688628425E+01  0.72461562486E+02  0.69999989829E+02 0.  0.
         12    1    1    2    0    0 -0.17043217399E+02 -0.68899507000E+01 -0.35688628425E+01  0.18726437514E+02  0.00000000000E+00 0. -1.
         11    1    3    3    0    0 -0.95097717010E+01  0.20141406899E+02 -0.73768313480E+01  0.23463368698E+02  0.51100000000E-03 0. -1.
        -11    1    3    3    0    0  0.83144576056E+01  0.12000516188E+02  0.10254316302E+02  0.17840784656E+02  0.51100000000E-03 0.  1.
         12    1    3    3    0    0  0.18238531494E+02 -0.25251972387E+02  0.69137788893E+00  0.31157409133E+02  0.00000000000E+00 0. -1.
</event>
<event>
 7    1  0.2876796E-013  0.7246166E+02  0.7816164E-02  0.1226708E+00
        -11   -1    0    0    0    0  0.00000000000E+00  0.00000000000E+00  0.45593999997E+02  0.45594000000E+02  0.51100000000E-03 0.  1.
         11   -1    0    0    0    0 -0.00000000000E+00 -0.00000000000E+00 -0.45593999997E+02  0.45594000000E+02  0.51100000000E-03 0. -1.
    9900012    2    1    2    0    0  0.11728218972E+02  0.14410985343E+02 -0.23341537421E+01  0.72461657791E+02  0.70000113981E+02 0.  0.
         12    1    1    2    0    0 -0.11728218972E+02 -0.14410985343E+02  0.23341537421E+01  0.18726342209E+02  0.00000000000E+00 0. -1.
         11    1    3    3    0    0 -0.25601055544E+02  0.11102223140E+02  0.10701598234E+02  0.29886411773E+02  0.51100000000E-03 0. -1.
        -11    1    3    3    0    0  0.12009536397E+02  0.17899109420E+01  0.30757307544E+01  0.12525688228E+02  0.51100000000E-03 0.  1.
        -12    1    3    3    0    0  0.25319738120E+02  0.15188512608E+01 -0.16111482731E+02  0.30049557790E+02  0.00000000000E+00 0.  1.
</event>
<event>
 7    1  0.2876796E-013  0.7246158E+02  0.7816164E-02  0.1226708E+00
        -11   -1    0    0    0    0  0.00000000000E+00  0.00000000000E+00  0.45593999997E+02  0.45594000000E+02  0.51100000000E-03 0. -1.
         11   -1    0    0    0    0 -0.00000000000E+00 -0.00000000000E+00 -0.45593999997E+02  0.45594000000E+02  0.51100000000E-03 0.  1.
    9900012    2    1    2    0    0  0.99589650963E+01  0.34201493215E+01 -0.15485488046E+02  0.72461581571E+02  0.70000014690E+02 0.  0.
         12    1    1    2    0    0 -0.99589650963E+01 -0.34201493215E+01  0.15485488046E+02  0.18726418429E+02  0.00000000000E+00 0. -1.
         11    1    3    3    0    0 -0.15287997523E+02 -0.66311477373E+01 -0.13086156669E+02  0.21188262911E+02  0.51100000000E-03 0. -1.
        -11    1    3    3    0    0  0.92794893394E+01  0.35769869301E+01 -0.22618593344E+02  0.24708389729E+02  0.51100000000E-03 0.  1.
         12    1    3    3    0    0  0.15967473280E+02  0.64743101287E+01  0.20219261967E+02  0.26564928930E+02  0.00000000000E+00 0. -1.
</event>
<event>
 7    1  0.2876796E-013  0.7246157E+02  0.7816164E-02  0.1226708E+00
        -11   -1    0    0    0    0  0.00000000000E+00  0.00000000000E+00  0.45593999997E+02  0.45594000000E+02  0.51100000000E-03 0.  1.
         11   -1    0    0    0    0 -0.00000000000E+00 -0.00000000000E+00 -0.45593999997E+02  0.45594000000E+02  0.51100000000E-03 0. -1.
    9900012    2    1    2    0    0  0.13243764591E+02  0.11768969765E+02 -0.60641009787E+01  0.72461567597E+02  0.69999996486E+02 0.  0.
         12    1    1    2    0    0 -0.13243764591E+02 -0.11768969765E+02  0.60641009787E+01  0.18726432403E+02  0.00000000000E+00 0. -1.
         11    1    3    3    0    0 -0.14844802474E+02  0.30534007335E+01  0.13850835551E+02  0.20531367763E+02  0.51100000000E-03 0. -1.
        -11    1    3    3    0    0  0.34659239635E+02  0.12626229198E+02 -0.79559513067E+01  0.37735682282E+02  0.51100000000E-03 0.  1.
         12    1    3    3    0    0 -0.65706725706E+01 -0.39106601667E+01 -0.11958985223E+02  0.14194517552E+02  0.00000000000E+00 0. -1.
</event>
<event>
 7    1  0.2876796E-013  0.7246164E+02  0.7816164E-02  0.1226708E+00
        -11   -1    0    0    0    0  0.00000000000E+00  0.00000000000E+00  0.45593999997E+02  0.45594000000E+02  0.51100000000E-03 0.  1.
         11   -1    0    0    0    0 -0.00000000000E+00 -0.00000000000E+00 -0.45593999997E+02  0.45594000000E+02  0.51100000000E-03 0. -1.
    9900012    2    1    2    0    0  0.12285842800E+01  0.11660168861E+02  0.14601631649E+02  0.72461638795E+02  0.70000089234E+02 0.  0.
         12    1    1    2    0    0 -0.12285842800E+01 -0.11660168861E+02 -0.14601631649E+02  0.18726361205E+02  0.00000000000E+00 0. -1.
         11    1    3    3    0    0  0.73720233711E+01  0.98572683692E+01 -0.93076204310E+01  0.15431923621E+02  0.51100000000E-03 0. -1.
        -11    1    3    3    0    0 -0.22671057613E+02  0.17532001647E+02  0.10246706528E+02  0.30435882277E+02  0.51100000000E-03 0.  1.
         12    1    3    3    0    0  0.16527618522E+02 -0.15729101156E+02  0.13662545552E+02  0.26593832897E+02  0.00000000000E+00 0. -1.
</event>
<event>
 7    1  0.2876796E-013  0.7246156E+02  0.7816164E-02  0.1226708E+00
        -11   -1    0    0    0    0  0.00000000000E+00  0.00000000000E+00  0.45593999997E+02  0.45594000000E+02  0.51100000000E-03 0.  1.
         11   -1    0    0    0    0 -0.00000000000E+00 -0.00000000000E+00 -0.45593999997E+02  0.45594000000E+02  0.51100000000E-03 0. -1.
    9900012    2    1    2    0    0 -0.37924995007E+00  0.40227167217E+01  0.18285330982E+02  0.72461563887E+02  0.69999991654E+02 0.  0.
         12    1    1    2    0    0  0.37924995007E+00 -0.40227167217E+01 -0.18285330982E+02  0.18726436113E+02  0.00000000000E+00 0. -1.
         11    1    3    3    0    0  0.12837211605E+02 -0.37071099662E+01  0.18774430219E+02  0.23043782163E+02  0.51100000000E-03 0. -1.
        -11    1    3    3    0    0  0.19598535904E+01 -0.73580678859E+01  0.19002574584E+02  0.20471444263E+02  0.51100000000E-03 0.  1.
         12    1    3    3    0    0 -0.15176315146E+02  0.15087894574E+02 -0.19491673821E+02  0.28946337461E+02  0.00000000000E+00 0. -1.
</event>
<event>
 7    1  0.2876796E-013  0.7246158E+02  0.7816164E-02  0.1226708E+00
        -11   -1    0    0    0    0  0.00000000000E+00  0.00000000000E+00  0.45593999997E+02  0.45594000000E+02  0.51100000000E-03 0. -1.
         11   -1    0    0    0    0 -0.00000000000E+00 -0.00000000000E+00 -0.45593999997E+02  0.45594000000E+02  0.51100000000E-03 0.  1.
    9900012    2    1    2    0    0 -0.89595088964E+01 -0.68144078815E+01 -0.14965621486E+02  0.72461580670E+02  0.70000013516E+02 0.  0.
         12    1    1    2    0    0  0.89595088964E+01  0.68144078815E+01  0.14965621486E+02  0.18726419330E+02  0.00000000000E+00 0. -1.
         11    1    3    3    0    0  0.69295921441E+01  0.22891992360E+02 -0.25408675216E+01  0.24052412967E+02  0.51100000000E-03 0. -1.
        -11    1    3    3    0    0 -0.11563188127E+02  0.42645316935E+01 -0.53760286453E+01  0.13446011843E+02  0.51100000000E-03 0.  1.
        -12    1    3    3    0    0 -0.43259129133E+01 -0.33970931935E+02 -0.70487253196E+01  0.34963155860E+02  0.00000000000E+00 0.  1.
</event>
<event>
 7    1  0.2876796E-013  0.7246185E+02  0.7816164E-02  0.1226707E+00
        -11   -1    0    0    0    0  0.00000000000E+00  0.00000000000E+00  0.45593999997E+02  0.45594000000E+02  0.51100000000E-03 0. -1.
         11   -1    0    0    0    0 -0.00000000000E+00 -0.00000000000E+00 -0.45593999997E+02  0.45594000000E+02  0.51100000000E-03 0.  1.
    9900012    2    1    2    0    0  0.11966722443E+01  0.91673328824E+01 -0.16284861971E+02  0.72461848605E+02  0.70000362551E+02 0.  0.
         12    1    1    2    0    0 -0.11966722443E+01 -0.91673328824E+01  0.16284861971E+02  0.18726151395E+02  0.00000000000E+00 0. -1.
         11    1    3    3    0    0 -0.57601586460E+01  0.56516116633E+01  0.15215310905E+02  0.17222828694E+02  0.51100000000E-03 0.  1.
        -11    1    3    3    0    0 -0.12368307064E+02  0.33822624161E+01  0.51402697120E+01  0.13814379887E+02  0.51100000000E-03 0. -1.
        -12    1    3    3    0    0  0.19325137954E+02  0.13345880303E+00 -0.36640442588E+02  0.41424640025E+02  0.00000000000E+00 0.  1.
</event>
<event>
 7    1  0.2876796E-013  0.7246160E+02  0.7816164E-02  0.1226708E+00
        -11   -1    0    0    0    0  0.00000000000E+00  0.00000000000E+00  0.45593999997E+02  0.45594000000E+02  0.51100000000E-03 0.  1.
         11   -1    0    0    0    0 -0.00000000000E+00 -0.00000000000E+00 -0.45593999997E+02  0.45594000000E+02  0.51100000000E-03 0. -1.
    9900012    2    1    2    0    0  0.48323575084E+01  0.74744929193E+01  0.16475997610E+02  0.72461595627E+02  0.70000033001E+02 0.  0.
         12    1    1    2    0    0 -0.48323575084E+01 -0.74744929193E+01 -0.16475997610E+02  0.18726404373E+02  0.00000000000E+00 0. -1.
         11    1    3    3    0    0 -0.31810718067E+01  0.43293667685E+01 -0.19298251209E+02  0.20032102597E+02  0.51100000000E-03 0. -1.
        -11    1    3    3    0    0  0.76423531531E+01 -0.16547035406E+02  0.13406272703E+02  0.22626048937E+02  0.51100000000E-03 0.  1.
         12    1    3    3    0    0  0.37107616198E+00  0.19692161557E+02  0.22367976116E+02  0.29803444094E+02  0.00000000000E+00 0. -1.
</event>
<event>
 7    1  0.2876796E-013  0.7246158E+02  0.7816164E-02  0.1226708E+00
        -11   -1    0    0    0    0  0.00000000000E+00  0.00000000000E+00  0.45593999997E+02  0.45594000000E+02  0.51100000000E-03 0.  1.
         11   -1    0    0    0    0 -0.00000000000E+00 -0.00000000000E+00 -0.45593999997E+02  0.45594000000E+02  0.51100000000E-03 0. -1.
    9900012    2    1    2    0    0  0.12870522312E+02 -0.93097839025E+01 -0.99174740831E+01  0.72461582481E+02  0.70000015876E+02 0.  0.
         12    1    1    2    0    0 -0.12870522312E+02  0.93097839025E+01  0.99174740831E+01  0.18726417519E+02  0.00000000000E+00 0. -1.
         11    1    3    3    0    0 -0.17172423461E+02  0.37936469217E+01 -0.17938265769E+02  0.25121012391E+02  0.51100000000E-03 0. -1.
        -11    1    3    3    0    0  0.68756147098E+01  0.11022471394E+02  0.21165983007E+00  0.12992834695E+02  0.51100000000E-03 0.  1.
        -12    1    3    3    0    0  0.23167331063E+02 -0.24125902218E+02  0.78091318555E+01  0.34347735395E+02  0.00000000000E+00 0.  1.
</event>
<event>
 7    1  0.2876796E-013  0.7246161E+02  0.7816164E-02  0.1226708E+00
        -11   -1    0    0    0    0  0.00000000000E+00  0.00000000000E+00  0.45593999997E+02  0.45594000000E+02  0.51100000000E-03 0. -1.
         11   -1    0    0    0    0 -0.00000000000E+00 -0.00000000000E+00 -0.45593999997E+02  0.45594000000E+02  0.51100000000E-03 0.  1.
    9900012    2    1    2    0    0 -0.70569565254E+01 -0.14694485329E+02 -0.92167865318E+01  0.72461609839E+02  0.70000051514E+02 0.  0.
         12    1    1    2    0    0  0.70569565254E+01  0.14694485329E+02  0.92167865318E+01  0.18726390161E+02  0.00000000000E+00 0. -1.
         11    1    3    3    0    0  0.11067153364E+02 -0.83937493329E+00 -0.87929859434E+01  0.14159909460E+02  0.51100000000E-03 0. -1.
        -11    1    3    3    0    0 -0.10865405913E+02  0.17297502850E+02 -0.12684987301E+02  0.24045156551E+02  0.51100000000E-03 0.  1.
         12    1    3    3    0    0 -0.72587039767E+01 -0.31152613245E+02  0.12261186712E+02  0.34256543828E+02  0.00000000000E+00 0. -1.
</event>
