<event>
 7    1  0.1716782E-015  0.9000759E+02  0.7816164E-02  0.1186339E+00
        -11   -1    0    0    0    0  0.00000000000E+00  0.00000000000E+00  0.45593999997E+02  0.45594000000E+02  0.51100000000E-03 0.  1.
         11   -1    0    0    0    0 -0.00000000000E+00 -0.00000000000E+00 -0.45593999997E+02  0.45594000000E+02  0.51100000000E-03 0. -1.
    9900012    2    1    2    0    0 -0.50729970297E+00 -0.22527693371E+00 -0.10417587652E+01  0.90007591592E+02  0.89999851001E+02 0.  0.
        -12    1    1    2    0    0  0.50729970297E+00  0.22527693371E+00  0.10417587652E+01  0.11804084083E+01  0.00000000000E+00 0.  1.
         11    1    3    3    0    0  0.43736260921E+01 -0.13106256416E+01  0.14573087873E+02  0.15271582602E+02  0.51100000000E-03 0. -1.
        -11    1    3    3    0    0 -0.33635333216E+02 -0.17829121172E+02 -0.34201898392E+01  0.38221864176E+02  0.51100000000E-03 0.  1.
         12    1    3    3    0    0  0.28754407421E+02  0.18914469880E+02 -0.12194656799E+02  0.36514144813E+02  0.00000000000E+00 0. -1.
</event>
<event>
 7    1  0.1716782E-015  0.9000788E+02  0.7816164E-02  0.1186339E+00
        -11   -1    0    0    0    0  0.00000000000E+00  0.00000000000E+00  0.45593999997E+02  0.45594000000E+02  0.51100000000E-03 0.  1.
         11   -1    0    0    0    0 -0.00000000000E+00 -0.00000000000E+00 -0.45593999997E+02  0.45594000000E+02  0.51100000000E-03 0. -1.
    9900012    2    1    2    0    0 -0.53330401559E+00  0.51886410544E+00 -0.91600185756E+00  0.90007876051E+02  0.90000139214E+02 0.  0.
        -12    1    1    2    0    0  0.53330401559E+00 -0.51886410544E+00  0.91600185756E+00  0.11801239494E+01  0.00000000000E+00 0.  1.
         11    1    3    3    0    0  0.11098212784E+02 -0.51250119552E+01 -0.33181169700E+02  0.35361364474E+02  0.51100000000E-03 0. -1.
        -11    1    3    3    0    0 -0.17706128900E+01 -0.97930539170E+01 -0.64205393690E+01  0.11843238623E+02  0.51100000000E-03 0.  1.
        -12    1    3    3    0    0 -0.98609039095E+01  0.15436929978E+02  0.38685707212E+02  0.42803272953E+02  0.00000000000E+00 0.  1.
</event>
<event>
 7    1  0.1716782E-015  0.9000772E+02  0.7816164E-02  0.1186339E+00
        -11   -1    0    0    0    0  0.00000000000E+00  0.00000000000E+00  0.45593999997E+02  0.45594000000E+02  0.51100000000E-03 0. -1.
         11   -1    0    0    0    0 -0.00000000000E+00 -0.00000000000E+00 -0.45593999997E+02  0.45594000000E+02  0.51100000000E-03 0.  1.
    9900012    2    1    2    0    0  0.56894852017E+00  0.19021571389E-01  0.10339204053E+01  0.90007722218E+02  0.89999983351E+02 0.  0.
        -12    1    1    2    0    0 -0.56894852017E+00 -0.19021571389E-01 -0.10339204053E+01  0.11802777822E+01  0.00000000000E+00 0.  1.
         11    1    3    3    0    0 -0.19500490654E+02  0.47814469805E-02  0.10432666015E+02  0.22115824178E+02  0.51100000000E-03 0. -1.
        -11    1    3    3    0    0 -0.10556124678E+02  0.96360364392E+01  0.19852390472E+02  0.24462264290E+02  0.51100000000E-03 0.  1.
        -12    1    3    3    0    0  0.30625563852E+02 -0.96217963148E+01 -0.29251136082E+02  0.43429633750E+02  0.00000000000E+00 0.  1.
</event>
<event>
 7    1  0.1716782E-015  0.9000774E+02  0.7816164E-02  0.1186339E+00
        -11   -1    0    0    0    0  0.00000000000E+00  0.00000000000E+00  0.45593999997E+02  0.45594000000E+02  0.51100000000E-03 0. -1.
         11   -1    0    0    0    0 -0.00000000000E+00 -0.00000000000E+00 -0.45593999997E+02  0.45594000000E+02  0.51100000000E-03 0.  1.
    9900012    2    1    2    0    0  0.75909673458E+00 -0.89605169225E+00 -0.11776853489E+00  0.90007743284E+02  0.90000004695E+02 0.  0.
        -12    1    1    2    0    0 -0.75909673458E+00  0.89605169225E+00  0.11776853489E+00  0.11802567159E+01  0.00000000000E+00 0.  1.
         11    1    3    3    0    0  0.28390056003E+02  0.11364119923E+02  0.10403321933E+02  0.32301201355E+02  0.51100000000E-03 0. -1.
        -11    1    3    3    0    0  0.31613875030E+01  0.13812697976E+02 -0.10021259056E+02  0.17355420757E+02  0.51100000000E-03 0.  1.
        -12    1    3    3    0    0 -0.30792346771E+02 -0.26072869592E+02 -0.49983141269E+00  0.40351121172E+02  0.00000000000E+00 0.  1.
</event>
<event>
 7    1  0.1716782E-015  0.9000762E+02  0.7816164E-02  0.1186339E+00
        -11   -1    0    0    0    0  0.00000000000E+00  0.00000000000E+00  0.45593999997E+02  0.45594000000E+02  0.51100000000E-03 0. -1.
         11   -1    0    0    0    0 -0.00000000000E+00 -0.00000000000E+00 -0.45593999997E+02  0.45594000000E+02  0.51100000000E-03 0.  1.
    9900012    2    1    2    0    0 -0.96151533414E-02 -0.57830201811E+00  0.10289667830E+01  0.90007619419E+02  0.89999879195E+02 0.  0.
        -12    1    1    2    0    0  0.96151533414E-02  0.57830201811E+00 -0.10289667830E+01  0.11803805809E+01  0.00000000000E+00 0.  1.
         11    1    3    3    0    0 -0.27712489501E+02  0.11276154262E+02  0.72652525258E+01  0.30788270881E+02  0.51100000000E-03 0. -1.
        -11    1    3    3    0    0  0.29612465442E+01 -0.28025025984E+02 -0.88723543036E+01  0.29544707371E+02  0.51100000000E-03 0.  1.
        -12    1    3    3    0    0  0.24741627804E+02  0.16170569704E+02  0.26360685608E+01  0.29674641167E+02  0.00000000000E+00 0.  1.
</event>
<event>
 7    1  0.1716782E-015  0.9000771E+02  0.7816164E-02  0.1186339E+00
        -11   -1    0    0    0    0  0.00000000000E+00  0.00000000000E+00  0.45593999997E+02  0.45594000000E+02  0.51100000000E-03 0.  1.
         11   -1    0    0    0    0 -0.00000000000E+00 -0.00000000000E+00 -0.45593999997E+02  0.45594000000E+02  0.51100000000E-03 0. -1.
    9900012    2    1    2    0    0  0.91611129063E+00  0.32883366695E+00 -0.66760799407E+00  0.90007706854E+02  0.89999967784E+02 0.  0.
        -12    1    1    2    0    0 -0.91611129063E+00 -0.32883366695E+00  0.66760799407E+00  0.11802931463E+01  0.00000000000E+00 0.  1.
         11    1    3    3    0    0  0.50720506466E+01 -0.71052304181E+01  0.10027653867E+01  0.87872370936E+01  0.51100000000E-03 0. -1.
        -11    1    3    3    0    0 -0.40062765574E+02 -0.89636826013E+01  0.43773728128E+01  0.41286004702E+02  0.51100000000E-03 0.  1.
         12    1    3    3    0    0  0.35906826218E+02  0.16397746686E+02 -0.60477461935E+01  0.39934465058E+02  0.00000000000E+00 0. -1.
</event>
<event>
 7    1  0.1716782E-015  0.9000769E+02  0.7816164E-02  0.1186339E+00
        -11   -1    0    0    0    0  0.00000000000E+00  0.00000000000E+00  0.45593999997E+02  0.45594000000E+02  0.51100000000E-03 0.  1.
         11   -1    0    0    0    0 -0.00000000000E+00 -0.00000000000E+00 -0.45593999997E+02  0.45594000000E+02  0.51100000000E-03 0. -1.
    9900012    2    1    2    0    0  0.19409797962E+00  0.44663719658E+00 -0.10751610845E+01  0.90007690647E+02  0.89999951364E+02 0.  0.
        -12    1    1    2    0    0 -0.19409797962E+00 -0.44663719658E+00  0.10751610845E+01  0.11803093530E+01  0.00000000000E+00 0.  1.
         11    1    3    3    0    0  0.99111418473E+01  0.56314935401E+01  0.36849104876E+01  0.11980109255E+02  0.51100000000E-03 0. -1.
        -11    1    3    3    0    0  0.25354319917E+02  0.10968770241E+02 -0.22410231260E+02  0.35572094743E+02  0.51100000000E-03 0.  1.
         12    1    3    3    0    0 -0.35071363784E+02 -0.16153626584E+02  0.17650159688E+02  0.42455486648E+02  0.00000000000E+00 0. -1.
</event>
<event>
 7    1  0.1716782E-015  0.9000762E+02  0.7816164E-02  0.1186339E+00
        -11   -1    0    0    0    0  0.00000000000E+00  0.00000000000E+00  0.45593999997E+02  0.45594000000E+02  0.51100000000E-03 0. -1.
         11   -1    0    0    0    0 -0.00000000000E+00 -0.00000000000E+00 -0.45593999997E+02  0.45594000000E+02  0.51100000000E-03 0.  1.
    9900012    2    1    2    0    0  0.63982286585E+00 -0.40505324097E+00  0.90545367408E+00  0.90007623880E+02  0.89999883716E+02 0.  0.
        -12    1    1    2    0    0 -0.63982286585E+00  0.40505324097E+00 -0.90545367408E+00  0.11803761195E+01  0.00000000000E+00 0.  1.
         11    1    3    3    0    0  0.16680781398E+02  0.13763480582E+02 -0.34148473086E+02  0.40420292925E+02  0.51100000000E-03 0. -1.
        -11    1    3    3    0    0  0.30018561516E+01  0.63728026971E+01  0.64104629053E+01  0.95245886784E+01  0.51100000000E-03 0.  1.
        -12    1    3    3    0    0 -0.19042814684E+02 -0.20541336520E+02  0.28643463855E+02  0.40062742277E+02  0.00000000000E+00 0.  1.
</event>
<event>
 7    1  0.1716782E-015  0.9000780E+02  0.7816164E-02  0.1186339E+00
        -11   -1    0    0    0    0  0.00000000000E+00  0.00000000000E+00  0.45593999997E+02  0.45594000000E+02  0.51100000000E-03 0.  1.
         11   -1    0    0    0    0 -0.00000000000E+00 -0.00000000000E+00 -0.45593999997E+02  0.45594000000E+02  0.51100000000E-03 0. -1.
    9900012    2    1    2    0    0 -0.28724015547E+00  0.40199411523E+00 -0.10718100838E+01  0.90007795343E+02  0.90000057442E+02 0.  0.
        -12    1    1    2    0    0  0.28724015547E+00 -0.40199411523E+00  0.10718100838E+01  0.11802046566E+01  0.00000000000E+00 0.  1.
         11    1    3    3    0    0  0.37727977275E+02 -0.22278342496E+00  0.20127406060E+02  0.42761692865E+02  0.51100000000E-03 0. -1.
        -11    1    3    3    0    0 -0.29743327879E+01  0.29155134259E+01 -0.92646109859E+01  0.10157750295E+02  0.51100000000E-03 0.  1.
        -12    1    3    3    0    0 -0.35040884642E+02 -0.22907358857E+01 -0.11934605158E+02  0.37088352184E+02  0.00000000000E+00 0.  1.
</event>
<event>
 7    1  0.1716782E-015  0.9000773E+02  0.7816164E-02  0.1186339E+00
        -11   -1    0    0    0    0  0.00000000000E+00  0.00000000000E+00  0.45593999997E+02  0.45594000000E+02  0.51100000000E-03 0.  1.
         11   -1    0    0    0    0 -0.00000000000E+00 -0.00000000000E+00 -0.45593999997E+02  0.45594000000E+02  0.51100000000E-03 0. -1.
    9900012    2    1    2    0    0 -0.49030934097E+00 -0.12721568943E+00 -0.10660488444E+01  0.90007725786E+02  0.89999986966E+02 0.  0.
        -12    1    1    2    0    0  0.49030934097E+00  0.12721568943E+00  0.10660488444E+01  0.11802742139E+01  0.00000000000E+00 0.  1.
         11    1    3    3    0    0 -0.76982487967E+01  0.33483975446E+01  0.50912697231E+01  0.98181377209E+01  0.51100000000E-03 0. -1.
        -11    1    3    3    0    0 -0.33231556866E+02  0.27798181535E+01  0.11973943522E+02  0.35432175835E+02  0.51100000000E-03 0.  1.
         12    1    3    3    0    0  0.40439496322E+02 -0.62554313876E+01 -0.18131262089E+02  0.44757412230E+02  0.00000000000E+00 0. -1.
</event>
<event>
 7    1  0.1716782E-015  0.9000780E+02  0.7816164E-02  0.1186339E+00
        -11   -1    0    0    0    0  0.00000000000E+00  0.00000000000E+00  0.45593999997E+02  0.45594000000E+02  0.51100000000E-03 0. -1.
         11   -1    0    0    0    0 -0.00000000000E+00 -0.00000000000E+00 -0.45593999997E+02  0.45594000000E+02  0.51100000000E-03 0.  1.
    9900012    2    1    2    0    0 -0.94649346430E+00 -0.69548762291E+00  0.11545402229E+00  0.90007795550E+02  0.90000057652E+02 0.  0.
        -12    1    1    2    0    0  0.94649346430E+00  0.69548762291E+00 -0.11545402229E+00  0.11802044496E+01  0.00000000000E+00 0.  1.
         11    1    3    3    0    0 -0.32731130178E+02 -0.15546390504E+02 -0.79742029026E+00  0.36244351557E+02  0.51100000000E-03 0. -1.
        -11    1    3    3    0    0 -0.89603197721E+01 -0.24788906554E+01  0.18366499007E+01  0.94765770412E+01  0.51100000000E-03 0.  1.
        -12    1    3    3    0    0  0.40744956486E+02  0.17329793536E+02 -0.92377558812E+00  0.44286866952E+02  0.00000000000E+00 0.  1.
</event>
<event>
 7    1  0.1716782E-015  0.9000790E+02  0.7816164E-02  0.1186339E+00
        -11   -1    0    0    0    0  0.00000000000E+00  0.00000000000E+00  0.45593999997E+02  0.45594000000E+02  0.51100000000E-03 0. -1.
         11   -1    0    0    0    0 -0.00000000000E+00 -0.00000000000E+00 -0.45593999997E+02  0.45594000000E+02  0.51100000000E-03 0.  1.
    9900012    2    1    2    0    0  0.21777140858E+00 -0.11594263455E+01 -0.30776935967E-01  0.90007897862E+02  0.90000161313E+02 0.  0.
        -12    1    1    2    0    0 -0.21777140858E+00  0.11594263455E+01  0.30776935967E-01  0.11801021383E+01  0.00000000000E+00 0.  1.
         11    1    3    3    0    0 -0.51448020367E+01  0.11022427191E+01 -0.72502427779E+01  0.89582335094E+01  0.51100000000E-03 0. -1.
        -11    1    3    3    0    0 -0.29148131840E+01  0.75279764438E+01 -0.35521608146E+02  0.36427341528E+02  0.51100000000E-03 0.  1.
         12    1    3    3    0    0  0.82773866293E+01 -0.97896455083E+01  0.42741073988E+02  0.44622322824E+02  0.00000000000E+00 0. -1.
</event>
<event>
 7    1  0.1716782E-015  0.9000778E+02  0.7816164E-02  0.1186339E+00
        -11   -1    0    0    0    0  0.00000000000E+00  0.00000000000E+00  0.45593999997E+02  0.45594000000E+02  0.51100000000E-03 0. -1.
         11   -1    0    0    0    0 -0.00000000000E+00 -0.00000000000E+00 -0.45593999997E+02  0.45594000000E+02  0.51100000000E-03 0.  1.
    9900012    2    1    2    0    0 -0.38719865969E+00  0.44966167668E+00  0.10201948938E+01  0.90007781356E+02  0.90000043270E+02 0.  0.
        -12    1    1    2    0    0  0.38719865969E+00 -0.44966167668E+00 -0.10201948938E+01  0.11802186437E+01  0.00000000000E+00 0.  1.
         11    1    3    3    0    0  0.72660346930E+01 -0.14980132099E+01  0.37110429935E+01  0.82952482843E+01  0.51100000000E-03 0. -1.
        -11    1    3    3    0    0 -0.10893211043E+01 -0.26157880758E+02 -0.31482080414E+02  0.40945607013E+02  0.51100000000E-03 0.  1.
         12    1    3    3    0    0 -0.65639122484E+01  0.28105555645E+02  0.28791232314E+02  0.40766926059E+02  0.00000000000E+00 0. -1.
</event>
<event>
 7    1  0.1716782E-015  0.9000782E+02  0.7816164E-02  0.1186339E+00
        -11   -1    0    0    0    0  0.00000000000E+00  0.00000000000E+00  0.45593999997E+02  0.45594000000E+02  0.51100000000E-03 0. -1.
         11   -1    0    0    0    0 -0.00000000000E+00 -0.00000000000E+00 -0.45593999997E+02  0.45594000000E+02  0.51100000000E-03 0.  1.
    9900012    2    1    2    0    0 -0.81361185928E+00 -0.35605732759E+00  0.77723106780E+00  0.90007818145E+02  0.90000080544E+02 0.  0.
        -12    1    1    2    0    0  0.81361185928E+00  0.35605732759E+00 -0.77723106780E+00  0.11801818550E+01  0.00000000000E+00 0.  1.
         11    1    3    3    0    0 -0.13135384208E+02 -0.82030450253E+01  0.30007287728E+02  0.33767818749E+02  0.51100000000E-03 0. -1.
        -11    1    3    3    0    0 -0.64218468442E+00 -0.15777150896E+01  0.11939590738E+02  0.12060489763E+02  0.51100000000E-03 0.  1.
        -12    1    3    3    0    0  0.12963957033E+02  0.94247027873E+01 -0.41169647398E+02  0.44179509634E+02  0.00000000000E+00 0.  1.
</event>
<event>
 7    1  0.1716782E-015  0.9000779E+02  0.7816164E-02  0.1186339E+00
        -11   -1    0    0    0    0  0.00000000000E+00  0.00000000000E+00  0.45593999997E+02  0.45594000000E+02  0.51100000000E-03 0.  1.
         11   -1    0    0    0    0 -0.00000000000E+00 -0.00000000000E+00 -0.45593999997E+02  0.45594000000E+02  0.51100000000E-03 0. -1.
    9900012    2    1    2    0    0 -0.24310772944E+00 -0.20522924782E+00 -0.11365207466E+01  0.90007788231E+02  0.90000050236E+02 0.  0.
        -12    1    1    2    0    0  0.24310772944E+00  0.20522924782E+00  0.11365207466E+01  0.11802117690E+01  0.00000000000E+00 0.  1.
         11    1    3    3    0    0 -0.80043651687E+01  0.41009215257E+01  0.31085165273E+01  0.95157918417E+01  0.51100000000E-03 0. -1.
        -11    1    3    3    0    0 -0.34048260917E+01  0.80580920952E+01  0.35940547598E+02  0.36989845240E+02  0.51100000000E-03 0.  1.
         12    1    3    3    0    0  0.11166083531E+02 -0.12364242869E+02 -0.40185584872E+02  0.43502151150E+02  0.00000000000E+00 0. -1.
</event>
<event>
 7    1  0.1716782E-015  0.9000769E+02  0.7816164E-02  0.1186339E+00
        -11   -1    0    0    0    0  0.00000000000E+00  0.00000000000E+00  0.45593999997E+02  0.45594000000E+02  0.51100000000E-03 0. -1.
         11   -1    0    0    0    0 -0.00000000000E+00 -0.00000000000E+00 -0.45593999997E+02  0.45594000000E+02  0.51100000000E-03 0.  1.
    9900012    2    1    2    0    0 -0.84550227710E+00  0.65479294379E+00  0.49951529677E+00  0.90007685029E+02  0.89999945671E+02 0.  0.
        -12    1    1    2    0    0  0.84550227710E+00 -0.65479294379E+00 -0.49951529677E+00  0.11803149713E+01  0.00000000000E+00 0.  1.
         11    1    3    3    0    0  0.84046407544E+01 -0.75438261260E+00  0.55338361660E+01  0.10091106099E+02  0.51100000000E-03 0. -1.
        -11    1    3    3    0    0  0.14750209953E+02  0.33696535962E+02  0.79690252468E+01  0.37636824961E+02  0.51100000000E-03 0.  1.
         12    1    3    3    0    0 -0.24000352985E+02 -0.32287360406E+02 -0.13003346116E+02  0.42279753968E+02  0.00000000000E+00 0. -1.
</event>
<event>
 7    1  0.1716782E-015  0.9000775E+02  0.7816164E-02  0.1186339E+00
        -11   -1    0    0    0    0  0.00000000000E+00  0.00000000000E+00  0.45593999997E+02  0.45594000000E+02  0.51100000000E-03 0.  1.
         11   -1    0    0    0    0 -0.00000000000E+00 -0.00000000000E+00 -0.45593999997E+02  0.45594000000E+02  0.51100000000E-03 0. -1.
    9900012    2    1    2    0    0 -0.13946917129E+00 -0.10384314014E+01 -0.54332143414E+00  0.90007750193E+02  0.90000011696E+02 0.  0.
        -12    1    1    2    0    0  0.13946917129E+00  0.10384314014E+01  0.54332143414E+00  0.11802498066E+01  0.00000000000E+00 0.  1.
         11    1    3    3    0    0  0.30866109871E+01  0.15497363829E+01  0.84277781670E+01  0.91080346582E+01  0.51100000000E-03 0. -1.
        -11    1    3    3    0    0  0.55464276570E+01  0.59969056619E+01  0.34642124698E+02  0.35592169660E+02  0.51100000000E-03 0.  1.
         12    1    3    3    0    0 -0.87725078154E+01 -0.85850734462E+01 -0.43613224299E+02  0.45307545875E+02  0.00000000000E+00 0. -1.
</event>
<event>
 7    1  0.1716782E-015  0.9000779E+02  0.7816164E-02  0.1186339E+00
        -11   -1    0    0    0    0  0.00000000000E+00  0.00000000000E+00  0.45593999997E+02  0.45594000000E+02  0.51100000000E-03 0.  1.
         11   -1    0    0    0    0 -0.00000000000E+00 -0.00000000000E+00 -0.45593999997E+02  0.45594000000E+02  0.51100000000E-03 0. -1.
    9900012    2    1    2    0    0 -0.80463724715E+00 -0.29439497881E+00  0.81165900965E+00  0.90007788218E+02  0.90000050222E+02 0.  0.
        -12    1    1    2    0    0  0.80463724715E+00  0.29439497881E+00 -0.81165900965E+00  0.11802117823E+01  0.00000000000E+00 0.  1.
         11    1    3    3    0    0  0.32162054491E+02  0.14712380904E+02 -0.22992751583E+02  0.42184339826E+02  0.51100000000E-03 0. -1.
        -11    1    3    3    0    0 -0.27446804791E+01 -0.90565711256E+01  0.10363171922E+01  0.95199109802E+01  0.51100000000E-03 0.  1.
        -12    1    3    3    0    0 -0.30222011259E+02 -0.59502047568E+01  0.22768093401E+02  0.38303537412E+02  0.00000000000E+00 0.  1.
</event>
<event>
 7    1  0.1716782E-015  0.9000768E+02  0.7816164E-02  0.1186339E+00
        -11   -1    0    0    0    0  0.00000000000E+00  0.00000000000E+00  0.45593999997E+02  0.45594000000E+02  0.51100000000E-03 0.  1.
         11   -1    0    0    0    0 -0.00000000000E+00 -0.00000000000E+00 -0.45593999997E+02  0.45594000000E+02  0.51100000000E-03 0. -1.
    9900012    2    1    2    0    0 -0.11489933815E+01  0.21938061823E+00 -0.15763450781E+00  0.90007677042E+02  0.89999937579E+02 0.  0.
        -12    1    1    2    0    0  0.11489933815E+01 -0.21938061823E+00  0.15763450781E+00  0.11803229577E+01  0.00000000000E+00 0.  1.
         11    1    3    3    0    0 -0.17552857492E+02  0.13352120146E+01  0.42071133541E+01  0.18099320437E+02  0.51100000000E-03 0. -1.
        -11    1    3    3    0    0 -0.12471062504E+02  0.13378457487E+02 -0.26891550295E+02  0.32521777354E+02  0.51100000000E-03 0.  1.
        -12    1    3    3    0    0  0.28874926615E+02 -0.14494288883E+02  0.22526802433E+02  0.39386579251E+02  0.00000000000E+00 0.  1.
</event>
<event>
 7    1  0.1903977E-015  0.9000778E+02  0.7816164E-02  0.1186339E+00
        -11   -1    0    0    0    0  0.00000000000E+00  0.00000000000E+00  0.45593999997E+02  0.45594000000E+02  0.51100000000E-03 0.  1.
         11   -1    0    0    0    0 -0.00000000000E+00 -0.00000000000E+00 -0.45593999997E+02  0.45594000000E+02  0.51100000000E-03 0. -1.
    9900012    2    1    2    0    0  0.52561010099E+00  0.98353043116E+00 -0.38642443452E+00  0.90007778864E+02  0.90000040745E+02 0.  0.
        -12    1    1    2    0    0 -0.52561010099E+00 -0.98353043116E+00  0.38642443452E+00  0.11802211364E+01  0.00000000000E+00 0.  1.
         11    1    3    3    0    0  0.58845043951E+01  0.29093128603E+02 -0.28527302070E+02  0.41168489012E+02  0.51100000000E-03 0. -1.
        -11    1    3    3    0    0  0.83560130917E+01  0.26132108299E+00  0.49756853428E+01  0.97287557472E+01  0.51100000000E-03 0.  1.
        -12    1    3    3    0    0 -0.13714907386E+02 -0.28370919254E+02  0.23165192293E+02  0.39110534104E+02  0.00000000000E+00 0.  1.
</event>
<event>
 7    1  0.1716782E-015  0.9000770E+02  0.7816164E-02  0.1186339E+00
        -11   -1    0    0    0    0  0.00000000000E+00  0.00000000000E+00  0.45593999997E+02  0.45594000000E+02  0.51100000000E-03 0.  1.
         11   -1    0    0    0    0 -0.00000000000E+00 -0.00000000000E+00 -0.45593999997E+02  0.45594000000E+02  0.51100000000E-03 0. -1.
    9900012    2    1    2    0    0 -0.67445357034E+00  0.69317218135E+00 -0.67655589348E+00  0.90007702085E+02  0.89999962952E+02 0.  0.
        -12    1    1    2    0    0  0.67445357034E+00 -0.69317218135E+00  0.67655589348E+00  0.11802979152E+01  0.00000000000E+00 0.  1.
         11    1    3    3    0    0 -0.57859673106E+01  0.84527467565E+01 -0.51831634288E+01  0.11480049165E+02  0.51100000000E-03 0. -1.
        -11    1    3    3    0    0 -0.33548019861E+02 -0.18364987824E+02  0.60744008432E+00  0.38250639186E+02  0.51100000000E-03 0.  1.
         12    1    3    3    0    0  0.38659533602E+02  0.10605413249E+02  0.38991674510E+01  0.40277013734E+02  0.00000000000E+00 0. -1.
</event>
<event>
 8    1  0.1716782E-015  0.9000754E+02  0.7816164E-02  0.1186339E+00
        -11   -1    0    0    0    0  0.00000000000E+00  0.00000000000E+00  0.45593999997E+02  0.45594000000E+02  0.51100000000E-03 0. -1.
         11   -1    0    0    0    0 -0.00000000000E+00 -0.00000000000E+00 -0.45593999997E+02  0.45594000000E+02  0.51100000000E-03 0.  1.
    9900012    2    1    2    0    0 -0.16832557668E+00  0.10908231716E+01 -0.41863510724E+00  0.90007540749E+02  0.89999799486E+02 0.  0.
         23    2    3    3    0    0 -0.61483570802E+01  0.11620328460E+02  0.23461771966E+02  0.63232457174E+02  0.57228092474E+02 0.  0.
        -12    1    1    2    0    0  0.16832557668E+00 -0.10908231716E+01  0.41863510724E+00  0.11804592515E+01  0.00000000000E+00 0.  1.
         11    1    4    4    0    0  0.61687870761E+01 -0.19975255510E+01  0.38781009483E+02  0.39319343065E+02  0.51100000000E-03 0. -1.
        -11    1    4    4    0    0 -0.12317144156E+02  0.13617854011E+02 -0.15319237517E+02  0.23913114109E+02  0.51100000000E-03 0.  1.
        -12    1    3    3    0    0  0.59800315036E+01 -0.10529505288E+02 -0.23880407074E+02  0.26775083574E+02  0.00000000000E+00 0.  1.
</event>
<event>
 7    1  0.1716782E-015  0.9000771E+02  0.7816164E-02  0.1186339E+00
        -11   -1    0    0    0    0  0.00000000000E+00  0.00000000000E+00  0.45593999997E+02  0.45594000000E+02  0.51100000000E-03 0. -1.
         11   -1    0    0    0    0 -0.00000000000E+00 -0.00000000000E+00 -0.45593999997E+02  0.45594000000E+02  0.51100000000E-03 0.  1.
    9900012    2    1    2    0    0 -0.39463341286E+00  0.10466569402E+01 -0.37664185995E+00  0.90007709624E+02  0.89999970591E+02 0.  0.
        -12    1    1    2    0    0  0.39463341286E+00 -0.10466569402E+01  0.37664185995E+00  0.11802903760E+01  0.00000000000E+00 0.  1.
         11    1    3    3    0    0  0.73491434342E+01  0.37800953693E+02 -0.39662745035E+01  0.38712444292E+02  0.51100000000E-03 0. -1.
        -11    1    3    3    0    0 -0.15398012371E+01  0.10474512161E+01 -0.10360694882E+02  0.10526734564E+02  0.51100000000E-03 0.  1.
        -12    1    3    3    0    0 -0.62039756100E+01 -0.37801747969E+02  0.13950327525E+02  0.40768530768E+02  0.00000000000E+00 0.  1.
</event>
<event>
 7    1  0.1716782E-015  0.9000787E+02  0.7816164E-02  0.1186339E+00
        -11   -1    0    0    0    0  0.00000000000E+00  0.00000000000E+00  0.45593999997E+02  0.45594000000E+02  0.51100000000E-03 0.  1.
         11   -1    0    0    0    0 -0.00000000000E+00 -0.00000000000E+00 -0.45593999997E+02  0.45594000000E+02  0.51100000000E-03 0. -1.
    9900012    2    1    2    0    0  0.18186355379E+00  0.70191527181E+00 -0.93109916238E+00  0.90007870748E+02  0.90000133842E+02 0.  0.
        -12    1    1    2    0    0 -0.18186355379E+00 -0.70191527181E+00  0.93109916238E+00  0.11801292519E+01  0.00000000000E+00 0.  1.
         11    1    3    3    0    0  0.30626072525E+02  0.15382960812E+01 -0.23404827105E+02  0.38576010747E+02  0.51100000000E-03 0. -1.
        -11    1    3    3    0    0 -0.61661837421E+01 -0.57922927410E+01 -0.83476915031E+01  0.11885134868E+02  0.51100000000E-03 0.  1.
        -12    1    3    3    0    0 -0.24278025229E+02  0.49559119317E+01  0.30821419446E+02  0.39546725133E+02  0.00000000000E+00 0.  1.
</event>
<event>
 7    1  0.1790440E-015  0.9000779E+02  0.7816164E-02  0.1186339E+00
        -11   -1    0    0    0    0  0.00000000000E+00  0.00000000000E+00  0.45593999997E+02  0.45594000000E+02  0.51100000000E-03 0.  1.
         11   -1    0    0    0    0 -0.00000000000E+00 -0.00000000000E+00 -0.45593999997E+02  0.45594000000E+02  0.51100000000E-03 0. -1.
    9900012    2    1    2    0    0  0.10352503129E+01 -0.30177778849E+00 -0.47966301895E+00  0.90007792537E+02  0.90000054598E+02 0.  0.
        -12    1    1    2    0    0 -0.10352503129E+01  0.30177778849E+00  0.47966301895E+00  0.11802074630E+01  0.00000000000E+00 0.  1.
         11    1    3    3    0    0 -0.29791089300E+02  0.24699773048E+02 -0.95658543913E+01  0.39863433881E+02  0.51100000000E-03 0. -1.
        -11    1    3    3    0    0 -0.51780139358E+01 -0.78280022431E+01  0.25110162758E+01  0.97156909397E+01  0.51100000000E-03 0.  1.
        -12    1    3    3    0    0  0.36004353549E+02 -0.17173548593E+02  0.65751750965E+01  0.40428667716E+02  0.00000000000E+00 0.  1.
</event>
<event>
 7    1  0.1716782E-015  0.9000774E+02  0.7816164E-02  0.1186339E+00
        -11   -1    0    0    0    0  0.00000000000E+00  0.00000000000E+00  0.45593999997E+02  0.45594000000E+02  0.51100000000E-03 0. -1.
         11   -1    0    0    0    0 -0.00000000000E+00 -0.00000000000E+00 -0.45593999997E+02  0.45594000000E+02  0.51100000000E-03 0.  1.
    9900012    2    1    2    0    0 -0.44741745264E+00 -0.82254069255E+00  0.71851203471E+00  0.90007739388E+02  0.90000000748E+02 0.  0.
        -12    1    1    2    0    0  0.44741745264E+00  0.82254069255E+00 -0.71851203471E+00  0.11802606118E+01  0.00000000000E+00 0.  1.
         11    1    3    3    0    0 -0.31866210168E+02  0.21731197275E+02 -0.96704210990E+01  0.39764523510E+02  0.51100000000E-03 0. -1.
        -11    1    3    3    0    0  0.22796253805E+01  0.69475831706E+01  0.38540795557E+01  0.82655630946E+01  0.51100000000E-03 0.  1.
        -12    1    3    3    0    0  0.29139167335E+02 -0.29501321138E+02  0.65348535781E+01  0.41977652783E+02  0.00000000000E+00 0.  1.
</event>
<event>
 7    1  0.1716782E-015  0.9000810E+02  0.7816164E-02  0.1186338E+00
        -11   -1    0    0    0    0  0.00000000000E+00  0.00000000000E+00  0.45593999997E+02  0.45594000000E+02  0.51100000000E-03 0.  1.
         11   -1    0    0    0    0 -0.00000000000E+00 -0.00000000000E+00 -0.45593999997E+02  0.45594000000E+02  0.51100000000E-03 0. -1.
    9900012    2    1    2    0    0 -0.25192192007E-01  0.11602987029E+01  0.21269164248E+00  0.90008099385E+02  0.90000365496E+02 0.  0.
        -12    1    1    2    0    0  0.25192192007E-01 -0.11602987029E+01 -0.21269164248E+00  0.11799006150E+01  0.00000000000E+00 0.  1.
         11    1    3    3    0    0  0.15102114365E+02  0.98429636757E+01 -0.48039100266E+01  0.18655705401E+02  0.51100000000E-03 0. -1.
        -11    1    3    3    0    0  0.91056889209E+01  0.20980860753E+02 -0.15761111035E+02  0.27776297629E+02  0.51100000000E-03 0.  1.
         12    1    3    3    0    0 -0.24232995478E+02 -0.29663525726E+02  0.20777712704E+02  0.43576096355E+02  0.00000000000E+00 0. -1.
</event>
<event>
 7    1  0.1716782E-015  0.9000773E+02  0.7816164E-02  0.1186339E+00
        -11   -1    0    0    0    0  0.00000000000E+00  0.00000000000E+00  0.45593999997E+02  0.45594000000E+02  0.51100000000E-03 0.  1.
         11   -1    0    0    0    0 -0.00000000000E+00 -0.00000000000E+00 -0.45593999997E+02  0.45594000000E+02  0.51100000000E-03 0. -1.
    9900012    2    1    2    0    0  0.66574659651E+00 -0.76288753206E+00 -0.60647983844E+00  0.90007731509E+02  0.89999992765E+02 0.  0.
        -12    1    1    2    0    0 -0.66574659651E+00  0.76288753206E+00  0.60647983844E+00  0.11802684914E+01  0.00000000000E+00 0.  1.
         11    1    3    3    0    0  0.13804738425E+02 -0.86422140318E+01  0.77295002384E+01  0.18027862894E+02  0.51100000000E-03 0. -1.
        -11    1    3    3    0    0 -0.10618073758E+02  0.27121647364E+02  0.21629532730E+02  0.36278973696E+02  0.51100000000E-03 0.  1.
         12    1    3    3    0    0 -0.25209180700E+01 -0.19242320864E+02 -0.29965512807E+02  0.35700894918E+02  0.00000000000E+00 0. -1.
</event>
<event>
 7    1  0.1716782E-015  0.9000770E+02  0.7816164E-02  0.1186339E+00
        -11   -1    0    0    0    0  0.00000000000E+00  0.00000000000E+00  0.45593999997E+02  0.45594000000E+02  0.51100000000E-03 0. -1.
         11   -1    0    0    0    0 -0.00000000000E+00 -0.00000000000E+00 -0.45593999997E+02  0.45594000000E+02  0.51100000000E-03 0.  1.
    9900012    2    1    2    0    0 -0.87144543516E+00  0.22148779323E+00  0.76460688123E+00  0.90007704413E+02  0.89999965312E+02 0.  0.
        -12    1    1    2    0    0  0.87144543516E+00 -0.22148779323E+00 -0.76460688123E+00  0.11802955866E+01  0.00000000000E+00 0.  1.
         11    1    3    3    0    0  0.64486938128E+01 -0.17022619524E+01 -0.60514747307E+01  0.90057589532E+01  0.51100000000E-03 0. -1.
        -11    1    3    3    0    0  0.27981964486E+02 -0.16950951757E+02 -0.14344172601E+02  0.35722267423E+02  0.51100000000E-03 0.  1.
         12    1    3    3    0    0 -0.35302103734E+02  0.18874701503E+02  0.21160254213E+02  0.45279678038E+02  0.00000000000E+00 0. -1.
</event>
<event>
 7    1  0.1716782E-015  0.9000780E+02  0.7816164E-02  0.1186339E+00
        -11   -1    0    0    0    0  0.00000000000E+00  0.00000000000E+00  0.45593999997E+02  0.45594000000E+02  0.51100000000E-03 0.  1.
         11   -1    0    0    0    0 -0.00000000000E+00 -0.00000000000E+00 -0.45593999997E+02  0.45594000000E+02  0.51100000000E-03 0. -1.
    9900012    2    1    2    0    0  0.48962154184E+00  0.76864399429E+00 -0.74989344711E+00  0.90007795346E+02  0.90000057444E+02 0.  0.
        -12    1    1    2    0    0 -0.48962154184E+00 -0.76864399429E+00  0.74989344711E+00  0.11802046544E+01  0.00000000000E+00 0.  1.
         11    1    3    3    0    0 -0.57978797809E+01 -0.14580264260E+02 -0.32078129047E+02  0.35710024913E+02  0.51100000000E-03 0. -1.
        -11    1    3    3    0    0 -0.67835619117E+01 -0.47917370895E-01 -0.77556561072E+01  0.10303844438E+02  0.51100000000E-03 0.  1.
        -12    1    3    3    0    0  0.13071063234E+02  0.15396825625E+02  0.39083891708E+02  0.43993925995E+02  0.00000000000E+00 0.  1.
</event>
<event>
 7    1  0.1716782E-015  0.9000780E+02  0.7816164E-02  0.1186339E+00
        -11   -1    0    0    0    0  0.00000000000E+00  0.00000000000E+00  0.45593999997E+02  0.45594000000E+02  0.51100000000E-03 0.  1.
         11   -1    0    0    0    0 -0.00000000000E+00 -0.00000000000E+00 -0.45593999997E+02  0.45594000000E+02  0.51100000000E-03 0. -1.
    9900012    2    1    2    0    0  0.72857855556E+00  0.92767614348E+00  0.38159474483E-01  0.90007802608E+02  0.90000064802E+02 0.  0.
        -12    1    1    2    0    0 -0.72857855556E+00 -0.92767614348E+00 -0.38159474483E-01  0.11801973921E+01  0.00000000000E+00 0.  1.
         11    1    3    3    0    0 -0.97360291126E+01 -0.68370545280E+01 -0.88493160317E-01  0.11897201721E+02  0.51100000000E-03 0. -1.
        -11    1    3    3    0    0  0.78115308429E+01 -0.42919808251E+01  0.37607371688E+02  0.38649133484E+02  0.51100000000E-03 0.  1.
         12    1    3    3    0    0  0.26530768253E+01  0.12056711497E+02 -0.37480719054E+02  0.39461467402E+02  0.00000000000E+00 0. -1.
</event>
<event>
 7    1  0.1716782E-015  0.9000778E+02  0.7816164E-02  0.1186339E+00
        -11   -1    0    0    0    0  0.00000000000E+00  0.00000000000E+00  0.45593999997E+02  0.45594000000E+02  0.51100000000E-03 0. -1.
         11   -1    0    0    0    0 -0.00000000000E+00 -0.00000000000E+00 -0.45593999997E+02  0.45594000000E+02  0.51100000000E-03 0.  1.
    9900012    2    1    2    0    0 -0.10199050038E+01 -0.34692149694E+00  0.48204384922E+00  0.90007776710E+02  0.90000038563E+02 0.  0.
        -12    1    1    2    0    0  0.10199050038E+01  0.34692149694E+00 -0.48204384922E+00  0.11802232900E+01  0.00000000000E+00 0.  1.
         11    1    3    3    0    0  0.37467607083E+02 -0.16009518406E+02 -0.48435468485E+01  0.41031526982E+02  0.51100000000E-03 0. -1.
        -11    1    3    3    0    0  0.27167987889E+01 -0.13428805769E+01 -0.22329810130E+01  0.37643762258E+01  0.51100000000E-03 0.  1.
         12    1    3    3    0    0 -0.41204310876E+02  0.17005477486E+02  0.75585717108E+01  0.45211873502E+02  0.00000000000E+00 0. -1.
</event>
<event>
 7    1  0.1716782E-015  0.9000764E+02  0.7816164E-02  0.1186339E+00
        -11   -1    0    0    0    0  0.00000000000E+00  0.00000000000E+00  0.45593999997E+02  0.45594000000E+02  0.51100000000E-03 0.  1.
         11   -1    0    0    0    0 -0.00000000000E+00 -0.00000000000E+00 -0.45593999997E+02  0.45594000000E+02  0.51100000000E-03 0. -1.
    9900012    2    1    2    0    0  0.46398493924E+00  0.10916318012E+00 -0.10798427267E+01  0.90007636099E+02  0.89999896096E+02 0.  0.
        -12    1    1    2    0    0 -0.46398493924E+00 -0.10916318012E+00  0.10798427267E+01  0.11803639007E+01  0.00000000000E+00 0.  1.
         11    1    3    3    0    0 -0.45572460861E+01  0.53210790506E+01  0.37565330198E+01  0.79494600284E+01  0.51100000000E-03 0. -1.
        -11    1    3    3    0    0  0.34809082656E+02  0.22314060609E+02 -0.18068236661E+01  0.41386642147E+02  0.51100000000E-03 0.  1.
         12    1    3    3    0    0 -0.29787851630E+02 -0.27525976479E+02 -0.30295520804E+01  0.40671533924E+02  0.00000000000E+00 0. -1.
</event>
<event>
 7    1  0.1716782E-015  0.9000776E+02  0.7816164E-02  0.1186339E+00
        -11   -1    0    0    0    0  0.00000000000E+00  0.00000000000E+00  0.45593999997E+02  0.45594000000E+02  0.51100000000E-03 0.  1.
         11   -1    0    0    0    0 -0.00000000000E+00 -0.00000000000E+00 -0.45593999997E+02  0.45594000000E+02  0.51100000000E-03 0. -1.
    9900012    2    1    2    0    0  0.71181712185E+00  0.26833167193E+00 -0.90237837360E+00  0.90007757554E+02  0.90000019154E+02 0.  0.
        -12    1    1    2    0    0 -0.71181712185E+00 -0.26833167193E+00  0.90237837360E+00  0.11802424455E+01  0.00000000000E+00 0.  1.
         11    1    3    3    0    0 -0.43747355800E+01 -0.25867634628E+02 -0.21081133290E+02  0.33655415815E+02  0.51100000000E-03 0. -1.
        -11    1    3    3    0    0  0.28664242389E+01 -0.12994919574E+02  0.67537635534E+01  0.14923057497E+02  0.51100000000E-03 0.  1.
        -12    1    3    3    0    0  0.22201284630E+01  0.39130885875E+02  0.13424991363E+02  0.41429284242E+02  0.00000000000E+00 0.  1.
</event>
<event>
 7    1  0.1716782E-015  0.9000770E+02  0.7816164E-02  0.1186339E+00
        -11   -1    0    0    0    0  0.00000000000E+00  0.00000000000E+00  0.45593999997E+02  0.45594000000E+02  0.51100000000E-03 0.  1.
         11   -1    0    0    0    0 -0.00000000000E+00 -0.00000000000E+00 -0.45593999997E+02  0.45594000000E+02  0.51100000000E-03 0. -1.
    9900012    2    1    2    0    0  0.73246531074E+00 -0.91612737058E+00  0.13155192117E+00  0.90007703131E+02  0.89999964013E+02 0.  0.
        -12    1    1    2    0    0 -0.73246531074E+00  0.91612737058E+00 -0.13155192117E+00  0.11802968688E+01  0.00000000000E+00 0.  1.
         11    1    3    3    0    0 -0.38803377605E+02 -0.19031231711E+02  0.61979305369E+01  0.43661244110E+02  0.51100000000E-03 0. -1.
        -11    1    3    3    0    0  0.30858606660E+01  0.57989936670E+01 -0.42604741695E+01  0.78295915609E+01  0.51100000000E-03 0.  1.
        -12    1    3    3    0    0  0.36449982250E+02  0.12316110673E+02 -0.18059044462E+01  0.38516867461E+02  0.00000000000E+00 0.  1.
</event>
<event>
 7    1  0.1716782E-015  0.9000785E+02  0.7816164E-02  0.1186339E+00
        -11   -1    0    0    0    0  0.00000000000E+00  0.00000000000E+00  0.45593999997E+02  0.45594000000E+02  0.51100000000E-03 0.  1.
         11   -1    0    0    0    0 -0.00000000000E+00 -0.00000000000E+00 -0.45593999997E+02  0.45594000000E+02  0.51100000000E-03 0. -1.
    9900012    2    1    2    0    0 -0.30571277631E+00  0.10500062925E+01  0.44359477902E+00  0.90007851770E+02  0.90000114614E+02 0.  0.
        -12    1    1    2    0    0  0.30571277631E+00 -0.10500062925E+01 -0.44359477902E+00  0.11801482296E+01  0.00000000000E+00 0.  1.
         11    1    3    3    0    0  0.26437656248E+02 -0.19580873831E+02  0.19529603907E+01  0.32957159198E+02  0.51100000000E-03 0. -1.
        -11    1    3    3    0    0  0.86326255375E+01 -0.62323656827E+01  0.56569866588E+01  0.12056786636E+02  0.51100000000E-03 0.  1.
        -12    1    3    3    0    0 -0.35375994562E+02  0.26863245806E+02 -0.71663522704E+01  0.44993905936E+02  0.00000000000E+00 0.  1.
</event>
<event>
 7    1  0.1716782E-015  0.9000784E+02  0.7816164E-02  0.1186339E+00
        -11   -1    0    0    0    0  0.00000000000E+00  0.00000000000E+00  0.45593999997E+02  0.45594000000E+02  0.51100000000E-03 0.  1.
         11   -1    0    0    0    0 -0.00000000000E+00 -0.00000000000E+00 -0.45593999997E+02  0.45594000000E+02  0.51100000000E-03 0. -1.
    9900012    2    1    2    0    0  0.40302034582E-01 -0.10583286257E+01 -0.52067288817E+00  0.90007837303E+02  0.90000099956E+02 0.  0.
        -12    1    1    2    0    0 -0.40302034582E-01  0.10583286257E+01  0.52067288817E+00  0.11801626966E+01  0.00000000000E+00 0.  1.
         11    1    3    3    0    0  0.10400104756E+02  0.28450310967E+02 -0.19827827566E+02  0.36203937898E+02  0.51100000000E-03 0. -1.
        -11    1    3    3    0    0  0.57279704577E+01  0.35011521547E+01 -0.61636076861E+01  0.91136036749E+01  0.51100000000E-03 0.  1.
        -12    1    3    3    0    0 -0.16087773179E+02 -0.33009791747E+02  0.25470762364E+02  0.44690295731E+02  0.00000000000E+00 0.  1.
</event>
<event>
 7    1  0.1716782E-015  0.9000795E+02  0.7816164E-02  0.1186339E+00
        -11   -1    0    0    0    0  0.00000000000E+00  0.00000000000E+00  0.45593999997E+02  0.45594000000E+02  0.51100000000E-03 0. -1.
         11   -1    0    0    0    0 -0.00000000000E+00 -0.00000000000E+00 -0.45593999997E+02  0.45594000000E+02  0.51100000000E-03 0.  1.
    9900012    2    1    2    0    0  0.17852969474E-01  0.11486661078E+01  0.26973412417E+00  0.90007953792E+02  0.90000217982E+02 0.  0.
        -12    1    1    2    0    0 -0.17852969474E-01 -0.11486661078E+01 -0.26973412417E+00  0.11800462082E+01  0.00000000000E+00 0.  1.
         11    1    3    3    0    0  0.23273037553E+01 -0.69682587351E+01  0.60185972450E+01  0.94971830364E+01  0.51100000000E-03 0. -1.
        -11    1    3    3    0    0 -0.44395859455E+01 -0.27000166801E+02 -0.27785946640E+02  0.38997150685E+02  0.51100000000E-03 0.  1.
         12    1    3    3    0    0  0.21301351597E+01  0.35117091643E+02  0.22037083519E+02  0.41513620070E+02  0.00000000000E+00 0. -1.
</event>
<event>
 7    1  0.1716782E-015  0.9000803E+02  0.7816164E-02  0.1186338E+00
        -11   -1    0    0    0    0  0.00000000000E+00  0.00000000000E+00  0.45593999997E+02  0.45594000000E+02  0.51100000000E-03 0. -1.
         11   -1    0    0    0    0 -0.00000000000E+00 -0.00000000000E+00 -0.45593999997E+02  0.45594000000E+02  0.51100000000E-03 0.  1.
    9900012    2    1    2    0    0 -0.79237288447E-02  0.92847171552E+00  0.72815852025E+00  0.90008026550E+02  0.90000291700E+02 0.  0.
        -12    1    1    2    0    0  0.79237288447E-02 -0.92847171552E+00 -0.72815852025E+00  0.11799734500E+01  0.00000000000E+00 0.  1.
         11    1    3    3    0    0 -0.13435387211E+02 -0.32323580493E+01 -0.22973765167E+01  0.14008415584E+02  0.51100000000E-03 0. -1.
        -11    1    3    3    0    0 -0.63174114848E+01  0.22502887220E+02 -0.26961404370E+02  0.35682025545E+02  0.51100000000E-03 0.  1.
         12    1    3    3    0    0  0.19744874967E+02 -0.18342057456E+02  0.29986939407E+02  0.40317585421E+02  0.00000000000E+00 0. -1.
</event>
<event>
 7    1  0.1820682E-015  0.9000783E+02  0.7816164E-02  0.1186339E+00
        -11   -1    0    0    0    0  0.00000000000E+00  0.00000000000E+00  0.45593999997E+02  0.45594000000E+02  0.51100000000E-03 0. -1.
         11   -1    0    0    0    0 -0.00000000000E+00 -0.00000000000E+00 -0.45593999997E+02  0.45594000000E+02  0.51100000000E-03 0.  1.
    9900012    2    1    2    0    0  0.80651158468E+00 -0.81814830879E+00  0.27014349427E+00  0.90007828360E+02  0.90000090895E+02 0.  0.
        -12    1    1    2    0    0 -0.80651158468E+00  0.81814830879E+00 -0.27014349427E+00  0.11801716396E+01  0.00000000000E+00 0.  1.
         11    1    3    3    0    0  0.35469153569E+01  0.34642821457E+02  0.25417120794E+02  0.43113057382E+02  0.51100000000E-03 0. -1.
        -11    1    3    3    0    0 -0.37549639447E+01 -0.18995177427E+01 -0.83511707860E+01  0.93514691701E+01  0.51100000000E-03 0.  1.
        -12    1    3    3    0    0  0.10145601725E+01 -0.33561452023E+02 -0.16795806514E+02  0.37543301809E+02  0.00000000000E+00 0.  1.
</event>
<event>
 7    1  0.1716782E-015  0.9000773E+02  0.7816164E-02  0.1186339E+00
        -11   -1    0    0    0    0  0.00000000000E+00  0.00000000000E+00  0.45593999997E+02  0.45594000000E+02  0.51100000000E-03 0. -1.
         11   -1    0    0    0    0 -0.00000000000E+00 -0.00000000000E+00 -0.45593999997E+02  0.45594000000E+02  0.51100000000E-03 0.  1.
    9900012    2    1    2    0    0  0.24517327433E+00  0.70668365777E+00  0.91297631010E+00  0.90007729917E+02  0.89999991152E+02 0.  0.
        -12    1    1    2    0    0 -0.24517327433E+00 -0.70668365777E+00 -0.91297631010E+00  0.11802700832E+01  0.00000000000E+00 0.  1.
         11    1    3    3    0    0  0.67992453113E+01 -0.57377677426E+01  0.25046069531E+01  0.92425522299E+01  0.51100000000E-03 0. -1.
        -11    1    3    3    0    0  0.29868207175E+02  0.30573816683E+01 -0.23499366919E+02  0.38127124575E+02  0.51100000000E-03 0.  1.
         12    1    3    3    0    0 -0.36422279212E+02  0.33870697321E+01  0.21907736276E+02  0.42638053111E+02  0.00000000000E+00 0. -1.
</event>
<event>
 8    1  0.1716782E-015  0.9000790E+02  0.7816164E-02  0.1186339E+00
        -11   -1    0    0    0    0  0.00000000000E+00  0.00000000000E+00  0.45593999997E+02  0.45594000000E+02  0.51100000000E-03 0. -1.
         11   -1    0    0    0    0 -0.00000000000E+00 -0.00000000000E+00 -0.45593999997E+02  0.45594000000E+02  0.51100000000E-03 0.  1.
    9900012    2    1    2    0    0 -0.23703640605E+00 -0.76276422426E+00 -0.86869501407E+00  0.90007904009E+02  0.90000167542E+02 0.  0.
         23    2    3    3    0    0  0.82936966352E+01  0.18038396259E+02 -0.19811201707E+02  0.61988703422E+02  0.55280615910E+02 0.  0.
        -12    1    1    2    0    0  0.23703640605E+00  0.76276422426E+00  0.86869501407E+00  0.11800959906E+01  0.00000000000E+00 0.  1.
         11    1    4    4    0    0  0.18448762186E+02 -0.73512433571E+01  0.94032745199E+01  0.21973146726E+02  0.51100000000E-03 0. -1.
        -11    1    4    4    0    0 -0.10155065551E+02  0.25389639616E+02 -0.29214476227E+02  0.40015556696E+02  0.51100000000E-03 0.  1.
         12    1    3    3    0    0 -0.85307330412E+01 -0.18801160483E+02  0.18942506693E+02  0.28019200587E+02  0.00000000000E+00 0. -1.
</event>
<event>
 7    1  0.1716782E-015  0.9000782E+02  0.7816164E-02  0.1186339E+00
        -11   -1    0    0    0    0  0.00000000000E+00  0.00000000000E+00  0.45593999997E+02  0.45594000000E+02  0.51100000000E-03 0. -1.
         11   -1    0    0    0    0 -0.00000000000E+00 -0.00000000000E+00 -0.45593999997E+02  0.45594000000E+02  0.51100000000E-03 0.  1.
    9900012    2    1    2    0    0 -0.85645737992E+00 -0.66668663894E+00  0.46350963054E+00  0.90007817177E+02  0.90000079564E+02 0.  0.
        -12    1    1    2    0    0  0.85645737992E+00  0.66668663894E+00 -0.46350963054E+00  0.11801828230E+01  0.00000000000E+00 0.  1.
         11    1    3    3    0    0 -0.67914899773E+01  0.73768586503E+01  0.20269472786E+02  0.22614020141E+02  0.51100000000E-03 0. -1.
        -11    1    3    3    0    0 -0.19914121615E+02  0.18471320811E+02 -0.11178391569E+02  0.29372067863E+02  0.51100000000E-03 0.  1.
         12    1    3    3    0    0  0.25849154212E+02 -0.26514866101E+02 -0.86275715861E+01  0.38021729173E+02  0.00000000000E+00 0. -1.
</event>
<event>
 7    1  0.1716782E-015  0.9000774E+02  0.7816164E-02  0.1186339E+00
        -11   -1    0    0    0    0  0.00000000000E+00  0.00000000000E+00  0.45593999997E+02  0.45594000000E+02  0.51100000000E-03 0.  1.
         11   -1    0    0    0    0 -0.00000000000E+00 -0.00000000000E+00 -0.45593999997E+02  0.45594000000E+02  0.51100000000E-03 0. -1.
    9900012    2    1    2    0    0 -0.70662317544E+00 -0.92936929098E-01 -0.94077376764E+00  0.90007742034E+02  0.90000003429E+02 0.  0.
        -12    1    1    2    0    0  0.70662317544E+00  0.92936929098E-01  0.94077376764E+00  0.11802579662E+01  0.00000000000E+00 0.  1.
         11    1    3    3    0    0  0.58063658409E+01 -0.19049349048E+01 -0.10269170833E+02  0.11949833938E+02  0.51100000000E-03 0. -1.
        -11    1    3    3    0    0  0.20005182598E+02 -0.19968472503E+02  0.27320529013E+02  0.39311048455E+02  0.51100000000E-03 0.  1.
         12    1    3    3    0    0 -0.26518171614E+02  0.21780470479E+02 -0.17992131947E+02  0.38746859641E+02  0.00000000000E+00 0. -1.
</event>
<event>
 7    1  0.1716782E-015  0.9000803E+02  0.7816164E-02  0.1186338E+00
        -11   -1    0    0    0    0  0.00000000000E+00  0.00000000000E+00  0.45593999997E+02  0.45594000000E+02  0.51100000000E-03 0.  1.
         11   -1    0    0    0    0 -0.00000000000E+00 -0.00000000000E+00 -0.45593999997E+02  0.45594000000E+02  0.51100000000E-03 0. -1.
    9900012    2    1    2    0    0 -0.75247987056E+00 -0.90401983704E+00  0.94034756820E-01  0.90008033748E+02  0.90000298993E+02 0.  0.
        -12    1    1    2    0    0  0.75247987056E+00  0.90401983704E+00 -0.94034756820E-01  0.11799662524E+01  0.00000000000E+00 0.  1.
         11    1    3    3    0    0 -0.14839006966E+02  0.14060514089E+02 -0.30020061447E+02  0.36319392530E+02  0.51100000000E-03 0. -1.
        -11    1    3    3    0    0  0.29058672991E+01  0.96894786673E+01 -0.33406964001E+01  0.10653183294E+02  0.51100000000E-03 0.  1.
        -12    1    3    3    0    0  0.11180659797E+02 -0.24654012594E+02  0.33454792604E+02  0.43035457923E+02  0.00000000000E+00 0.  1.
</event>
<event>
 7    1  0.1981003E-015  0.9000772E+02  0.7816164E-02  0.1186339E+00
        -11   -1    0    0    0    0  0.00000000000E+00  0.00000000000E+00  0.45593999997E+02  0.45594000000E+02  0.51100000000E-03 0.  1.
         11   -1    0    0    0    0 -0.00000000000E+00 -0.00000000000E+00 -0.45593999997E+02  0.45594000000E+02  0.51100000000E-03 0. -1.
    9900012    2    1    2    0    0  0.56183082518E+00 -0.10199899629E+01  0.19244578653E+00  0.90007716652E+02  0.89999977712E+02 0.  0.
        -12    1    1    2    0    0 -0.56183082518E+00  0.10199899629E+01 -0.19244578653E+00  0.11802833479E+01  0.00000000000E+00 0.  1.
         11    1    3    3    0    0 -0.35815727304E+01 -0.26319608602E+02  0.28015125276E+02  0.38605656382E+02  0.51100000000E-03 0. -1.
        -11    1    3    3    0    0 -0.84529141716E+01 -0.37874870287E+01 -0.56007125362E-01  0.92628264068E+01  0.51100000000E-03 0.  1.
        -12    1    3    3    0    0  0.12596317727E+02  0.29087105668E+02 -0.27766672364E+02  0.42139233863E+02  0.00000000000E+00 0.  1.
</event>
<event>
 7    1  0.1716782E-015  0.9000778E+02  0.7816164E-02  0.1186339E+00
        -11   -1    0    0    0    0  0.00000000000E+00  0.00000000000E+00  0.45593999997E+02  0.45594000000E+02  0.51100000000E-03 0.  1.
         11   -1    0    0    0    0 -0.00000000000E+00 -0.00000000000E+00 -0.45593999997E+02  0.45594000000E+02  0.51100000000E-03 0. -1.
    9900012    2    1    2    0    0  0.86738940109E+00  0.23782672461E+00 -0.76419085706E+00  0.90007782397E+02  0.90000044325E+02 0.  0.
        -12    1    1    2    0    0 -0.86738940109E+00 -0.23782672461E+00  0.76419085706E+00  0.11802176028E+01  0.00000000000E+00 0.  1.
         11    1    3    3    0    0 -0.94977885038E+01 -0.13501723302E+01 -0.16425897688E+01  0.97328851423E+01  0.51100000000E-03 0. -1.
        -11    1    3    3    0    0  0.84911720535E+01  0.37637938559E+02 -0.14254344175E+02  0.41132721159E+02  0.51100000000E-03 0.  1.
         12    1    3    3    0    0  0.18740058513E+01 -0.36049939504E+02  0.15132743087E+02  0.39142176096E+02  0.00000000000E+00 0. -1.
</event>
<event>
 7    1  0.1716782E-015  0.9000740E+02  0.7816164E-02  0.1186340E+00
        -11   -1    0    0    0    0  0.00000000000E+00  0.00000000000E+00  0.45593999997E+02  0.45594000000E+02  0.51100000000E-03 0.  1.
         11   -1    0    0    0    0 -0.00000000000E+00 -0.00000000000E+00 -0.45593999997E+02  0.45594000000E+02  0.51100000000E-03 0. -1.
    9900012    2    1    2    0    0 -0.10020070162E+01  0.50795419980E+00 -0.36303111828E+00  0.90007395442E+02  0.89999652261E+02 0.  0.
        -12    1    1    2    0    0  0.10020070162E+01 -0.50795419980E+00  0.36303111828E+00  0.11806045580E+01  0.00000000000E+00 0.  1.
         11    1    3    3    0    0  0.89942618601E+01  0.81818669984E+00  0.89127840644E+00  0.90752715299E+01  0.51100000000E-03 0. -1.
        -11    1    3    3    0    0  0.62193657615E+01 -0.11051515079E+02  0.36402792763E+02  0.38548408751E+02  0.51100000000E-03 0.  1.
         12    1    3    3    0    0 -0.16215634638E+02  0.10741282579E+02 -0.37657102288E+02  0.42383715161E+02  0.00000000000E+00 0. -1.
</event>
<event>
 7    1  0.1900293E-015  0.9000769E+02  0.7816164E-02  0.1186339E+00
        -11   -1    0    0    0    0  0.00000000000E+00  0.00000000000E+00  0.45593999997E+02  0.45594000000E+02  0.51100000000E-03 0. -1.
         11   -1    0    0    0    0 -0.00000000000E+00 -0.00000000000E+00 -0.45593999997E+02  0.45594000000E+02  0.51100000000E-03 0.  1.
    9900012    2    1    2    0    0 -0.11018069986E+01  0.31212675105E+00  0.28588204051E+00  0.90007690586E+02  0.89999951302E+02 0.  0.
        -12    1    1    2    0    0  0.11018069986E+01 -0.31212675105E+00 -0.28588204051E+00  0.11803094136E+01  0.00000000000E+00 0.  1.
         11    1    3    3    0    0 -0.34282901419E+02  0.22156226466E+02  0.15385778070E+02  0.43622676076E+02  0.51100000000E-03 0. -1.
        -11    1    3    3    0    0  0.81337930209E+01  0.29088550589E+01 -0.26850561505E+01  0.90459689063E+01  0.51100000000E-03 0.  1.
        -12    1    3    3    0    0  0.25047301399E+02 -0.24752954774E+02 -0.12414839879E+02  0.37339045605E+02  0.00000000000E+00 0.  1.
</event>
<event>
 7    1  0.1716782E-015  0.9000784E+02  0.7816164E-02  0.1186339E+00
        -11   -1    0    0    0    0  0.00000000000E+00  0.00000000000E+00  0.45593999997E+02  0.45594000000E+02  0.51100000000E-03 0. -1.
         11   -1    0    0    0    0 -0.00000000000E+00 -0.00000000000E+00 -0.45593999997E+02  0.45594000000E+02  0.51100000000E-03 0.  1.
    9900012    2    1    2    0    0  0.82714293505E+00  0.65679925842E-01  0.83922592607E+00  0.90007839230E+02  0.90000101908E+02 0.  0.
        -12    1    1    2    0    0 -0.82714293505E+00 -0.65679925842E-01 -0.83922592607E+00  0.11801607698E+01  0.00000000000E+00 0.  1.
         11    1    3    3    0    0  0.33294873094E+02 -0.76407073289E+01  0.17251967468E+02  0.38269561856E+02  0.51100000000E-03 0. -1.
        -11    1    3    3    0    0  0.74850876599E+01  0.38137630609E+01 -0.80747080979E-01  0.84010622134E+01  0.51100000000E-03 0.  1.
        -12    1    3    3    0    0 -0.39952817819E+02  0.38926241938E+01 -0.16331994461E+02  0.43337215161E+02  0.00000000000E+00 0.  1.
</event>
<event>
 7    1  0.1716782E-015  0.9000771E+02  0.7816164E-02  0.1186339E+00
        -11   -1    0    0    0    0  0.00000000000E+00  0.00000000000E+00  0.45593999997E+02  0.45594000000E+02  0.51100000000E-03 0.  1.
         11   -1    0    0    0    0 -0.00000000000E+00 -0.00000000000E+00 -0.45593999997E+02  0.45594000000E+02  0.51100000000E-03 0. -1.
    9900012    2    1    2    0    0  0.97878749008E+00  0.65956393342E+00 -0.54311388093E-02  0.90007712310E+02  0.89999973313E+02 0.  0.
        -12    1    1    2    0    0 -0.97878749008E+00 -0.65956393342E+00  0.54311388093E-02  0.11802876896E+01  0.00000000000E+00 0.  1.
         11    1    3    3    0    0  0.16555701527E+01  0.63004118908E+01  0.11334130023E+01  0.66121651385E+01  0.51100000000E-03 0. -1.
        -11    1    3    3    0    0  0.18457349865E+02  0.30078115307E+02  0.16795911601E+02  0.39082853417E+02  0.51100000000E-03 0.  1.
         12    1    3    3    0    0 -0.19134132527E+02 -0.35718963265E+02 -0.17934755742E+02  0.44312693755E+02  0.00000000000E+00 0. -1.
</event>
<event>
 7    1  0.1716782E-015  0.9000771E+02  0.7816164E-02  0.1186339E+00
        -11   -1    0    0    0    0  0.00000000000E+00  0.00000000000E+00  0.45593999997E+02  0.45594000000E+02  0.51100000000E-03 0. -1.
         11   -1    0    0    0    0 -0.00000000000E+00 -0.00000000000E+00 -0.45593999997E+02  0.45594000000E+02  0.51100000000E-03 0.  1.
    9900012    2    1    2    0    0  0.48182628988E-01 -0.60027381097E-01  0.11777783504E+01  0.90007709063E+02  0.89999970023E+02 0.  0.
        -12    1    1    2    0    0 -0.48182628988E-01  0.60027381097E-01 -0.11777783504E+01  0.11802909366E+01  0.00000000000E+00 0.  1.
         11    1    3    3    0    0 -0.52872992491E+01 -0.64287340389E+01 -0.52405967508E+01  0.98360565908E+01  0.51100000000E-03 0. -1.
        -11    1    3    3    0    0  0.33801031580E+02  0.14356678549E+02 -0.18850711894E+02  0.41279211403E+02  0.51100000000E-03 0.  1.
         12    1    3    3    0    0 -0.28465549702E+02 -0.79879718909E+01  0.25269086996E+02  0.38892441070E+02  0.00000000000E+00 0. -1.
</event>
<event>
 7    1  0.1716782E-015  0.9000702E+02  0.7816164E-02  0.1186340E+00
        -11   -1    0    0    0    0  0.00000000000E+00  0.00000000000E+00  0.45593999997E+02  0.45594000000E+02  0.51100000000E-03 0.  1.
         11   -1    0    0    0    0 -0.00000000000E+00 -0.00000000000E+00 -0.45593999997E+02  0.45594000000E+02  0.51100000000E-03 0. -1.
    9900012    2    1    2    0    0 -0.10518758975E+01 -0.79132850751E-01 -0.53104867543E+00  0.90007018371E+02  0.89999270211E+02 0.  0.
        -12    1    1    2    0    0  0.10518758975E+01  0.79132850751E-01  0.53104867543E+00  0.11809816287E+01  0.00000000000E+00 0.  1.
         11    1    3    3    0    0 -0.10550053717E+02  0.61640941336E+01  0.32410925591E+01  0.12641375366E+02  0.51100000000E-03 0. -1.
        -11    1    3    3    0    0  0.33360803903E+02 -0.20389301914E+02  0.17075861010E+02  0.42664410216E+02  0.51100000000E-03 0.  1.
         12    1    3    3    0    0 -0.23862626083E+02  0.14146074929E+02 -0.20848002245E+02  0.34701232789E+02  0.00000000000E+00 0. -1.
</event>
<event>
 7    1  0.1716782E-015  0.9000775E+02  0.7816164E-02  0.1186339E+00
        -11   -1    0    0    0    0  0.00000000000E+00  0.00000000000E+00  0.45593999997E+02  0.45594000000E+02  0.51100000000E-03 0.  1.
         11   -1    0    0    0    0 -0.00000000000E+00 -0.00000000000E+00 -0.45593999997E+02  0.45594000000E+02  0.51100000000E-03 0. -1.
    9900012    2    1    2    0    0 -0.81094150132E+00  0.12632944380E+00  0.84817343950E+00  0.90007752810E+02  0.90000014347E+02 0.  0.
        -12    1    1    2    0    0  0.81094150132E+00 -0.12632944380E+00 -0.84817343950E+00  0.11802471904E+01  0.00000000000E+00 0.  1.
         11    1    3    3    0    0 -0.21695799243E+02  0.35792653635E+02 -0.31550339630E+01  0.41973515442E+02  0.51100000000E-03 0. -1.
        -11    1    3    3    0    0 -0.28271375198E+01 -0.61117111415E+01  0.73830054263E+01  0.99927218023E+01  0.51100000000E-03 0.  1.
        -12    1    3    3    0    0  0.23711995261E+02 -0.29554613050E+02 -0.33797980237E+01  0.38041515565E+02  0.00000000000E+00 0.  1.
</event>
<event>
 7    1  0.1716782E-015  0.9000766E+02  0.7816164E-02  0.1186339E+00
        -11   -1    0    0    0    0  0.00000000000E+00  0.00000000000E+00  0.45593999997E+02  0.45594000000E+02  0.51100000000E-03 0.  1.
         11   -1    0    0    0    0 -0.00000000000E+00 -0.00000000000E+00 -0.45593999997E+02  0.45594000000E+02  0.51100000000E-03 0. -1.
    9900012    2    1    2    0    0 -0.34609600957E+00  0.41847297657E+00 -0.10479936609E+01  0.90007664118E+02  0.89999924485E+02 0.  0.
        -12    1    1    2    0    0  0.34609600957E+00 -0.41847297657E+00  0.10479936609E+01  0.11803358815E+01  0.00000000000E+00 0.  1.
         11    1    3    3    0    0 -0.20096857615E+01 -0.68953619193E+01  0.19840469871E+01  0.74512613407E+01  0.51100000000E-03 0. -1.
        -11    1    3    3    0    0 -0.16715703132E+02  0.13784392050E+02  0.34228039801E+02  0.40509047190E+02  0.51100000000E-03 0.  1.
         12    1    3    3    0    0  0.18379292884E+02 -0.64705571538E+01 -0.37260080449E+02  0.42047355587E+02  0.00000000000E+00 0. -1.
</event>
<event>
 7    1  0.1716782E-015  0.9000771E+02  0.7816164E-02  0.1186339E+00
        -11   -1    0    0    0    0  0.00000000000E+00  0.00000000000E+00  0.45593999997E+02  0.45594000000E+02  0.51100000000E-03 0.  1.
         11   -1    0    0    0    0 -0.00000000000E+00 -0.00000000000E+00 -0.45593999997E+02  0.45594000000E+02  0.51100000000E-03 0. -1.
    9900012    2    1    2    0    0 -0.47523826769E-01  0.44039964856E+00 -0.10940211166E+01  0.90007706575E+02  0.89999967502E+02 0.  0.
        -12    1    1    2    0    0  0.47523826769E-01 -0.44039964856E+00  0.10940211166E+01  0.11802934246E+01  0.00000000000E+00 0.  1.
         11    1    3    3    0    0  0.23410187714E+02  0.15639911662E+02 -0.21981478812E+02  0.35718750491E+02  0.51100000000E-03 0. -1.
        -11    1    3    3    0    0  0.28527862918E+01  0.96930800551E+01 -0.34215118942E+01  0.10667752082E+02  0.51100000000E-03 0.  1.
        -12    1    3    3    0    0 -0.26310497833E+02 -0.24892592069E+02  0.24308969589E+02  0.43621204002E+02  0.00000000000E+00 0.  1.
</event>
<event>
 7    1  0.1716782E-015  0.9000781E+02  0.7816164E-02  0.1186339E+00
        -11   -1    0    0    0    0  0.00000000000E+00  0.00000000000E+00  0.45593999997E+02  0.45594000000E+02  0.51100000000E-03 0.  1.
         11   -1    0    0    0    0 -0.00000000000E+00 -0.00000000000E+00 -0.45593999997E+02  0.45594000000E+02  0.51100000000E-03 0. -1.
    9900012    2    1    2    0    0  0.10041907299E+01 -0.23112476619E+00 -0.57534605690E+00  0.90007813250E+02  0.90000075585E+02 0.  0.
        -12    1    1    2    0    0 -0.10041907299E+01  0.23112476619E+00  0.57534605690E+00  0.11801867500E+01  0.00000000000E+00 0.  1.
         11    1    3    3    0    0 -0.29031478762E+02  0.61832498657E+01 -0.22708521521E+02  0.37372935233E+02  0.51100000000E-03 0. -1.
        -11    1    3    3    0    0 -0.77549083764E+01  0.32276804607E+01  0.64835514805E+01  0.10610983232E+02  0.51100000000E-03 0.  1.
        -12    1    3    3    0    0  0.37790577868E+02 -0.96420550926E+01  0.15649623984E+02  0.42023894785E+02  0.00000000000E+00 0.  1.
</event>
<event>
 7    1  0.1716782E-015  0.9000773E+02  0.7816164E-02  0.1186339E+00
        -11   -1    0    0    0    0  0.00000000000E+00  0.00000000000E+00  0.45593999997E+02  0.45594000000E+02  0.51100000000E-03 0. -1.
         11   -1    0    0    0    0 -0.00000000000E+00 -0.00000000000E+00 -0.45593999997E+02  0.45594000000E+02  0.51100000000E-03 0.  1.
    9900012    2    1    2    0    0  0.18549551719E-01 -0.65139092986E+00  0.98406448099E+00  0.90007730060E+02  0.89999991296E+02 0.  0.
        -12    1    1    2    0    0 -0.18549551719E-01  0.65139092986E+00 -0.98406448099E+00  0.11802699404E+01  0.00000000000E+00 0.  1.
         11    1    3    3    0    0 -0.89739018158E+01  0.26708150759E+02  0.12565481433E+02  0.30850406070E+02  0.51100000000E-03 0. -1.
        -11    1    3    3    0    0  0.16062747488E+02  0.16758092992E+01  0.12785628521E+02  0.20598361357E+02  0.51100000000E-03 0.  1.
        -12    1    3    3    0    0 -0.70702961201E+01 -0.29035350989E+02 -0.24367045473E+02  0.38558962633E+02  0.00000000000E+00 0.  1.
</event>
<event>
 7    1  0.1716782E-015  0.9000768E+02  0.7816164E-02  0.1186339E+00
        -11   -1    0    0    0    0  0.00000000000E+00  0.00000000000E+00  0.45593999997E+02  0.45594000000E+02  0.51100000000E-03 0. -1.
         11   -1    0    0    0    0 -0.00000000000E+00 -0.00000000000E+00 -0.45593999997E+02  0.45594000000E+02  0.51100000000E-03 0.  1.
    9900012    2    1    2    0    0  0.96554747454E+00  0.49913744538E+00  0.46015301883E+00  0.90007677622E+02  0.89999938167E+02 0.  0.
        -12    1    1    2    0    0 -0.96554747454E+00 -0.49913744538E+00 -0.46015301883E+00  0.11803223779E+01  0.00000000000E+00 0.  1.
         11    1    3    3    0    0  0.47795796965E+01 -0.72567644380E+01  0.17650644323E+02  0.19673592896E+02  0.51100000000E-03 0. -1.
        -11    1    3    3    0    0  0.19290036272E+02 -0.17343453179E+02 -0.24235428166E+02  0.35500096425E+02  0.51100000000E-03 0.  1.
         12    1    3    3    0    0 -0.23104068494E+02  0.25099355062E+02  0.70449368628E+01  0.34833988300E+02  0.00000000000E+00 0. -1.
</event>
<event>
 7    1  0.1716782E-015  0.9000780E+02  0.7816164E-02  0.1186339E+00
        -11   -1    0    0    0    0  0.00000000000E+00  0.00000000000E+00  0.45593999997E+02  0.45594000000E+02  0.51100000000E-03 0.  1.
         11   -1    0    0    0    0 -0.00000000000E+00 -0.00000000000E+00 -0.45593999997E+02  0.45594000000E+02  0.51100000000E-03 0. -1.
    9900012    2    1    2    0    0 -0.65693427327E+00  0.90019570609E+00  0.38854311473E+00  0.90007796331E+02  0.90000058442E+02 0.  0.
        -12    1    1    2    0    0  0.65693427327E+00 -0.90019570609E+00 -0.38854311473E+00  0.11802036691E+01  0.00000000000E+00 0.  1.
         11    1    3    3    0    0  0.20636235445E+01 -0.70514254984E+01  0.11750426417E+02  0.13858342792E+02  0.51100000000E-03 0. -1.
        -11    1    3    3    0    0  0.11490168387E+02 -0.28718148541E+02  0.85185509327E+01  0.32083044361E+02  0.51100000000E-03 0.  1.
         12    1    3    3    0    0 -0.14210726205E+02  0.36669769746E+02 -0.19880434235E+02  0.44066409178E+02  0.00000000000E+00 0. -1.
</event>
<event>
 7    1  0.1716782E-015  0.9000771E+02  0.7816164E-02  0.1186339E+00
        -11   -1    0    0    0    0  0.00000000000E+00  0.00000000000E+00  0.45593999997E+02  0.45594000000E+02  0.51100000000E-03 0. -1.
         11   -1    0    0    0    0 -0.00000000000E+00 -0.00000000000E+00 -0.45593999997E+02  0.45594000000E+02  0.51100000000E-03 0.  1.
    9900012    2    1    2    0    0  0.10911865926E+01  0.39485069410E+00  0.21561286003E+00  0.90007710139E+02  0.89999971113E+02 0.  0.
        -12    1    1    2    0    0 -0.10911865926E+01 -0.39485069410E+00 -0.21561286003E+00  0.11802898610E+01  0.00000000000E+00 0.  1.
         11    1    3    3    0    0 -0.39424563067E+02  0.50268204507E+01  0.78412562723E+01  0.40509880240E+02  0.51100000000E-03 0. -1.
        -11    1    3    3    0    0  0.39437481681E+01  0.89593227899E+01 -0.25703153395E+00  0.97922765452E+01  0.51100000000E-03 0.  1.
        -12    1    3    3    0    0  0.36572001491E+02 -0.13591292547E+02 -0.73686118783E+01  0.39705553354E+02  0.00000000000E+00 0.  1.
</event>
<event>
 7    1  0.1716782E-015  0.9000779E+02  0.7816164E-02  0.1186339E+00
        -11   -1    0    0    0    0  0.00000000000E+00  0.00000000000E+00  0.45593999997E+02  0.45594000000E+02  0.51100000000E-03 0. -1.
         11   -1    0    0    0    0 -0.00000000000E+00 -0.00000000000E+00 -0.45593999997E+02  0.45594000000E+02  0.51100000000E-03 0.  1.
    9900012    2    1    2    0    0 -0.11225791862E+01  0.24468726569E+00 -0.26989926241E+00  0.90007787519E+02  0.90000049515E+02 0.  0.
        -12    1    1    2    0    0  0.11225791862E+01 -0.24468726569E+00  0.26989926241E+00  0.11802124805E+01  0.00000000000E+00 0.  1.
         11    1    3    3    0    0  0.52770926427E-01 -0.64541380326E+01  0.69635401519E+01  0.94947129616E+01  0.51100000000E-03 0. -1.
        -11    1    3    3    0    0  0.90829699786E-01 -0.19626911576E+02  0.29420862266E+02  0.35366807105E+02  0.51100000000E-03 0.  1.
         12    1    3    3    0    0 -0.12661798125E+01  0.26325736875E+02 -0.36654301680E+02  0.45146267453E+02  0.00000000000E+00 0. -1.
</event>
<event>
 7    1  0.1716782E-015  0.9000775E+02  0.7816164E-02  0.1186339E+00
        -11   -1    0    0    0    0  0.00000000000E+00  0.00000000000E+00  0.45593999997E+02  0.45594000000E+02  0.51100000000E-03 0. -1.
         11   -1    0    0    0    0 -0.00000000000E+00 -0.00000000000E+00 -0.45593999997E+02  0.45594000000E+02  0.51100000000E-03 0.  1.
    9900012    2    1    2    0    0 -0.26590778667E+00  0.10921396597E+01  0.35988920684E+00  0.90007747388E+02  0.90000008853E+02 0.  0.
        -12    1    1    2    0    0  0.26590778667E+00 -0.10921396597E+01 -0.35988920684E+00  0.11802526121E+01  0.00000000000E+00 0.  1.
         11    1    3    3    0    0 -0.16924797681E+01 -0.21218742885E-01 -0.71652289095E+01  0.73624346236E+01  0.51100000000E-03 0. -1.
        -11    1    3    3    0    0  0.23858399062E+02  0.21123352369E+02 -0.23387505281E+02  0.39527137825E+02  0.51100000000E-03 0.  1.
         12    1    3    3    0    0 -0.22431827081E+02 -0.20009993967E+02  0.30912623398E+02  0.43118174939E+02  0.00000000000E+00 0. -1.
</event>
<event>
 7    1  0.1716782E-015  0.9000769E+02  0.7816164E-02  0.1186339E+00
        -11   -1    0    0    0    0  0.00000000000E+00  0.00000000000E+00  0.45593999997E+02  0.45594000000E+02  0.51100000000E-03 0. -1.
         11   -1    0    0    0    0 -0.00000000000E+00 -0.00000000000E+00 -0.45593999997E+02  0.45594000000E+02  0.51100000000E-03 0.  1.
    9900012    2    1    2    0    0 -0.75993658932E+00 -0.67069554130E+00  0.60480140683E+00  0.90007694586E+02  0.89999955354E+02 0.  0.
        -12    1    1    2    0    0  0.75993658932E+00  0.67069554130E+00 -0.60480140683E+00  0.11803054141E+01  0.00000000000E+00 0.  1.
         11    1    3    3    0    0 -0.22293557967E+02  0.17911181544E+02  0.22297548361E+02  0.36262843440E+02  0.51100000000E-03 0. -1.
        -11    1    3    3    0    0 -0.33686527716E+01 -0.84349396333E+00  0.94710363737E+01  0.10087607933E+02  0.51100000000E-03 0.  1.
        -12    1    3    3    0    0  0.24902274150E+02 -0.17738383122E+02 -0.31163783328E+02  0.43657243213E+02  0.00000000000E+00 0.  1.
</event>
<event>
 7    1  0.1716782E-015  0.9000766E+02  0.7816164E-02  0.1186339E+00
        -11   -1    0    0    0    0  0.00000000000E+00  0.00000000000E+00  0.45593999997E+02  0.45594000000E+02  0.51100000000E-03 0.  1.
         11   -1    0    0    0    0 -0.00000000000E+00 -0.00000000000E+00 -0.45593999997E+02  0.45594000000E+02  0.51100000000E-03 0. -1.
    9900012    2    1    2    0    0 -0.10941990415E-01 -0.11769077968E+01 -0.89319101515E-01  0.90007657003E+02  0.89999917275E+02 0.  0.
        -12    1    1    2    0    0  0.10941990415E-01  0.11769077968E+01  0.89319101515E-01  0.11803429973E+01  0.00000000000E+00 0.  1.
         11    1    3    3    0    0 -0.54613272657E+00  0.69436535344E+01  0.64772092459E+01  0.95114050086E+01  0.51100000000E-03 0. -1.
        -11    1    3    3    0    0 -0.10731163638E+02  0.30782214925E+02  0.13515191451E+02  0.35289701458E+02  0.51100000000E-03 0.  1.
         12    1    3    3    0    0  0.11266354374E+02 -0.38902776257E+02 -0.20081719799E+02  0.45206550537E+02  0.00000000000E+00 0. -1.
</event>
<event>
 7    1  0.1716782E-015  0.9000774E+02  0.7816164E-02  0.1186339E+00
        -11   -1    0    0    0    0  0.00000000000E+00  0.00000000000E+00  0.45593999997E+02  0.45594000000E+02  0.51100000000E-03 0.  1.
         11   -1    0    0    0    0 -0.00000000000E+00 -0.00000000000E+00 -0.45593999997E+02  0.45594000000E+02  0.51100000000E-03 0. -1.
    9900012    2    1    2    0    0  0.24111769122E+00  0.86894242496E+00 -0.76145160970E+00  0.90007742726E+02  0.90000004130E+02 0.  0.
        -12    1    1    2    0    0 -0.24111769122E+00 -0.86894242496E+00  0.76145160970E+00  0.11802572740E+01  0.00000000000E+00 0.  1.
         11    1    3    3    0    0  0.65156842614E+01 -0.20322420020E+01 -0.77357771486E+01  0.10316317042E+02  0.51100000000E-03 0. -1.
        -11    1    3    3    0    0 -0.32276447547E+02 -0.57435041388E+01  0.29590091559E+02  0.44162545497E+02  0.51100000000E-03 0.  1.
         12    1    3    3    0    0  0.26001880976E+02  0.86446885658E+01 -0.22615766020E+02  0.35528880188E+02  0.00000000000E+00 0. -1.
</event>
<event>
 7    1  0.1716782E-015  0.9000775E+02  0.7816164E-02  0.1186339E+00
        -11   -1    0    0    0    0  0.00000000000E+00  0.00000000000E+00  0.45593999997E+02  0.45594000000E+02  0.51100000000E-03 0. -1.
         11   -1    0    0    0    0 -0.00000000000E+00 -0.00000000000E+00 -0.45593999997E+02  0.45594000000E+02  0.51100000000E-03 0.  1.
    9900012    2    1    2    0    0 -0.74838016970E+00  0.70645457067E-01  0.90990011611E+00  0.90007753466E+02  0.90000015012E+02 0.  0.
        -12    1    1    2    0    0  0.74838016970E+00 -0.70645457067E-01 -0.90990011611E+00  0.11802465337E+01  0.00000000000E+00 0.  1.
         11    1    3    3    0    0 -0.66250589460E+01 -0.67737858135E+01 -0.11867614124E+02  0.15186041141E+02  0.51100000000E-03 0. -1.
        -11    1    3    3    0    0 -0.16085998793E+02 -0.15033682053E+02 -0.19972446189E+02  0.29726580030E+02  0.51100000000E-03 0.  1.
         12    1    3    3    0    0  0.21962677569E+02  0.21878113323E+02  0.32749960429E+02  0.45095132295E+02  0.00000000000E+00 0. -1.
</event>
<event>
 7    1  0.1716782E-015  0.9000787E+02  0.7816164E-02  0.1186339E+00
        -11   -1    0    0    0    0  0.00000000000E+00  0.00000000000E+00  0.45593999997E+02  0.45594000000E+02  0.51100000000E-03 0. -1.
         11   -1    0    0    0    0 -0.00000000000E+00 -0.00000000000E+00 -0.45593999997E+02  0.45594000000E+02  0.51100000000E-03 0.  1.
    9900012    2    1    2    0    0  0.26857182917E+00  0.46756061079E+00  0.10497434562E+01  0.90007870738E+02  0.90000133831E+02 0.  0.
        -12    1    1    2    0    0 -0.26857182917E+00 -0.46756061079E+00 -0.10497434562E+01  0.11801292624E+01  0.00000000000E+00 0.  1.
         11    1    3    3    0    0 -0.14209084797E+02 -0.26498849344E+02  0.24722485639E+02  0.38926705534E+02  0.51100000000E-03 0. -1.
        -11    1    3    3    0    0  0.99210662315E+01  0.50948812673E+00  0.55657790797E+01  0.11387055385E+02  0.51100000000E-03 0.  1.
        -12    1    3    3    0    0  0.45565903948E+01  0.26456921828E+02 -0.29238521263E+02  0.39694109818E+02  0.00000000000E+00 0.  1.
</event>
<event>
 7    1  0.1716782E-015  0.9000781E+02  0.7816164E-02  0.1186339E+00
        -11   -1    0    0    0    0  0.00000000000E+00  0.00000000000E+00  0.45593999997E+02  0.45594000000E+02  0.51100000000E-03 0. -1.
         11   -1    0    0    0    0 -0.00000000000E+00 -0.00000000000E+00 -0.45593999997E+02  0.45594000000E+02  0.51100000000E-03 0.  1.
    9900012    2    1    2    0    0 -0.21737250557E+00  0.11533934894E+00  0.11542457307E+01  0.90007814769E+02  0.90000077124E+02 0.  0.
        -12    1    1    2    0    0  0.21737250557E+00 -0.11533934894E+00 -0.11542457307E+01  0.11801852306E+01  0.00000000000E+00 0.  1.
         11    1    3    3    0    0 -0.68912318696E+01  0.60736737422E+01 -0.33264139696E+01  0.97695250430E+01  0.51100000000E-03 0. -1.
        -11    1    3    3    0    0  0.12399329863E+02 -0.41555281576E+02 -0.28002296433E+01  0.43456024832E+02  0.51100000000E-03 0.  1.
         12    1    3    3    0    0 -0.57254704993E+01  0.35596947182E+02  0.72808893436E+01  0.36782264894E+02  0.00000000000E+00 0. -1.
</event>
<event>
 7    1  0.1716782E-015  0.9000776E+02  0.7816164E-02  0.1186339E+00
        -11   -1    0    0    0    0  0.00000000000E+00  0.00000000000E+00  0.45593999997E+02  0.45594000000E+02  0.51100000000E-03 0. -1.
         11   -1    0    0    0    0 -0.00000000000E+00 -0.00000000000E+00 -0.45593999997E+02  0.45594000000E+02  0.51100000000E-03 0.  1.
    9900012    2    1    2    0    0  0.37370116088E+00  0.94726886474E+00  0.59666040276E+00  0.90007756595E+02  0.90000018182E+02 0.  0.
        -12    1    1    2    0    0 -0.37370116088E+00 -0.94726886474E+00 -0.59666040276E+00  0.11802434054E+01  0.00000000000E+00 0.  1.
         11    1    3    3    0    0  0.23490411370E+02 -0.28713543429E+02  0.16106530018E+02  0.40443631292E+02  0.51100000000E-03 0. -1.
        -11    1    3    3    0    0 -0.53514200929E+01  0.75307698305E+00  0.70020522124E+01  0.88449735669E+01  0.51100000000E-03 0.  1.
        -12    1    3    3    0    0 -0.17765290117E+02  0.28907735311E+02 -0.22511921828E+02  0.40719151736E+02  0.00000000000E+00 0.  1.
</event>
<event>
 7    1  0.1716782E-015  0.9000772E+02  0.7816164E-02  0.1186339E+00
        -11   -1    0    0    0    0  0.00000000000E+00  0.00000000000E+00  0.45593999997E+02  0.45594000000E+02  0.51100000000E-03 0. -1.
         11   -1    0    0    0    0 -0.00000000000E+00 -0.00000000000E+00 -0.45593999997E+02  0.45594000000E+02  0.51100000000E-03 0.  1.
    9900012    2    1    2    0    0  0.22265307333E+00 -0.21512728464E+00  0.11389452854E+01  0.90007724395E+02  0.89999985557E+02 0.  0.
        -12    1    1    2    0    0 -0.22265307333E+00  0.21512728464E+00 -0.11389452854E+01  0.11802756046E+01  0.00000000000E+00 0.  1.
         11    1    3    3    0    0  0.96031089086E+01 -0.17635320660E+01  0.18906495717E+01  0.99450642091E+01  0.51100000000E-03 0. -1.
        -11    1    3    3    0    0 -0.30009490838E+02  0.49877452881E+01 -0.30905661843E+02  0.43365966813E+02  0.51100000000E-03 0.  1.
         12    1    3    3    0    0  0.20629035003E+02 -0.34393405067E+01  0.30153957556E+02  0.36696693374E+02  0.00000000000E+00 0. -1.
</event>
<event>
 7    1  0.1716782E-015  0.9000784E+02  0.7816164E-02  0.1186339E+00
        -11   -1    0    0    0    0  0.00000000000E+00  0.00000000000E+00  0.45593999997E+02  0.45594000000E+02  0.51100000000E-03 0. -1.
         11   -1    0    0    0    0 -0.00000000000E+00 -0.00000000000E+00 -0.45593999997E+02  0.45594000000E+02  0.51100000000E-03 0.  1.
    9900012    2    1    2    0    0 -0.75044871318E+00  0.90848154301E+00 -0.65229444861E-01  0.90007844559E+02  0.90000107307E+02 0.  0.
        -12    1    1    2    0    0  0.75044871318E+00 -0.90848154301E+00  0.65229444861E-01  0.11801554413E+01  0.00000000000E+00 0.  1.
         11    1    3    3    0    0  0.88550765760E+01  0.39175282604E+01 -0.77822693170E-01  0.96832569660E+01  0.51100000000E-03 0. -1.
        -11    1    3    3    0    0 -0.40927775348E+02 -0.17346821432E+02 -0.74646540354E+01  0.45074561217E+02  0.51100000000E-03 0.  1.
         12    1    3    3    0    0  0.31322250059E+02  0.14337774715E+02  0.74772472837E+01  0.35250026376E+02  0.00000000000E+00 0. -1.
</event>
<event>
 7    1  0.1716782E-015  0.9000747E+02  0.7816164E-02  0.1186340E+00
        -11   -1    0    0    0    0  0.00000000000E+00  0.00000000000E+00  0.45593999997E+02  0.45594000000E+02  0.51100000000E-03 0.  1.
         11   -1    0    0    0    0 -0.00000000000E+00 -0.00000000000E+00 -0.45593999997E+02  0.45594000000E+02  0.51100000000E-03 0. -1.
    9900012    2    1    2    0    0 -0.89474555807E-01  0.22959385961E+00 -0.11545240214E+01  0.90007472680E+02  0.89999730519E+02 0.  0.
        -12    1    1    2    0    0  0.89474555807E-01 -0.22959385961E+00  0.11545240214E+01  0.11805273197E+01  0.00000000000E+00 0.  1.
         11    1    3    3    0    0  0.15084055612E+02  0.24366441940E+01  0.17531993958E+02  0.23255897769E+02  0.51100000000E-03 0. -1.
        -11    1    3    3    0    0 -0.97554917667E+01  0.29285138610E+02 -0.15774110378E+02  0.34664268657E+02  0.51100000000E-03 0.  1.
        -12    1    3    3    0    0 -0.54180384007E+01 -0.31492188945E+02 -0.29124076015E+01  0.32087306255E+02  0.00000000000E+00 0.  1.
</event>
<event>
 7    1  0.1716782E-015  0.9000783E+02  0.7816164E-02  0.1186339E+00
        -11   -1    0    0    0    0  0.00000000000E+00  0.00000000000E+00  0.45593999997E+02  0.45594000000E+02  0.51100000000E-03 0. -1.
         11   -1    0    0    0    0 -0.00000000000E+00 -0.00000000000E+00 -0.45593999997E+02  0.45594000000E+02  0.51100000000E-03 0.  1.
    9900012    2    1    2    0    0 -0.93783678527E-02  0.11168652037E+01 -0.38122338234E+00  0.90007827511E+02  0.90000090034E+02 0.  0.
        -12    1    1    2    0    0  0.93783678527E-02 -0.11168652037E+01  0.38122338234E+00  0.11801724892E+01  0.00000000000E+00 0.  1.
         11    1    3    3    0    0  0.15221038462E+02  0.12745391004E+02 -0.85737873063E+01  0.21624866074E+02  0.51100000000E-03 0. -1.
        -11    1    3    3    0    0  0.14658723158E+02 -0.21438864908E+02 -0.14359334371E+02  0.29676481884E+02  0.51100000000E-03 0.  1.
         12    1    3    3    0    0 -0.29889139988E+02  0.98103391076E+01  0.22551898295E+02  0.38706479552E+02  0.00000000000E+00 0. -1.
</event>
<event>
 7    1  0.1716782E-015  0.9000770E+02  0.7816164E-02  0.1186339E+00
        -11   -1    0    0    0    0  0.00000000000E+00  0.00000000000E+00  0.45593999997E+02  0.45594000000E+02  0.51100000000E-03 0.  1.
         11   -1    0    0    0    0 -0.00000000000E+00 -0.00000000000E+00 -0.45593999997E+02  0.45594000000E+02  0.51100000000E-03 0. -1.
    9900012    2    1    2    0    0 -0.17091645371E+00 -0.11673924097E+01 -0.33033021482E-01  0.90007699762E+02  0.89999960598E+02 0.  0.
        -12    1    1    2    0    0  0.17091645371E+00  0.11673924097E+01  0.33033021482E-01  0.11803002385E+01  0.00000000000E+00 0.  1.
         11    1    3    3    0    0  0.30316462223E+01 -0.59095164706E+01 -0.53828563554E+01  0.85491757811E+01  0.51100000000E-03 0. -1.
        -11    1    3    3    0    0 -0.31968643269E+02 -0.50494756621E+01  0.28604936072E+02  0.43194139936E+02  0.51100000000E-03 0.  1.
         12    1    3    3    0    0  0.28766080593E+02  0.97915997230E+01 -0.23255112738E+02  0.38264384044E+02  0.00000000000E+00 0. -1.
</event>
<event>
 7    1  0.1716782E-015  0.9000773E+02  0.7816164E-02  0.1186339E+00
        -11   -1    0    0    0    0  0.00000000000E+00  0.00000000000E+00  0.45593999997E+02  0.45594000000E+02  0.51100000000E-03 0. -1.
         11   -1    0    0    0    0 -0.00000000000E+00 -0.00000000000E+00 -0.45593999997E+02  0.45594000000E+02  0.51100000000E-03 0.  1.
    9900012    2    1    2    0    0  0.18752887598E+00  0.85449718165E+00  0.79228130983E+00  0.90007727918E+02  0.89999989127E+02 0.  0.
        -12    1    1    2    0    0 -0.18752887598E+00 -0.85449718165E+00 -0.79228130983E+00  0.11802720816E+01  0.00000000000E+00 0.  1.
         11    1    3    3    0    0 -0.29253591311E+02 -0.66549214024E+01  0.19651930161E+02  0.35864452356E+02  0.51100000000E-03 0. -1.
        -11    1    3    3    0    0 -0.71711747667E+01  0.46952259045E+01  0.54020664908E+01  0.10131792362E+02  0.51100000000E-03 0.  1.
        -12    1    3    3    0    0  0.36612294953E+02  0.28141926795E+01 -0.24261715342E+02  0.44011483201E+02  0.00000000000E+00 0.  1.
</event>
<event>
 7    1  0.1716782E-015  0.9000773E+02  0.7816164E-02  0.1186339E+00
        -11   -1    0    0    0    0  0.00000000000E+00  0.00000000000E+00  0.45593999997E+02  0.45594000000E+02  0.51100000000E-03 0.  1.
         11   -1    0    0    0    0 -0.00000000000E+00 -0.00000000000E+00 -0.45593999997E+02  0.45594000000E+02  0.51100000000E-03 0. -1.
    9900012    2    1    2    0    0  0.16082157368E+00 -0.10115405230E+01 -0.58647286563E+00  0.90007733831E+02  0.89999995117E+02 0.  0.
        -12    1    1    2    0    0 -0.16082157368E+00  0.10115405230E+01  0.58647286563E+00  0.11802661693E+01  0.00000000000E+00 0.  1.
         11    1    3    3    0    0  0.39976617913E+01  0.35868455677E+02 -0.21894375612E+02  0.42212451908E+02  0.51100000000E-03 0. -1.
        -11    1    3    3    0    0 -0.91252812382E+00  0.35770979551E+00  0.81264146105E+01  0.81853087027E+01  0.51100000000E-03 0.  1.
        -12    1    3    3    0    0 -0.29243120938E+01 -0.37237705995E+02  0.13181488136E+02  0.39609973220E+02  0.00000000000E+00 0.  1.
</event>
<event>
 7    1  0.1716782E-015  0.9000777E+02  0.7816164E-02  0.1186339E+00
        -11   -1    0    0    0    0  0.00000000000E+00  0.00000000000E+00  0.45593999997E+02  0.45594000000E+02  0.51100000000E-03 0.  1.
         11   -1    0    0    0    0 -0.00000000000E+00 -0.00000000000E+00 -0.45593999997E+02  0.45594000000E+02  0.51100000000E-03 0. -1.
    9900012    2    1    2    0    0  0.11434417388E+01 -0.28824769143E+00  0.48933916116E-01  0.90007771094E+02  0.90000032873E+02 0.  0.
        -12    1    1    2    0    0 -0.11434417388E+01  0.28824769143E+00 -0.48933916116E-01  0.11802289057E+01  0.00000000000E+00 0.  1.
         11    1    3    3    0    0 -0.20923853811E+01  0.26750491849E+01  0.78095796492E+01  0.85160729965E+01  0.51100000000E-03 0. -1.
        -11    1    3    3    0    0 -0.18060454612E+02 -0.19205283367E+02  0.26915975518E+02  0.37676155169E+02  0.51100000000E-03 0.  1.
         12    1    3    3    0    0  0.21296281732E+02  0.16241986491E+02 -0.34676621251E+02  0.43815542929E+02  0.00000000000E+00 0. -1.
</event>
<event>
 7    1  0.1716782E-015  0.9000766E+02  0.7816164E-02  0.1186339E+00
        -11   -1    0    0    0    0  0.00000000000E+00  0.00000000000E+00  0.45593999997E+02  0.45594000000E+02  0.51100000000E-03 0.  1.
         11   -1    0    0    0    0 -0.00000000000E+00 -0.00000000000E+00 -0.45593999997E+02  0.45594000000E+02  0.51100000000E-03 0. -1.
    9900012    2    1    2    0    0 -0.11408848467E+01  0.17039299372E+00 -0.25009209177E+00  0.90007661887E+02  0.89999922224E+02 0.  0.
        -12    1    1    2    0    0  0.11408848467E+01 -0.17039299372E+00  0.25009209177E+00  0.11803381126E+01  0.00000000000E+00 0.  1.
         11    1    3    3    0    0  0.14611799840E+01 -0.37287179885E+01 -0.96722865747E+01  0.10468596497E+02  0.51100000000E-03 0. -1.
        -11    1    3    3    0    0 -0.11553841394E+02 -0.33989272227E+02  0.17249513658E+02  0.39828477239E+02  0.51100000000E-03 0.  1.
         12    1    3    3    0    0  0.89517765631E+01  0.37888383209E+02 -0.78273191752E+01  0.39710588151E+02  0.00000000000E+00 0. -1.
</event>
<event>
 7    1  0.1716782E-015  0.9000779E+02  0.7816164E-02  0.1186339E+00
        -11   -1    0    0    0    0  0.00000000000E+00  0.00000000000E+00  0.45593999997E+02  0.45594000000E+02  0.51100000000E-03 0.  1.
         11   -1    0    0    0    0 -0.00000000000E+00 -0.00000000000E+00 -0.45593999997E+02  0.45594000000E+02  0.51100000000E-03 0. -1.
    9900012    2    1    2    0    0 -0.87012012054E+00  0.75035683243E+00 -0.26972887507E+00  0.90007788974E+02  0.90000050988E+02 0.  0.
        -12    1    1    2    0    0  0.87012012054E+00 -0.75035683243E+00  0.26972887507E+00  0.11802110261E+01  0.00000000000E+00 0.  1.
         11    1    3    3    0    0  0.13227743532E+01 -0.47282738413E+01  0.60578102380E+01  0.77976516111E+01  0.51100000000E-03 0. -1.
        -11    1    3    3    0    0 -0.64246621233E+01 -0.37602912156E+02  0.16892378705E+01  0.38185190989E+02  0.51100000000E-03 0.  1.
         12    1    3    3    0    0  0.42317676495E+01  0.43081542830E+02 -0.80167769836E+01  0.44024946374E+02  0.00000000000E+00 0. -1.
</event>
<event>
 7    1  0.1716782E-015  0.9000756E+02  0.7816164E-02  0.1186339E+00
        -11   -1    0    0    0    0  0.00000000000E+00  0.00000000000E+00  0.45593999997E+02  0.45594000000E+02  0.51100000000E-03 0.  1.
         11   -1    0    0    0    0 -0.00000000000E+00 -0.00000000000E+00 -0.45593999997E+02  0.45594000000E+02  0.51100000000E-03 0. -1.
    9900012    2    1    2    0    0  0.27490752601E-02  0.11551522716E+01 -0.24300823542E+00  0.90007560535E+02  0.89999819534E+02 0.  0.
        -12    1    1    2    0    0 -0.27490752601E-02 -0.11551522716E+01  0.24300823542E+00  0.11804394650E+01  0.00000000000E+00 0.  1.
         11    1    3    3    0    0 -0.92592268630E+01  0.21224741698E+01  0.43382956534E+01  0.10443131146E+02  0.51100000000E-03 0. -1.
        -11    1    3    3    0    0  0.34625836166E+02  0.15307473771E+02  0.17987228398E+02  0.41914289558E+02  0.51100000000E-03 0.  1.
         12    1    3    3    0    0 -0.25363860228E+02 -0.16274795669E+02 -0.22568532286E+02  0.37650139831E+02  0.00000000000E+00 0. -1.
</event>
<event>
 7    1  0.1716782E-015  0.9000772E+02  0.7816164E-02  0.1186339E+00
        -11   -1    0    0    0    0  0.00000000000E+00  0.00000000000E+00  0.45593999997E+02  0.45594000000E+02  0.51100000000E-03 0.  1.
         11   -1    0    0    0    0 -0.00000000000E+00 -0.00000000000E+00 -0.45593999997E+02  0.45594000000E+02  0.51100000000E-03 0. -1.
    9900012    2    1    2    0    0  0.77759571427E+00 -0.74612647213E+00  0.48136269906E+00  0.90007716197E+02  0.89999977251E+02 0.  0.
        -12    1    1    2    0    0 -0.77759571427E+00  0.74612647213E+00 -0.48136269906E+00  0.11802838029E+01  0.00000000000E+00 0.  1.
         11    1    3    3    0    0  0.17785771213E+02  0.10984454981E+02 -0.31913665399E+02  0.38150674284E+02  0.51100000000E-03 0. -1.
        -11    1    3    3    0    0 -0.46594933947E+01  0.76949659165E+01 -0.31315783635E+01  0.95252381838E+01  0.51100000000E-03 0.  1.
        -12    1    3    3    0    0 -0.12348682104E+02 -0.19425547370E+02  0.35526606461E+02  0.42331803729E+02  0.00000000000E+00 0.  1.
</event>
<event>
 7    1  0.1716782E-015  0.9000752E+02  0.7816164E-02  0.1186339E+00
        -11   -1    0    0    0    0  0.00000000000E+00  0.00000000000E+00  0.45593999997E+02  0.45594000000E+02  0.51100000000E-03 0.  1.
         11   -1    0    0    0    0 -0.00000000000E+00 -0.00000000000E+00 -0.45593999997E+02  0.45594000000E+02  0.51100000000E-03 0. -1.
    9900012    2    1    2    0    0 -0.82369968406E-02  0.70702507738E+00 -0.94528802020E+00  0.90007524778E+02  0.89999783305E+02 0.  0.
        -12    1    1    2    0    0  0.82369968406E-02 -0.70702507738E+00  0.94528802020E+00  0.11804752218E+01  0.00000000000E+00 0.  1.
         11    1    3    3    0    0 -0.16555325954E+02 -0.20661107352E+01 -0.31592744168E+02  0.35727428054E+02  0.51100000000E-03 0. -1.
        -11    1    3    3    0    0 -0.19733119678E+01  0.22668366670E+01 -0.95535791499E+01  0.10015157684E+02  0.51100000000E-03 0.  1.
        -12    1    3    3    0    0  0.18520400925E+02  0.50629914553E+00  0.40201035298E+02  0.44264939040E+02  0.00000000000E+00 0.  1.
</event>
<event>
 7    1  0.1716782E-015  0.9000769E+02  0.7816164E-02  0.1186339E+00
        -11   -1    0    0    0    0  0.00000000000E+00  0.00000000000E+00  0.45593999997E+02  0.45594000000E+02  0.51100000000E-03 0.  1.
         11   -1    0    0    0    0 -0.00000000000E+00 -0.00000000000E+00 -0.45593999997E+02  0.45594000000E+02  0.51100000000E-03 0. -1.
    9900012    2    1    2    0    0 -0.76752135362E+00 -0.60045778110E+00 -0.66595771468E+00  0.90007687222E+02  0.89999947894E+02 0.  0.
        -12    1    1    2    0    0  0.76752135362E+00  0.60045778110E+00  0.66595771468E+00  0.11803127776E+01  0.00000000000E+00 0.  1.
         11    1    3    3    0    0  0.26413448223E+02 -0.61868347304E+01 -0.24672706702E+02  0.36670009916E+02  0.51100000000E-03 0. -1.
        -11    1    3    3    0    0 -0.98648646595E+01 -0.20375750849E+01 -0.10144222835E+02  0.14295891864E+02  0.51100000000E-03 0.  1.
        -12    1    3    3    0    0 -0.17316104917E+02  0.76239520343E+01  0.34150971823E+02  0.39041785443E+02  0.00000000000E+00 0.  1.
</event>
<event>
 7    1  0.1716782E-015  0.9000774E+02  0.7816164E-02  0.1186339E+00
        -11   -1    0    0    0    0  0.00000000000E+00  0.00000000000E+00  0.45593999997E+02  0.45594000000E+02  0.51100000000E-03 0.  1.
         11   -1    0    0    0    0 -0.00000000000E+00 -0.00000000000E+00 -0.45593999997E+02  0.45594000000E+02  0.51100000000E-03 0. -1.
    9900012    2    1    2    0    0  0.33875544610E-01 -0.11223860436E+01 -0.36347421138E+00  0.90007740924E+02  0.90000002305E+02 0.  0.
        -12    1    1    2    0    0 -0.33875544610E-01  0.11223860436E+01  0.36347421138E+00  0.11802590757E+01  0.00000000000E+00 0.  1.
         11    1    3    3    0    0  0.65538165881E+01  0.26063365735E+02 -0.29943479020E+02  0.40235102602E+02  0.51100000000E-03 0. -1.
        -11    1    3    3    0    0 -0.83104034842E+01  0.34357109324E+01  0.40414729495E+01  0.98590273122E+01  0.51100000000E-03 0.  1.
        -12    1    3    3    0    0  0.17904624407E+01 -0.30621462711E+02  0.25538531859E+02  0.39913611010E+02  0.00000000000E+00 0.  1.
</event>
<event>
 7    1  0.3186023E-015  0.9000766E+02  0.7816164E-02  0.1186339E+00
        -11   -1    0    0    0    0  0.00000000000E+00  0.00000000000E+00  0.45593999997E+02  0.45594000000E+02  0.51100000000E-03 0. -1.
         11   -1    0    0    0    0 -0.00000000000E+00 -0.00000000000E+00 -0.45593999997E+02  0.45594000000E+02  0.51100000000E-03 0.  1.
    9900012    2    1    2    0    0  0.53995246476E+00  0.15463255278E+00  0.10381406354E+01  0.90007662815E+02  0.89999923164E+02 0.  0.
        -12    1    1    2    0    0 -0.53995246476E+00 -0.15463255278E+00 -0.10381406354E+01  0.11803371846E+01  0.00000000000E+00 0.  1.
         11    1    3    3    0    0 -0.57046511585E+00  0.10716241342E+02  0.38411485025E+02  0.39882395127E+02  0.51100000000E-03 0. -1.
        -11    1    3    3    0    0  0.68739422763E+01 -0.55331006489E+01  0.27785707338E+01  0.92513102203E+01  0.51100000000E-03 0.  1.
        -12    1    3    3    0    0 -0.57635246956E+01 -0.50285081403E+01 -0.40151915124E+02  0.40873957468E+02  0.00000000000E+00 0.  1.
</event>
<event>
 7    1  0.1822050E-015  0.9000768E+02  0.7816164E-02  0.1186339E+00
        -11   -1    0    0    0    0  0.00000000000E+00  0.00000000000E+00  0.45593999997E+02  0.45594000000E+02  0.51100000000E-03 0. -1.
         11   -1    0    0    0    0 -0.00000000000E+00 -0.00000000000E+00 -0.45593999997E+02  0.45594000000E+02  0.51100000000E-03 0.  1.
    9900012    2    1    2    0    0  0.91502799597E+00 -0.73789208793E+00  0.10678564503E+00  0.90007676256E+02  0.89999936782E+02 0.  0.
        -12    1    1    2    0    0 -0.91502799597E+00  0.73789208793E+00 -0.10678564503E+00  0.11803237441E+01  0.00000000000E+00 0.  1.
         11    1    3    3    0    0  0.19711777360E+02  0.24113220829E+02  0.23182725159E+02  0.38825768911E+02  0.51100000000E-03 0. -1.
        -11    1    3    3    0    0 -0.76049074126E+01  0.55955229503E+01  0.26207799665E+01  0.97986214202E+01  0.51100000000E-03 0.  1.
        -12    1    3    3    0    0 -0.11191841952E+02 -0.30446635867E+02 -0.25696719481E+02  0.41383285925E+02  0.00000000000E+00 0.  1.
</event>
<event>
 7    1  0.1716782E-015  0.9000772E+02  0.7816164E-02  0.1186339E+00
        -11   -1    0    0    0    0  0.00000000000E+00  0.00000000000E+00  0.45593999997E+02  0.45594000000E+02  0.51100000000E-03 0.  1.
         11   -1    0    0    0    0 -0.00000000000E+00 -0.00000000000E+00 -0.45593999997E+02  0.45594000000E+02  0.51100000000E-03 0. -1.
    9900012    2    1    2    0    0  0.99985365087E+00  0.28996782581E+00 -0.55611828016E+00  0.90007721980E+02  0.89999983110E+02 0.  0.
        -12    1    1    2    0    0 -0.99985365087E+00 -0.28996782581E+00  0.55611828016E+00  0.11802780201E+01  0.00000000000E+00 0.  1.
         11    1    3    3    0    0 -0.84612263820E+01 -0.47676817544E+01  0.38157944914E+01  0.10434722280E+02  0.51100000000E-03 0. -1.
        -11    1    3    3    0    0  0.21153143201E+02 -0.29762399739E+02  0.13237607972E+02  0.38839286433E+02  0.51100000000E-03 0.  1.
         12    1    3    3    0    0 -0.11692063168E+02  0.34820049319E+02 -0.17609520743E+02  0.40733713267E+02  0.00000000000E+00 0. -1.
</event>
<event>
 7    1  0.1716782E-015  0.9000771E+02  0.7816164E-02  0.1186339E+00
        -11   -1    0    0    0    0  0.00000000000E+00  0.00000000000E+00  0.45593999997E+02  0.45594000000E+02  0.51100000000E-03 0.  1.
         11   -1    0    0    0    0 -0.00000000000E+00 -0.00000000000E+00 -0.45593999997E+02  0.45594000000E+02  0.51100000000E-03 0. -1.
    9900012    2    1    2    0    0  0.78067735539E+00  0.88160617923E+00  0.79930020332E-01  0.90007713850E+02  0.89999974873E+02 0.  0.
        -12    1    1    2    0    0 -0.78067735539E+00 -0.88160617923E+00 -0.79930020332E-01  0.11802861503E+01  0.00000000000E+00 0.  1.
         11    1    3    3    0    0  0.19648861223E+02  0.26722267025E+02 -0.11322033152E+01  0.33187937371E+02  0.51100000000E-03 0. -1.
        -11    1    3    3    0    0  0.46795936852E+01  0.11507633014E+02  0.23973736243E+01  0.12651941163E+02  0.51100000000E-03 0.  1.
        -12    1    3    3    0    0 -0.23547777553E+02 -0.37348293860E+02 -0.11852402888E+01  0.44167835316E+02  0.00000000000E+00 0.  1.
</event>
<event>
 7    1  0.1716782E-015  0.9000776E+02  0.7816164E-02  0.1186339E+00
        -11   -1    0    0    0    0  0.00000000000E+00  0.00000000000E+00  0.45593999997E+02  0.45594000000E+02  0.51100000000E-03 0. -1.
         11   -1    0    0    0    0 -0.00000000000E+00 -0.00000000000E+00 -0.45593999997E+02  0.45594000000E+02  0.51100000000E-03 0.  1.
    9900012    2    1    2    0    0 -0.83744045545E+00  0.34831444074E+00  0.75519950970E+00  0.90007764530E+02  0.90000026221E+02 0.  0.
        -12    1    1    2    0    0  0.83744045545E+00 -0.34831444074E+00 -0.75519950970E+00  0.11802354704E+01  0.00000000000E+00 0.  1.
         11    1    3    3    0    0 -0.12521870238E+02 -0.14770509741E+01 -0.14570542734E+01  0.12692593165E+02  0.51100000000E-03 0. -1.
        -11    1    3    3    0    0 -0.70769638442E+01  0.30557279918E+02  0.21427641963E+02  0.37986505678E+02  0.51100000000E-03 0.  1.
         12    1    3    3    0    0  0.18761393626E+02 -0.28731914503E+02 -0.19215388180E+02  0.39328665687E+02  0.00000000000E+00 0. -1.
</event>
<event>
 8    1  0.1716782E-015  0.9000767E+02  0.7816164E-02  0.1186339E+00
        -11   -1    0    0    0    0  0.00000000000E+00  0.00000000000E+00  0.45593999997E+02  0.45594000000E+02  0.51100000000E-03 0. -1.
         11   -1    0    0    0    0 -0.00000000000E+00 -0.00000000000E+00 -0.45593999997E+02  0.45594000000E+02  0.51100000000E-03 0.  1.
    9900012    2    1    2    0    0  0.11392431002E+01  0.25743151553E+00 -0.17039673839E+00  0.90007669167E+02  0.89999929600E+02 0.  0.
         23    2    3    3    0    0 -0.21453993507E+02  0.95451502788E+01 -0.14437136439E+02  0.61718874179E+02  0.55221416046E+02 0.  0.
        -12    1    1    2    0    0 -0.11392431002E+01 -0.25743151553E+00  0.17039673839E+00  0.11803308329E+01  0.00000000000E+00 0.  1.
         11    1    4    4    0    0 -0.32302728043E+02  0.23632953788E+02 -0.21052653268E+01  0.40080105865E+02  0.51100000000E-03 0. -1.
        -11    1    4    4    0    0  0.10848734536E+02 -0.14087803510E+02 -0.12331871112E+02  0.21638768314E+02  0.51100000000E-03 0.  1.
        -12    1    3    3    0    0  0.22593236607E+02 -0.92877187633E+01  0.14266739701E+02  0.28288794988E+02  0.00000000000E+00 0.  1.
</event>
<event>
 7    1  0.1716782E-015  0.9000771E+02  0.7816164E-02  0.1186339E+00
        -11   -1    0    0    0    0  0.00000000000E+00  0.00000000000E+00  0.45593999997E+02  0.45594000000E+02  0.51100000000E-03 0.  1.
         11   -1    0    0    0    0 -0.00000000000E+00 -0.00000000000E+00 -0.45593999997E+02  0.45594000000E+02  0.51100000000E-03 0. -1.
    9900012    2    1    2    0    0  0.23420782725E+00 -0.11190233742E+01  0.29327401224E+00  0.90007713482E+02  0.89999974500E+02 0.  0.
        -12    1    1    2    0    0 -0.23420782725E+00  0.11190233742E+01 -0.29327401224E+00  0.11802865180E+01  0.00000000000E+00 0.  1.
         11    1    3    3    0    0 -0.13498496168E+01  0.90966316030E+01  0.15493447146E+01  0.93258388263E+01  0.51100000000E-03 0. -1.
        -11    1    3    3    0    0 -0.29468582058E+02  0.95212432858E+01  0.21242768336E+02  0.37554049170E+02  0.51100000000E-03 0.  1.
         12    1    3    3    0    0  0.31052639502E+02 -0.19736898263E+02 -0.22498839038E+02  0.43127825486E+02  0.00000000000E+00 0. -1.
</event>
<event>
 7    1  0.1716782E-015  0.9000774E+02  0.7816164E-02  0.1186339E+00
        -11   -1    0    0    0    0  0.00000000000E+00  0.00000000000E+00  0.45593999997E+02  0.45594000000E+02  0.51100000000E-03 0. -1.
         11   -1    0    0    0    0 -0.00000000000E+00 -0.00000000000E+00 -0.45593999997E+02  0.45594000000E+02  0.51100000000E-03 0.  1.
    9900012    2    1    2    0    0  0.84211676451E+00 -0.98913124095E-01  0.82101135552E+00  0.90007744054E+02  0.90000005476E+02 0.  0.
        -12    1    1    2    0    0 -0.84211676451E+00  0.98913124095E-01 -0.82101135552E+00  0.11802559456E+01  0.00000000000E+00 0.  1.
         11    1    3    3    0    0  0.25313295394E+02  0.26399464051E+02  0.66266428367E+01  0.37169974730E+02  0.51100000000E-03 0. -1.
        -11    1    3    3    0    0  0.10149577770E+02 -0.27531071715E+01 -0.17501106113E+01  0.10660976289E+02  0.51100000000E-03 0.  1.
        -12    1    3    3    0    0 -0.34620756400E+02 -0.23745270004E+02 -0.40555208699E+01  0.42176793036E+02  0.00000000000E+00 0.  1.
</event>
<event>
 7    1  0.1716782E-015  0.9000773E+02  0.7816164E-02  0.1186339E+00
        -11   -1    0    0    0    0  0.00000000000E+00  0.00000000000E+00  0.45593999997E+02  0.45594000000E+02  0.51100000000E-03 0. -1.
         11   -1    0    0    0    0 -0.00000000000E+00 -0.00000000000E+00 -0.45593999997E+02  0.45594000000E+02  0.51100000000E-03 0.  1.
    9900012    2    1    2    0    0  0.21870336763E+00 -0.98179225543E+00 -0.61748376600E+00  0.90007731642E+02  0.89999992900E+02 0.  0.
        -12    1    1    2    0    0 -0.21870336763E+00  0.98179225543E+00  0.61748376600E+00  0.11802683581E+01  0.00000000000E+00 0.  1.
         11    1    3    3    0    0  0.66602002225E+01  0.23424975935E+02  0.32534760470E+02  0.40639862249E+02  0.51100000000E-03 0. -1.
        -11    1    3    3    0    0 -0.66501020632E+01  0.35958349391E+01 -0.27770708557E+01  0.80539437022E+01  0.51100000000E-03 0.  1.
        -12    1    3    3    0    0  0.20860520830E+00 -0.28002603129E+02 -0.30375173380E+02  0.41313925691E+02  0.00000000000E+00 0.  1.
</event>
<event>
 7    1  0.1716782E-015  0.9000778E+02  0.7816164E-02  0.1186339E+00
        -11   -1    0    0    0    0  0.00000000000E+00  0.00000000000E+00  0.45593999997E+02  0.45594000000E+02  0.51100000000E-03 0. -1.
         11   -1    0    0    0    0 -0.00000000000E+00 -0.00000000000E+00 -0.45593999997E+02  0.45594000000E+02  0.51100000000E-03 0.  1.
    9900012    2    1    2    0    0  0.98368929397E+00  0.55599777481E+00  0.34079604176E+00  0.90007779641E+02  0.90000041533E+02 0.  0.
        -12    1    1    2    0    0 -0.98368929397E+00 -0.55599777481E+00 -0.34079604176E+00  0.11802203586E+01  0.00000000000E+00 0.  1.
         11    1    3    3    0    0 -0.18656125529E+02  0.30138665659E+02  0.45560791427E+01  0.35737208129E+02  0.51100000000E-03 0. -1.
        -11    1    3    3    0    0 -0.85991402680E+01 -0.93308106498E+00  0.84544904188E+01  0.12095216498E+02  0.51100000000E-03 0.  1.
        -12    1    3    3    0    0  0.28238955091E+02 -0.28649586820E+02 -0.12669773520E+02  0.42175355014E+02  0.00000000000E+00 0.  1.
</event>
<event>
 7    1  0.1716782E-015  0.9000776E+02  0.7816164E-02  0.1186339E+00
        -11   -1    0    0    0    0  0.00000000000E+00  0.00000000000E+00  0.45593999997E+02  0.45594000000E+02  0.51100000000E-03 0. -1.
         11   -1    0    0    0    0 -0.00000000000E+00 -0.00000000000E+00 -0.45593999997E+02  0.45594000000E+02  0.51100000000E-03 0.  1.
    9900012    2    1    2    0    0 -0.83316537157E+00  0.76839001854E+00  0.32920572296E+00  0.90007760971E+02  0.90000022616E+02 0.  0.
        -12    1    1    2    0    0  0.83316537157E+00 -0.76839001854E+00 -0.32920572296E+00  0.11802390288E+01  0.00000000000E+00 0.  1.
         11    1    3    3    0    0  0.14438891978E+02 -0.26421346427E+02  0.19122261680E+02  0.35668333864E+02  0.51100000000E-03 0. -1.
        -11    1    3    3    0    0 -0.95298636276E+00 -0.10397326119E+02 -0.64216809461E+01  0.12257673510E+02  0.51100000000E-03 0.  1.
        -12    1    3    3    0    0 -0.14319070987E+02  0.37587062565E+02 -0.12371375011E+02  0.42081753598E+02  0.00000000000E+00 0.  1.
</event>
<event>
 7    1  0.1716782E-015  0.9000778E+02  0.7816164E-02  0.1186339E+00
        -11   -1    0    0    0    0  0.00000000000E+00  0.00000000000E+00  0.45593999997E+02  0.45594000000E+02  0.51100000000E-03 0.  1.
         11   -1    0    0    0    0 -0.00000000000E+00 -0.00000000000E+00 -0.45593999997E+02  0.45594000000E+02  0.51100000000E-03 0. -1.
    9900012    2    1    2    0    0  0.45917207598E+00  0.10646286490E+01 -0.22057852284E+00  0.90007776275E+02  0.90000038122E+02 0.  0.
        -12    1    1    2    0    0 -0.45917207598E+00 -0.10646286490E+01  0.22057852284E+00  0.11802237247E+01  0.00000000000E+00 0.  1.
         11    1    3    3    0    0 -0.19631030871E+01 -0.23308630357E+02 -0.32472783693E+02  0.40020341126E+02  0.51100000000E-03 0. -1.
        -11    1    3    3    0    0 -0.31783864118E+00  0.84612632128E+01 -0.46839268080E+01  0.96764232628E+01  0.51100000000E-03 0.  1.
        -12    1    3    3    0    0  0.27401138042E+01  0.15911995793E+02  0.36936131978E+02  0.40311011886E+02  0.00000000000E+00 0.  1.
</event>
<event>
 7    1  0.1716782E-015  0.9000776E+02  0.7816164E-02  0.1186339E+00
        -11   -1    0    0    0    0  0.00000000000E+00  0.00000000000E+00  0.45593999997E+02  0.45594000000E+02  0.51100000000E-03 0.  1.
         11   -1    0    0    0    0 -0.00000000000E+00 -0.00000000000E+00 -0.45593999997E+02  0.45594000000E+02  0.51100000000E-03 0. -1.
    9900012    2    1    2    0    0  0.59387185531E-01  0.89528385725E+00  0.76675064932E+00  0.90007759948E+02  0.90000021579E+02 0.  0.
        -12    1    1    2    0    0 -0.59387185531E-01 -0.89528385725E+00 -0.76675064932E+00  0.11802400523E+01  0.00000000000E+00 0.  1.
         11    1    3    3    0    0 -0.13001751713E+02 -0.22548063071E+02 -0.28168154739E+02  0.38352387637E+02  0.51100000000E-03 0. -1.
        -11    1    3    3    0    0 -0.17387814622E+01  0.22688217818E+01 -0.69060445717E+01  0.74742467941E+01  0.51100000000E-03 0.  1.
        -12    1    3    3    0    0  0.14799920361E+02  0.21174525146E+02  0.35840949960E+02  0.44181125516E+02  0.00000000000E+00 0.  1.
</event>
<event>
 7    1  0.1716782E-015  0.9000780E+02  0.7816164E-02  0.1186339E+00
        -11   -1    0    0    0    0  0.00000000000E+00  0.00000000000E+00  0.45593999997E+02  0.45594000000E+02  0.51100000000E-03 0. -1.
         11   -1    0    0    0    0 -0.00000000000E+00 -0.00000000000E+00 -0.45593999997E+02  0.45594000000E+02  0.51100000000E-03 0.  1.
    9900012    2    1    2    0    0  0.57627345960E+00 -0.91090380852E+00  0.48066837268E+00  0.90007797080E+02  0.90000059201E+02 0.  0.
        -12    1    1    2    0    0 -0.57627345960E+00  0.91090380852E+00 -0.48066837268E+00  0.11802029203E+01  0.00000000000E+00 0.  1.
         11    1    3    3    0    0 -0.16598852795E+02 -0.91361154535E+01  0.31976758114E+02  0.37168583232E+02  0.51100000000E-03 0. -1.
        -11    1    3    3    0    0  0.18442341919E+02 -0.20112525317E-01  0.17850075136E+01  0.18528535616E+02  0.51100000000E-03 0.  1.
        -12    1    3    3    0    0 -0.12672156642E+01  0.82453241703E+01 -0.33281097255E+02  0.34310678232E+02  0.00000000000E+00 0.  1.
</event>
<event>
 7    1  0.1716782E-015  0.9000651E+02  0.7816164E-02  0.1186342E+00
        -11   -1    0    0    0    0  0.00000000000E+00  0.00000000000E+00  0.45593999997E+02  0.45594000000E+02  0.51100000000E-03 0.  1.
         11   -1    0    0    0    0 -0.00000000000E+00 -0.00000000000E+00 -0.45593999997E+02  0.45594000000E+02  0.51100000000E-03 0. -1.
    9900012    2    1    2    0    0  0.65067375568E-01  0.47413213003E+00 -0.10802242124E+01  0.90006509675E+02  0.89998754794E+02 0.  0.
        -12    1    1    2    0    0 -0.65067375568E-01 -0.47413213003E+00  0.10802242124E+01  0.11814903254E+01  0.00000000000E+00 0.  1.
         11    1    3    3    0    0  0.35702243935E+02  0.18193398706E+02 -0.18628499628E+02  0.44189036843E+02  0.51100000000E-03 0. -1.
        -11    1    3    3    0    0 -0.10539806919E+01 -0.53736096402E+01  0.11199958929E+01  0.55893601535E+01  0.51100000000E-03 0.  1.
        -12    1    3    3    0    0 -0.34583195868E+02 -0.12345656935E+02  0.16428279522E+02  0.40228112678E+02  0.00000000000E+00 0.  1.
</event>
<event>
 7    1  0.1716782E-015  0.9000762E+02  0.7816164E-02  0.1186339E+00
        -11   -1    0    0    0    0  0.00000000000E+00  0.00000000000E+00  0.45593999997E+02  0.45594000000E+02  0.51100000000E-03 0. -1.
         11   -1    0    0    0    0 -0.00000000000E+00 -0.00000000000E+00 -0.45593999997E+02  0.45594000000E+02  0.51100000000E-03 0.  1.
    9900012    2    1    2    0    0 -0.10924317392E+01  0.55123624876E-03  0.44707789091E+00  0.90007624615E+02  0.89999884460E+02 0.  0.
        -12    1    1    2    0    0  0.10924317392E+01 -0.55123624876E-03 -0.44707789091E+00  0.11803753848E+01  0.00000000000E+00 0.  1.
         11    1    3    3    0    0  0.98256381432E+01  0.51747723536E+00  0.59468041744E+00  0.98572101870E+01  0.51100000000E-03 0. -1.
        -11    1    3    3    0    0  0.66047477174E+01  0.27378282619E+02 -0.25957600896E+02  0.38301306716E+02  0.51100000000E-03 0.  1.
         12    1    3    3    0    0 -0.17522817600E+02 -0.27895208618E+02  0.25809998370E+02  0.41849107712E+02  0.00000000000E+00 0. -1.
</event>
<event>
 7    1  0.1716782E-015  0.9000712E+02  0.7816164E-02  0.1186340E+00
        -11   -1    0    0    0    0  0.00000000000E+00  0.00000000000E+00  0.45593999997E+02  0.45594000000E+02  0.51100000000E-03 0. -1.
         11   -1    0    0    0    0 -0.00000000000E+00 -0.00000000000E+00 -0.45593999997E+02  0.45594000000E+02  0.51100000000E-03 0.  1.
    9900012    2    1    2    0    0 -0.81488325234E+00  0.79424816443E+00  0.31562638076E+00  0.90007116909E+02  0.89999370050E+02 0.  0.
        -12    1    1    2    0    0  0.81488325234E+00 -0.79424816443E+00 -0.31562638076E+00  0.11808830907E+01  0.00000000000E+00 0.  1.
         11    1    3    3    0    0  0.28793752416E+01 -0.78546060687E+01 -0.32632494245E+01  0.89796678861E+01  0.51100000000E-03 0. -1.
        -11    1    3    3    0    0  0.24408174732E+02 -0.23842087812E+02 -0.10699159426E+02  0.35758581595E+02  0.51100000000E-03 0.  1.
         12    1    3    3    0    0 -0.28102433226E+02  0.32490942045E+02  0.14278035231E+02  0.45268867429E+02  0.00000000000E+00 0. -1.
</event>
<event>
 7    1  0.1716782E-015  0.9000885E+02  0.7816164E-02  0.1186337E+00
        -11   -1    0    0    0    0  0.00000000000E+00  0.00000000000E+00  0.45593999997E+02  0.45594000000E+02  0.51100000000E-03 0. -1.
         11   -1    0    0    0    0 -0.00000000000E+00 -0.00000000000E+00 -0.45593999997E+02  0.45594000000E+02  0.51100000000E-03 0.  1.
    9900012    2    1    2    0    0  0.21813422020E-01  0.69933657442E+00  0.94913079415E+00  0.90008849147E+02  0.90001125149E+02 0.  0.
        -12    1    1    2    0    0 -0.21813422020E-01 -0.69933657442E+00 -0.94913079415E+00  0.11791508530E+01  0.00000000000E+00 0.  1.
         11    1    3    3    0    0 -0.28337165850E+02 -0.31792690169E+01 -0.32776556005E+02  0.43444278608E+02  0.51100000000E-03 0. -1.
        -11    1    3    3    0    0  0.10525401469E+02  0.47183786685E+01  0.46322778665E+01  0.12430010934E+02  0.51100000000E-03 0.  1.
        -12    1    3    3    0    0  0.17833577804E+02 -0.83977307713E+00  0.29093408933E+02  0.34134559605E+02  0.00000000000E+00 0.  1.
</event>
<event>
 7    1  0.1716782E-015  0.9000774E+02  0.7816164E-02  0.1186339E+00
        -11   -1    0    0    0    0  0.00000000000E+00  0.00000000000E+00  0.45593999997E+02  0.45594000000E+02  0.51100000000E-03 0.  1.
         11   -1    0    0    0    0 -0.00000000000E+00 -0.00000000000E+00 -0.45593999997E+02  0.45594000000E+02  0.51100000000E-03 0. -1.
    9900012    2    1    2    0    0 -0.41964674511E+00 -0.78763386368E+00 -0.77235865582E+00  0.90007742237E+02  0.90000003635E+02 0.  0.
        -12    1    1    2    0    0  0.41964674511E+00  0.78763386368E+00  0.77235865582E+00  0.11802577630E+01  0.00000000000E+00 0.  1.
         11    1    3    3    0    0 -0.40422762284E+01  0.15048568476E+01 -0.73347574121E+01  0.85090103886E+01  0.51100000000E-03 0. -1.
        -11    1    3    3    0    0 -0.20024771777E+02 -0.87136680732E+01  0.36669775765E+02  0.42680111890E+02  0.51100000000E-03 0.  1.
         12    1    3    3    0    0  0.23647401260E+02  0.64211773620E+01 -0.30107377009E+02  0.38818619958E+02  0.00000000000E+00 0. -1.
</event>
<event>
 7    1  0.1716782E-015  0.9000773E+02  0.7816164E-02  0.1186339E+00
        -11   -1    0    0    0    0  0.00000000000E+00  0.00000000000E+00  0.45593999997E+02  0.45594000000E+02  0.51100000000E-03 0.  1.
         11   -1    0    0    0    0 -0.00000000000E+00 -0.00000000000E+00 -0.45593999997E+02  0.45594000000E+02  0.51100000000E-03 0. -1.
    9900012    2    1    2    0    0 -0.64770331022E+00  0.84849435354E-01 -0.98301678095E+00  0.90007728423E+02  0.89999989638E+02 0.  0.
        -12    1    1    2    0    0  0.64770331022E+00 -0.84849435354E-01  0.98301678095E+00  0.11802715774E+01  0.00000000000E+00 0.  1.
         11    1    3    3    0    0  0.99537726970E+00  0.38599934108E+01  0.10762924088E+02  0.11477406511E+02  0.51100000000E-03 0. -1.
        -11    1    3    3    0    0 -0.24495100350E+01 -0.31808942269E+02  0.18825628329E+02  0.37043396037E+02  0.51100000000E-03 0.  1.
         12    1    3    3    0    0  0.80642945506E+00  0.28033798294E+02 -0.30571569198E+02  0.41486925874E+02  0.00000000000E+00 0. -1.
</event>
<event>
 7    1  0.1716782E-015  0.9000773E+02  0.7816164E-02  0.1186339E+00
        -11   -1    0    0    0    0  0.00000000000E+00  0.00000000000E+00  0.45593999997E+02  0.45594000000E+02  0.51100000000E-03 0.  1.
         11   -1    0    0    0    0 -0.00000000000E+00 -0.00000000000E+00 -0.45593999997E+02  0.45594000000E+02  0.51100000000E-03 0. -1.
    9900012    2    1    2    0    0  0.10444587919E+01  0.46152549600E+00  0.29856688301E+00  0.90007727940E+02  0.89999989149E+02 0.  0.
        -12    1    1    2    0    0 -0.10444587919E+01 -0.46152549600E+00 -0.29856688301E+00  0.11802720598E+01  0.00000000000E+00 0.  1.
         11    1    3    3    0    0 -0.80622322181E+01  0.39153238352E+01 -0.75679261406E-01  0.89629836932E+01  0.51100000000E-03 0. -1.
        -11    1    3    3    0    0 -0.16082065391E+02  0.26373699928E+02  0.20547877794E+02  0.37100136889E+02  0.51100000000E-03 0.  1.
         12    1    3    3    0    0  0.25188756401E+02 -0.29827498267E+02 -0.20173631649E+02  0.43944607358E+02  0.00000000000E+00 0. -1.
</event>
<event>
 7    1  0.1716782E-015  0.9000726E+02  0.7816164E-02  0.1186340E+00
        -11   -1    0    0    0    0  0.00000000000E+00  0.00000000000E+00  0.45593999997E+02  0.45594000000E+02  0.51100000000E-03 0. -1.
         11   -1    0    0    0    0 -0.00000000000E+00 -0.00000000000E+00 -0.45593999997E+02  0.45594000000E+02  0.51100000000E-03 0.  1.
    9900012    2    1    2    0    0 -0.11784850934E+01  0.40570564209E-01 -0.60553052912E-01  0.90007263044E+02  0.89999518115E+02 0.  0.
        -12    1    1    2    0    0  0.11784850934E+01 -0.40570564209E-01  0.60553052912E-01  0.11807369556E+01  0.00000000000E+00 0.  1.
         11    1    3    3    0    0 -0.60164714266E+01  0.37330529784E+01  0.33625007703E+02  0.34362403238E+02  0.51100000000E-03 0. -1.
        -11    1    3    3    0    0  0.24442511912E+00  0.28567446794E+01  0.10426386631E+02  0.10813430179E+02  0.51100000000E-03 0.  1.
        -12    1    3    3    0    0  0.45935612141E+01 -0.65492270936E+01 -0.44111947387E+02  0.44831429627E+02  0.00000000000E+00 0.  1.
</event>
<event>
 7    1  0.1716782E-015  0.9000772E+02  0.7816164E-02  0.1186339E+00
        -11   -1    0    0    0    0  0.00000000000E+00  0.00000000000E+00  0.45593999997E+02  0.45594000000E+02  0.51100000000E-03 0. -1.
         11   -1    0    0    0    0 -0.00000000000E+00 -0.00000000000E+00 -0.45593999997E+02  0.45594000000E+02  0.51100000000E-03 0.  1.
    9900012    2    1    2    0    0 -0.10113140744E+01 -0.54549634002E+00  0.26970488905E+00  0.90007719041E+02  0.89999980133E+02 0.  0.
        -12    1    1    2    0    0  0.10113140744E+01  0.54549634002E+00 -0.26970488905E+00  0.11802809586E+01  0.00000000000E+00 0.  1.
         11    1    3    3    0    0  0.22630321849E+01 -0.37390797164E+02 -0.33809350728E+01  0.37611484276E+02  0.51100000000E-03 0. -1.
        -11    1    3    3    0    0 -0.18956951797E+01 -0.75842637097E+01  0.47630294419E+00  0.78320866306E+01  0.51100000000E-03 0.  1.
        -12    1    3    3    0    0 -0.13786510796E+01  0.44429564534E+02  0.31743370176E+01  0.44564148135E+02  0.00000000000E+00 0.  1.
</event>
<event>
 7    1  0.1716782E-015  0.9000761E+02  0.7816164E-02  0.1186339E+00
        -11   -1    0    0    0    0  0.00000000000E+00  0.00000000000E+00  0.45593999997E+02  0.45594000000E+02  0.51100000000E-03 0. -1.
         11   -1    0    0    0    0 -0.00000000000E+00 -0.00000000000E+00 -0.45593999997E+02  0.45594000000E+02  0.51100000000E-03 0.  1.
    9900012    2    1    2    0    0 -0.10803797186E+01 -0.37209143462E+00 -0.29605592796E+00  0.90007609605E+02  0.89999869252E+02 0.  0.
        -12    1    1    2    0    0  0.10803797186E+01  0.37209143462E+00  0.29605592796E+00  0.11803903950E+01  0.00000000000E+00 0.  1.
         11    1    3    3    0    0  0.32146039970E+01  0.23961055530E+02  0.23073107816E+02  0.33419068891E+02  0.51100000000E-03 0. -1.
        -11    1    3    3    0    0  0.15573869919E+01  0.89231022172E+01  0.67847790220E+01  0.11317262658E+02  0.51100000000E-03 0.  1.
        -12    1    3    3    0    0 -0.58523707075E+01 -0.33256249182E+02 -0.30153942766E+02  0.45271278057E+02  0.00000000000E+00 0.  1.
</event>
<event>
 7    1  0.1716782E-015  0.9000751E+02  0.7816164E-02  0.1186339E+00
        -11   -1    0    0    0    0  0.00000000000E+00  0.00000000000E+00  0.45593999997E+02  0.45594000000E+02  0.51100000000E-03 0. -1.
         11   -1    0    0    0    0 -0.00000000000E+00 -0.00000000000E+00 -0.45593999997E+02  0.45594000000E+02  0.51100000000E-03 0.  1.
    9900012    2    1    2    0    0 -0.46140861670E+00  0.95443829886E+00  0.51932419624E+00  0.90007513660E+02  0.89999772040E+02 0.  0.
        -12    1    1    2    0    0  0.46140861670E+00 -0.95443829886E+00 -0.51932419624E+00  0.11804863399E+01  0.00000000000E+00 0.  1.
         11    1    3    3    0    0  0.44328695369E+01 -0.70433452773E+01 -0.12244510914E+02  0.14804968518E+02  0.51100000000E-03 0. -1.
        -11    1    3    3    0    0  0.18838345977E+02 -0.68336621882E+01 -0.22534552111E+02  0.30156065014E+02  0.51100000000E-03 0.  1.
         12    1    3    3    0    0 -0.23732624130E+02  0.14831445764E+02  0.35298387221E+02  0.45046480128E+02  0.00000000000E+00 0. -1.
</event>
<event>
 8    1  0.1716782E-015  0.9000765E+02  0.7816164E-02  0.1186339E+00
        -11   -1    0    0    0    0  0.00000000000E+00  0.00000000000E+00  0.45593999997E+02  0.45594000000E+02  0.51100000000E-03 0. -1.
         11   -1    0    0    0    0 -0.00000000000E+00 -0.00000000000E+00 -0.45593999997E+02  0.45594000000E+02  0.51100000000E-03 0.  1.
    9900012    2    1    2    0    0 -0.18887729316E+00 -0.82447315479E+00 -0.82328213778E+00  0.90007650860E+02  0.89999911051E+02 0.  0.
         23    2    3    3    0    0  0.21830003453E+02 -0.13608885888E+02 -0.10873254846E+02  0.62634776154E+02  0.56063684208E+02 0.  0.
        -12    1    1    2    0    0  0.18887729316E+00  0.82447315479E+00  0.82328213778E+00  0.11803491404E+01  0.00000000000E+00 0.  1.
         11    1    4    4    0    0  0.78224584411E+00 -0.31909995869E+02  0.18608716009E+01  0.31973779700E+02  0.51100000000E-03 0. -1.
        -11    1    4    4    0    0  0.21047757609E+02  0.18301109981E+02 -0.12734126447E+02  0.30660996454E+02  0.51100000000E-03 0.  1.
        -12    1    3    3    0    0 -0.22018880746E+02  0.12784412733E+02  0.10049972708E+02  0.27372874706E+02  0.00000000000E+00 0.  1.
</event>
<event>
 7    1  0.1716782E-015  0.9000766E+02  0.7816164E-02  0.1186339E+00
        -11   -1    0    0    0    0  0.00000000000E+00  0.00000000000E+00  0.45593999997E+02  0.45594000000E+02  0.51100000000E-03 0.  1.
         11   -1    0    0    0    0 -0.00000000000E+00 -0.00000000000E+00 -0.45593999997E+02  0.45594000000E+02  0.51100000000E-03 0. -1.
    9900012    2    1    2    0    0 -0.84760216506E+00  0.80774716424E+00  0.14941748440E+00  0.90007656619E+02  0.89999916887E+02 0.  0.
        -12    1    1    2    0    0  0.84760216506E+00 -0.80774716424E+00 -0.14941748440E+00  0.11803433806E+01  0.00000000000E+00 0.  1.
         11    1    3    3    0    0 -0.56866519925E+00  0.38657680603E+01  0.91188480279E+01  0.99207324538E+01  0.51100000000E-03 0. -1.
        -11    1    3    3    0    0  0.29244671517E+02  0.24338145728E+02 -0.11453734274E+02  0.39733917233E+02  0.51100000000E-03 0.  1.
         12    1    3    3    0    0 -0.29523608482E+02 -0.27396166624E+02  0.24843037303E+01  0.40353006933E+02  0.00000000000E+00 0. -1.
</event>
<event>
 7    1  0.1716782E-015  0.9000774E+02  0.7816164E-02  0.1186339E+00
        -11   -1    0    0    0    0  0.00000000000E+00  0.00000000000E+00  0.45593999997E+02  0.45594000000E+02  0.51100000000E-03 0.  1.
         11   -1    0    0    0    0 -0.00000000000E+00 -0.00000000000E+00 -0.45593999997E+02  0.45594000000E+02  0.51100000000E-03 0. -1.
    9900012    2    1    2    0    0  0.81978849387E-01 -0.80181532287E-01 -0.11746739356E+01  0.90007742204E+02  0.90000003601E+02 0.  0.
        -12    1    1    2    0    0 -0.81978849387E-01  0.80181532287E-01  0.11746739356E+01  0.11802577960E+01  0.00000000000E+00 0.  1.
         11    1    3    3    0    0  0.99184300812E+01 -0.63602293463E+00  0.62515821505E+01  0.11741467544E+02  0.51100000000E-03 0. -1.
        -11    1    3    3    0    0 -0.17332558762E+02 -0.98820065541E+01  0.31492561082E+02  0.37280732967E+02  0.51100000000E-03 0.  1.
         12    1    3    3    0    0  0.74961075301E+01  0.10437847956E+02 -0.38918817168E+02  0.40985541693E+02  0.00000000000E+00 0. -1.
</event>
<event>
 7    1  0.1716782E-015  0.9000774E+02  0.7816164E-02  0.1186339E+00
        -11   -1    0    0    0    0  0.00000000000E+00  0.00000000000E+00  0.45593999997E+02  0.45594000000E+02  0.51100000000E-03 0. -1.
         11   -1    0    0    0    0 -0.00000000000E+00 -0.00000000000E+00 -0.45593999997E+02  0.45594000000E+02  0.51100000000E-03 0.  1.
    9900012    2    1    2    0    0  0.93008687034E+00  0.57546034892E+00  0.44360651938E+00  0.90007744543E+02  0.90000005971E+02 0.  0.
        -12    1    1    2    0    0 -0.93008687034E+00 -0.57546034892E+00 -0.44360651938E+00  0.11802554569E+01  0.00000000000E+00 0.  1.
         11    1    3    3    0    0 -0.17399576557E+01  0.10235601549E+02 -0.70696295957E+01  0.12560838133E+02  0.51100000000E-03 0. -1.
        -11    1    3    3    0    0  0.19909345890E+02 -0.90963724487E+01 -0.29428687735E+02  0.36676609815E+02  0.51100000000E-03 0.  1.
         12    1    3    3    0    0 -0.17239301364E+02 -0.56376875176E+00  0.36941923850E+02  0.40770296595E+02  0.00000000000E+00 0. -1.
</event>
<event>
 7    1  0.1716782E-015  0.9000774E+02  0.7816164E-02  0.1186339E+00
        -11   -1    0    0    0    0  0.00000000000E+00  0.00000000000E+00  0.45593999997E+02  0.45594000000E+02  0.51100000000E-03 0.  1.
         11   -1    0    0    0    0 -0.00000000000E+00 -0.00000000000E+00 -0.45593999997E+02  0.45594000000E+02  0.51100000000E-03 0. -1.
    9900012    2    1    2    0    0 -0.32746316563E-01 -0.11700193015E+01 -0.15167523166E+00  0.90007736104E+02  0.89999997421E+02 0.  0.
        -12    1    1    2    0    0  0.32746316563E-01  0.11700193015E+01  0.15167523166E+00  0.11802638955E+01  0.00000000000E+00 0.  1.
         11    1    3    3    0    0  0.22651077754E+02  0.11582101058E+02 -0.36386812377E+02  0.44398384019E+02  0.51100000000E-03 0. -1.
        -11    1    3    3    0    0 -0.38968086300E+01 -0.61031587943E+01  0.60346259337E+01  0.94260476972E+01  0.51100000000E-03 0.  1.
        -12    1    3    3    0    0 -0.18787015440E+02 -0.66489615649E+01  0.30200511211E+02  0.36183304388E+02  0.00000000000E+00 0.  1.
</event>
<event>
 7    1  0.1716782E-015  0.9000768E+02  0.7816164E-02  0.1186339E+00
        -11   -1    0    0    0    0  0.00000000000E+00  0.00000000000E+00  0.45593999997E+02  0.45594000000E+02  0.51100000000E-03 0. -1.
         11   -1    0    0    0    0 -0.00000000000E+00 -0.00000000000E+00 -0.45593999997E+02  0.45594000000E+02  0.51100000000E-03 0.  1.
    9900012    2    1    2    0    0  0.10272914910E+01  0.45642943135E+00  0.35984425543E+00  0.90007684991E+02  0.89999945632E+02 0.  0.
        -12    1    1    2    0    0 -0.10272914910E+01 -0.45642943135E+00 -0.35984425543E+00  0.11803150094E+01  0.00000000000E+00 0.  1.
         11    1    3    3    0    0  0.27888977576E+01  0.91613549143E+01 -0.29654170310E+01  0.10025072219E+02  0.51100000000E-03 0. -1.
        -11    1    3    3    0    0 -0.34768551640E+01  0.33776351399E+02 -0.10052643691E+02  0.35411665890E+02  0.51100000000E-03 0.  1.
         12    1    3    3    0    0  0.17152488974E+01 -0.42481276882E+02  0.13377904977E+02  0.44570946881E+02  0.00000000000E+00 0. -1.
</event>
<event>
 7    1  0.1716782E-015  0.9000770E+02  0.7816164E-02  0.1186339E+00
        -11   -1    0    0    0    0  0.00000000000E+00  0.00000000000E+00  0.45593999997E+02  0.45594000000E+02  0.51100000000E-03 0.  1.
         11   -1    0    0    0    0 -0.00000000000E+00 -0.00000000000E+00 -0.45593999997E+02  0.45594000000E+02  0.51100000000E-03 0. -1.
    9900012    2    1    2    0    0 -0.40658092053E+00  0.65086478413E-01 -0.11061465193E+01  0.90007701556E+02  0.89999962417E+02 0.  0.
        -12    1    1    2    0    0  0.40658092053E+00 -0.65086478413E-01  0.11061465193E+01  0.11802984439E+01  0.00000000000E+00 0.  1.
         11    1    3    3    0    0  0.26000352293E+02  0.71130505724E+00 -0.20801112864E+02  0.33304813029E+02  0.51100000000E-03 0. -1.
        -11    1    3    3    0    0  0.10680893599E+02 -0.12351033107E+00 -0.53511357893E+01  0.11947024624E+02  0.51100000000E-03 0.  1.
        -12    1    3    3    0    0 -0.37087826813E+02 -0.52270824775E+00  0.25046102134E+02  0.44755863903E+02  0.00000000000E+00 0.  1.
</event>
<event>
 7    1  0.1716782E-015  0.9000772E+02  0.7816164E-02  0.1186339E+00
        -11   -1    0    0    0    0  0.00000000000E+00  0.00000000000E+00  0.45593999997E+02  0.45594000000E+02  0.51100000000E-03 0.  1.
         11   -1    0    0    0    0 -0.00000000000E+00 -0.00000000000E+00 -0.45593999997E+02  0.45594000000E+02  0.51100000000E-03 0. -1.
    9900012    2    1    2    0    0 -0.70730975801E+00  0.42481275113E+00 -0.84398799557E+00  0.90007716685E+02  0.89999977745E+02 0.  0.
        -12    1    1    2    0    0  0.70730975801E+00 -0.42481275113E+00  0.84398799557E+00  0.11802833151E+01  0.00000000000E+00 0.  1.
         11    1    3    3    0    0 -0.57412634820E+01 -0.35765109271E+01 -0.57637378738E+01  0.88867435723E+01  0.51100000000E-03 0. -1.
        -11    1    3    3    0    0 -0.22991307685E+02  0.73507564234E+01  0.33278224971E+02  0.41110510901E+02  0.51100000000E-03 0.  1.
         12    1    3    3    0    0  0.28025261409E+02 -0.33494327451E+01 -0.28358475093E+02  0.40010462211E+02  0.00000000000E+00 0. -1.
</event>
<event>
 7    1  0.1716782E-015  0.9000778E+02  0.7816164E-02  0.1186339E+00
        -11   -1    0    0    0    0  0.00000000000E+00  0.00000000000E+00  0.45593999997E+02  0.45594000000E+02  0.51100000000E-03 0.  1.
         11   -1    0    0    0    0 -0.00000000000E+00 -0.00000000000E+00 -0.45593999997E+02  0.45594000000E+02  0.51100000000E-03 0. -1.
    9900012    2    1    2    0    0 -0.58272212071E+00 -0.56954276543E+00 -0.85380177423E+00  0.90007779046E+02  0.90000040929E+02 0.  0.
        -12    1    1    2    0    0  0.58272212071E+00  0.56954276543E+00  0.85380177423E+00  0.11802209544E+01  0.00000000000E+00 0.  1.
         11    1    3    3    0    0  0.15534468270E+02  0.25627339704E+02  0.17251391920E+02  0.34578761808E+02  0.51100000000E-03 0. -1.
        -11    1    3    3    0    0 -0.34817255766E+01  0.10988216580E+02 -0.10149155099E+02  0.15358016346E+02  0.51100000000E-03 0.  1.
        -12    1    3    3    0    0 -0.12635464814E+02 -0.37185099049E+02 -0.79560385952E+01  0.40071000892E+02  0.00000000000E+00 0.  1.
</event>
<event>
 7    1  0.1716782E-015  0.9000774E+02  0.7816164E-02  0.1186339E+00
        -11   -1    0    0    0    0  0.00000000000E+00  0.00000000000E+00  0.45593999997E+02  0.45594000000E+02  0.51100000000E-03 0. -1.
         11   -1    0    0    0    0 -0.00000000000E+00 -0.00000000000E+00 -0.45593999997E+02  0.45594000000E+02  0.51100000000E-03 0.  1.
    9900012    2    1    2    0    0  0.26031318867E+00  0.86372720546E+00  0.76107056881E+00  0.90007738990E+02  0.90000000344E+02 0.  0.
        -12    1    1    2    0    0 -0.26031318867E+00 -0.86372720546E+00 -0.76107056881E+00  0.11802610103E+01  0.00000000000E+00 0.  1.
         11    1    3    3    0    0  0.38745533129E+01 -0.36190998238E+01 -0.64597543265E+01  0.83569416134E+01  0.51100000000E-03 0. -1.
        -11    1    3    3    0    0  0.72278067465E+01 -0.19001725008E+02 -0.30051550503E+02  0.36282260563E+02  0.51100000000E-03 0.  1.
         12    1    3    3    0    0 -0.10842046871E+02  0.23484552037E+02  0.37272375399E+02  0.45368536813E+02  0.00000000000E+00 0. -1.
</event>
<event>
 8    1  0.1716782E-015  0.9000773E+02  0.7816164E-02  0.1186339E+00
        -11   -1    0    0    0    0  0.00000000000E+00  0.00000000000E+00  0.45593999997E+02  0.45594000000E+02  0.51100000000E-03 0. -1.
         11   -1    0    0    0    0 -0.00000000000E+00 -0.00000000000E+00 -0.45593999997E+02  0.45594000000E+02  0.51100000000E-03 0.  1.
    9900012    2    1    2    0    0 -0.93033492413E+00 -0.39791359348E+00  0.60760220483E+00  0.90007729379E+02  0.89999990607E+02 0.  0.
         23    2    3    3    0    0  0.15012985935E+01  0.11285222941E+02 -0.25680898952E+02  0.61137436448E+02  0.54301633587E+02 0.  0.
        -12    1    1    2    0    0  0.93033492413E+00  0.39791359348E+00 -0.60760220483E+00  0.11802706208E+01  0.00000000000E+00 0.  1.
         11    1    4    4    0    0 -0.14568630125E+02 -0.48143809551E+01 -0.33691534323E+02  0.37020841873E+02  0.51100000000E-03 0. -1.
        -11    1    4    4    0    0  0.16069928718E+02  0.16099603896E+02  0.80106353712E+01  0.24116594575E+02  0.51100000000E-03 0.  1.
         12    1    3    3    0    0 -0.24316335176E+01 -0.11683136534E+02  0.26288501157E+02  0.28870292931E+02  0.00000000000E+00 0. -1.
</event>
<event>
 7    1  0.1716782E-015  0.9000785E+02  0.7816164E-02  0.1186339E+00
        -11   -1    0    0    0    0  0.00000000000E+00  0.00000000000E+00  0.45593999997E+02  0.45594000000E+02  0.51100000000E-03 0.  1.
         11   -1    0    0    0    0 -0.00000000000E+00 -0.00000000000E+00 -0.45593999997E+02  0.45594000000E+02  0.51100000000E-03 0. -1.
    9900012    2    1    2    0    0  0.81408536809E+00 -0.35329446566E+00 -0.77794540333E+00  0.90007851274E+02  0.90000114110E+02 0.  0.
        -12    1    1    2    0    0 -0.81408536809E+00  0.35329446566E+00  0.77794540333E+00  0.11801487265E+01  0.00000000000E+00 0.  1.
         11    1    3    3    0    0 -0.14327927497E+01 -0.22830487223E+01  0.20894993119E+02  0.21068126263E+02  0.51100000000E-03 0. -1.
        -11    1    3    3    0    0  0.27384205772E+01  0.12747959195E+02  0.21107448789E+02  0.24809953760E+02  0.51100000000E-03 0.  1.
         12    1    3    3    0    0 -0.49154245938E+00 -0.10818204939E+02 -0.42780387312E+02  0.44129771251E+02  0.00000000000E+00 0. -1.
</event>
<event>
 7    1  0.1716782E-015  0.9000777E+02  0.7816164E-02  0.1186339E+00
        -11   -1    0    0    0    0  0.00000000000E+00  0.00000000000E+00  0.45593999997E+02  0.45594000000E+02  0.51100000000E-03 0.  1.
         11   -1    0    0    0    0 -0.00000000000E+00 -0.00000000000E+00 -0.45593999997E+02  0.45594000000E+02  0.51100000000E-03 0. -1.
    9900012    2    1    2    0    0  0.40524558334E+00 -0.11083056379E+01  0.19141859373E-01  0.90007774691E+02  0.90000036517E+02 0.  0.
        -12    1    1    2    0    0 -0.40524558334E+00  0.11083056379E+01 -0.19141859373E-01  0.11802253093E+01  0.00000000000E+00 0.  1.
         11    1    3    3    0    0  0.19501595224E+02 -0.27082349322E+01 -0.28292319476E+02  0.34468856876E+02  0.51100000000E-03 0. -1.
        -11    1    3    3    0    0  0.70194241416E+01  0.15734887175E+00 -0.80919848202E+01  0.10713416474E+02  0.51100000000E-03 0.  1.
        -12    1    3    3    0    0 -0.26115773783E+02  0.14425804225E+01  0.36403446155E+02  0.44825501341E+02  0.00000000000E+00 0.  1.
</event>
<event>
 7    1  0.1716782E-015  0.9000773E+02  0.7816164E-02  0.1186339E+00
        -11   -1    0    0    0    0  0.00000000000E+00  0.00000000000E+00  0.45593999997E+02  0.45594000000E+02  0.51100000000E-03 0.  1.
         11   -1    0    0    0    0 -0.00000000000E+00 -0.00000000000E+00 -0.45593999997E+02  0.45594000000E+02  0.51100000000E-03 0. -1.
    9900012    2    1    2    0    0 -0.24761406503E+00 -0.10623282961E+01 -0.45076716185E+00  0.90007726655E+02  0.89999987847E+02 0.  0.
        -12    1    1    2    0    0  0.24761406503E+00  0.10623282961E+01  0.45076716185E+00  0.11802733446E+01  0.00000000000E+00 0.  1.
         11    1    3    3    0    0 -0.32781477885E+01  0.62404306504E+01 -0.72550891378E+01  0.10115609042E+02  0.51100000000E-03 0. -1.
        -11    1    3    3    0    0 -0.16693510066E+02  0.29769270371E+02  0.14703944911E+02  0.37163002205E+02  0.51100000000E-03 0.  1.
         12    1    3    3    0    0  0.19724043789E+02 -0.37072029317E+02 -0.78996229349E+01  0.42729115408E+02  0.00000000000E+00 0. -1.
</event>
<event>
 7    1  0.1716782E-015  0.9000772E+02  0.7816164E-02  0.1186339E+00
        -11   -1    0    0    0    0  0.00000000000E+00  0.00000000000E+00  0.45593999997E+02  0.45594000000E+02  0.51100000000E-03 0.  1.
         11   -1    0    0    0    0 -0.00000000000E+00 -0.00000000000E+00 -0.45593999997E+02  0.45594000000E+02  0.51100000000E-03 0. -1.
    9900012    2    1    2    0    0 -0.34739085822E+00  0.25065632059E+00 -0.10997945818E+01  0.90007721591E+02  0.89999982716E+02 0.  0.
        -12    1    1    2    0    0  0.34739085822E+00 -0.25065632059E+00  0.10997945818E+01  0.11802784085E+01  0.00000000000E+00 0.  1.
         11    1    3    3    0    0 -0.46639628304E+01 -0.59854183063E+01  0.58031078518E+01  0.95526877152E+01  0.51100000000E-03 0. -1.
        -11    1    3    3    0    0 -0.33514032613E+02  0.19861477942E+02 -0.97052066654E+01  0.40147972859E+02  0.51100000000E-03 0.  1.
         12    1    3    3    0    0  0.37830604585E+02 -0.13625403315E+02  0.28023042318E+01  0.40307061017E+02  0.00000000000E+00 0. -1.
</event>
<event>
 7    1  0.1716782E-015  0.9000774E+02  0.7816164E-02  0.1186339E+00
        -11   -1    0    0    0    0  0.00000000000E+00  0.00000000000E+00  0.45593999997E+02  0.45594000000E+02  0.51100000000E-03 0.  1.
         11   -1    0    0    0    0 -0.00000000000E+00 -0.00000000000E+00 -0.45593999997E+02  0.45594000000E+02  0.51100000000E-03 0. -1.
    9900012    2    1    2    0    0  0.52238583743E+00  0.75525382372E+00 -0.74143393269E+00  0.90007737496E+02  0.89999998831E+02 0.  0.
        -12    1    1    2    0    0 -0.52238583743E+00 -0.75525382372E+00  0.74143393269E+00  0.11802625038E+01  0.00000000000E+00 0.  1.
         11    1    3    3    0    0 -0.10482938287E+02 -0.23272922474E+00 -0.37411468025E+02  0.38853109246E+02  0.51100000000E-03 0. -1.
        -11    1    3    3    0    0 -0.88926765159E+01 -0.70102782116E+01  0.38711635287E+01  0.11967021499E+02  0.51100000000E-03 0.  1.
        -12    1    3    3    0    0  0.19898000640E+02  0.79982612601E+01  0.32798870564E+02  0.39187606752E+02  0.00000000000E+00 0.  1.
</event>
<event>
 7    1  0.1716782E-015  0.9000780E+02  0.7816164E-02  0.1186339E+00
        -11   -1    0    0    0    0  0.00000000000E+00  0.00000000000E+00  0.45593999997E+02  0.45594000000E+02  0.51100000000E-03 0. -1.
         11   -1    0    0    0    0 -0.00000000000E+00 -0.00000000000E+00 -0.45593999997E+02  0.45594000000E+02  0.51100000000E-03 0.  1.
    9900012    2    1    2    0    0 -0.94929347740E+00  0.69651546273E+00 -0.81130463344E-01  0.90007799149E+02  0.90000061298E+02 0.  0.
        -12    1    1    2    0    0  0.94929347740E+00 -0.69651546273E+00  0.81130463344E-01  0.11802008508E+01  0.00000000000E+00 0.  1.
         11    1    3    3    0    0  0.35800945539E+02 -0.14030824996E+02  0.45865276061E+01  0.38724772269E+02  0.51100000000E-03 0. -1.
        -11    1    3    3    0    0  0.17632402700E+01  0.29340827943E+01 -0.10077212865E+02  0.10642747648E+02  0.51100000000E-03 0.  1.
        -12    1    3    3    0    0 -0.38513479286E+02  0.11793257664E+02  0.54095547959E+01  0.40640279233E+02  0.00000000000E+00 0.  1.
</event>
<event>
 7    1  0.1716782E-015  0.9000781E+02  0.7816164E-02  0.1186339E+00
        -11   -1    0    0    0    0  0.00000000000E+00  0.00000000000E+00  0.45593999997E+02  0.45594000000E+02  0.51100000000E-03 0.  1.
         11   -1    0    0    0    0 -0.00000000000E+00 -0.00000000000E+00 -0.45593999997E+02  0.45594000000E+02  0.51100000000E-03 0. -1.
    9900012    2    1    2    0    0 -0.24678126795E+00 -0.34150958660E+00 -0.11024147060E+01  0.90007810195E+02  0.90000072489E+02 0.  0.
        -12    1    1    2    0    0  0.24678126795E+00  0.34150958660E+00  0.11024147060E+01  0.11801898051E+01  0.00000000000E+00 0.  1.
         11    1    3    3    0    0  0.93209582408E+00  0.66458776668E+01  0.76989294481E+01  0.10213227085E+02  0.51100000000E-03 0. -1.
        -11    1    3    3    0    0  0.10140529370E+02  0.26008328678E+02  0.20177932280E+02  0.34444338401E+02  0.51100000000E-03 0.  1.
         12    1    3    3    0    0 -0.11319406462E+02 -0.32995715931E+02 -0.28979276434E+02  0.45350244709E+02  0.00000000000E+00 0. -1.
</event>
<event>
 7    1  0.1716782E-015  0.9000676E+02  0.7816164E-02  0.1186341E+00
        -11   -1    0    0    0    0  0.00000000000E+00  0.00000000000E+00  0.45593999997E+02  0.45594000000E+02  0.51100000000E-03 0. -1.
         11   -1    0    0    0    0 -0.00000000000E+00 -0.00000000000E+00 -0.45593999997E+02  0.45594000000E+02  0.51100000000E-03 0.  1.
    9900012    2    1    2    0    0  0.11267893597E+01 -0.34965881237E+00  0.58415521995E-01  0.90006760008E+02  0.89999008434E+02 0.  0.
        -12    1    1    2    0    0 -0.11267893597E+01  0.34965881237E+00 -0.58415521995E-01  0.11812399923E+01  0.00000000000E+00 0.  1.
         11    1    3    3    0    0  0.66119602926E+01  0.15470231700E+01 -0.47378440405E+01  0.82800039862E+01  0.51100000000E-03 0. -1.
        -11    1    3    3    0    0 -0.11708077317E+02 -0.68909317091E+01 -0.36875256408E+02  0.39298200337E+02  0.51100000000E-03 0.  1.
         12    1    3    3    0    0  0.62229063840E+01  0.49942497267E+01  0.41671515971E+02  0.42428555685E+02  0.00000000000E+00 0. -1.
</event>
<event>
 7    1  0.1716782E-015  0.9000828E+02  0.7816164E-02  0.1186338E+00
        -11   -1    0    0    0    0  0.00000000000E+00  0.00000000000E+00  0.45593999997E+02  0.45594000000E+02  0.51100000000E-03 0. -1.
         11   -1    0    0    0    0 -0.00000000000E+00 -0.00000000000E+00 -0.45593999997E+02  0.45594000000E+02  0.51100000000E-03 0.  1.
    9900012    2    1    2    0    0 -0.90530823895E+00  0.22010018392E+00  0.72367719015E+00  0.90008281485E+02  0.90000549999E+02 0.  0.
        -12    1    1    2    0    0  0.90530823895E+00 -0.22010018392E+00 -0.72367719015E+00  0.11797185147E+01  0.00000000000E+00 0.  1.
         11    1    3    3    0    0 -0.41633061352E+01 -0.24090962376E+01  0.10003553275E+02  0.11099907254E+02  0.51100000000E-03 0. -1.
        -11    1    3    3    0    0  0.33262167313E+02  0.27668574998E-01  0.18392603866E+02  0.38008688705E+02  0.51100000000E-03 0.  1.
         12    1    3    3    0    0 -0.30004169416E+02  0.26015278465E+01 -0.27672479951E+02  0.40899685526E+02  0.00000000000E+00 0. -1.
</event>
<event>
 7    1  0.1716782E-015  0.9000777E+02  0.7816164E-02  0.1186339E+00
        -11   -1    0    0    0    0  0.00000000000E+00  0.00000000000E+00  0.45593999997E+02  0.45594000000E+02  0.51100000000E-03 0. -1.
         11   -1    0    0    0    0 -0.00000000000E+00 -0.00000000000E+00 -0.45593999997E+02  0.45594000000E+02  0.51100000000E-03 0.  1.
    9900012    2    1    2    0    0  0.82149306278E-02 -0.25357600677E+00  0.11526378465E+01  0.90007770242E+02  0.90000032009E+02 0.  0.
        -12    1    1    2    0    0 -0.82149306278E-02  0.25357600677E+00 -0.11526378465E+01  0.11802297580E+01  0.00000000000E+00 0.  1.
         11    1    3    3    0    0  0.54192756498E+01 -0.11759847144E+00 -0.11017035853E+02  0.12278332836E+02  0.51100000000E-03 0. -1.
        -11    1    3    3    0    0 -0.27047438782E+02 -0.18728806308E+02 -0.16912369010E+02  0.36991355154E+02  0.51100000000E-03 0.  1.
         12    1    3    3    0    0  0.21636378062E+02  0.18592828773E+02  0.29082042709E+02  0.40738082252E+02  0.00000000000E+00 0. -1.
</event>
<event>
 7    1  0.1716782E-015  0.9000764E+02  0.7816164E-02  0.1186339E+00
        -11   -1    0    0    0    0  0.00000000000E+00  0.00000000000E+00  0.45593999997E+02  0.45594000000E+02  0.51100000000E-03 0.  1.
         11   -1    0    0    0    0 -0.00000000000E+00 -0.00000000000E+00 -0.45593999997E+02  0.45594000000E+02  0.51100000000E-03 0. -1.
    9900012    2    1    2    0    0  0.42377134657E+00 -0.62334089498E+00  0.90835677469E+00  0.90007640709E+02  0.89999900766E+02 0.  0.
        -12    1    1    2    0    0 -0.42377134657E+00  0.62334089498E+00 -0.90835677469E+00  0.11803592909E+01  0.00000000000E+00 0.  1.
         11    1    3    3    0    0 -0.19860506862E+02  0.17353362459E+02 -0.29732244217E+02  0.39743996627E+02  0.51100000000E-03 0. -1.
        -11    1    3    3    0    0  0.76910990383E+01  0.64164621619E+01  0.13286942499E+01  0.10103930906E+02  0.51100000000E-03 0.  1.
        -12    1    3    3    0    0  0.12593179170E+02 -0.24393165516E+02  0.29311906742E+02  0.40159713176E+02  0.00000000000E+00 0.  1.
</event>
<event>
 7    1  0.1716782E-015  0.9000773E+02  0.7816164E-02  0.1186339E+00
        -11   -1    0    0    0    0  0.00000000000E+00  0.00000000000E+00  0.45593999997E+02  0.45594000000E+02  0.51100000000E-03 0.  1.
         11   -1    0    0    0    0 -0.00000000000E+00 -0.00000000000E+00 -0.45593999997E+02  0.45594000000E+02  0.51100000000E-03 0. -1.
    9900012    2    1    2    0    0  0.36479182662E+00 -0.53143534217E-01 -0.11212243702E+01  0.90007728251E+02  0.89999989464E+02 0.  0.
        -12    1    1    2    0    0 -0.36479182662E+00  0.53143534217E-01  0.11212243702E+01  0.11802717485E+01  0.00000000000E+00 0.  1.
         11    1    3    3    0    0 -0.10589410181E+02  0.12263540489E+02 -0.31997071865E+02  0.35865619213E+02  0.51100000000E-03 0. -1.
        -11    1    3    3    0    0 -0.51795285387E+01  0.35913051471E+01 -0.73645518805E+01  0.96933798648E+01  0.51100000000E-03 0.  1.
        -12    1    3    3    0    0  0.16133730546E+02 -0.15907989170E+02  0.38240399375E+02  0.44448729174E+02  0.00000000000E+00 0.  1.
</event>
<event>
 7    1  0.1716782E-015  0.9000766E+02  0.7816164E-02  0.1186339E+00
        -11   -1    0    0    0    0  0.00000000000E+00  0.00000000000E+00  0.45593999997E+02  0.45594000000E+02  0.51100000000E-03 0. -1.
         11   -1    0    0    0    0 -0.00000000000E+00 -0.00000000000E+00 -0.45593999997E+02  0.45594000000E+02  0.51100000000E-03 0.  1.
    9900012    2    1    2    0    0  0.10203910235E+01 -0.28475578466E+00 -0.52050166737E+00  0.90007658658E+02  0.89999918952E+02 0.  0.
        -12    1    1    2    0    0 -0.10203910235E+01  0.28475578466E+00  0.52050166737E+00  0.11803413419E+01  0.00000000000E+00 0.  1.
         11    1    3    3    0    0 -0.68038197015E+01 -0.13072698793E+00 -0.62724476262E+01  0.92548717744E+01  0.51100000000E-03 0. -1.
        -11    1    3    3    0    0 -0.30457459207E+02  0.15195625764E+02  0.16936897187E+02  0.38018710529E+02  0.51100000000E-03 0.  1.
         12    1    3    3    0    0  0.38281669932E+02 -0.15349654561E+02 -0.11184951228E+02  0.42734076355E+02  0.00000000000E+00 0. -1.
</event>
<event>
 7    1  0.1716782E-015  0.9000793E+02  0.7816164E-02  0.1186339E+00
        -11   -1    0    0    0    0  0.00000000000E+00  0.00000000000E+00  0.45593999997E+02  0.45594000000E+02  0.51100000000E-03 0. -1.
         11   -1    0    0    0    0 -0.00000000000E+00 -0.00000000000E+00 -0.45593999997E+02  0.45594000000E+02  0.51100000000E-03 0.  1.
    9900012    2    1    2    0    0  0.15658274051E+00  0.10360437562E+01  0.54283388012E+00  0.90007926510E+02  0.90000190340E+02 0.  0.
        -12    1    1    2    0    0 -0.15658274051E+00 -0.10360437562E+01 -0.54283388012E+00  0.11800734896E+01  0.00000000000E+00 0.  1.
         11    1    3    3    0    0  0.32924769145E+02  0.42768201719E+01  0.26101533192E+02  0.42232945069E+02  0.51100000000E-03 0. -1.
        -11    1    3    3    0    0  0.30403462215E+01  0.25970511371E+01 -0.35016251872E+01  0.53150502319E+01  0.51100000000E-03 0.  1.
        -12    1    3    3    0    0 -0.35808532626E+02 -0.58378275528E+01 -0.22057074125E+02  0.42459931209E+02  0.00000000000E+00 0.  1.
</event>
<event>
 7    1  0.1716782E-015  0.9000772E+02  0.7816164E-02  0.1186339E+00
        -11   -1    0    0    0    0  0.00000000000E+00  0.00000000000E+00  0.45593999997E+02  0.45594000000E+02  0.51100000000E-03 0.  1.
         11   -1    0    0    0    0 -0.00000000000E+00 -0.00000000000E+00 -0.45593999997E+02  0.45594000000E+02  0.51100000000E-03 0. -1.
    9900012    2    1    2    0    0 -0.11541689338E+01  0.23608748907E+00 -0.72251767976E-01  0.90007718869E+02  0.89999979958E+02 0.  0.
        -12    1    1    2    0    0  0.11541689338E+01 -0.23608748907E+00  0.72251767976E-01  0.11802811310E+01  0.00000000000E+00 0.  1.
         11    1    3    3    0    0 -0.14772091970E+02 -0.19359610819E+02  0.28519207103E+02  0.37501392058E+02  0.51100000000E-03 0. -1.
        -11    1    3    3    0    0 -0.25390521170E+01  0.40888240261E+01  0.81574721122E+01  0.94715161981E+01  0.51100000000E-03 0.  1.
        -12    1    3    3    0    0  0.16156975153E+02  0.15506874282E+02 -0.36748930984E+02  0.43034810613E+02  0.00000000000E+00 0.  1.
</event>
<event>
 7    1  0.1716782E-015  0.9000738E+02  0.7816164E-02  0.1186340E+00
        -11   -1    0    0    0    0  0.00000000000E+00  0.00000000000E+00  0.45593999997E+02  0.45594000000E+02  0.51100000000E-03 0.  1.
         11   -1    0    0    0    0 -0.00000000000E+00 -0.00000000000E+00 -0.45593999997E+02  0.45594000000E+02  0.51100000000E-03 0. -1.
    9900012    2    1    2    0    0 -0.87668318653E+00 -0.24458628165E-01 -0.79037234924E+00  0.90007381482E+02  0.89999638117E+02 0.  0.
        -12    1    1    2    0    0  0.87668318653E+00  0.24458628165E-01  0.79037234924E+00  0.11806185178E+01  0.00000000000E+00 0.  1.
         11    1    3    3    0    0 -0.50999120889E+01 -0.19409028222E-01  0.44218704715E+01  0.67499939817E+01  0.51100000000E-03 0. -1.
        -11    1    3    3    0    0 -0.34737879615E+02 -0.16087947958E+02  0.79517210371E+01  0.39099516843E+02  0.51100000000E-03 0.  1.
         12    1    3    3    0    0  0.38961108518E+02  0.16082898358E+02 -0.13163963858E+02  0.44157870657E+02  0.00000000000E+00 0. -1.
</event>
<event>
 7    1  0.1716782E-015  0.9000773E+02  0.7816164E-02  0.1186339E+00
        -11   -1    0    0    0    0  0.00000000000E+00  0.00000000000E+00  0.45593999997E+02  0.45594000000E+02  0.51100000000E-03 0.  1.
         11   -1    0    0    0    0 -0.00000000000E+00 -0.00000000000E+00 -0.45593999997E+02  0.45594000000E+02  0.51100000000E-03 0. -1.
    9900012    2    1    2    0    0 -0.43369417546E-01 -0.11779793670E+01 -0.59349544248E-01  0.90007729411E+02  0.89999990639E+02 0.  0.
        -12    1    1    2    0    0  0.43369417546E-01  0.11779793670E+01  0.59349544248E-01  0.11802705893E+01  0.00000000000E+00 0.  1.
         11    1    3    3    0    0  0.26474382261E+02 -0.39685032309E+01 -0.32897906324E+02  0.42413608367E+02  0.51100000000E-03 0. -1.
        -11    1    3    3    0    0 -0.11409420528E+02 -0.36388030195E+01  0.13109919516E+01  0.12047176613E+02  0.51100000000E-03 0.  1.
        -12    1    3    3    0    0 -0.15108331151E+02  0.64293268834E+01  0.31527564828E+02  0.35546944430E+02  0.00000000000E+00 0.  1.
</event>
<event>
 7    1  0.1716782E-015  0.9000767E+02  0.7816164E-02  0.1186339E+00
        -11   -1    0    0    0    0  0.00000000000E+00  0.00000000000E+00  0.45593999997E+02  0.45594000000E+02  0.51100000000E-03 0.  1.
         11   -1    0    0    0    0 -0.00000000000E+00 -0.00000000000E+00 -0.45593999997E+02  0.45594000000E+02  0.51100000000E-03 0. -1.
    9900012    2    1    2    0    0  0.38082922514E+00  0.11044447371E+01 -0.16835787286E+00  0.90007672313E+02  0.89999932787E+02 0.  0.
        -12    1    1    2    0    0 -0.38082922514E+00 -0.11044447371E+01  0.16835787286E+00  0.11803276873E+01  0.00000000000E+00 0.  1.
         11    1    3    3    0    0 -0.10485490222E+02 -0.31627913604E+02  0.14207393075E+02  0.36223203094E+02  0.51100000000E-03 0. -1.
        -11    1    3    3    0    0  0.43148795705E+01 -0.12235374599E+01  0.10344864142E+02  0.11275258046E+02  0.51100000000E-03 0.  1.
        -12    1    3    3    0    0  0.65514398770E+01  0.33955895801E+02 -0.24720615090E+02  0.42509211173E+02  0.00000000000E+00 0.  1.
</event>
<event>
 7    1  0.1716782E-015  0.9000774E+02  0.7816164E-02  0.1186339E+00
        -11   -1    0    0    0    0  0.00000000000E+00  0.00000000000E+00  0.45593999997E+02  0.45594000000E+02  0.51100000000E-03 0.  1.
         11   -1    0    0    0    0 -0.00000000000E+00 -0.00000000000E+00 -0.45593999997E+02  0.45594000000E+02  0.51100000000E-03 0. -1.
    9900012    2    1    2    0    0  0.88538865791E+00 -0.11747692264E+00 -0.77155273047E+00  0.90007742605E+02  0.90000004007E+02 0.  0.
        -12    1    1    2    0    0 -0.88538865791E+00  0.11747692264E+00  0.77155273047E+00  0.11802573952E+01  0.00000000000E+00 0.  1.
         11    1    3    3    0    0  0.70797431819E+01 -0.10700115289E+01  0.43837766888E+01  0.83955456351E+01  0.51100000000E-03 0. -1.
        -11    1    3    3    0    0  0.34235818029E+02  0.14375223247E+02 -0.10725767445E+02  0.38649454939E+02  0.51100000000E-03 0.  1.
         12    1    3    3    0    0 -0.40430172553E+02 -0.13422688640E+02  0.55704380259E+01  0.42962742031E+02  0.00000000000E+00 0. -1.
</event>
<event>
 7    1  0.1716782E-015  0.9000775E+02  0.7816164E-02  0.1186339E+00
        -11   -1    0    0    0    0  0.00000000000E+00  0.00000000000E+00  0.45593999997E+02  0.45594000000E+02  0.51100000000E-03 0.  1.
         11   -1    0    0    0    0 -0.00000000000E+00 -0.00000000000E+00 -0.45593999997E+02  0.45594000000E+02  0.51100000000E-03 0. -1.
    9900012    2    1    2    0    0  0.56555949848E-01 -0.35874418053E+00  0.11229851614E+01  0.90007749334E+02  0.90000010825E+02 0.  0.
        -12    1    1    2    0    0 -0.56555949848E-01  0.35874418053E+00 -0.11229851614E+01  0.11802506663E+01  0.00000000000E+00 0.  1.
         11    1    3    3    0    0  0.22858670052E+01  0.79151757419E+01 -0.54111038297E+01  0.98567357634E+01  0.51100000000E-03 0. -1.
        -11    1    3    3    0    0 -0.35625245397E+02  0.11486525703E+02  0.15185232440E+02  0.40394178626E+02  0.51100000000E-03 0.  1.
         12    1    3    3    0    0  0.33395934342E+02 -0.19760445625E+02 -0.86511434486E+01  0.39756834945E+02  0.00000000000E+00 0. -1.
</event>
<event>
 7    1  0.1716782E-015  0.9000760E+02  0.7816164E-02  0.1186339E+00
        -11   -1    0    0    0    0  0.00000000000E+00  0.00000000000E+00  0.45593999997E+02  0.45594000000E+02  0.51100000000E-03 0. -1.
         11   -1    0    0    0    0 -0.00000000000E+00 -0.00000000000E+00 -0.45593999997E+02  0.45594000000E+02  0.51100000000E-03 0.  1.
    9900012    2    1    2    0    0 -0.54179399637E+00 -0.84176751697E+00 -0.62548721566E+00  0.90007598567E+02  0.89999858068E+02 0.  0.
        -12    1    1    2    0    0  0.54179399637E+00  0.84176751697E+00  0.62548721566E+00  0.11804014334E+01  0.00000000000E+00 0.  1.
         11    1    3    3    0    0 -0.10820483982E+01 -0.94119918319E+01 -0.30749687669E+01  0.99605146533E+01  0.51100000000E-03 0. -1.
        -11    1    3    3    0    0  0.28779002527E+02 -0.22267764718E+02 -0.72965700721E+01  0.37112319613E+02  0.51100000000E-03 0.  1.
         12    1    3    3    0    0 -0.28238748125E+02  0.30837989033E+02  0.97460516234E+01  0.42934764300E+02  0.00000000000E+00 0. -1.
</event>
<event>
 7    1  0.1716782E-015  0.9000776E+02  0.7816164E-02  0.1186339E+00
        -11   -1    0    0    0    0  0.00000000000E+00  0.00000000000E+00  0.45593999997E+02  0.45594000000E+02  0.51100000000E-03 0. -1.
         11   -1    0    0    0    0 -0.00000000000E+00 -0.00000000000E+00 -0.45593999997E+02  0.45594000000E+02  0.51100000000E-03 0.  1.
    9900012    2    1    2    0    0 -0.71298513255E+00  0.11901696503E+00  0.93297661170E+00  0.90007763500E+02  0.90000025179E+02 0.  0.
        -12    1    1    2    0    0  0.71298513255E+00 -0.11901696503E+00 -0.93297661170E+00  0.11802364997E+01  0.00000000000E+00 0.  1.
         11    1    3    3    0    0 -0.22040788587E+02 -0.29034620751E+02 -0.11443972125E+02  0.38206937354E+02  0.51100000000E-03 0. -1.
        -11    1    3    3    0    0  0.21283992765E+01 -0.61675848331E+01 -0.47827262617E+01  0.80897253915E+01  0.51100000000E-03 0.  1.
        -12    1    3    3    0    0  0.19199404178E+02  0.35321222549E+02  0.17159674998E+02  0.43711100755E+02  0.00000000000E+00 0.  1.
</event>
<event>
 7    1  0.1716782E-015  0.9000775E+02  0.7816164E-02  0.1186339E+00
        -11   -1    0    0    0    0  0.00000000000E+00  0.00000000000E+00  0.45593999997E+02  0.45594000000E+02  0.51100000000E-03 0.  1.
         11   -1    0    0    0    0 -0.00000000000E+00 -0.00000000000E+00 -0.45593999997E+02  0.45594000000E+02  0.51100000000E-03 0. -1.
    9900012    2    1    2    0    0  0.73131239914E+00  0.83765889081E+00 -0.39560221471E+00  0.90007749453E+02  0.90000010945E+02 0.  0.
        -12    1    1    2    0    0 -0.73131239914E+00 -0.83765889081E+00  0.39560221471E+00  0.11802505475E+01  0.00000000000E+00 0.  1.
         11    1    3    3    0    0  0.12443096760E+01 -0.39330411462E+02 -0.55714138774E+01  0.39742549304E+02  0.51100000000E-03 0. -1.
        -11    1    3    3    0    0 -0.27677372355E+01  0.21608841489E+01 -0.89821042014E+01  0.96440647994E+01  0.51100000000E-03 0.  1.
        -12    1    3    3    0    0  0.22547399587E+01  0.38007186204E+02  0.14157915864E+02  0.40621135349E+02  0.00000000000E+00 0.  1.
</event>
<event>
 7    1  0.1716782E-015  0.9000774E+02  0.7816164E-02  0.1186339E+00
        -11   -1    0    0    0    0  0.00000000000E+00  0.00000000000E+00  0.45593999997E+02  0.45594000000E+02  0.51100000000E-03 0.  1.
         11   -1    0    0    0    0 -0.00000000000E+00 -0.00000000000E+00 -0.45593999997E+02  0.45594000000E+02  0.51100000000E-03 0. -1.
    9900012    2    1    2    0    0  0.45737973041E+00  0.10762412167E+01 -0.15973523581E+00  0.90007742943E+02  0.90000004350E+02 0.  0.
        -12    1    1    2    0    0 -0.45737973041E+00 -0.10762412167E+01  0.15973523581E+00  0.11802570567E+01  0.00000000000E+00 0.  1.
         11    1    3    3    0    0  0.10982679560E+02  0.22388833229E+02 -0.25818184310E+02  0.35895093606E+02  0.51100000000E-03 0. -1.
        -11    1    3    3    0    0  0.24157687744E+01  0.10559234957E+02 -0.58221031963E+00  0.10847688729E+02  0.51100000000E-03 0.  1.
        -12    1    3    3    0    0 -0.12941068604E+02 -0.31871826969E+02  0.26240659394E+02  0.43264960608E+02  0.00000000000E+00 0.  1.
</event>
<event>
 7    1  0.1716782E-015  0.9000776E+02  0.7816164E-02  0.1186339E+00
        -11   -1    0    0    0    0  0.00000000000E+00  0.00000000000E+00  0.45593999997E+02  0.45594000000E+02  0.51100000000E-03 0. -1.
         11   -1    0    0    0    0 -0.00000000000E+00 -0.00000000000E+00 -0.45593999997E+02  0.45594000000E+02  0.51100000000E-03 0.  1.
    9900012    2    1    2    0    0  0.11636416579E+01 -0.19720822870E+00 -0.21929039789E-02  0.90007763667E+02  0.90000025347E+02 0.  0.
        -12    1    1    2    0    0 -0.11636416579E+01  0.19720822870E+00  0.21929039789E-02  0.11802363333E+01  0.00000000000E+00 0.  1.
         11    1    3    3    0    0  0.37616932432E+01  0.86531193753E+01  0.23079602515E+01  0.97135725540E+01  0.51100000000E-03 0. -1.
        -11    1    3    3    0    0 -0.29470989566E+02  0.23537318004E+02 -0.53769788827E+01  0.38097985078E+02  0.51100000000E-03 0.  1.
         12    1    3    3    0    0  0.26872937981E+02 -0.32387645608E+02  0.30668257272E+01  0.42196206035E+02  0.00000000000E+00 0. -1.
</event>
<event>
 7    1  0.1716782E-015  0.9000772E+02  0.7816164E-02  0.1186339E+00
        -11   -1    0    0    0    0  0.00000000000E+00  0.00000000000E+00  0.45593999997E+02  0.45594000000E+02  0.51100000000E-03 0. -1.
         11   -1    0    0    0    0 -0.00000000000E+00 -0.00000000000E+00 -0.45593999997E+02  0.45594000000E+02  0.51100000000E-03 0.  1.
    9900012    2    1    2    0    0 -0.11549502992E+01  0.22805675433E+00  0.84542401717E-01  0.90007717197E+02  0.89999978264E+02 0.  0.
        -12    1    1    2    0    0  0.11549502992E+01 -0.22805675433E+00 -0.84542401717E-01  0.11802828028E+01  0.00000000000E+00 0.  1.
         11    1    3    3    0    0 -0.22868656491E+01 -0.33141499027E+01  0.88955614578E+01  0.97644435574E+01  0.51100000000E-03 0. -1.
        -11    1    3    3    0    0 -0.17200741966E+02 -0.20162098717E+02  0.24037626823E+02  0.35779648578E+02  0.51100000000E-03 0.  1.
         12    1    3    3    0    0  0.18332657316E+02  0.23704305374E+02 -0.32848645879E+02  0.44463625061E+02  0.00000000000E+00 0. -1.
</event>
<event>
 7    1  0.1716782E-015  0.9000781E+02  0.7816164E-02  0.1186339E+00
        -11   -1    0    0    0    0  0.00000000000E+00  0.00000000000E+00  0.45593999997E+02  0.45594000000E+02  0.51100000000E-03 0.  1.
         11   -1    0    0    0    0 -0.00000000000E+00 -0.00000000000E+00 -0.45593999997E+02  0.45594000000E+02  0.51100000000E-03 0. -1.
    9900012    2    1    2    0    0 -0.48944837967E+00  0.63137237022E+00 -0.86871195391E+00  0.90007808810E+02  0.90000071086E+02 0.  0.
        -12    1    1    2    0    0  0.48944837967E+00 -0.63137237022E+00  0.86871195391E+00  0.11801911901E+01  0.00000000000E+00 0.  1.
         11    1    3    3    0    0  0.30743975595E+02 -0.13710671345E+02 -0.50621030473E+01  0.34041143219E+02  0.51100000000E-03 0. -1.
        -11    1    3    3    0    0  0.73299074612E+01 -0.70523988776E+01 -0.43215279985E+01  0.11051673078E+02  0.51100000000E-03 0.  1.
        -12    1    3    3    0    0 -0.38563331436E+02  0.21394442593E+02  0.85149190919E+01  0.44914992513E+02  0.00000000000E+00 0.  1.
</event>
<event>
 7    1  0.1716782E-015  0.9000780E+02  0.7816164E-02  0.1186339E+00
        -11   -1    0    0    0    0  0.00000000000E+00  0.00000000000E+00  0.45593999997E+02  0.45594000000E+02  0.51100000000E-03 0.  1.
         11   -1    0    0    0    0 -0.00000000000E+00 -0.00000000000E+00 -0.45593999997E+02  0.45594000000E+02  0.51100000000E-03 0. -1.
    9900012    2    1    2    0    0  0.69864012400E+00 -0.55881278014E+00 -0.76974410286E+00  0.90007798437E+02  0.90000060576E+02 0.  0.
        -12    1    1    2    0    0 -0.69864012400E+00  0.55881278014E+00  0.76974410286E+00  0.11802015633E+01  0.00000000000E+00 0.  1.
         11    1    3    3    0    0  0.13830190029E+01  0.71110687277E+01  0.73816953141E+01  0.10342604410E+02  0.51100000000E-03 0. -1.
        -11    1    3    3    0    0  0.32582861427E+02 -0.17306325480E+02 -0.21320547569E+02  0.42611236890E+02  0.51100000000E-03 0.  1.
         12    1    3    3    0    0 -0.33267240306E+02  0.96364439724E+01  0.13169108152E+02  0.37053957137E+02  0.00000000000E+00 0. -1.
</event>
<event>
 7    1  0.1716782E-015  0.9000769E+02  0.7816164E-02  0.1186339E+00
        -11   -1    0    0    0    0  0.00000000000E+00  0.00000000000E+00  0.45593999997E+02  0.45594000000E+02  0.51100000000E-03 0. -1.
         11   -1    0    0    0    0 -0.00000000000E+00 -0.00000000000E+00 -0.45593999997E+02  0.45594000000E+02  0.51100000000E-03 0.  1.
    9900012    2    1    2    0    0 -0.56376041574E+00 -0.98210396414E+00  0.33282163952E+00  0.90007693156E+02  0.89999953905E+02 0.  0.
        -12    1    1    2    0    0  0.56376041574E+00  0.98210396414E+00 -0.33282163952E+00  0.11803068442E+01  0.00000000000E+00 0.  1.
         11    1    3    3    0    0  0.37970083054E+02  0.18889378009E+02 -0.41427655001E+01  0.42611011663E+02  0.51100000000E-03 0. -1.
        -11    1    3    3    0    0 -0.62835815268E+01  0.20885666870E+01 -0.36231963638E+01  0.75480500636E+01  0.51100000000E-03 0.  1.
        -12    1    3    3    0    0 -0.32250261943E+02 -0.21960048660E+02  0.80987835034E+01  0.39848631429E+02  0.00000000000E+00 0.  1.
</event>
<event>
 7    1  0.1716782E-015  0.9000755E+02  0.7816164E-02  0.1186339E+00
        -11   -1    0    0    0    0  0.00000000000E+00  0.00000000000E+00  0.45593999997E+02  0.45594000000E+02  0.51100000000E-03 0.  1.
         11   -1    0    0    0    0 -0.00000000000E+00 -0.00000000000E+00 -0.45593999997E+02  0.45594000000E+02  0.51100000000E-03 0. -1.
    9900012    2    1    2    0    0  0.80742598364E+00 -0.68955863884E+00  0.51578298385E+00  0.90007550966E+02  0.89999809839E+02 0.  0.
        -12    1    1    2    0    0 -0.80742598364E+00  0.68955863884E+00 -0.51578298385E+00  0.11804490340E+01  0.00000000000E+00 0.  1.
         11    1    3    3    0    0  0.85370687025E+01  0.13160409400E+02 -0.32976330015E+02  0.36517341895E+02  0.51100000000E-03 0. -1.
        -11    1    3    3    0    0 -0.18184541328E+01  0.43602880477E+01 -0.71468423650E+01  0.85671607516E+01  0.51100000000E-03 0.  1.
        -12    1    3    3    0    0 -0.59111885861E+01 -0.18210256087E+02  0.40638955363E+02  0.44923048319E+02  0.00000000000E+00 0.  1.
</event>
<event>
 7    1  0.1716782E-015  0.9000893E+02  0.7816164E-02  0.1186337E+00
        -11   -1    0    0    0    0  0.00000000000E+00  0.00000000000E+00  0.45593999997E+02  0.45594000000E+02  0.51100000000E-03 0.  1.
         11   -1    0    0    0    0 -0.00000000000E+00 -0.00000000000E+00 -0.45593999997E+02  0.45594000000E+02  0.51100000000E-03 0. -1.
    9900012    2    1    2    0    0  0.44532575295E-01  0.38959447593E+00 -0.11119578767E+01  0.90008925225E+02  0.90001202230E+02 0.  0.
        -12    1    1    2    0    0 -0.44532575295E-01 -0.38959447593E+00  0.11119578767E+01  0.11790747752E+01  0.00000000000E+00 0.  1.
         11    1    3    3    0    0  0.12445528211E+02  0.34973126281E+02  0.16549880461E+02  0.40643686814E+02  0.51100000000E-03 0. -1.
        -11    1    3    3    0    0 -0.47203403968E+01  0.31619914772E+01 -0.77174068808E+01  0.95832235071E+01  0.51100000000E-03 0.  1.
        -12    1    3    3    0    0 -0.76806552390E+01 -0.37745523283E+02 -0.99444314565E+01  0.39782014903E+02  0.00000000000E+00 0.  1.
</event>
<event>
 7    1  0.1716782E-015  0.9000769E+02  0.7816164E-02  0.1186339E+00
        -11   -1    0    0    0    0  0.00000000000E+00  0.00000000000E+00  0.45593999997E+02  0.45594000000E+02  0.51100000000E-03 0. -1.
         11   -1    0    0    0    0 -0.00000000000E+00 -0.00000000000E+00 -0.45593999997E+02  0.45594000000E+02  0.51100000000E-03 0.  1.
    9900012    2    1    2    0    0  0.32603227728E+00 -0.59267908894E+00  0.96725093803E+00  0.90007686514E+02  0.89999947176E+02 0.  0.
        -12    1    1    2    0    0 -0.32603227728E+00  0.59267908894E+00 -0.96725093803E+00  0.11803134861E+01  0.00000000000E+00 0.  1.
         11    1    3    3    0    0  0.16438660411E+02 -0.28344364891E+02  0.23910871273E+02  0.40563066236E+02  0.51100000000E-03 0. -1.
        -11    1    3    3    0    0  0.77123010339E+01  0.25758837751E+01 -0.49062249293E+00  0.81458870083E+01  0.51100000000E-03 0.  1.
        -12    1    3    3    0    0 -0.23824929167E+02  0.25175802027E+02 -0.22452997842E+02  0.41298733269E+02  0.00000000000E+00 0.  1.
</event>
<event>
 7    1  0.1716782E-015  0.9000774E+02  0.7816164E-02  0.1186339E+00
        -11   -1    0    0    0    0  0.00000000000E+00  0.00000000000E+00  0.45593999997E+02  0.45594000000E+02  0.51100000000E-03 0. -1.
         11   -1    0    0    0    0 -0.00000000000E+00 -0.00000000000E+00 -0.45593999997E+02  0.45594000000E+02  0.51100000000E-03 0.  1.
    9900012    2    1    2    0    0 -0.10894189453E+01 -0.97860881773E-01  0.44338782805E+00  0.90007744453E+02  0.90000005880E+02 0.  0.
        -12    1    1    2    0    0  0.10894189453E+01  0.97860881773E-01 -0.44338782805E+00  0.11802555472E+01  0.00000000000E+00 0.  1.
         11    1    3    3    0    0  0.10329228693E+02 -0.80921399041E+01 -0.17953943829E+01  0.13243833844E+02  0.51100000000E-03 0. -1.
        -11    1    3    3    0    0 -0.30289429100E+02 -0.14269735279E+02 -0.20942362422E+02  0.39492498075E+02  0.51100000000E-03 0.  1.
         12    1    3    3    0    0  0.18870781461E+02  0.22264014302E+02  0.23181144633E+02  0.37271412534E+02  0.00000000000E+00 0. -1.
</event>
<event>
 7    1  0.1716782E-015  0.9000775E+02  0.7816164E-02  0.1186339E+00
        -11   -1    0    0    0    0  0.00000000000E+00  0.00000000000E+00  0.45593999997E+02  0.45594000000E+02  0.51100000000E-03 0.  1.
         11   -1    0    0    0    0 -0.00000000000E+00 -0.00000000000E+00 -0.45593999997E+02  0.45594000000E+02  0.51100000000E-03 0. -1.
    9900012    2    1    2    0    0 -0.31409942136E-01 -0.10852855883E+01  0.46278384159E+00  0.90007745673E+02  0.90000007116E+02 0.  0.
        -12    1    1    2    0    0  0.31409942136E-01  0.10852855883E+01 -0.46278384159E+00  0.11802543271E+01  0.00000000000E+00 0.  1.
         11    1    3    3    0    0  0.47615541624E+01 -0.44720052613E+01  0.76210532753E+01  0.10037513755E+02  0.51100000000E-03 0. -1.
        -11    1    3    3    0    0  0.22032774445E+02  0.32998931856E+02 -0.43316827317E+01  0.39914109396E+02  0.51100000000E-03 0.  1.
         12    1    3    3    0    0 -0.26825738549E+02 -0.29612212183E+02 -0.28265867019E+01  0.40056122521E+02  0.00000000000E+00 0. -1.
</event>
<event>
 7    1  0.1716782E-015  0.9000776E+02  0.7816164E-02  0.1186339E+00
        -11   -1    0    0    0    0  0.00000000000E+00  0.00000000000E+00  0.45593999997E+02  0.45594000000E+02  0.51100000000E-03 0. -1.
         11   -1    0    0    0    0 -0.00000000000E+00 -0.00000000000E+00 -0.45593999997E+02  0.45594000000E+02  0.51100000000E-03 0.  1.
    9900012    2    1    2    0    0 -0.10470339470E+01 -0.38013889985E+00 -0.39009809107E+00  0.90007761808E+02  0.90000023464E+02 0.  0.
        -12    1    1    2    0    0  0.10470339470E+01  0.38013889985E+00  0.39009809107E+00  0.11802381921E+01  0.00000000000E+00 0.  1.
         11    1    3    3    0    0  0.57310663313E+01 -0.44836286563E+01 -0.56104827402E+01  0.91883384821E+01  0.51100000000E-03 0. -1.
        -11    1    3    3    0    0  0.50925434415E+00 -0.37677605620E+02  0.71941646829E+01  0.38361664602E+02  0.51100000000E-03 0.  1.
         12    1    3    3    0    0 -0.72873546224E+01  0.41781095377E+02 -0.19737800338E+01  0.42457758724E+02  0.00000000000E+00 0. -1.
</event>
<event>
 7    1  0.1716782E-015  0.9000765E+02  0.7816164E-02  0.1186339E+00
        -11   -1    0    0    0    0  0.00000000000E+00  0.00000000000E+00  0.45593999997E+02  0.45594000000E+02  0.51100000000E-03 0.  1.
         11   -1    0    0    0    0 -0.00000000000E+00 -0.00000000000E+00 -0.45593999997E+02  0.45594000000E+02  0.51100000000E-03 0. -1.
    9900012    2    1    2    0    0 -0.12112830995E-02 -0.83141598508E+00  0.83784091521E+00  0.90007647762E+02  0.89999907912E+02 0.  0.
        -12    1    1    2    0    0  0.12112830995E-02  0.83141598508E+00 -0.83784091521E+00  0.11803522384E+01  0.00000000000E+00 0.  1.
         11    1    3    3    0    0  0.36696746922E+02  0.19274013056E+02 -0.15875912331E+02  0.44386748097E+02  0.51100000000E-03 0. -1.
        -11    1    3    3    0    0 -0.84992086172E+01 -0.24638061994E+01  0.59366913539E+01  0.10656040193E+02  0.51100000000E-03 0.  1.
        -12    1    3    3    0    0 -0.28198749588E+02 -0.17641622842E+02  0.10777061892E+02  0.34964859472E+02  0.00000000000E+00 0.  1.
</event>
<event>
 7    1  0.1716782E-015  0.9000775E+02  0.7816164E-02  0.1186339E+00
        -11   -1    0    0    0    0  0.00000000000E+00  0.00000000000E+00  0.45593999997E+02  0.45594000000E+02  0.51100000000E-03 0.  1.
         11   -1    0    0    0    0 -0.00000000000E+00 -0.00000000000E+00 -0.45593999997E+02  0.45594000000E+02  0.51100000000E-03 0. -1.
    9900012    2    1    2    0    0 -0.84182126872E+00  0.73003094814E+00 -0.38908890834E+00  0.90007746463E+02  0.90000007916E+02 0.  0.
        -12    1    1    2    0    0  0.84182126872E+00 -0.73003094814E+00  0.38908890834E+00  0.11802535373E+01  0.00000000000E+00 0.  1.
         11    1    3    3    0    0 -0.35532388899E+01 -0.40540975061E+02  0.60767866843E+01  0.41147581972E+02  0.51100000000E-03 0. -1.
        -11    1    3    3    0    0  0.92779295555E+01  0.34669971210E+01  0.24539717802E+00  0.99075862807E+01  0.51100000000E-03 0.  1.
        -12    1    3    3    0    0 -0.65665119343E+01  0.37804008888E+02 -0.67112727706E+01  0.38952578210E+02  0.00000000000E+00 0.  1.
</event>
<event>
 7    1  0.1716782E-015  0.9000777E+02  0.7816164E-02  0.1186339E+00
        -11   -1    0    0    0    0  0.00000000000E+00  0.00000000000E+00  0.45593999997E+02  0.45594000000E+02  0.51100000000E-03 0.  1.
         11   -1    0    0    0    0 -0.00000000000E+00 -0.00000000000E+00 -0.45593999997E+02  0.45594000000E+02  0.51100000000E-03 0. -1.
    9900012    2    1    2    0    0 -0.66098559769E+00  0.97732692399E+00  0.29512394472E-01  0.90007770845E+02  0.90000032620E+02 0.  0.
        -12    1    1    2    0    0  0.66098559769E+00 -0.97732692399E+00 -0.29512394472E-01  0.11802291549E+01  0.00000000000E+00 0.  1.
         11    1    3    3    0    0  0.32818396215E+01 -0.24728952189E+01  0.10510280624E+02  0.11285020209E+02  0.51100000000E-03 0. -1.
        -11    1    3    3    0    0  0.22335373900E+02 -0.96163718130E+01  0.23504209549E+02  0.33819985229E+02  0.51100000000E-03 0.  1.
         12    1    3    3    0    0 -0.26278199119E+02  0.13066593956E+02 -0.33984977779E+02  0.44902765407E+02  0.00000000000E+00 0. -1.
</event>
<event>
 7    1  0.1716782E-015  0.9000772E+02  0.7816164E-02  0.1186339E+00
        -11   -1    0    0    0    0  0.00000000000E+00  0.00000000000E+00  0.45593999997E+02  0.45594000000E+02  0.51100000000E-03 0.  1.
         11   -1    0    0    0    0 -0.00000000000E+00 -0.00000000000E+00 -0.45593999997E+02  0.45594000000E+02  0.51100000000E-03 0. -1.
    9900012    2    1    2    0    0  0.93001690386E+00  0.70350481972E+00  0.18224100386E+00  0.90007719416E+02  0.89999980513E+02 0.  0.
        -12    1    1    2    0    0 -0.93001690386E+00 -0.70350481972E+00 -0.18224100386E+00  0.11802805837E+01  0.00000000000E+00 0.  1.
         11    1    3    3    0    0  0.10402509447E+02  0.21544481381E+01  0.14184294598E+02  0.17721401273E+02  0.51100000000E-03 0. -1.
        -11    1    3    3    0    0  0.23691861471E+02  0.11222223923E+02 -0.23851605213E+02  0.35442089121E+02  0.51100000000E-03 0.  1.
         12    1    3    3    0    0 -0.33164354015E+02 -0.12673167242E+02  0.98495516185E+01  0.36844229022E+02  0.00000000000E+00 0. -1.
</event>
<event>
 7    1  0.1716782E-015  0.9000792E+02  0.7816164E-02  0.1186339E+00
        -11   -1    0    0    0    0  0.00000000000E+00  0.00000000000E+00  0.45593999997E+02  0.45594000000E+02  0.51100000000E-03 0.  1.
         11   -1    0    0    0    0 -0.00000000000E+00 -0.00000000000E+00 -0.45593999997E+02  0.45594000000E+02  0.51100000000E-03 0. -1.
    9900012    2    1    2    0    0  0.10514293285E+00 -0.10824117022E+01 -0.45818146502E+00  0.90007915094E+02  0.90000178774E+02 0.  0.
        -12    1    1    2    0    0 -0.10514293285E+00  0.10824117022E+01  0.45818146502E+00  0.11800849055E+01  0.00000000000E+00 0.  1.
         11    1    3    3    0    0  0.21942584788E+02  0.20111349209E+02 -0.25694543436E+02  0.39321151519E+02  0.51100000000E-03 0. -1.
        -11    1    3    3    0    0 -0.45635078060E+01  0.35450311782E+01 -0.52400992339E+01  0.78007364904E+01  0.51100000000E-03 0.  1.
        -12    1    3    3    0    0 -0.17273934049E+02 -0.24738792089E+02  0.30476461205E+02  0.42886027085E+02  0.00000000000E+00 0.  1.
</event>
<event>
 7    1  0.1716782E-015  0.9000767E+02  0.7816164E-02  0.1186339E+00
        -11   -1    0    0    0    0  0.00000000000E+00  0.00000000000E+00  0.45593999997E+02  0.45594000000E+02  0.51100000000E-03 0. -1.
         11   -1    0    0    0    0 -0.00000000000E+00 -0.00000000000E+00 -0.45593999997E+02  0.45594000000E+02  0.51100000000E-03 0.  1.
    9900012    2    1    2    0    0 -0.59142152235E+00 -0.83856564418E+00  0.58326902175E+00  0.90007671864E+02  0.89999932333E+02 0.  0.
        -12    1    1    2    0    0  0.59142152235E+00  0.83856564418E+00 -0.58326902175E+00  0.11803281359E+01  0.00000000000E+00 0.  1.
         11    1    3    3    0    0  0.64756196141E+01  0.41713552284E+01  0.50034217315E+01  0.91852100201E+01  0.51100000000E-03 0. -1.
        -11    1    3    3    0    0 -0.10695025842E+02  0.35429257333E+02  0.89517253032E+01  0.38075572735E+02  0.51100000000E-03 0.  1.
         12    1    3    3    0    0  0.36279847057E+01 -0.40439178205E+02 -0.13371878013E+02  0.42746889109E+02  0.00000000000E+00 0. -1.
</event>
<event>
 7    1  0.1716782E-015  0.9000766E+02  0.7816164E-02  0.1186339E+00
        -11   -1    0    0    0    0  0.00000000000E+00  0.00000000000E+00  0.45593999997E+02  0.45594000000E+02  0.51100000000E-03 0.  1.
         11   -1    0    0    0    0 -0.00000000000E+00 -0.00000000000E+00 -0.45593999997E+02  0.45594000000E+02  0.51100000000E-03 0. -1.
    9900012    2    1    2    0    0 -0.37678122301E+00  0.85147892394E+00 -0.72540682219E+00  0.90007662969E+02  0.89999923321E+02 0.  0.
        -12    1    1    2    0    0  0.37678122301E+00 -0.85147892394E+00  0.72540682219E+00  0.11803370305E+01  0.00000000000E+00 0.  1.
         11    1    3    3    0    0  0.29689628218E+02  0.17144185419E+02 -0.11141773075E+02  0.36049080778E+02  0.51100000000E-03 0. -1.
        -11    1    3    3    0    0  0.77474149517E+01  0.14977471560E+01 -0.50839168209E+01  0.93867936741E+01  0.51100000000E-03 0.  1.
        -12    1    3    3    0    0 -0.37813824393E+02 -0.17790453651E+02  0.15500283073E+02  0.44571788518E+02  0.00000000000E+00 0.  1.
</event>
<event>
 7    1  0.1716782E-015  0.9000782E+02  0.7816164E-02  0.1186339E+00
        -11   -1    0    0    0    0  0.00000000000E+00  0.00000000000E+00  0.45593999997E+02  0.45594000000E+02  0.51100000000E-03 0. -1.
         11   -1    0    0    0    0 -0.00000000000E+00 -0.00000000000E+00 -0.45593999997E+02  0.45594000000E+02  0.51100000000E-03 0.  1.
    9900012    2    1    2    0    0  0.60399265137E+00 -0.80605818091E+00  0.61505240445E+00  0.90007819347E+02  0.90000081762E+02 0.  0.
        -12    1    1    2    0    0 -0.60399265137E+00  0.80605818091E+00 -0.61505240445E+00  0.11801806532E+01  0.00000000000E+00 0.  1.
         11    1    3    3    0    0  0.42797948884E+01 -0.23612078136E+01 -0.97010197205E+01  0.10862860144E+02  0.51100000000E-03 0. -1.
        -11    1    3    3    0    0 -0.11579758003E+02 -0.35257216265E+02 -0.68968762892E+01  0.37745582483E+02  0.51100000000E-03 0.  1.
         12    1    3    3    0    0  0.79039557662E+01  0.36812365897E+02  0.17212948414E+02  0.41399376720E+02  0.00000000000E+00 0. -1.
</event>
<event>
 7    1  0.1716782E-015  0.9000789E+02  0.7816164E-02  0.1186339E+00
        -11   -1    0    0    0    0  0.00000000000E+00  0.00000000000E+00  0.45593999997E+02  0.45594000000E+02  0.51100000000E-03 0.  1.
         11   -1    0    0    0    0 -0.00000000000E+00 -0.00000000000E+00 -0.45593999997E+02  0.45594000000E+02  0.51100000000E-03 0. -1.
    9900012    2    1    2    0    0  0.80833242857E+00  0.67834801511E+00 -0.52830286355E+00  0.90007889302E+02  0.90000152640E+02 0.  0.
        -12    1    1    2    0    0 -0.80833242857E+00 -0.67834801511E+00  0.52830286355E+00  0.11801106983E+01  0.00000000000E+00 0.  1.
         11    1    3    3    0    0  0.43720134572E+01  0.63888367015E+01 -0.43031262669E+01  0.88571232350E+01  0.51100000000E-03 0. -1.
        -11    1    3    3    0    0  0.93453029812E+01  0.12531492396E+01  0.40511470854E+02  0.41594282562E+02  0.51100000000E-03 0.  1.
         12    1    3    3    0    0 -0.12908984010E+02 -0.69636379261E+01 -0.36736647451E+02  0.39556483505E+02  0.00000000000E+00 0. -1.
</event>
<event>
 7    1  0.1716782E-015  0.9000773E+02  0.7816164E-02  0.1186339E+00
        -11   -1    0    0    0    0  0.00000000000E+00  0.00000000000E+00  0.45593999997E+02  0.45594000000E+02  0.51100000000E-03 0.  1.
         11   -1    0    0    0    0 -0.00000000000E+00 -0.00000000000E+00 -0.45593999997E+02  0.45594000000E+02  0.51100000000E-03 0. -1.
    9900012    2    1    2    0    0 -0.29053459463E+00 -0.66130610070E+00  0.93343465019E+00  0.90007730389E+02  0.89999991630E+02 0.  0.
        -12    1    1    2    0    0  0.29053459463E+00  0.66130610070E+00 -0.93343465019E+00  0.11802696114E+01  0.00000000000E+00 0.  1.
         11    1    3    3    0    0 -0.75109125673E+01  0.48580372443E+01  0.58527456645E+01  0.10689666297E+02  0.51100000000E-03 0. -1.
        -11    1    3    3    0    0  0.24692458236E+02  0.16958364024E+02  0.24263170213E+02  0.38548735818E+02  0.51100000000E-03 0.  1.
         12    1    3    3    0    0 -0.17472080263E+02 -0.22477707369E+02 -0.29182481227E+02  0.40769328274E+02  0.00000000000E+00 0. -1.
</event>
<event>
 7    1  0.1716782E-015  0.9000829E+02  0.7816164E-02  0.1186338E+00
        -11   -1    0    0    0    0  0.00000000000E+00  0.00000000000E+00  0.45593999997E+02  0.45594000000E+02  0.51100000000E-03 0.  1.
         11   -1    0    0    0    0 -0.00000000000E+00 -0.00000000000E+00 -0.45593999997E+02  0.45594000000E+02  0.51100000000E-03 0. -1.
    9900012    2    1    2    0    0  0.52074578143E+00  0.52313087938E+00 -0.92025889225E+00  0.90008288800E+02  0.90000557411E+02 0.  0.
        -12    1    1    2    0    0 -0.52074578143E+00 -0.52313087938E+00  0.92025889225E+00  0.11797111997E+01  0.00000000000E+00 0.  1.
         11    1    3    3    0    0 -0.31594664281E+02 -0.18561952509E+02 -0.14577031906E+02  0.39436769029E+02  0.51100000000E-03 0. -1.
        -11    1    3    3    0    0  0.30304762122E+01 -0.76885886035E+01 -0.11782073957E+01  0.83478352712E+01  0.51100000000E-03 0.  1.
        -12    1    3    3    0    0  0.29084933851E+02  0.26773671992E+02  0.14834980409E+02  0.42223684500E+02  0.00000000000E+00 0.  1.
</event>
<event>
 7    1  0.1716782E-015  0.9000772E+02  0.7816164E-02  0.1186339E+00
        -11   -1    0    0    0    0  0.00000000000E+00  0.00000000000E+00  0.45593999997E+02  0.45594000000E+02  0.51100000000E-03 0.  1.
         11   -1    0    0    0    0 -0.00000000000E+00 -0.00000000000E+00 -0.45593999997E+02  0.45594000000E+02  0.51100000000E-03 0. -1.
    9900012    2    1    2    0    0  0.10365515856E+01 -0.10332415757E+00 -0.55492886877E+00  0.90007719897E+02  0.89999981000E+02 0.  0.
        -12    1    1    2    0    0 -0.10365515856E+01  0.10332415757E+00  0.55492886877E+00  0.11802801026E+01  0.00000000000E+00 0.  1.
         11    1    3    3    0    0 -0.67566669055E+01  0.22977822096E+02 -0.28337586384E+02  0.37103256707E+02  0.51100000000E-03 0. -1.
        -11    1    3    3    0    0 -0.98393475963E+01  0.55220592647E+01  0.52292690165E+01  0.12435881728E+02  0.51100000000E-03 0.  1.
        -12    1    3    3    0    0  0.17632566087E+02 -0.28603205518E+02  0.22553388499E+02  0.40468581462E+02  0.00000000000E+00 0.  1.
</event>
<event>
 7    1  0.1716782E-015  0.9000773E+02  0.7816164E-02  0.1186339E+00
        -11   -1    0    0    0    0  0.00000000000E+00  0.00000000000E+00  0.45593999997E+02  0.45594000000E+02  0.51100000000E-03 0.  1.
         11   -1    0    0    0    0 -0.00000000000E+00 -0.00000000000E+00 -0.45593999997E+02  0.45594000000E+02  0.51100000000E-03 0. -1.
    9900012    2    1    2    0    0 -0.58198405038E+00  0.86430756475E+00  0.55435930024E+00  0.90007725780E+02  0.89999986960E+02 0.  0.
        -12    1    1    2    0    0  0.58198405038E+00 -0.86430756475E+00 -0.55435930024E+00  0.11802742203E+01  0.00000000000E+00 0.  1.
         11    1    3    3    0    0 -0.87432999706E+00 -0.33361609446E+02  0.42344678619E+01  0.33640632517E+02  0.51100000000E-03 0. -1.
        -11    1    3    3    0    0  0.39481559959E+01 -0.10355222930E+02  0.20513621894E+01  0.11270610667E+02  0.51100000000E-03 0.  1.
        -12    1    3    3    0    0 -0.36558100492E+01  0.44581139941E+02 -0.57314707510E+01  0.45096482596E+02  0.00000000000E+00 0.  1.
</event>
<event>
 7    1  0.1716782E-015  0.9000776E+02  0.7816164E-02  0.1186339E+00
        -11   -1    0    0    0    0  0.00000000000E+00  0.00000000000E+00  0.45593999997E+02  0.45594000000E+02  0.51100000000E-03 0. -1.
         11   -1    0    0    0    0 -0.00000000000E+00 -0.00000000000E+00 -0.45593999997E+02  0.45594000000E+02  0.51100000000E-03 0.  1.
    9900012    2    1    2    0    0  0.13672112887E+00 -0.11514531323E+01  0.22005225577E+00  0.90007762745E+02  0.90000024413E+02 0.  0.
        -12    1    1    2    0    0 -0.13672112887E+00  0.11514531323E+01 -0.22005225577E+00  0.11802372550E+01  0.00000000000E+00 0.  1.
         11    1    3    3    0    0  0.10308138259E+02 -0.27537935013E+02 -0.26112279181E+02  0.39324886566E+02  0.51100000000E-03 0. -1.
        -11    1    3    3    0    0  0.99883217446E+01  0.32761841076E+01  0.39775185878E+00  0.10519418253E+02  0.51100000000E-03 0.  1.
        -12    1    3    3    0    0 -0.20159738875E+02  0.23110297773E+02  0.25934579578E+02  0.40163457926E+02  0.00000000000E+00 0.  1.
</event>
<event>
 7    1  0.1716782E-015  0.9000771E+02  0.7816164E-02  0.1186339E+00
        -11   -1    0    0    0    0  0.00000000000E+00  0.00000000000E+00  0.45593999997E+02  0.45594000000E+02  0.51100000000E-03 0.  1.
         11   -1    0    0    0    0 -0.00000000000E+00 -0.00000000000E+00 -0.45593999997E+02  0.45594000000E+02  0.51100000000E-03 0. -1.
    9900012    2    1    2    0    0  0.75088924898E-01  0.10997372688E+01 -0.42191613061E+00  0.90007714599E+02  0.89999975631E+02 0.  0.
        -12    1    1    2    0    0 -0.75088924898E-01 -0.10997372688E+01  0.42191613061E+00  0.11802854013E+01  0.00000000000E+00 0.  1.
         11    1    3    3    0    0  0.31244774311E+01  0.66759965088E+00  0.68777871610E+01  0.75836669893E+01  0.51100000000E-03 0. -1.
        -11    1    3    3    0    0  0.76134736872E+01  0.12134228414E+02  0.34699495878E+02  0.37540105157E+02  0.51100000000E-03 0.  1.
         12    1    3    3    0    0 -0.10662862193E+02 -0.11702090796E+02 -0.41999199169E+02  0.44883942452E+02  0.00000000000E+00 0. -1.
</event>
<event>
 7    1  0.1716782E-015  0.9000778E+02  0.7816164E-02  0.1186339E+00
        -11   -1    0    0    0    0  0.00000000000E+00  0.00000000000E+00  0.45593999997E+02  0.45594000000E+02  0.51100000000E-03 0. -1.
         11   -1    0    0    0    0 -0.00000000000E+00 -0.00000000000E+00 -0.45593999997E+02  0.45594000000E+02  0.51100000000E-03 0.  1.
    9900012    2    1    2    0    0  0.58719792911E+00 -0.30315290922E+00  0.97786302460E+00  0.90007780025E+02  0.90000041921E+02 0.  0.
        -12    1    1    2    0    0 -0.58719792911E+00  0.30315290922E+00 -0.97786302460E+00  0.11802199749E+01  0.00000000000E+00 0.  1.
         11    1    3    3    0    0  0.66148463328E+01 -0.32896088427E+02  0.12157953994E+02  0.35689279502E+02  0.51100000000E-03 0. -1.
        -11    1    3    3    0    0  0.83406526149E+01 -0.69371791724E+01 -0.20805805492E+00  0.10850540508E+02  0.51100000000E-03 0.  1.
        -12    1    3    3    0    0 -0.14368301019E+02  0.39530114690E+02 -0.10972032915E+02  0.43467960015E+02  0.00000000000E+00 0.  1.
</event>
<event>
 7    1  0.1716782E-015  0.9000778E+02  0.7816164E-02  0.1186339E+00
        -11   -1    0    0    0    0  0.00000000000E+00  0.00000000000E+00  0.45593999997E+02  0.45594000000E+02  0.51100000000E-03 0. -1.
         11   -1    0    0    0    0 -0.00000000000E+00 -0.00000000000E+00 -0.45593999997E+02  0.45594000000E+02  0.51100000000E-03 0.  1.
    9900012    2    1    2    0    0  0.94519222972E+00  0.42568978739E+00  0.56420653120E+00  0.90007775803E+02  0.90000037643E+02 0.  0.
        -12    1    1    2    0    0 -0.94519222972E+00 -0.42568978739E+00 -0.56420653120E+00  0.11802241974E+01  0.00000000000E+00 0.  1.
         11    1    3    3    0    0  0.91374146646E+01 -0.39522334917E+02  0.42091804559E+01  0.40782649552E+02  0.51100000000E-03 0. -1.
        -11    1    3    3    0    0  0.25353237409E+01  0.65127841230E+01 -0.11299756350E+02  0.13286411003E+02  0.51100000000E-03 0.  1.
        -12    1    3    3    0    0 -0.10727546176E+02  0.33435240582E+02  0.76547824254E+01  0.35938715248E+02  0.00000000000E+00 0.  1.
</event>
<event>
 7    1  0.1716782E-015  0.9000770E+02  0.7816164E-02  0.1186339E+00
        -11   -1    0    0    0    0  0.00000000000E+00  0.00000000000E+00  0.45593999997E+02  0.45594000000E+02  0.51100000000E-03 0. -1.
         11   -1    0    0    0    0 -0.00000000000E+00 -0.00000000000E+00 -0.45593999997E+02  0.45594000000E+02  0.51100000000E-03 0.  1.
    9900012    2    1    2    0    0  0.40483306261E+00  0.10577592425E+01 -0.33221566748E+00  0.90007698482E+02  0.89999959302E+02 0.  0.
        -12    1    1    2    0    0 -0.40483306261E+00 -0.10577592425E+01  0.33221566748E+00  0.11803015180E+01  0.00000000000E+00 0.  1.
         11    1    3    3    0    0  0.28323573380E+01 -0.24479613436E+01  0.92486914909E+01  0.99776278436E+01  0.51100000000E-03 0. -1.
        -11    1    3    3    0    0  0.13763963477E+02 -0.23400037456E+02  0.22410067510E+02  0.35202550612E+02  0.51100000000E-03 0.  1.
         12    1    3    3    0    0 -0.16191487752E+02  0.26905758042E+02 -0.31990974668E+02  0.44827520026E+02  0.00000000000E+00 0. -1.
</event>
<event>
 7    1  0.1716782E-015  0.9000778E+02  0.7816164E-02  0.1186339E+00
        -11   -1    0    0    0    0  0.00000000000E+00  0.00000000000E+00  0.45593999997E+02  0.45594000000E+02  0.51100000000E-03 0.  1.
         11   -1    0    0    0    0 -0.00000000000E+00 -0.00000000000E+00 -0.45593999997E+02  0.45594000000E+02  0.51100000000E-03 0. -1.
    9900012    2    1    2    0    0  0.84041826216E+00  0.48090891877E-01 -0.82723022850E+00  0.90007777377E+02  0.90000039238E+02 0.  0.
        -12    1    1    2    0    0 -0.84041826216E+00 -0.48090891877E-01  0.82723022850E+00  0.11802226232E+01  0.00000000000E+00 0.  1.
         11    1    3    3    0    0 -0.28747585165E+01 -0.27518294213E+01  0.79317458957E+01  0.88740855815E+01  0.51100000000E-03 0. -1.
        -11    1    3    3    0    0  0.35225716479E+02  0.21351454451E+02 -0.15387560664E+02  0.43971726508E+02  0.51100000000E-03 0.  1.
         12    1    3    3    0    0 -0.31510539700E+02 -0.18551534138E+02  0.66285845403E+01  0.37161965288E+02  0.00000000000E+00 0. -1.
</event>
<event>
 7    1  0.1716782E-015  0.9000775E+02  0.7816164E-02  0.1186339E+00
        -11   -1    0    0    0    0  0.00000000000E+00  0.00000000000E+00  0.45593999997E+02  0.45594000000E+02  0.51100000000E-03 0.  1.
         11   -1    0    0    0    0 -0.00000000000E+00 -0.00000000000E+00 -0.45593999997E+02  0.45594000000E+02  0.51100000000E-03 0. -1.
    9900012    2    1    2    0    0 -0.17756677754E+00  0.48185816773E+00 -0.10626771920E+01  0.90007745761E+02  0.90000007205E+02 0.  0.
        -12    1    1    2    0    0  0.17756677754E+00 -0.48185816773E+00  0.10626771920E+01  0.11802542390E+01  0.00000000000E+00 0.  1.
         11    1    3    3    0    0  0.81169498214E+01 -0.15108355565E+01  0.45473397191E+01  0.94258048603E+01  0.51100000000E-03 0. -1.
        -11    1    3    3    0    0 -0.14967202291E+02 -0.31780281410E+01  0.35477404319E+02  0.38636294139E+02  0.51100000000E-03 0.  1.
         12    1    3    3    0    0  0.66726856920E+01  0.51707218652E+01 -0.41087421230E+02  0.41945646762E+02  0.00000000000E+00 0. -1.
</event>
<event>
 7    1  0.1716782E-015  0.9000788E+02  0.7816164E-02  0.1186339E+00
        -11   -1    0    0    0    0  0.00000000000E+00  0.00000000000E+00  0.45593999997E+02  0.45594000000E+02  0.51100000000E-03 0.  1.
         11   -1    0    0    0    0 -0.00000000000E+00 -0.00000000000E+00 -0.45593999997E+02  0.45594000000E+02  0.51100000000E-03 0. -1.
    9900012    2    1    2    0    0 -0.78191198942E+00 -0.87226231996E+00  0.14306281758E+00  0.90007875056E+02  0.90000138206E+02 0.  0.
        -12    1    1    2    0    0  0.78191198942E+00  0.87226231996E+00 -0.14306281758E+00  0.11801249441E+01  0.00000000000E+00 0.  1.
         11    1    3    3    0    0 -0.41280567862E+02 -0.43002484105E+01 -0.32907200932E+01  0.41634195782E+02  0.51100000000E-03 0. -1.
        -11    1    3    3    0    0  0.55590860146E+01 -0.63941214509E+01 -0.65753589281E+01  0.10724904277E+02  0.51100000000E-03 0.  1.
        -12    1    3    3    0    0  0.34939569858E+02  0.98221075415E+01  0.10009141839E+02  0.37648774997E+02  0.00000000000E+00 0.  1.
</event>
<event>
 7    1  0.1716782E-015  0.9000763E+02  0.7816164E-02  0.1186339E+00
        -11   -1    0    0    0    0  0.00000000000E+00  0.00000000000E+00  0.45593999997E+02  0.45594000000E+02  0.51100000000E-03 0.  1.
         11   -1    0    0    0    0 -0.00000000000E+00 -0.00000000000E+00 -0.45593999997E+02  0.45594000000E+02  0.51100000000E-03 0. -1.
    9900012    2    1    2    0    0 -0.23207899560E+00  0.68324578453E+00 -0.93412928479E+00  0.90007625914E+02  0.89999885776E+02 0.  0.
        -12    1    1    2    0    0  0.23207899560E+00 -0.68324578453E+00  0.93412928479E+00  0.11803740860E+01  0.00000000000E+00 0.  1.
         11    1    3    3    0    0 -0.67072978420E+01  0.57439958228E+01  0.58149990599E+00  0.88498290806E+01  0.51100000000E-03 0. -1.
        -11    1    3    3    0    0 -0.31607431198E+02  0.18069723136E+02  0.19970876116E+01  0.36462761282E+02  0.51100000000E-03 0.  1.
         12    1    3    3    0    0  0.38082650044E+02 -0.23130473174E+02 -0.35127168023E+01  0.44695035552E+02  0.00000000000E+00 0. -1.
</event>
<event>
 7    1  0.1716782E-015  0.9000740E+02  0.7816164E-02  0.1186340E+00
        -11   -1    0    0    0    0  0.00000000000E+00  0.00000000000E+00  0.45593999997E+02  0.45594000000E+02  0.51100000000E-03 0.  1.
         11   -1    0    0    0    0 -0.00000000000E+00 -0.00000000000E+00 -0.45593999997E+02  0.45594000000E+02  0.51100000000E-03 0. -1.
    9900012    2    1    2    0    0  0.61785492443E+00  0.10041402852E+00  0.10009895798E+01  0.90007403615E+02  0.89999660542E+02 0.  0.
        -12    1    1    2    0    0 -0.61785492443E+00 -0.10041402852E+00 -0.10009895798E+01  0.11805963848E+01  0.00000000000E+00 0.  1.
         11    1    3    3    0    0  0.57977180959E+01 -0.36121022732E+02  0.82150333635E+01  0.37494380803E+02  0.51100000000E-03 0. -1.
        -11    1    3    3    0    0 -0.46673723823E+01 -0.70022202542E+01 -0.35433324820E+01  0.91307534619E+01  0.51100000000E-03 0.  1.
        -12    1    3    3    0    0 -0.51249078912E+00  0.43223657015E+02 -0.36707113017E+01  0.43382269351E+02  0.00000000000E+00 0.  1.
</event>
<event>
 7    1  0.1716782E-015  0.9000781E+02  0.7816164E-02  0.1186339E+00
        -11   -1    0    0    0    0  0.00000000000E+00  0.00000000000E+00  0.45593999997E+02  0.45594000000E+02  0.51100000000E-03 0.  1.
         11   -1    0    0    0    0 -0.00000000000E+00 -0.00000000000E+00 -0.45593999997E+02  0.45594000000E+02  0.51100000000E-03 0. -1.
    9900012    2    1    2    0    0 -0.10602113992E+01 -0.51743476068E+00  0.32651271498E-01  0.90007808046E+02  0.90000070312E+02 0.  0.
        -12    1    1    2    0    0  0.10602113992E+01  0.51743476068E+00 -0.32651271498E-01  0.11801919540E+01  0.00000000000E+00 0.  1.
         11    1    3    3    0    0  0.97415889463E+01  0.12371763608E+01  0.44182121293E+01  0.10767996992E+02  0.51100000000E-03 0. -1.
        -11    1    3    3    0    0  0.33354851352E+02 -0.21547753106E+01  0.57949397047E+01  0.33923008295E+02  0.51100000000E-03 0.  1.
         12    1    3    3    0    0 -0.44156651698E+02  0.40016418913E+00 -0.10180500563E+02  0.45316802758E+02  0.00000000000E+00 0. -1.
</event>
<event>
 7    1  0.1716782E-015  0.9000775E+02  0.7816164E-02  0.1186339E+00
        -11   -1    0    0    0    0  0.00000000000E+00  0.00000000000E+00  0.45593999997E+02  0.45594000000E+02  0.51100000000E-03 0.  1.
         11   -1    0    0    0    0 -0.00000000000E+00 -0.00000000000E+00 -0.45593999997E+02  0.45594000000E+02  0.51100000000E-03 0. -1.
    9900012    2    1    2    0    0  0.75995634196E+00 -0.74787020518E+00  0.50612027950E+00  0.90007745272E+02  0.90000006710E+02 0.  0.
        -12    1    1    2    0    0 -0.75995634196E+00  0.74787020518E+00 -0.50612027950E+00  0.11802547279E+01  0.00000000000E+00 0.  1.
         11    1    3    3    0    0 -0.81270148510E+01  0.46513029373E+01 -0.77157687819E+00  0.93956543435E+01  0.51100000000E-03 0. -1.
        -11    1    3    3    0    0  0.13317922154E+02  0.36237593000E+02  0.28344132546E+01  0.38711291578E+02  0.51100000000E-03 0.  1.
         12    1    3    3    0    0 -0.44309509614E+01 -0.41636766142E+02 -0.15567160969E+01  0.41900799350E+02  0.00000000000E+00 0. -1.
</event>
<event>
 7    1  0.1716782E-015  0.9000770E+02  0.7816164E-02  0.1186339E+00
        -11   -1    0    0    0    0  0.00000000000E+00  0.00000000000E+00  0.45593999997E+02  0.45594000000E+02  0.51100000000E-03 0.  1.
         11   -1    0    0    0    0 -0.00000000000E+00 -0.00000000000E+00 -0.45593999997E+02  0.45594000000E+02  0.51100000000E-03 0. -1.
    9900012    2    1    2    0    0 -0.95419812485E+00  0.68189932935E+00 -0.13274973172E+00  0.90007702051E+02  0.89999962918E+02 0.  0.
        -12    1    1    2    0    0  0.95419812485E+00 -0.68189932935E+00  0.13274973172E+00  0.11802979489E+01  0.00000000000E+00 0.  1.
         11    1    3    3    0    0 -0.16421315271E+02 -0.33007267050E+02 -0.19073380524E+02  0.41508229524E+02  0.51100000000E-03 0. -1.
        -11    1    3    3    0    0  0.13266211481E+01 -0.11559174630E+01  0.95890820740E+01  0.97491827418E+01  0.51100000000E-03 0.  1.
        -12    1    3    3    0    0  0.14140495998E+02  0.34845083842E+02  0.93515487184E+01  0.38750289786E+02  0.00000000000E+00 0.  1.
</event>
<event>
 7    1  0.1716782E-015  0.9000773E+02  0.7816164E-02  0.1186339E+00
        -11   -1    0    0    0    0  0.00000000000E+00  0.00000000000E+00  0.45593999997E+02  0.45594000000E+02  0.51100000000E-03 0. -1.
         11   -1    0    0    0    0 -0.00000000000E+00 -0.00000000000E+00 -0.45593999997E+02  0.45594000000E+02  0.51100000000E-03 0.  1.
    9900012    2    1    2    0    0 -0.47483937620E+00 -0.36147109630E+00  0.10182901621E+01  0.90007725184E+02  0.89999986357E+02 0.  0.
        -12    1    1    2    0    0  0.47483937620E+00  0.36147109630E+00 -0.10182901621E+01  0.11802748159E+01  0.00000000000E+00 0.  1.
         11    1    3    3    0    0  0.27621026192E+02 -0.27896622505E+02  0.95845651823E+01  0.40410475438E+02  0.51100000000E-03 0. -1.
        -11    1    3    3    0    0 -0.48869471624E+01  0.12950732652E+01  0.90647656214E+01  0.10379279520E+02  0.51100000000E-03 0.  1.
        -12    1    3    3    0    0 -0.23208918406E+02  0.26240078144E+02 -0.17631040642E+02  0.39217970226E+02  0.00000000000E+00 0.  1.
</event>
<event>
 7    1  0.1716782E-015  0.9000772E+02  0.7816164E-02  0.1186339E+00
        -11   -1    0    0    0    0  0.00000000000E+00  0.00000000000E+00  0.45593999997E+02  0.45594000000E+02  0.51100000000E-03 0.  1.
         11   -1    0    0    0    0 -0.00000000000E+00 -0.00000000000E+00 -0.45593999997E+02  0.45594000000E+02  0.51100000000E-03 0. -1.
    9900012    2    1    2    0    0  0.41601134485E+00  0.70084357316E+00 -0.85370034951E+00  0.90007723998E+02  0.89999985155E+02 0.  0.
        -12    1    1    2    0    0 -0.41601134485E+00 -0.70084357316E+00  0.85370034951E+00  0.11802760015E+01  0.00000000000E+00 0.  1.
         11    1    3    3    0    0 -0.13237973961E+02 -0.18877530465E+01  0.11944120002E+02  0.17929572473E+02  0.51100000000E-03 0. -1.
        -11    1    3    3    0    0 -0.11519802180E+02  0.29047785653E+02  0.46677705349E+01  0.31595375859E+02  0.51100000000E-03 0.  1.
         12    1    3    3    0    0  0.25173787486E+02 -0.26459189034E+02 -0.17465590886E+02  0.40482775667E+02  0.00000000000E+00 0. -1.
</event>
<event>
 7    1  0.1716782E-015  0.9000774E+02  0.7816164E-02  0.1186339E+00
        -11   -1    0    0    0    0  0.00000000000E+00  0.00000000000E+00  0.45593999997E+02  0.45594000000E+02  0.51100000000E-03 0. -1.
         11   -1    0    0    0    0 -0.00000000000E+00 -0.00000000000E+00 -0.45593999997E+02  0.45594000000E+02  0.51100000000E-03 0.  1.
    9900012    2    1    2    0    0 -0.27944044456E+00 -0.55229440606E-01  0.11453667626E+01  0.90007744827E+02  0.90000006258E+02 0.  0.
        -12    1    1    2    0    0  0.27944044456E+00  0.55229440606E-01 -0.11453667626E+01  0.11802551733E+01  0.00000000000E+00 0.  1.
         11    1    3    3    0    0 -0.22679815821E+02  0.19890561637E+02 -0.28005901932E+02  0.41162349680E+02  0.51100000000E-03 0. -1.
        -11    1    3    3    0    0 -0.34413632865E+01 -0.10554240232E+02  0.47165679715E+01  0.12061549728E+02  0.51100000000E-03 0.  1.
        -12    1    3    3    0    0  0.25841738663E+02 -0.93915508458E+01  0.24434700723E+02  0.36783845419E+02  0.00000000000E+00 0.  1.
</event>
<event>
 7    1  0.1716782E-015  0.9000780E+02  0.7816164E-02  0.1186339E+00
        -11   -1    0    0    0    0  0.00000000000E+00  0.00000000000E+00  0.45593999997E+02  0.45594000000E+02  0.51100000000E-03 0. -1.
         11   -1    0    0    0    0 -0.00000000000E+00 -0.00000000000E+00 -0.45593999997E+02  0.45594000000E+02  0.51100000000E-03 0.  1.
    9900012    2    1    2    0    0 -0.36507454510E+00 -0.51173568085E-01  0.11211442848E+01  0.90007803972E+02  0.90000066184E+02 0.  0.
        -12    1    1    2    0    0  0.36507454510E+00  0.51173568085E-01 -0.11211442848E+01  0.11801960282E+01  0.00000000000E+00 0.  1.
         11    1    3    3    0    0 -0.57308301312E-01 -0.91706801176E+01  0.52596408141E+01  0.10572061285E+02  0.51100000000E-03 0. -1.
        -11    1    3    3    0    0 -0.12603671063E+02 -0.29907987330E+02 -0.16875777197E+02  0.36580487786E+02  0.51100000000E-03 0.  1.
         12    1    3    3    0    0  0.12295904819E+02  0.39027493879E+02  0.12737280668E+02  0.42855254901E+02  0.00000000000E+00 0. -1.
</event>
<event>
 7    1  0.1716782E-015  0.9000777E+02  0.7816164E-02  0.1186339E+00
        -11   -1    0    0    0    0  0.00000000000E+00  0.00000000000E+00  0.45593999997E+02  0.45594000000E+02  0.51100000000E-03 0.  1.
         11   -1    0    0    0    0 -0.00000000000E+00 -0.00000000000E+00 -0.45593999997E+02  0.45594000000E+02  0.51100000000E-03 0. -1.
    9900012    2    1    2    0    0 -0.42515603210E+00 -0.78930086016E+00  0.76758516032E+00  0.90007771006E+02  0.90000032783E+02 0.  0.
        -12    1    1    2    0    0  0.42515603210E+00  0.78930086016E+00 -0.76758516032E+00  0.11802289938E+01  0.00000000000E+00 0.  1.
         11    1    3    3    0    0  0.60830120595E+00  0.98751685848E+01  0.34707823650E+01  0.10485004312E+02  0.51100000000E-03 0. -1.
        -11    1    3    3    0    0  0.68115433070E+01  0.31022961028E+02  0.12959861733E+02  0.34304216206E+02  0.51100000000E-03 0.  1.
         12    1    3    3    0    0 -0.78450005450E+01 -0.41687430473E+02 -0.15663058937E+02  0.45218550488E+02  0.00000000000E+00 0. -1.
</event>
<event>
 7    1  0.1716782E-015  0.9000776E+02  0.7816164E-02  0.1186339E+00
        -11   -1    0    0    0    0  0.00000000000E+00  0.00000000000E+00  0.45593999997E+02  0.45594000000E+02  0.51100000000E-03 0.  1.
         11   -1    0    0    0    0 -0.00000000000E+00 -0.00000000000E+00 -0.45593999997E+02  0.45594000000E+02  0.51100000000E-03 0. -1.
    9900012    2    1    2    0    0 -0.26054240191E+00  0.11111446670E+01 -0.30071815980E+00  0.90007764335E+02  0.90000026024E+02 0.  0.
        -12    1    1    2    0    0  0.26054240191E+00 -0.11111446670E+01  0.30071815980E+00  0.11802356654E+01  0.00000000000E+00 0.  1.
         11    1    3    3    0    0  0.15533050268E+02  0.16307663447E+02 -0.15807136895E+02  0.27515107029E+02  0.51100000000E-03 0. -1.
        -11    1    3    3    0    0  0.74172622045E+01 -0.29209822747E+02 -0.20259746232E+01  0.30204868763E+02  0.51100000000E-03 0.  1.
         12    1    3    3    0    0 -0.23210854875E+02  0.14013303967E+02  0.17532393359E+02  0.32287788543E+02  0.00000000000E+00 0. -1.
</event>
<event>
 7    1  0.1716782E-015  0.9000764E+02  0.7816164E-02  0.1186339E+00
        -11   -1    0    0    0    0  0.00000000000E+00  0.00000000000E+00  0.45593999997E+02  0.45594000000E+02  0.51100000000E-03 0. -1.
         11   -1    0    0    0    0 -0.00000000000E+00 -0.00000000000E+00 -0.45593999997E+02  0.45594000000E+02  0.51100000000E-03 0.  1.
    9900012    2    1    2    0    0 -0.20212237075E+00  0.10448324099E+01  0.51061096249E+00  0.90007639135E+02  0.89999899171E+02 0.  0.
        -12    1    1    2    0    0  0.20212237075E+00 -0.10448324099E+01 -0.51061096249E+00  0.11803608654E+01  0.00000000000E+00 0.  1.
         11    1    3    3    0    0  0.10148552507E+02  0.45730659460E+01 -0.16100890956E+01  0.11247152408E+02  0.51100000000E-03 0. -1.
        -11    1    3    3    0    0 -0.27812912240E+02 -0.51592109126E+01 -0.30577810320E+02  0.41655468173E+02  0.51100000000E-03 0.  1.
         12    1    3    3    0    0  0.17462237362E+02  0.16309773764E+01  0.32698510378E+02  0.37105018553E+02  0.00000000000E+00 0. -1.
</event>
<event>
 7    1  0.1716782E-015  0.9000774E+02  0.7816164E-02  0.1186339E+00
        -11   -1    0    0    0    0  0.00000000000E+00  0.00000000000E+00  0.45593999997E+02  0.45594000000E+02  0.51100000000E-03 0.  1.
         11   -1    0    0    0    0 -0.00000000000E+00 -0.00000000000E+00 -0.45593999997E+02  0.45594000000E+02  0.51100000000E-03 0. -1.
    9900012    2    1    2    0    0 -0.37480462273E+00 -0.99209522134E+00 -0.51796663267E+00  0.90007736951E+02  0.89999998278E+02 0.  0.
        -12    1    1    2    0    0  0.37480462273E+00  0.99209522134E+00  0.51796663267E+00  0.11802630495E+01  0.00000000000E+00 0.  1.
         11    1    3    3    0    0 -0.12268410754E+02 -0.42420823052E+01 -0.36698893605E+02  0.38927085131E+02  0.51100000000E-03 0. -1.
        -11    1    3    3    0    0 -0.93570719538E+01  0.10089230355E+01  0.41858341258E+00  0.94206121656E+01  0.51100000000E-03 0.  1.
        -12    1    3    3    0    0  0.21250678085E+02  0.22410640484E+01  0.35762343559E+02  0.41660039654E+02  0.00000000000E+00 0.  1.
</event>
<event>
 7    1  0.1716782E-015  0.9000775E+02  0.7816164E-02  0.1186339E+00
        -11   -1    0    0    0    0  0.00000000000E+00  0.00000000000E+00  0.45593999997E+02  0.45594000000E+02  0.51100000000E-03 0. -1.
         11   -1    0    0    0    0 -0.00000000000E+00 -0.00000000000E+00 -0.45593999997E+02  0.45594000000E+02  0.51100000000E-03 0.  1.
    9900012    2    1    2    0    0  0.94807818333E+00  0.66298702257E+00  0.23362976047E+00  0.90007751340E+02  0.90000012858E+02 0.  0.
        -12    1    1    2    0    0 -0.94807818333E+00 -0.66298702257E+00 -0.23362976047E+00  0.11802486597E+01  0.00000000000E+00 0.  1.
         11    1    3    3    0    0 -0.23403355031E+02  0.16417842787E+02  0.25189230732E+02  0.38101967582E+02  0.51100000000E-03 0. -1.
        -11    1    3    3    0    0 -0.18618323486E+01  0.87876344555E+01 -0.17515706937E+01  0.91518817286E+01  0.51100000000E-03 0.  1.
        -12    1    3    3    0    0  0.26213265563E+02 -0.24542490220E+02 -0.23204030277E+02  0.42753902030E+02  0.00000000000E+00 0.  1.
</event>
<event>
 7    1  0.1716782E-015  0.9000766E+02  0.7816164E-02  0.1186339E+00
        -11   -1    0    0    0    0  0.00000000000E+00  0.00000000000E+00  0.45593999997E+02  0.45594000000E+02  0.51100000000E-03 0.  1.
         11   -1    0    0    0    0 -0.00000000000E+00 -0.00000000000E+00 -0.45593999997E+02  0.45594000000E+02  0.51100000000E-03 0. -1.
    9900012    2    1    2    0    0  0.26404940315E+00  0.30427425271E+00 -0.11094606140E+01  0.90007657778E+02  0.89999918060E+02 0.  0.
        -12    1    1    2    0    0 -0.26404940315E+00 -0.30427425271E+00  0.11094606140E+01  0.11803422225E+01  0.00000000000E+00 0.  1.
         11    1    3    3    0    0  0.70616497113E+01  0.98797731585E+01  0.15231406925E+00  0.12144958384E+02  0.51100000000E-03 0. -1.
        -11    1    3    3    0    0 -0.34661655888E+02  0.17355282248E+02  0.29885510074E+01  0.38878884349E+02  0.51100000000E-03 0.  1.
         12    1    3    3    0    0  0.27864055580E+02 -0.26930781154E+02 -0.42503256907E+01  0.38983815045E+02  0.00000000000E+00 0. -1.
</event>
<event>
 7    1  0.1716782E-015  0.9000809E+02  0.7816164E-02  0.1186338E+00
        -11   -1    0    0    0    0  0.00000000000E+00  0.00000000000E+00  0.45593999997E+02  0.45594000000E+02  0.51100000000E-03 0. -1.
         11   -1    0    0    0    0 -0.00000000000E+00 -0.00000000000E+00 -0.45593999997E+02  0.45594000000E+02  0.51100000000E-03 0.  1.
    9900012    2    1    2    0    0 -0.68493651084E+00 -0.29911957382E+00  0.91300908220E+00  0.90008086390E+02  0.90000352329E+02 0.  0.
        -12    1    1    2    0    0  0.68493651084E+00  0.29911957382E+00 -0.91300908220E+00  0.11799136102E+01  0.00000000000E+00 0.  1.
         11    1    3    3    0    0  0.30128029561E+02 -0.75286280069E+01  0.44947254264E+01  0.31378033109E+02  0.51100000000E-03 0. -1.
        -11    1    3    3    0    0  0.50576034293E+01 -0.15056952737E+02  0.20906212354E+01  0.16020670260E+02  0.51100000000E-03 0.  1.
        -12    1    3    3    0    0 -0.35870569501E+02  0.22286461170E+02 -0.56723375797E+01  0.42609383021E+02  0.00000000000E+00 0.  1.
</event>
<event>
 7    1  0.1716782E-015  0.9000769E+02  0.7816164E-02  0.1186339E+00
        -11   -1    0    0    0    0  0.00000000000E+00  0.00000000000E+00  0.45593999997E+02  0.45594000000E+02  0.51100000000E-03 0.  1.
         11   -1    0    0    0    0 -0.00000000000E+00 -0.00000000000E+00 -0.45593999997E+02  0.45594000000E+02  0.51100000000E-03 0. -1.
    9900012    2    1    2    0    0 -0.30580938434E+00  0.73733405654E+00 -0.86945892560E+00  0.90007686604E+02  0.89999947267E+02 0.  0.
        -12    1    1    2    0    0  0.30580938434E+00 -0.73733405654E+00  0.86945892560E+00  0.11803133964E+01  0.00000000000E+00 0.  1.
         11    1    3    3    0    0  0.41606780938E+01  0.92964727946E+01 -0.11036122599E+01  0.10244686862E+02  0.51100000000E-03 0. -1.
        -11    1    3    3    0    0 -0.17627224715E+02  0.32105144567E+02  0.40644211977E+01  0.36850764968E+02  0.51100000000E-03 0.  1.
         12    1    3    3    0    0  0.13160737237E+02 -0.40664283305E+02 -0.38302678634E+01  0.42912234773E+02  0.00000000000E+00 0. -1.
</event>
<event>
 7    1  0.1716782E-015  0.9000774E+02  0.7816164E-02  0.1186339E+00
        -11   -1    0    0    0    0  0.00000000000E+00  0.00000000000E+00  0.45593999997E+02  0.45594000000E+02  0.51100000000E-03 0.  1.
         11   -1    0    0    0    0 -0.00000000000E+00 -0.00000000000E+00 -0.45593999997E+02  0.45594000000E+02  0.51100000000E-03 0. -1.
    9900012    2    1    2    0    0  0.72533772361E+00 -0.91518072380E+00  0.17127235916E+00  0.90007743760E+02  0.90000005178E+02 0.  0.
        -12    1    1    2    0    0 -0.72533772361E+00  0.91518072380E+00 -0.17127235916E+00  0.11802562398E+01  0.00000000000E+00 0.  1.
         11    1    3    3    0    0 -0.38008977209E+01 -0.24049623235E+01 -0.78187246484E+01  0.90201509217E+01  0.51100000000E-03 0. -1.
        -11    1    3    3    0    0  0.31817504667E+02 -0.26243994310E+02 -0.10535238333E+00  0.41244538304E+02  0.51100000000E-03 0.  1.
         12    1    3    3    0    0 -0.27291269222E+02  0.27733775909E+02  0.80953493909E+01  0.39743054534E+02  0.00000000000E+00 0. -1.
</event>
<event>
 7    1  0.1716782E-015  0.9000776E+02  0.7816164E-02  0.1186339E+00
        -11   -1    0    0    0    0  0.00000000000E+00  0.00000000000E+00  0.45593999997E+02  0.45594000000E+02  0.51100000000E-03 0.  1.
         11   -1    0    0    0    0 -0.00000000000E+00 -0.00000000000E+00 -0.45593999997E+02  0.45594000000E+02  0.51100000000E-03 0. -1.
    9900012    2    1    2    0    0 -0.82711505970E-01 -0.12305956859E+00 -0.11708926143E+01  0.90007756650E+02  0.90000018238E+02 0.  0.
        -12    1    1    2    0    0  0.82711505970E-01  0.12305956859E+00  0.11708926143E+01  0.11802433499E+01  0.00000000000E+00 0.  1.
         11    1    3    3    0    0 -0.21628322553E+02  0.13054909615E+02 -0.28773703913E+02  0.38290221188E+02  0.51100000000E-03 0. -1.
        -11    1    3    3    0    0  0.17986819224E+01 -0.48395727258E+01 -0.83748273021E+01  0.98384172217E+01  0.51100000000E-03 0.  1.
        -12    1    3    3    0    0  0.19746929124E+02 -0.83383964578E+01  0.35977638600E+02  0.41879118240E+02  0.00000000000E+00 0.  1.
</event>
<event>
 7    1  0.1716782E-015  0.9000768E+02  0.7816164E-02  0.1186339E+00
        -11   -1    0    0    0    0  0.00000000000E+00  0.00000000000E+00  0.45593999997E+02  0.45594000000E+02  0.51100000000E-03 0.  1.
         11   -1    0    0    0    0 -0.00000000000E+00 -0.00000000000E+00 -0.45593999997E+02  0.45594000000E+02  0.51100000000E-03 0. -1.
    9900012    2    1    2    0    0  0.71100008742E+00  0.53659243942E+00  0.77441091472E+00  0.90007675962E+02  0.89999936484E+02 0.  0.
        -12    1    1    2    0    0 -0.71100008742E+00 -0.53659243942E+00 -0.77441091472E+00  0.11803240382E+01  0.00000000000E+00 0.  1.
         11    1    3    3    0    0  0.28835509110E+02  0.59069948618E+01 -0.28632105967E+02  0.41063081549E+02  0.51100000000E-03 0. -1.
        -11    1    3    3    0    0  0.15598564705E+01 -0.64362038574E+01 -0.69038343535E+00  0.66584158665E+01  0.51100000000E-03 0.  1.
        -12    1    3    3    0    0 -0.29684365493E+02  0.10658014350E+01  0.30096900317E+02  0.42286178547E+02  0.00000000000E+00 0.  1.
</event>
<event>
 7    1  0.1716782E-015  0.9000772E+02  0.7816164E-02  0.1186339E+00
        -11   -1    0    0    0    0  0.00000000000E+00  0.00000000000E+00  0.45593999997E+02  0.45594000000E+02  0.51100000000E-03 0. -1.
         11   -1    0    0    0    0 -0.00000000000E+00 -0.00000000000E+00 -0.45593999997E+02  0.45594000000E+02  0.51100000000E-03 0.  1.
    9900012    2    1    2    0    0  0.58878965194E-02  0.92280502791E+00  0.73584228174E+00  0.90007717131E+02  0.89999978197E+02 0.  0.
        -12    1    1    2    0    0 -0.58878965194E-02 -0.92280502791E+00 -0.73584228174E+00  0.11802828688E+01  0.00000000000E+00 0.  1.
         11    1    3    3    0    0 -0.27777780757E+02 -0.20991991542E+02  0.21192512851E+01  0.34882087652E+02  0.51100000000E-03 0. -1.
        -11    1    3    3    0    0 -0.58834890635E+01 -0.80894842039E+01  0.12336494136E+00  0.10003520251E+02  0.51100000000E-03 0.  1.
        -12    1    3    3    0    0  0.33667157717E+02  0.30004280773E+02 -0.15067739447E+01  0.45122109228E+02  0.00000000000E+00 0.  1.
</event>
<event>
 7    1  0.1716782E-015  0.9000750E+02  0.7816164E-02  0.1186340E+00
        -11   -1    0    0    0    0  0.00000000000E+00  0.00000000000E+00  0.45593999997E+02  0.45594000000E+02  0.51100000000E-03 0.  1.
         11   -1    0    0    0    0 -0.00000000000E+00 -0.00000000000E+00 -0.45593999997E+02  0.45594000000E+02  0.51100000000E-03 0. -1.
    9900012    2    1    2    0    0 -0.59614345539E+00 -0.58357757851E+00 -0.83524492385E+00  0.90007498457E+02  0.89999756637E+02 0.  0.
        -12    1    1    2    0    0  0.59614345539E+00  0.58357757851E+00  0.83524492385E+00  0.11805015427E+01  0.00000000000E+00 0.  1.
         11    1    3    3    0    0  0.30846162517E+02  0.21197749416E+02 -0.10329612396E+02  0.38826939293E+02  0.51100000000E-03 0. -1.
        -11    1    3    3    0    0 -0.30443478912E+01  0.82535857307E+01  0.32438000608E+01  0.93761383625E+01  0.51100000000E-03 0.  1.
        -12    1    3    3    0    0 -0.28397958081E+02 -0.30034912726E+02  0.62505674112E+01  0.41804420802E+02  0.00000000000E+00 0.  1.
</event>
<event>
 7    1  0.1716782E-015  0.9000768E+02  0.7816164E-02  0.1186339E+00
        -11   -1    0    0    0    0  0.00000000000E+00  0.00000000000E+00  0.45593999997E+02  0.45594000000E+02  0.51100000000E-03 0. -1.
         11   -1    0    0    0    0 -0.00000000000E+00 -0.00000000000E+00 -0.45593999997E+02  0.45594000000E+02  0.51100000000E-03 0.  1.
    9900012    2    1    2    0    0  0.11091323186E+01  0.39863428958E+00 -0.63839570039E-01  0.90007678312E+02  0.89999938865E+02 0.  0.
        -12    1    1    2    0    0 -0.11091323186E+01 -0.39863428958E+00  0.63839570039E-01  0.11803216883E+01  0.00000000000E+00 0.  1.
         11    1    3    3    0    0 -0.13604893521E+02  0.56146018245E+00  0.32714070174E+02  0.35434711130E+02  0.51100000000E-03 0. -1.
        -11    1    3    3    0    0 -0.41335890131E+00  0.98187510600E+00  0.95496376332E+01  0.96088773273E+01  0.51100000000E-03 0.  1.
        -12    1    3    3    0    0  0.15127384741E+02 -0.11447009989E+01 -0.42327547377E+02  0.44964089854E+02  0.00000000000E+00 0.  1.
</event>
<event>
 7    1  0.1716782E-015  0.9000784E+02  0.7816164E-02  0.1186339E+00
        -11   -1    0    0    0    0  0.00000000000E+00  0.00000000000E+00  0.45593999997E+02  0.45594000000E+02  0.51100000000E-03 0. -1.
         11   -1    0    0    0    0 -0.00000000000E+00 -0.00000000000E+00 -0.45593999997E+02  0.45594000000E+02  0.51100000000E-03 0.  1.
    9900012    2    1    2    0    0 -0.10135590854E+01 -0.60066275594E+00  0.68394839733E-01  0.90007840850E+02  0.90000103549E+02 0.  0.
        -12    1    1    2    0    0  0.10135590854E+01  0.60066275594E+00 -0.68394839733E-01  0.11801591503E+01  0.00000000000E+00 0.  1.
         11    1    3    3    0    0 -0.42951402795E+01  0.71187708194E+01  0.42107408989E+01  0.93196280601E+01  0.51100000000E-03 0. -1.
        -11    1    3    3    0    0  0.37347451737E+02 -0.15456077730E+02 -0.16466326004E+02  0.43644729148E+02  0.51100000000E-03 0.  1.
         12    1    3    3    0    0 -0.34065870543E+02  0.77366441550E+01  0.12323979944E+02  0.37043483642E+02  0.00000000000E+00 0. -1.
</event>
<event>
 7    1  0.1716782E-015  0.9000778E+02  0.7816164E-02  0.1186339E+00
        -11   -1    0    0    0    0  0.00000000000E+00  0.00000000000E+00  0.45593999997E+02  0.45594000000E+02  0.51100000000E-03 0.  1.
         11   -1    0    0    0    0 -0.00000000000E+00 -0.00000000000E+00 -0.45593999997E+02  0.45594000000E+02  0.51100000000E-03 0. -1.
    9900012    2    1    2    0    0  0.11796529296E+01  0.19830924593E-01  0.30678471735E-01  0.90007781601E+02  0.90000043518E+02 0.  0.
        -12    1    1    2    0    0 -0.11796529296E+01 -0.19830924593E-01 -0.30678471735E-01  0.11802183987E+01  0.00000000000E+00 0.  1.
         11    1    3    3    0    0 -0.58614550302E+01 -0.20482779497E+01  0.31760910004E+01  0.69742133560E+01  0.51100000000E-03 0. -1.
        -11    1    3    3    0    0  0.14900978964E+02 -0.13907309287E+02  0.35245643670E+02  0.40714958230E+02  0.51100000000E-03 0.  1.
         12    1    3    3    0    0 -0.78598710038E+01  0.15975418162E+02 -0.38391056198E+02  0.42318610016E+02  0.00000000000E+00 0. -1.
</event>
<event>
 7    1  0.1716782E-015  0.9000763E+02  0.7816164E-02  0.1186339E+00
        -11   -1    0    0    0    0  0.00000000000E+00  0.00000000000E+00  0.45593999997E+02  0.45594000000E+02  0.51100000000E-03 0.  1.
         11   -1    0    0    0    0 -0.00000000000E+00 -0.00000000000E+00 -0.45593999997E+02  0.45594000000E+02  0.51100000000E-03 0. -1.
    9900012    2    1    2    0    0  0.70184839848E+00 -0.41986538503E+00 -0.85111505620E+00  0.90007629315E+02  0.89999889222E+02 0.  0.
        -12    1    1    2    0    0 -0.70184839848E+00  0.41986538503E+00  0.85111505620E+00  0.11803706854E+01  0.00000000000E+00 0.  1.
         11    1    3    3    0    0 -0.36848777717E+02 -0.51596027729E+01 -0.65047272361E+01  0.37772548189E+02  0.51100000000E-03 0. -1.
        -11    1    3    3    0    0 -0.11594663621E+01  0.41857772696E+01 -0.96684409190E+01  0.10599237881E+02  0.51100000000E-03 0.  1.
        -12    1    3    3    0    0  0.38710092478E+02  0.55396011819E+00  0.15322053099E+02  0.41635843244E+02  0.00000000000E+00 0.  1.
</event>
<event>
 7    1  0.1716782E-015  0.9000773E+02  0.7816164E-02  0.1186339E+00
        -11   -1    0    0    0    0  0.00000000000E+00  0.00000000000E+00  0.45593999997E+02  0.45594000000E+02  0.51100000000E-03 0.  1.
         11   -1    0    0    0    0 -0.00000000000E+00 -0.00000000000E+00 -0.45593999997E+02  0.45594000000E+02  0.51100000000E-03 0. -1.
    9900012    2    1    2    0    0 -0.10056919693E+01  0.61715000330E+00 -0.27327274746E-01  0.90007730012E+02  0.89999991249E+02 0.  0.
        -12    1    1    2    0    0  0.10056919693E+01 -0.61715000330E+00  0.27327274746E-01  0.11802699876E+01  0.00000000000E+00 0.  1.
         11    1    3    3    0    0  0.54777281930E+00  0.30814334159E+02 -0.22568733434E+02  0.38199096505E+02  0.51100000000E-03 0. -1.
        -11    1    3    3    0    0 -0.21507256435E+01 -0.82796109031E+00 -0.86562086665E+01  0.89577390619E+01  0.51100000000E-03 0.  1.
        -12    1    3    3    0    0  0.59726085483E+00 -0.29369223065E+02  0.31197614826E+02  0.42850894446E+02  0.00000000000E+00 0.  1.
</event>
<event>
 7    1  0.1716782E-015  0.9000775E+02  0.7816164E-02  0.1186339E+00
        -11   -1    0    0    0    0  0.00000000000E+00  0.00000000000E+00  0.45593999997E+02  0.45594000000E+02  0.51100000000E-03 0.  1.
         11   -1    0    0    0    0 -0.00000000000E+00 -0.00000000000E+00 -0.45593999997E+02  0.45594000000E+02  0.51100000000E-03 0. -1.
    9900012    2    1    2    0    0 -0.99818246520E+00  0.50372301690E+00 -0.37801665713E+00  0.90007745068E+02  0.90000006503E+02 0.  0.
        -12    1    1    2    0    0  0.99818246520E+00 -0.50372301690E+00  0.37801665713E+00  0.11802549321E+01  0.00000000000E+00 0.  1.
         11    1    3    3    0    0  0.32010003185E+01 -0.46542704161E+01 -0.80197996516E+01  0.98094761765E+01  0.51100000000E-03 0. -1.
        -11    1    3    3    0    0  0.15893222633E+02 -0.31860308010E+02 -0.56090015114E+01  0.36043510516E+02  0.51100000000E-03 0.  1.
         12    1    3    3    0    0 -0.20092405417E+02  0.37018301443E+02  0.13250784506E+02  0.44154758375E+02  0.00000000000E+00 0. -1.
</event>
<event>
 7    1  0.1716782E-015  0.9000777E+02  0.7816164E-02  0.1186339E+00
        -11   -1    0    0    0    0  0.00000000000E+00  0.00000000000E+00  0.45593999997E+02  0.45594000000E+02  0.51100000000E-03 0. -1.
         11   -1    0    0    0    0 -0.00000000000E+00 -0.00000000000E+00 -0.45593999997E+02  0.45594000000E+02  0.51100000000E-03 0.  1.
    9900012    2    1    2    0    0 -0.10846875036E+01 -0.45663349667E+00  0.88755807858E-01  0.90007771749E+02  0.90000033536E+02 0.  0.
        -12    1    1    2    0    0  0.10846875036E+01  0.45663349667E+00 -0.88755807858E-01  0.11802282509E+01  0.00000000000E+00 0.  1.
         11    1    3    3    0    0 -0.29016928381E+02  0.15571895148E+02  0.14886157770E+02  0.36139503934E+02  0.51100000000E-03 0. -1.
        -11    1    3    3    0    0 -0.10486466238E+02 -0.98281150275E+00 -0.27472144611E+01  0.10884809607E+02  0.51100000000E-03 0.  1.
        -12    1    3    3    0    0  0.38418707116E+02 -0.15045717142E+02 -0.12050187501E+02  0.42983458209E+02  0.00000000000E+00 0.  1.
</event>
<event>
 7    1  0.1716782E-015  0.9000774E+02  0.7816164E-02  0.1186339E+00
        -11   -1    0    0    0    0  0.00000000000E+00  0.00000000000E+00  0.45593999997E+02  0.45594000000E+02  0.51100000000E-03 0. -1.
         11   -1    0    0    0    0 -0.00000000000E+00 -0.00000000000E+00 -0.45593999997E+02  0.45594000000E+02  0.51100000000E-03 0.  1.
    9900012    2    1    2    0    0  0.20154058737E+00  0.47531994110E+00  0.10613554705E+01  0.90007736009E+02  0.89999997324E+02 0.  0.
        -12    1    1    2    0    0 -0.20154058737E+00 -0.47531994110E+00 -0.10613554705E+01  0.11802639915E+01  0.00000000000E+00 0.  1.
         11    1    3    3    0    0  0.25593077953E+02 -0.23447521479E+02 -0.75175169536E+01  0.35514855540E+02  0.51100000000E-03 0. -1.
        -11    1    3    3    0    0  0.63782503824E+01 -0.69198483048E+01  0.10950525058E+00  0.94116082666E+01  0.51100000000E-03 0.  1.
        -12    1    3    3    0    0 -0.31769787748E+02  0.30842689725E+02  0.84693671735E+01  0.45081272202E+02  0.00000000000E+00 0.  1.
</event>
<event>
 7    1  0.1716782E-015  0.9000714E+02  0.7816164E-02  0.1186340E+00
        -11   -1    0    0    0    0  0.00000000000E+00  0.00000000000E+00  0.45593999997E+02  0.45594000000E+02  0.51100000000E-03 0.  1.
         11   -1    0    0    0    0 -0.00000000000E+00 -0.00000000000E+00 -0.45593999997E+02  0.45594000000E+02  0.51100000000E-03 0. -1.
    9900012    2    1    2    0    0  0.60346844868E+00  0.52357786623E+00 -0.86955229104E+00  0.90007140509E+02  0.89999393962E+02 0.  0.
        -12    1    1    2    0    0 -0.60346844868E+00 -0.52357786623E+00  0.86955229104E+00  0.11808594910E+01  0.00000000000E+00 0.  1.
         11    1    3    3    0    0  0.79984059114E+01 -0.44137414333E+01  0.32860479418E+01  0.97084356052E+01  0.51100000000E-03 0. -1.
        -11    1    3    3    0    0  0.21553789406E+02 -0.79097070087E+01  0.27293168135E+02  0.35665758506E+02  0.51100000000E-03 0.  1.
         12    1    3    3    0    0 -0.28948726869E+02  0.12847026308E+02 -0.31448768368E+02  0.44632946398E+02  0.00000000000E+00 0. -1.
</event>
<event>
 7    1  0.1716782E-015  0.9000703E+02  0.7816164E-02  0.1186340E+00
        -11   -1    0    0    0    0  0.00000000000E+00  0.00000000000E+00  0.45593999997E+02  0.45594000000E+02  0.51100000000E-03 0.  1.
         11   -1    0    0    0    0 -0.00000000000E+00 -0.00000000000E+00 -0.45593999997E+02  0.45594000000E+02  0.51100000000E-03 0. -1.
    9900012    2    1    2    0    0  0.29769868317E+00 -0.71233001416E+00 -0.89367272149E+00  0.90007030276E+02  0.89999282273E+02 0.  0.
        -12    1    1    2    0    0 -0.29769868317E+00  0.71233001416E+00  0.89367272149E+00  0.11809697236E+01  0.00000000000E+00 0.  1.
         11    1    3    3    0    0 -0.12124987815E+02 -0.16282358528E+02 -0.13636319091E+01  0.20346744727E+02  0.51100000000E-03 0. -1.
        -11    1    3    3    0    0 -0.14979612714E+02 -0.18704591320E+02 -0.73957819287E+01  0.25078838173E+02  0.51100000000E-03 0.  1.
        -12    1    3    3    0    0  0.27402299212E+02  0.34274619834E+02  0.78657411163E+01  0.44581447376E+02  0.00000000000E+00 0.  1.
</event>
<event>
 7    1  0.1716782E-015  0.9000755E+02  0.7816164E-02  0.1186339E+00
        -11   -1    0    0    0    0  0.00000000000E+00  0.00000000000E+00  0.45593999997E+02  0.45594000000E+02  0.51100000000E-03 0.  1.
         11   -1    0    0    0    0 -0.00000000000E+00 -0.00000000000E+00 -0.45593999997E+02  0.45594000000E+02  0.51100000000E-03 0. -1.
    9900012    2    1    2    0    0 -0.10017620109E+01  0.12714603360E+00  0.61136081533E+00  0.90007552929E+02  0.89999811828E+02 0.  0.
        -12    1    1    2    0    0  0.10017620109E+01 -0.12714603360E+00 -0.61136081533E+00  0.11804470707E+01  0.00000000000E+00 0.  1.
         11    1    3    3    0    0 -0.34877916610E+02 -0.94764953431E+01 -0.14556658746E+02  0.38963692653E+02  0.51100000000E-03 0. -1.
        -11    1    3    3    0    0  0.55849118276E+00  0.51910867801E+01 -0.84735956472E+01  0.99529451829E+01  0.51100000000E-03 0.  1.
        -12    1    3    3    0    0  0.33317663416E+02  0.44125545966E+01  0.23641615208E+02  0.41090915094E+02  0.00000000000E+00 0.  1.
</event>
<event>
 7    1  0.1716782E-015  0.9000850E+02  0.7816164E-02  0.1186338E+00
        -11   -1    0    0    0    0  0.00000000000E+00  0.00000000000E+00  0.45593999997E+02  0.45594000000E+02  0.51100000000E-03 0.  1.
         11   -1    0    0    0    0 -0.00000000000E+00 -0.00000000000E+00 -0.45593999997E+02  0.45594000000E+02  0.51100000000E-03 0. -1.
    9900012    2    1    2    0    0 -0.95789961546E+00 -0.63280683088E+00  0.27057359968E+00  0.90008497464E+02  0.90000768828E+02 0.  0.
        -12    1    1    2    0    0  0.95789961546E+00  0.63280683088E+00 -0.27057359968E+00  0.11795025355E+01  0.00000000000E+00 0.  1.
         11    1    3    3    0    0  0.69897258215E+01  0.24564944176E+01 -0.44113963522E+01  0.86227054872E+01  0.51100000000E-03 0. -1.
        -11    1    3    3    0    0  0.32322204896E+02  0.13413362507E+02 -0.83096698996E+01  0.35967955700E+02  0.51100000000E-03 0.  1.
         12    1    3    3    0    0 -0.40269830333E+02 -0.16502663755E+02  0.12991639851E+02  0.45417836278E+02  0.00000000000E+00 0. -1.
</event>
<event>
 7    1  0.1716782E-015  0.9000775E+02  0.7816164E-02  0.1186339E+00
        -11   -1    0    0    0    0  0.00000000000E+00  0.00000000000E+00  0.45593999997E+02  0.45594000000E+02  0.51100000000E-03 0.  1.
         11   -1    0    0    0    0 -0.00000000000E+00 -0.00000000000E+00 -0.45593999997E+02  0.45594000000E+02  0.51100000000E-03 0. -1.
    9900012    2    1    2    0    0 -0.26357093481E+00  0.11006458829E+01 -0.33480926206E+00  0.90007750772E+02  0.90000012283E+02 0.  0.
        -12    1    1    2    0    0  0.26357093481E+00 -0.11006458829E+01  0.33480926206E+00  0.11802492275E+01  0.00000000000E+00 0.  1.
         11    1    3    3    0    0  0.22137818256E+02 -0.58758370148E+00  0.29181603971E+02  0.36633239856E+02  0.51100000000E-03 0. -1.
        -11    1    3    3    0    0  0.59831607637E+01 -0.77665434878E+01  0.19058597025E+01  0.99874777566E+01  0.51100000000E-03 0.  1.
        -12    1    3    3    0    0 -0.28384549954E+02  0.94547730722E+01 -0.31422272936E+02  0.43387033160E+02  0.00000000000E+00 0.  1.
</event>
<event>
 7    1  0.1716782E-015  0.9000768E+02  0.7816164E-02  0.1186339E+00
        -11   -1    0    0    0    0  0.00000000000E+00  0.00000000000E+00  0.45593999997E+02  0.45594000000E+02  0.51100000000E-03 0.  1.
         11   -1    0    0    0    0 -0.00000000000E+00 -0.00000000000E+00 -0.45593999997E+02  0.45594000000E+02  0.51100000000E-03 0. -1.
    9900012    2    1    2    0    0  0.77669388903E+00 -0.88086235070E+00  0.11824905851E+00  0.90007680248E+02  0.89999940827E+02 0.  0.
        -12    1    1    2    0    0 -0.77669388903E+00  0.88086235070E+00 -0.11824905851E+00  0.11803197524E+01  0.00000000000E+00 0.  1.
         11    1    3    3    0    0  0.21903026220E+02  0.28966391006E+02 -0.20970524757E+02  0.41935155590E+02  0.51100000000E-03 0. -1.
        -11    1    3    3    0    0  0.31425191803E-01  0.20804042219E+01  0.69331491035E+01  0.72386204502E+01  0.51100000000E-03 0.  1.
        -12    1    3    3    0    0 -0.21157757522E+02 -0.31927657579E+02  0.14155624712E+02  0.40833904208E+02  0.00000000000E+00 0.  1.
</event>
<event>
 7    1  0.1716782E-015  0.9000795E+02  0.7816164E-02  0.1186339E+00
        -11   -1    0    0    0    0  0.00000000000E+00  0.00000000000E+00  0.45593999997E+02  0.45594000000E+02  0.51100000000E-03 0.  1.
         11   -1    0    0    0    0 -0.00000000000E+00 -0.00000000000E+00 -0.45593999997E+02  0.45594000000E+02  0.51100000000E-03 0. -1.
    9900012    2    1    2    0    0 -0.62793158137E+00 -0.38601697057E+00 -0.92152302195E+00  0.90007952606E+02  0.90000216780E+02 0.  0.
        -12    1    1    2    0    0  0.62793158137E+00  0.38601697057E+00  0.92152302195E+00  0.11800473941E+01  0.00000000000E+00 0.  1.
         11    1    3    3    0    0  0.68381131861E+01  0.47973032900E+01  0.76056614068E+00  0.83876320805E+01  0.51100000000E-03 0. -1.
        -11    1    3    3    0    0 -0.28574695356E+02  0.18921509002E+02 -0.24634629871E+02  0.42206654768E+02  0.51100000000E-03 0.  1.
         12    1    3    3    0    0  0.21108650588E+02 -0.24104829263E+02  0.22952540708E+02  0.39413665757E+02  0.00000000000E+00 0. -1.
</event>
<event>
 7    1  0.1716782E-015  0.9000794E+02  0.7816164E-02  0.1186339E+00
        -11   -1    0    0    0    0  0.00000000000E+00  0.00000000000E+00  0.45593999997E+02  0.45594000000E+02  0.51100000000E-03 0. -1.
         11   -1    0    0    0    0 -0.00000000000E+00 -0.00000000000E+00 -0.45593999997E+02  0.45594000000E+02  0.51100000000E-03 0.  1.
    9900012    2    1    2    0    0  0.63299332935E+00 -0.30735582981E+00  0.94730686033E+00  0.90007941337E+02  0.90000205362E+02 0.  0.
        -12    1    1    2    0    0 -0.63299332935E+00  0.30735582981E+00 -0.94730686033E+00  0.11800586633E+01  0.00000000000E+00 0.  1.
         11    1    3    3    0    0  0.47103563901E+01 -0.56319115577E+01  0.21409674165E+01  0.76478511266E+01  0.51100000000E-03 0. -1.
        -11    1    3    3    0    0  0.59907410088E+01 -0.28637397016E+02  0.24855837746E+02  0.38390130971E+02  0.51100000000E-03 0.  1.
        -12    1    3    3    0    0 -0.10068104070E+02  0.33961952743E+02 -0.26049498302E+02  0.43969959239E+02  0.00000000000E+00 0.  1.
</event>
<event>
 7    1  0.1716782E-015  0.9000777E+02  0.7816164E-02  0.1186339E+00
        -11   -1    0    0    0    0  0.00000000000E+00  0.00000000000E+00  0.45593999997E+02  0.45594000000E+02  0.51100000000E-03 0.  1.
         11   -1    0    0    0    0 -0.00000000000E+00 -0.00000000000E+00 -0.45593999997E+02  0.45594000000E+02  0.51100000000E-03 0. -1.
    9900012    2    1    2    0    0 -0.10537176229E+01  0.34868788552E+00 -0.40130446320E+00  0.90007767251E+02  0.90000028978E+02 0.  0.
        -12    1    1    2    0    0  0.10537176229E+01 -0.34868788552E+00  0.40130446320E+00  0.11802327493E+01  0.00000000000E+00 0.  1.
         11    1    3    3    0    0 -0.32462785465E+01 -0.90906647682E+01 -0.29410475586E+01  0.10090999521E+02  0.51100000000E-03 0. -1.
        -11    1    3    3    0    0  0.89431759754E+00 -0.24501717603E+02  0.28184935928E+02  0.37356720721E+02  0.51100000000E-03 0.  1.
         12    1    3    3    0    0  0.12982433260E+01  0.33941070257E+02 -0.25645192833E+02  0.42560047009E+02  0.00000000000E+00 0. -1.
</event>
<event>
 7    1  0.1716782E-015  0.9000777E+02  0.7816164E-02  0.1186339E+00
        -11   -1    0    0    0    0  0.00000000000E+00  0.00000000000E+00  0.45593999997E+02  0.45594000000E+02  0.51100000000E-03 0. -1.
         11   -1    0    0    0    0 -0.00000000000E+00 -0.00000000000E+00 -0.45593999997E+02  0.45594000000E+02  0.51100000000E-03 0.  1.
    9900012    2    1    2    0    0 -0.97543860558E-03 -0.81163785718E+00  0.85685043028E+00  0.90007767132E+02  0.90000028858E+02 0.  0.
        -12    1    1    2    0    0  0.97543860558E-03  0.81163785718E+00 -0.85685043028E+00  0.11802328679E+01  0.00000000000E+00 0.  1.
         11    1    3    3    0    0 -0.16603075817E+02 -0.31330019707E+02 -0.28971008391E+01  0.35575630071E+02  0.51100000000E-03 0. -1.
        -11    1    3    3    0    0 -0.59455461737E+01 -0.70174747794E+01 -0.38832608927E+01  0.99836960594E+01  0.51100000000E-03 0.  1.
        -12    1    3    3    0    0  0.22547646552E+02  0.37535856629E+02  0.76372121621E+01  0.44448441002E+02  0.00000000000E+00 0.  1.
</event>
<event>
 7    1  0.1716782E-015  0.9000788E+02  0.7816164E-02  0.1186339E+00
        -11   -1    0    0    0    0  0.00000000000E+00  0.00000000000E+00  0.45593999997E+02  0.45594000000E+02  0.51100000000E-03 0. -1.
         11   -1    0    0    0    0 -0.00000000000E+00 -0.00000000000E+00 -0.45593999997E+02  0.45594000000E+02  0.51100000000E-03 0.  1.
    9900012    2    1    2    0    0 -0.76162412354E+00  0.87910729502E+00  0.19944674014E+00  0.90007881386E+02  0.90000144620E+02 0.  0.
        -12    1    1    2    0    0  0.76162412354E+00 -0.87910729502E+00 -0.19944674014E+00  0.11801186143E+01  0.00000000000E+00 0.  1.
         11    1    3    3    0    0 -0.26637093067E+02  0.19393337874E+01  0.39721752436E+01  0.27001368836E+02  0.51100000000E-03 0. -1.
        -11    1    3    3    0    0 -0.14280620033E+02  0.10435670062E+02  0.82853023016E+01  0.19531655144E+02  0.51100000000E-03 0.  1.
        -12    1    3    3    0    0  0.40156088977E+02 -0.11495896554E+02 -0.12058030805E+02  0.43474857405E+02  0.00000000000E+00 0.  1.
</event>
<event>
 7    1  0.1716782E-015  0.9000776E+02  0.7816164E-02  0.1186339E+00
        -11   -1    0    0    0    0  0.00000000000E+00  0.00000000000E+00  0.45593999997E+02  0.45594000000E+02  0.51100000000E-03 0. -1.
         11   -1    0    0    0    0 -0.00000000000E+00 -0.00000000000E+00 -0.45593999997E+02  0.45594000000E+02  0.51100000000E-03 0.  1.
    9900012    2    1    2    0    0  0.69204221815E-01 -0.52762053870E+00 -0.10534713975E+01  0.90007756533E+02  0.90000018119E+02 0.  0.
        -12    1    1    2    0    0 -0.69204221815E-01  0.52762053870E+00  0.10534713975E+01  0.11802434675E+01  0.00000000000E+00 0.  1.
         11    1    3    3    0    0 -0.27625943288E+02 -0.18943849084E+02  0.12999337128E+02  0.35931113630E+02  0.51100000000E-03 0. -1.
        -11    1    3    3    0    0 -0.88703198415E+01 -0.24690803541E+01  0.12089333328E+01  0.92865737466E+01  0.51100000000E-03 0.  1.
        -12    1    3    3    0    0  0.36565467351E+02  0.20885308899E+02 -0.15261741858E+02  0.44790069156E+02  0.00000000000E+00 0.  1.
</event>
<event>
 7    1  0.1716782E-015  0.9000776E+02  0.7816164E-02  0.1186339E+00
        -11   -1    0    0    0    0  0.00000000000E+00  0.00000000000E+00  0.45593999997E+02  0.45594000000E+02  0.51100000000E-03 0.  1.
         11   -1    0    0    0    0 -0.00000000000E+00 -0.00000000000E+00 -0.45593999997E+02  0.45594000000E+02  0.51100000000E-03 0. -1.
    9900012    2    1    2    0    0  0.10989792290E+01  0.10947508658E+00  0.41620011376E+00  0.90007761602E+02  0.90000023256E+02 0.  0.
        -12    1    1    2    0    0 -0.10989792290E+01 -0.10947508658E+00 -0.41620011376E+00  0.11802383976E+01  0.00000000000E+00 0.  1.
         11    1    3    3    0    0 -0.78931482547E+01 -0.36647887523E+00 -0.19191034056E+01  0.81313623876E+01  0.51100000000E-03 0. -1.
        -11    1    3    3    0    0 -0.18044877779E+02 -0.26311167538E+02  0.22273643086E+02  0.38910285631E+02  0.51100000000E-03 0.  1.
         12    1    3    3    0    0  0.27037005263E+02  0.26787121500E+02 -0.19938339567E+02  0.42966113584E+02  0.00000000000E+00 0. -1.
</event>
<event>
 7    1  0.1716782E-015  0.9000759E+02  0.7816164E-02  0.1186339E+00
        -11   -1    0    0    0    0  0.00000000000E+00  0.00000000000E+00  0.45593999997E+02  0.45594000000E+02  0.51100000000E-03 0. -1.
         11   -1    0    0    0    0 -0.00000000000E+00 -0.00000000000E+00 -0.45593999997E+02  0.45594000000E+02  0.51100000000E-03 0.  1.
    9900012    2    1    2    0    0  0.32939635384E+00 -0.90246435015E+00 -0.68587281424E+00  0.90007591012E+02  0.89999850413E+02 0.  0.
        -12    1    1    2    0    0 -0.32939635384E+00  0.90246435015E+00  0.68587281424E+00  0.11804089878E+01  0.00000000000E+00 0.  1.
         11    1    3    3    0    0 -0.29236737134E+02 -0.17615185853E+02  0.65617923219E+01  0.34758289510E+02  0.51100000000E-03 0. -1.
        -11    1    3    3    0    0 -0.81072715589E+01 -0.59973315263E+01  0.20444640254E+01  0.10289590418E+02  0.51100000000E-03 0.  1.
        -12    1    3    3    0    0  0.37673405047E+02  0.22710053030E+02 -0.92921291616E+01  0.44959711084E+02  0.00000000000E+00 0.  1.
</event>
<event>
 7    1  0.1716782E-015  0.9000771E+02  0.7816164E-02  0.1186339E+00
        -11   -1    0    0    0    0  0.00000000000E+00  0.00000000000E+00  0.45593999997E+02  0.45594000000E+02  0.51100000000E-03 0.  1.
         11   -1    0    0    0    0 -0.00000000000E+00 -0.00000000000E+00 -0.45593999997E+02  0.45594000000E+02  0.51100000000E-03 0. -1.
    9900012    2    1    2    0    0 -0.99162288222E+00 -0.40684231286E+00 -0.49421703784E+00  0.90007708897E+02  0.89999969854E+02 0.  0.
        -12    1    1    2    0    0  0.99162288222E+00  0.40684231286E+00  0.49421703784E+00  0.11802911033E+01  0.00000000000E+00 0.  1.
         11    1    3    3    0    0  0.46750415621E+01 -0.69564933577E+01  0.34495566080E+01  0.90635674266E+01  0.51100000000E-03 0. -1.
        -11    1    3    3    0    0  0.12908014406E+02 -0.17952491838E+01  0.34808140115E+02  0.37167813685E+02  0.51100000000E-03 0.  1.
         12    1    3    3    0    0 -0.18574678850E+02  0.83449002287E+01 -0.38751913761E+02  0.43776327785E+02  0.00000000000E+00 0. -1.
</event>
<event>
 7    1  0.1716782E-015  0.9000779E+02  0.7816164E-02  0.1186339E+00
        -11   -1    0    0    0    0  0.00000000000E+00  0.00000000000E+00  0.45593999997E+02  0.45594000000E+02  0.51100000000E-03 0.  1.
         11   -1    0    0    0    0 -0.00000000000E+00 -0.00000000000E+00 -0.45593999997E+02  0.45594000000E+02  0.51100000000E-03 0. -1.
    9900012    2    1    2    0    0  0.34876862589E+00  0.91945327628E+00  0.65258705655E+00  0.90007786567E+02  0.90000048549E+02 0.  0.
        -12    1    1    2    0    0 -0.34876862589E+00 -0.91945327628E+00 -0.65258705655E+00  0.11802134333E+01  0.00000000000E+00 0.  1.
         11    1    3    3    0    0  0.17746232903E+02  0.17111773682E+02 -0.25842084892E+02  0.35714911908E+02  0.51100000000E-03 0. -1.
        -11    1    3    3    0    0  0.59082925396E+01  0.72352538999E+01 -0.31914803978E+01  0.98712900434E+01  0.51100000000E-03 0.  1.
        -12    1    3    3    0    0 -0.23305756816E+02 -0.23427574306E+02  0.29686152346E+02  0.44421584615E+02  0.00000000000E+00 0.  1.
</event>
<event>
 7    1  0.1716782E-015  0.9000765E+02  0.7816164E-02  0.1186339E+00
        -11   -1    0    0    0    0  0.00000000000E+00  0.00000000000E+00  0.45593999997E+02  0.45594000000E+02  0.51100000000E-03 0. -1.
         11   -1    0    0    0    0 -0.00000000000E+00 -0.00000000000E+00 -0.45593999997E+02  0.45594000000E+02  0.51100000000E-03 0.  1.
    9900012    2    1    2    0    0 -0.21024132133E+00 -0.23421894977E+00 -0.11376124372E+01  0.90007651752E+02  0.89999911955E+02 0.  0.
        -12    1    1    2    0    0  0.21024132133E+00  0.23421894977E+00  0.11376124372E+01  0.11803482481E+01  0.00000000000E+00 0.  1.
         11    1    3    3    0    0 -0.13970318765E+02  0.35420361410E+02  0.11921002210E+02  0.39898397246E+02  0.51100000000E-03 0. -1.
        -11    1    3    3    0    0 -0.92120043253E+01 -0.66863996345E+01 -0.24117684561E+01  0.11635531406E+02  0.51100000000E-03 0.  1.
         12    1    3    3    0    0  0.22972081769E+02 -0.28968180725E+02 -0.10646846192E+02  0.38473723100E+02  0.00000000000E+00 0. -1.
</event>
<event>
 7    1  0.1716782E-015  0.9000762E+02  0.7816164E-02  0.1186339E+00
        -11   -1    0    0    0    0  0.00000000000E+00  0.00000000000E+00  0.45593999997E+02  0.45594000000E+02  0.51100000000E-03 0.  1.
         11   -1    0    0    0    0 -0.00000000000E+00 -0.00000000000E+00 -0.45593999997E+02  0.45594000000E+02  0.51100000000E-03 0. -1.
    9900012    2    1    2    0    0  0.11190426866E+01  0.31400973448E+00  0.20603294681E+00  0.90007615223E+02  0.89999874943E+02 0.  0.
        -12    1    1    2    0    0 -0.11190426866E+01 -0.31400973448E+00 -0.20603294681E+00  0.11803847775E+01  0.00000000000E+00 0.  1.
         11    1    3    3    0    0 -0.70571285284E+01 -0.64772860872E+00  0.69527736910E+01  0.99279241374E+01  0.51100000000E-03 0. -1.
        -11    1    3    3    0    0  0.27868450400E+02 -0.28610345992E+02 -0.16534724658E+02  0.43227300925E+02  0.51100000000E-03 0.  1.
         12    1    3    3    0    0 -0.19692279185E+02  0.29572084335E+02  0.97879839138E+01  0.36852390160E+02  0.00000000000E+00 0. -1.
</event>
<event>
 7    1  0.1716782E-015  0.9000774E+02  0.7816164E-02  0.1186339E+00
        -11   -1    0    0    0    0  0.00000000000E+00  0.00000000000E+00  0.45593999997E+02  0.45594000000E+02  0.51100000000E-03 0. -1.
         11   -1    0    0    0    0 -0.00000000000E+00 -0.00000000000E+00 -0.45593999997E+02  0.45594000000E+02  0.51100000000E-03 0.  1.
    9900012    2    1    2    0    0  0.65364845773E+00  0.80833745688E+00 -0.55888242478E+00  0.90007739302E+02  0.90000000661E+02 0.  0.
        -12    1    1    2    0    0 -0.65364845773E+00 -0.80833745688E+00  0.55888242478E+00  0.11802606980E+01  0.00000000000E+00 0.  1.
         11    1    3    3    0    0  0.34677796117E+02 -0.10802988081E+02 -0.42675594234E+00  0.36324044598E+02  0.51100000000E-03 0. -1.
        -11    1    3    3    0    0  0.54833442794E+01 -0.24555990443E+01 -0.89981948425E+01  0.10819636863E+02  0.51100000000E-03 0.  1.
        -12    1    3    3    0    0 -0.39507491939E+02  0.14066924582E+02  0.88660683601E+01  0.42864057842E+02  0.00000000000E+00 0.  1.
</event>
<event>
 7    1  0.1716782E-015  0.9000774E+02  0.7816164E-02  0.1186339E+00
        -11   -1    0    0    0    0  0.00000000000E+00  0.00000000000E+00  0.45593999997E+02  0.45594000000E+02  0.51100000000E-03 0. -1.
         11   -1    0    0    0    0 -0.00000000000E+00 -0.00000000000E+00 -0.45593999997E+02  0.45594000000E+02  0.51100000000E-03 0.  1.
    9900012    2    1    2    0    0  0.23978248702E+00 -0.85834067625E+00  0.77379924089E+00  0.90007741714E+02  0.90000003104E+02 0.  0.
        -12    1    1    2    0    0 -0.23978248702E+00  0.85834067625E+00 -0.77379924089E+00  0.11802582865E+01  0.00000000000E+00 0.  1.
         11    1    3    3    0    0  0.41914376084E+01  0.43746206503E+01 -0.92655472235E+01  0.11070493244E+02  0.51100000000E-03 0. -1.
        -11    1    3    3    0    0  0.28627378256E+02  0.14640931296E+02 -0.12634517498E+02  0.34547281914E+02  0.51100000000E-03 0.  1.
         12    1    3    3    0    0 -0.32579033377E+02 -0.19873892623E+02  0.22673863962E+02  0.44389966555E+02  0.00000000000E+00 0. -1.
</event>
<event>
 7    1  0.1716782E-015  0.9000785E+02  0.7816164E-02  0.1186339E+00
        -11   -1    0    0    0    0  0.00000000000E+00  0.00000000000E+00  0.45593999997E+02  0.45594000000E+02  0.51100000000E-03 0.  1.
         11   -1    0    0    0    0 -0.00000000000E+00 -0.00000000000E+00 -0.45593999997E+02  0.45594000000E+02  0.51100000000E-03 0. -1.
    9900012    2    1    2    0    0  0.43807845870E+00  0.10956913112E+01  0.17356299627E-01  0.90007850253E+02  0.90000113076E+02 0.  0.
        -12    1    1    2    0    0 -0.43807845870E+00 -0.10956913112E+01 -0.17356299627E-01  0.11801497475E+01  0.00000000000E+00 0.  1.
         11    1    3    3    0    0 -0.12139947092E+02  0.36197718768E+02 -0.65132227887E+01  0.38730804675E+02  0.51100000000E-03 0. -1.
        -11    1    3    3    0    0  0.56462953980E+01  0.65341247002E+01  0.15711654514E+01  0.87774710741E+01  0.51100000000E-03 0.  1.
        -12    1    3    3    0    0  0.69317301523E+01 -0.41636152157E+02  0.49594136369E+01  0.42499574504E+02  0.00000000000E+00 0.  1.
</event>
<event>
 7    1  0.1716782E-015  0.9000779E+02  0.7816164E-02  0.1186339E+00
        -11   -1    0    0    0    0  0.00000000000E+00  0.00000000000E+00  0.45593999997E+02  0.45594000000E+02  0.51100000000E-03 0. -1.
         11   -1    0    0    0    0 -0.00000000000E+00 -0.00000000000E+00 -0.45593999997E+02  0.45594000000E+02  0.51100000000E-03 0.  1.
    9900012    2    1    2    0    0  0.62938789923E+00 -0.96172757091E+00  0.26804322704E+00  0.90007789756E+02  0.90000051781E+02 0.  0.
        -12    1    1    2    0    0 -0.62938789923E+00  0.96172757091E+00 -0.26804322704E+00  0.11802102439E+01  0.00000000000E+00 0.  1.
         11    1    3    3    0    0  0.21662572489E+01  0.71905423437E+01  0.87141883951E+00  0.75601548079E+01  0.51100000000E-03 0. -1.
        -11    1    3    3    0    0  0.33136136322E+02  0.17344721746E+02  0.87351604836E+01  0.38407628562E+02  0.51100000000E-03 0.  1.
         12    1    3    3    0    0 -0.34673005672E+02 -0.25496991661E+02 -0.93385360961E+01  0.44040006386E+02  0.00000000000E+00 0. -1.
</event>
<event>
 7    1  0.1716782E-015  0.9000784E+02  0.7816164E-02  0.1186339E+00
        -11   -1    0    0    0    0  0.00000000000E+00  0.00000000000E+00  0.45593999997E+02  0.45594000000E+02  0.51100000000E-03 0. -1.
         11   -1    0    0    0    0 -0.00000000000E+00 -0.00000000000E+00 -0.45593999997E+02  0.45594000000E+02  0.51100000000E-03 0.  1.
    9900012    2    1    2    0    0  0.34607601109E+00 -0.43503517061E+00  0.10410321204E+01  0.90007842349E+02  0.90000105068E+02 0.  0.
        -12    1    1    2    0    0 -0.34607601109E+00  0.43503517061E+00 -0.10410321204E+01  0.11801576508E+01  0.00000000000E+00 0.  1.
         11    1    3    3    0    0 -0.34907420869E+00 -0.13528137817E+01 -0.83696054566E+01  0.84854141732E+01  0.51100000000E-03 0. -1.
        -11    1    3    3    0    0  0.32627180925E+02 -0.23780787949E+02  0.16075049979E+01  0.40405975835E+02  0.51100000000E-03 0.  1.
         12    1    3    3    0    0 -0.31932030705E+02  0.24698566560E+02  0.78031325791E+01  0.41116452341E+02  0.00000000000E+00 0. -1.
</event>
<event>
 7    1  0.1716782E-015  0.9000774E+02  0.7816164E-02  0.1186339E+00
        -11   -1    0    0    0    0  0.00000000000E+00  0.00000000000E+00  0.45593999997E+02  0.45594000000E+02  0.51100000000E-03 0. -1.
         11   -1    0    0    0    0 -0.00000000000E+00 -0.00000000000E+00 -0.45593999997E+02  0.45594000000E+02  0.51100000000E-03 0.  1.
    9900012    2    1    2    0    0  0.39451091326E+00  0.10167308502E+01  0.45124832679E+00  0.90007743445E+02  0.90000004859E+02 0.  0.
        -12    1    1    2    0    0 -0.39451091326E+00 -0.10167308502E+01 -0.45124832679E+00  0.11802565547E+01  0.00000000000E+00 0.  1.
         11    1    3    3    0    0  0.55765636680E+01  0.86400651693E+01 -0.34222298801E+00  0.10289115866E+02  0.51100000000E-03 0. -1.
        -11    1    3    3    0    0 -0.18447626779E+02  0.15625598667E+02 -0.30253061085E+02  0.38726243979E+02  0.51100000000E-03 0.  1.
         12    1    3    3    0    0  0.13265574024E+02 -0.23248932986E+02  0.31046532400E+02  0.40992383600E+02  0.00000000000E+00 0. -1.
</event>
<event>
 7    1  0.1716782E-015  0.9000775E+02  0.7816164E-02  0.1186339E+00
        -11   -1    0    0    0    0  0.00000000000E+00  0.00000000000E+00  0.45593999997E+02  0.45594000000E+02  0.51100000000E-03 0. -1.
         11   -1    0    0    0    0 -0.00000000000E+00 -0.00000000000E+00 -0.45593999997E+02  0.45594000000E+02  0.51100000000E-03 0.  1.
    9900012    2    1    2    0    0 -0.21318518278E+00  0.96918948084E+00  0.63891748352E+00  0.90007749297E+02  0.90000010787E+02 0.  0.
        -12    1    1    2    0    0  0.21318518278E+00 -0.96918948084E+00 -0.63891748352E+00  0.11802507033E+01  0.00000000000E+00 0.  1.
         11    1    3    3    0    0 -0.61730358926E+01 -0.62858573882E+01 -0.39896238515E+01  0.96713739445E+01  0.51100000000E-03 0. -1.
        -11    1    3    3    0    0  0.29593670810E+02 -0.13088042292E+02 -0.22165948757E+02  0.39222588997E+02  0.51100000000E-03 0.  1.
         12    1    3    3    0    0 -0.23633820100E+02  0.20343089161E+02  0.26794490092E+02  0.41113786355E+02  0.00000000000E+00 0. -1.
</event>
<event>
 7    1  0.1716782E-015  0.9000757E+02  0.7816164E-02  0.1186339E+00
        -11   -1    0    0    0    0  0.00000000000E+00  0.00000000000E+00  0.45593999997E+02  0.45594000000E+02  0.51100000000E-03 0.  1.
         11   -1    0    0    0    0 -0.00000000000E+00 -0.00000000000E+00 -0.45593999997E+02  0.45594000000E+02  0.51100000000E-03 0. -1.
    9900012    2    1    2    0    0 -0.10143686815E+01  0.53611792414E+00 -0.27759133604E+00  0.90007566520E+02  0.89999825598E+02 0.  0.
        -12    1    1    2    0    0  0.10143686815E+01 -0.53611792414E+00  0.27759133604E+00  0.11804334799E+01  0.00000000000E+00 0.  1.
         11    1    3    3    0    0 -0.28490856081E+02 -0.84077555672E+01 -0.10300069019E+02  0.31440589307E+02  0.51100000000E-03 0. -1.
        -11    1    3    3    0    0  0.81746024135E+01 -0.18193346896E+02 -0.70366532531E+01  0.21150330616E+02  0.51100000000E-03 0.  1.
        -12    1    3    3    0    0  0.19301884986E+02  0.27137220387E+02  0.17059130936E+02  0.37416646598E+02  0.00000000000E+00 0.  1.
</event>
<event>
 7    1  0.1716782E-015  0.9000750E+02  0.7816164E-02  0.1186340E+00
        -11   -1    0    0    0    0  0.00000000000E+00  0.00000000000E+00  0.45593999997E+02  0.45594000000E+02  0.51100000000E-03 0.  1.
         11   -1    0    0    0    0 -0.00000000000E+00 -0.00000000000E+00 -0.45593999997E+02  0.45594000000E+02  0.51100000000E-03 0. -1.
    9900012    2    1    2    0    0  0.59490284199E+00 -0.34453416149E+00 -0.95967211741E+00  0.90007498516E+02  0.89999756696E+02 0.  0.
        -12    1    1    2    0    0 -0.59490284199E+00  0.34453416149E+00  0.95967211741E+00  0.11805014836E+01  0.00000000000E+00 0.  1.
         11    1    3    3    0    0  0.54089887901E+01  0.10864167097E+02  0.56437817430E+01  0.13384302711E+02  0.51100000000E-03 0. -1.
        -11    1    3    3    0    0 -0.21842989394E+02 -0.42642915509E+01  0.28997110482E+02  0.36553150133E+02  0.51100000000E-03 0.  1.
         12    1    3    3    0    0  0.17028903445E+02 -0.69444097073E+01 -0.35600564342E+02  0.40070045673E+02  0.00000000000E+00 0. -1.
</event>
<event>
 7    1  0.1716782E-015  0.9000741E+02  0.7816164E-02  0.1186340E+00
        -11   -1    0    0    0    0  0.00000000000E+00  0.00000000000E+00  0.45593999997E+02  0.45594000000E+02  0.51100000000E-03 0. -1.
         11   -1    0    0    0    0 -0.00000000000E+00 -0.00000000000E+00 -0.45593999997E+02  0.45594000000E+02  0.51100000000E-03 0.  1.
    9900012    2    1    2    0    0  0.11279469654E+01 -0.18430446135E+00 -0.29589167781E+00  0.90007413546E+02  0.89999670604E+02 0.  0.
        -12    1    1    2    0    0 -0.11279469654E+01  0.18430446135E+00  0.29589167781E+00  0.11805864544E+01  0.00000000000E+00 0.  1.
         11    1    3    3    0    0  0.79917657318E+01  0.34845079725E+02 -0.79283340784E+01  0.36618388578E+02  0.51100000000E-03 0. -1.
        -11    1    3    3    0    0 -0.37504258945E+01  0.84514179353E+01  0.11455901758E+01  0.93168952242E+01  0.51100000000E-03 0.  1.
        -12    1    3    3    0    0 -0.31133928719E+01 -0.43480802122E+02  0.64868522248E+01  0.44072129743E+02  0.00000000000E+00 0.  1.
</event>
<event>
 7    1  0.1716782E-015  0.9000782E+02  0.7816164E-02  0.1186339E+00
        -11   -1    0    0    0    0  0.00000000000E+00  0.00000000000E+00  0.45593999997E+02  0.45594000000E+02  0.51100000000E-03 0. -1.
         11   -1    0    0    0    0 -0.00000000000E+00 -0.00000000000E+00 -0.45593999997E+02  0.45594000000E+02  0.51100000000E-03 0.  1.
    9900012    2    1    2    0    0  0.23569676573E-01 -0.11556992350E+01  0.23795052690E+00  0.90007823443E+02  0.90000085913E+02 0.  0.
        -12    1    1    2    0    0 -0.23569676573E-01  0.11556992350E+01 -0.23795052690E+00  0.11801765566E+01  0.00000000000E+00 0.  1.
         11    1    3    3    0    0 -0.80835334661E+01 -0.20249456650E+01  0.37244123325E+02  0.38165018548E+02  0.51100000000E-03 0. -1.
        -11    1    3    3    0    0 -0.34627361546E+01  0.10477223772E+02  0.89110029957E+00  0.11070538363E+02  0.51100000000E-03 0.  1.
        -12    1    3    3    0    0  0.11569839297E+02 -0.96079773423E+01 -0.37897273097E+02  0.40772266532E+02  0.00000000000E+00 0.  1.
</event>
<event>
 7    1  0.1716782E-015  0.9000774E+02  0.7816164E-02  0.1186339E+00
        -11   -1    0    0    0    0  0.00000000000E+00  0.00000000000E+00  0.45593999997E+02  0.45594000000E+02  0.51100000000E-03 0.  1.
         11   -1    0    0    0    0 -0.00000000000E+00 -0.00000000000E+00 -0.45593999997E+02  0.45594000000E+02  0.51100000000E-03 0. -1.
    9900012    2    1    2    0    0 -0.10921521215E+01 -0.42129660495E+00 -0.15075883705E+00  0.90007739303E+02  0.90000000662E+02 0.  0.
        -12    1    1    2    0    0  0.10921521215E+01  0.42129660495E+00  0.15075883705E+00  0.11802606970E+01  0.00000000000E+00 0.  1.
         11    1    3    3    0    0  0.62169247828E+01  0.42801343682E+01  0.55463488829E+01  0.93665196394E+01  0.51100000000E-03 0. -1.
        -11    1    3    3    0    0  0.33080691949E+02  0.47526454547E+01  0.12045122629E+02  0.35524706868E+02  0.51100000000E-03 0.  1.
         12    1    3    3    0    0 -0.40389768853E+02 -0.94540764278E+01 -0.17742230348E+02  0.45116512796E+02  0.00000000000E+00 0. -1.
</event>
<event>
 7    1  0.1716782E-015  0.9000778E+02  0.7816164E-02  0.1186339E+00
        -11   -1    0    0    0    0  0.00000000000E+00  0.00000000000E+00  0.45593999997E+02  0.45594000000E+02  0.51100000000E-03 0.  1.
         11   -1    0    0    0    0 -0.00000000000E+00 -0.00000000000E+00 -0.45593999997E+02  0.45594000000E+02  0.51100000000E-03 0. -1.
    9900012    2    1    2    0    0 -0.11630243613E+01  0.12196476930E+00 -0.15941974670E+00  0.90007781492E+02  0.90000043408E+02 0.  0.
        -12    1    1    2    0    0  0.11630243613E+01 -0.12196476930E+00  0.15941974670E+00  0.11802185075E+01  0.00000000000E+00 0.  1.
         11    1    3    3    0    0 -0.35117308186E+02  0.21528671130E+02 -0.97543762690E+01  0.42330330397E+02  0.51100000000E-03 0. -1.
        -11    1    3    3    0    0  0.70836066239E+01  0.24909638944E+01 -0.48342312520E+01  0.89304073806E+01  0.51100000000E-03 0.  1.
        -12    1    3    3    0    0  0.26870677201E+02 -0.23897670255E+02  0.14429187774E+02  0.38747043715E+02  0.00000000000E+00 0.  1.
</event>
<event>
 7    1  0.1716782E-015  0.9000782E+02  0.7816164E-02  0.1186339E+00
        -11   -1    0    0    0    0  0.00000000000E+00  0.00000000000E+00  0.45593999997E+02  0.45594000000E+02  0.51100000000E-03 0.  1.
         11   -1    0    0    0    0 -0.00000000000E+00 -0.00000000000E+00 -0.45593999997E+02  0.45594000000E+02  0.51100000000E-03 0. -1.
    9900012    2    1    2    0    0 -0.15987815311E+00  0.10449460159E+01 -0.52473908938E+00  0.90007820221E+02  0.90000082647E+02 0.  0.
        -12    1    1    2    0    0  0.15987815311E+00 -0.10449460159E+01  0.52473908938E+00  0.11801797795E+01  0.00000000000E+00 0.  1.
         11    1    3    3    0    0 -0.10752354699E+02  0.12371132202E+02 -0.32689298440E+02  0.36568405438E+02  0.51100000000E-03 0. -1.
        -11    1    3    3    0    0 -0.87769067273E+01  0.49906567451E+01 -0.26018672294E+01  0.10426430827E+02  0.51100000000E-03 0.  1.
        -12    1    3    3    0    0  0.19369383273E+02 -0.16316842931E+02  0.34766426580E+02  0.43012983955E+02  0.00000000000E+00 0.  1.
</event>
<event>
 7    1  0.1716782E-015  0.9000776E+02  0.7816164E-02  0.1186339E+00
        -11   -1    0    0    0    0  0.00000000000E+00  0.00000000000E+00  0.45593999997E+02  0.45594000000E+02  0.51100000000E-03 0.  1.
         11   -1    0    0    0    0 -0.00000000000E+00 -0.00000000000E+00 -0.45593999997E+02  0.45594000000E+02  0.51100000000E-03 0. -1.
    9900012    2    1    2    0    0 -0.96746872666E+00 -0.61179963747E+00 -0.28754307523E+00  0.90007756147E+02  0.90000017728E+02 0.  0.
        -12    1    1    2    0    0  0.96746872666E+00  0.61179963747E+00  0.28754307523E+00  0.11802438534E+01  0.00000000000E+00 0.  1.
         11    1    3    3    0    0 -0.24356726044E+01  0.11265537833E+01  0.10387652841E+02  0.10728697790E+02  0.51100000000E-03 0. -1.
        -11    1    3    3    0    0  0.22731846258E+01 -0.35026195497E+02  0.14047875977E+02  0.37806673472E+02  0.51100000000E-03 0.  1.
         12    1    3    3    0    0 -0.80498074812E+00  0.33287842076E+02 -0.24723071894E+02  0.41472384884E+02  0.00000000000E+00 0. -1.
</event>
<event>
 7    1  0.1716782E-015  0.9000773E+02  0.7816164E-02  0.1186339E+00
        -11   -1    0    0    0    0  0.00000000000E+00  0.00000000000E+00  0.45593999997E+02  0.45594000000E+02  0.51100000000E-03 0. -1.
         11   -1    0    0    0    0 -0.00000000000E+00 -0.00000000000E+00 -0.45593999997E+02  0.45594000000E+02  0.51100000000E-03 0.  1.
    9900012    2    1    2    0    0  0.76268091492E+00 -0.79576300543E+00  0.42203531512E+00  0.90007731070E+02  0.89999992321E+02 0.  0.
        -12    1    1    2    0    0 -0.76268091492E+00  0.79576300543E+00 -0.42203531512E+00  0.11802689295E+01  0.00000000000E+00 0.  1.
         11    1    3    3    0    0 -0.94773571304E+01 -0.14405283257E+02  0.17201034322E+02  0.24355863071E+02  0.51100000000E-03 0. -1.
        -11    1    3    3    0    0 -0.11720478925E+02  0.65640250901E+01  0.18888030778E+02  0.23177872175E+02  0.51100000000E-03 0.  1.
        -12    1    3    3    0    0  0.21960516970E+02  0.70454951617E+01 -0.35667029785E+02  0.42473995825E+02  0.00000000000E+00 0.  1.
</event>
<event>
 7    1  0.1716782E-015  0.9000789E+02  0.7816164E-02  0.1186339E+00
        -11   -1    0    0    0    0  0.00000000000E+00  0.00000000000E+00  0.45593999997E+02  0.45594000000E+02  0.51100000000E-03 0.  1.
         11   -1    0    0    0    0 -0.00000000000E+00 -0.00000000000E+00 -0.45593999997E+02  0.45594000000E+02  0.51100000000E-03 0. -1.
    9900012    2    1    2    0    0  0.11395950805E+01  0.30633122125E+00 -0.12412733773E-01  0.90007885666E+02  0.90000148957E+02 0.  0.
        -12    1    1    2    0    0 -0.11395950805E+01 -0.30633122125E+00  0.12412733773E-01  0.11801143337E+01  0.00000000000E+00 0.  1.
         11    1    3    3    0    0 -0.37302329541E+01 -0.41688003605E+02 -0.36631747511E+01  0.42014558572E+02  0.51100000000E-03 0. -1.
        -11    1    3    3    0    0 -0.42426990217E+01  0.47900606672E+01  0.70715610779E+01  0.95368837952E+01  0.51100000000E-03 0.  1.
        -12    1    3    3    0    0  0.91125270563E+01  0.37204274159E+02 -0.34207990605E+01  0.38456443300E+02  0.00000000000E+00 0.  1.
</event>
<event>
 7    1  0.1716782E-015  0.9000784E+02  0.7816164E-02  0.1186339E+00
        -11   -1    0    0    0    0  0.00000000000E+00  0.00000000000E+00  0.45593999997E+02  0.45594000000E+02  0.51100000000E-03 0. -1.
         11   -1    0    0    0    0 -0.00000000000E+00 -0.00000000000E+00 -0.45593999997E+02  0.45594000000E+02  0.51100000000E-03 0.  1.
    9900012    2    1    2    0    0 -0.39548601917E+00 -0.10348030850E+01 -0.40686940034E+00  0.90007843517E+02  0.90000106251E+02 0.  0.
        -12    1    1    2    0    0  0.39548601917E+00  0.10348030850E+01  0.40686940034E+00  0.11801564833E+01  0.00000000000E+00 0.  1.
         11    1    3    3    0    0  0.14758155268E+02 -0.26097592345E+02  0.28813106462E+02  0.41582238725E+02  0.51100000000E-03 0. -1.
        -11    1    3    3    0    0 -0.34329745893E+01  0.93681328268E+01  0.32597512168E+01  0.10496342480E+02  0.51100000000E-03 0.  1.
        -12    1    3    3    0    0 -0.11720666698E+02  0.15694656433E+02 -0.32479727079E+02  0.37929262312E+02  0.00000000000E+00 0.  1.
</event>
<event>
 7    1  0.1716782E-015  0.9000772E+02  0.7816164E-02  0.1186339E+00
        -11   -1    0    0    0    0  0.00000000000E+00  0.00000000000E+00  0.45593999997E+02  0.45594000000E+02  0.51100000000E-03 0.  1.
         11   -1    0    0    0    0 -0.00000000000E+00 -0.00000000000E+00 -0.45593999997E+02  0.45594000000E+02  0.51100000000E-03 0. -1.
    9900012    2    1    2    0    0  0.56058608431E+00 -0.78338456619E+00 -0.68199845387E+00  0.90007716124E+02  0.89999977177E+02 0.  0.
        -12    1    1    2    0    0 -0.56058608431E+00  0.78338456619E+00  0.68199845387E+00  0.11802838758E+01  0.00000000000E+00 0.  1.
         11    1    3    3    0    0 -0.28422355920E+02  0.14902072922E+02 -0.23829823252E+02  0.39972022340E+02  0.51100000000E-03 0. -1.
        -11    1    3    3    0    0 -0.28284935711E+01 -0.40881715647E+01 -0.42026670560E+01  0.65096799667E+01  0.51100000000E-03 0.  1.
        -12    1    3    3    0    0  0.31811435576E+02 -0.11597285924E+02  0.27350491855E+02  0.43526013818E+02  0.00000000000E+00 0.  1.
</event>
<event>
 7    1  0.1716782E-015  0.9000778E+02  0.7816164E-02  0.1186339E+00
        -11   -1    0    0    0    0  0.00000000000E+00  0.00000000000E+00  0.45593999997E+02  0.45594000000E+02  0.51100000000E-03 0.  1.
         11   -1    0    0    0    0 -0.00000000000E+00 -0.00000000000E+00 -0.45593999997E+02  0.45594000000E+02  0.51100000000E-03 0. -1.
    9900012    2    1    2    0    0  0.47857352129E+00  0.74392948391E+00 -0.78131650706E+00  0.90007780030E+02  0.90000041927E+02 0.  0.
        -12    1    1    2    0    0 -0.47857352129E+00 -0.74392948391E+00  0.78131650706E+00  0.11802199695E+01  0.00000000000E+00 0.  1.
         11    1    3    3    0    0  0.99641477967E+01  0.97095383506E+00 -0.69949993937E+00  0.10035750749E+02  0.51100000000E-03 0. -1.
        -11    1    3    3    0    0 -0.21347231032E+02 -0.31768799406E+02  0.17359547743E+02  0.42027547948E+02  0.51100000000E-03 0.  1.
         12    1    3    3    0    0  0.11861656757E+02  0.31541775055E+02 -0.17441364311E+02  0.37944481333E+02  0.00000000000E+00 0. -1.
</event>
<event>
 7    1  0.1716782E-015  0.9000773E+02  0.7816164E-02  0.1186339E+00
        -11   -1    0    0    0    0  0.00000000000E+00  0.00000000000E+00  0.45593999997E+02  0.45594000000E+02  0.51100000000E-03 0.  1.
         11   -1    0    0    0    0 -0.00000000000E+00 -0.00000000000E+00 -0.45593999997E+02  0.45594000000E+02  0.51100000000E-03 0. -1.
    9900012    2    1    2    0    0  0.62669196675E+00  0.51792585593E+00 -0.85559208078E+00  0.90007734004E+02  0.89999995293E+02 0.  0.
        -12    1    1    2    0    0 -0.62669196675E+00 -0.51792585593E+00  0.85559208078E+00  0.11802659963E+01  0.00000000000E+00 0.  1.
         11    1    3    3    0    0 -0.14381305036E+01 -0.17679619085E+01  0.37566086866E+01  0.43938613703E+01  0.51100000000E-03 0. -1.
        -11    1    3    3    0    0  0.11645674881E+02 -0.38583609464E+02 -0.13879170602E+02  0.42625673479E+02  0.51100000000E-03 0.  1.
         12    1    3    3    0    0 -0.95808524106E+01  0.40869497228E+02  0.92669698341E+01  0.42988199154E+02  0.00000000000E+00 0. -1.
</event>
<event>
 7    1  0.1716782E-015  0.9000774E+02  0.7816164E-02  0.1186339E+00
        -11   -1    0    0    0    0  0.00000000000E+00  0.00000000000E+00  0.45593999997E+02  0.45594000000E+02  0.51100000000E-03 0. -1.
         11   -1    0    0    0    0 -0.00000000000E+00 -0.00000000000E+00 -0.45593999997E+02  0.45594000000E+02  0.51100000000E-03 0.  1.
    9900012    2    1    2    0    0  0.10038625831E+00 -0.31433506179E+00  0.11331894777E+01  0.90007744805E+02  0.90000006237E+02 0.  0.
        -12    1    1    2    0    0 -0.10038625831E+00  0.31433506179E+00 -0.11331894777E+01  0.11802551946E+01  0.00000000000E+00 0.  1.
         11    1    3    3    0    0  0.11723181556E+02  0.34027240495E+02  0.23290651911E+02  0.42868876218E+02  0.51100000000E-03 0. -1.
        -11    1    3    3    0    0 -0.34037846344E+01 -0.56029474923E+01  0.37764961034E+01  0.75657579607E+01  0.51100000000E-03 0.  1.
        -12    1    3    3    0    0 -0.82190106634E+01 -0.28738628064E+02 -0.25933958537E+02  0.39573110627E+02  0.00000000000E+00 0.  1.
</event>
<event>
 7    1  0.1716782E-015  0.9000775E+02  0.7816164E-02  0.1186339E+00
        -11   -1    0    0    0    0  0.00000000000E+00  0.00000000000E+00  0.45593999997E+02  0.45594000000E+02  0.51100000000E-03 0. -1.
         11   -1    0    0    0    0 -0.00000000000E+00 -0.00000000000E+00 -0.45593999997E+02  0.45594000000E+02  0.51100000000E-03 0.  1.
    9900012    2    1    2    0    0  0.80300728043E+00  0.32317429993E+00  0.80232426170E+00  0.90007751492E+02  0.90000013011E+02 0.  0.
        -12    1    1    2    0    0 -0.80300728043E+00 -0.32317429993E+00 -0.80232426170E+00  0.11802485084E+01  0.00000000000E+00 0.  1.
         11    1    3    3    0    0  0.19396304555E+00 -0.85294355716E+01 -0.24238536905E+01  0.88692705341E+01  0.51100000000E-03 0. -1.
        -11    1    3    3    0    0  0.16735201089E+02 -0.30332518326E+02 -0.11149208409E+02  0.36392766752E+02  0.51100000000E-03 0.  1.
         12    1    3    3    0    0 -0.16126156854E+02  0.39185128197E+02  0.14375386362E+02  0.44745714205E+02  0.00000000000E+00 0. -1.
</event>
<event>
 7    1  0.1716782E-015  0.9000766E+02  0.7816164E-02  0.1186339E+00
        -11   -1    0    0    0    0  0.00000000000E+00  0.00000000000E+00  0.45593999997E+02  0.45594000000E+02  0.51100000000E-03 0. -1.
         11   -1    0    0    0    0 -0.00000000000E+00 -0.00000000000E+00 -0.45593999997E+02  0.45594000000E+02  0.51100000000E-03 0.  1.
    9900012    2    1    2    0    0 -0.54679176329E+00  0.39107834632E+00  0.97020025923E+00  0.90007655962E+02  0.89999916221E+02 0.  0.
        -12    1    1    2    0    0  0.54679176329E+00 -0.39107834632E+00 -0.97020025923E+00  0.11803440381E+01  0.00000000000E+00 0.  1.
         11    1    3    3    0    0 -0.38338193405E+01 -0.70993010339E+01 -0.13239031962E+01  0.81762439934E+01  0.51100000000E-03 0. -1.
        -11    1    3    3    0    0  0.34370799913E+02  0.25656149265E+01 -0.23016249090E+02  0.41444927181E+02  0.51100000000E-03 0.  1.
         12    1    3    3    0    0 -0.31083772336E+02  0.49247644538E+01  0.25310352545E+02  0.40386484788E+02  0.00000000000E+00 0. -1.
</event>
<event>
 7    1  0.1716782E-015  0.9000777E+02  0.7816164E-02  0.1186339E+00
        -11   -1    0    0    0    0  0.00000000000E+00  0.00000000000E+00  0.45593999997E+02  0.45594000000E+02  0.51100000000E-03 0. -1.
         11   -1    0    0    0    0 -0.00000000000E+00 -0.00000000000E+00 -0.45593999997E+02  0.45594000000E+02  0.51100000000E-03 0.  1.
    9900012    2    1    2    0    0 -0.11443079634E+01  0.45799151239E-01  0.28530111000E+00  0.90007773327E+02  0.90000035134E+02 0.  0.
        -12    1    1    2    0    0  0.11443079634E+01 -0.45799151239E-01 -0.28530111000E+00  0.11802266735E+01  0.00000000000E+00 0.  1.
         11    1    3    3    0    0  0.91963217680E+01  0.21655520614E+01 -0.36013066460E+01  0.10110952458E+02  0.51100000000E-03 0. -1.
        -11    1    3    3    0    0 -0.34946315178E+01  0.19491354927E+02 -0.31892792926E+02  0.37540319754E+02  0.51100000000E-03 0.  1.
         12    1    3    3    0    0 -0.68459982136E+01 -0.21611107837E+02  0.35779400682E+02  0.42356501114E+02  0.00000000000E+00 0. -1.
</event>
<event>
 7    1  0.1716782E-015  0.9000772E+02  0.7816164E-02  0.1186339E+00
        -11   -1    0    0    0    0  0.00000000000E+00  0.00000000000E+00  0.45593999997E+02  0.45594000000E+02  0.51100000000E-03 0. -1.
         11   -1    0    0    0    0 -0.00000000000E+00 -0.00000000000E+00 -0.45593999997E+02  0.45594000000E+02  0.51100000000E-03 0.  1.
    9900012    2    1    2    0    0 -0.93432491219E+00  0.53146281842E+00 -0.48749480717E+00  0.90007717425E+02  0.89999978495E+02 0.  0.
        -12    1    1    2    0    0  0.93432491219E+00 -0.53146281842E+00  0.48749480717E+00  0.11802825746E+01  0.00000000000E+00 0.  1.
         11    1    3    3    0    0 -0.12545770441E+02  0.12839588801E+02 -0.10262921611E+02  0.20677982416E+02  0.51100000000E-03 0. -1.
        -11    1    3    3    0    0 -0.14255788150E+02  0.21594958135E+02  0.56559191532E+01  0.26486961592E+02  0.51100000000E-03 0.  1.
         12    1    3    3    0    0  0.25867233679E+02 -0.33903084118E+02  0.41195076503E+01  0.42842773418E+02  0.00000000000E+00 0. -1.
</event>
<event>
 7    1  0.1716782E-015  0.9000782E+02  0.7816164E-02  0.1186339E+00
        -11   -1    0    0    0    0  0.00000000000E+00  0.00000000000E+00  0.45593999997E+02  0.45594000000E+02  0.51100000000E-03 0.  1.
         11   -1    0    0    0    0 -0.00000000000E+00 -0.00000000000E+00 -0.45593999997E+02  0.45594000000E+02  0.51100000000E-03 0. -1.
    9900012    2    1    2    0    0 -0.99908364286E+00  0.25008895336E+00 -0.57629659756E+00  0.90007817650E+02  0.90000080043E+02 0.  0.
        -12    1    1    2    0    0  0.99908364286E+00 -0.25008895336E+00  0.57629659756E+00  0.11801823496E+01  0.00000000000E+00 0.  1.
         11    1    3    3    0    0 -0.11210630731E+02 -0.24843613624E+02  0.28658312473E+02  0.39549744036E+02  0.51100000000E-03 0. -1.
        -11    1    3    3    0    0  0.58365775617E+01 -0.17389934419E+01  0.41755016755E+01  0.73840741009E+01  0.51100000000E-03 0.  1.
        -12    1    3    3    0    0  0.43749695268E+01  0.26832696019E+02 -0.33410110746E+02  0.43073999513E+02  0.00000000000E+00 0.  1.
</event>
<event>
 7    1  0.1716782E-015  0.9000773E+02  0.7816164E-02  0.1186339E+00
        -11   -1    0    0    0    0  0.00000000000E+00  0.00000000000E+00  0.45593999997E+02  0.45594000000E+02  0.51100000000E-03 0.  1.
         11   -1    0    0    0    0 -0.00000000000E+00 -0.00000000000E+00 -0.45593999997E+02  0.45594000000E+02  0.51100000000E-03 0. -1.
    9900012    2    1    2    0    0 -0.95282571631E+00  0.69028247824E+00  0.93060205286E-01  0.90007734374E+02  0.89999995668E+02 0.  0.
        -12    1    1    2    0    0  0.95282571631E+00 -0.69028247824E+00 -0.93060205286E-01  0.11802656257E+01  0.00000000000E+00 0.  1.
         11    1    3    3    0    0  0.14279263003E+02 -0.62031172168E+01 -0.67652473105E+01  0.16974822136E+02  0.51100000000E-03 0. -1.
        -11    1    3    3    0    0  0.22168452420E+02  0.13183087930E+01 -0.17308666860E+02  0.28156139109E+02  0.51100000000E-03 0.  1.
         12    1    3    3    0    0 -0.37400541139E+02  0.55750909021E+01  0.24166974376E+02  0.44876773130E+02  0.00000000000E+00 0. -1.
</event>
<event>
 7    1  0.1716782E-015  0.9000765E+02  0.7816164E-02  0.1186339E+00
        -11   -1    0    0    0    0  0.00000000000E+00  0.00000000000E+00  0.45593999997E+02  0.45594000000E+02  0.51100000000E-03 0. -1.
         11   -1    0    0    0    0 -0.00000000000E+00 -0.00000000000E+00 -0.45593999997E+02  0.45594000000E+02  0.51100000000E-03 0.  1.
    9900012    2    1    2    0    0 -0.56855264552E+00 -0.87452984578E+00 -0.55243351901E+00  0.90007645242E+02  0.89999905359E+02 0.  0.
        -12    1    1    2    0    0  0.56855264552E+00  0.87452984578E+00  0.55243351901E+00  0.11803547580E+01  0.00000000000E+00 0.  1.
         11    1    3    3    0    0 -0.89380638049E+01  0.17821292846E+02  0.34910266626E+02  0.40202166352E+02  0.51100000000E-03 0. -1.
        -11    1    3    3    0    0 -0.65821874458E+01 -0.18340459151E+01  0.10349119622E+01  0.69108580525E+01  0.51100000000E-03 0.  1.
        -12    1    3    3    0    0  0.14951698605E+02 -0.16861776777E+02 -0.36497612107E+02  0.42894620837E+02  0.00000000000E+00 0.  1.
</event>
<event>
 7    1  0.1716782E-015  0.9000782E+02  0.7816164E-02  0.1186339E+00
        -11   -1    0    0    0    0  0.00000000000E+00  0.00000000000E+00  0.45593999997E+02  0.45594000000E+02  0.51100000000E-03 0. -1.
         11   -1    0    0    0    0 -0.00000000000E+00 -0.00000000000E+00 -0.45593999997E+02  0.45594000000E+02  0.51100000000E-03 0.  1.
    9900012    2    1    2    0    0  0.96492034247E-01  0.11505113469E+01 -0.24463931233E+00  0.90007815495E+02  0.90000077860E+02 0.  0.
        -12    1    1    2    0    0 -0.96492034247E-01 -0.11505113469E+01  0.24463931233E+00  0.11801845047E+01  0.00000000000E+00 0.  1.
         11    1    3    3    0    0  0.69231114446E+01  0.26479075312E+01  0.30754104599E+01  0.80249010041E+01  0.51100000000E-03 0. -1.
        -11    1    3    3    0    0  0.30312735182E+02  0.79139921903E+01  0.19964205188E+02  0.37149194818E+02  0.51100000000E-03 0.  1.
         12    1    3    3    0    0 -0.37139354592E+02 -0.94113883746E+01 -0.23284254960E+02  0.44833719673E+02  0.00000000000E+00 0. -1.
</event>
<event>
 7    1  0.1716782E-015  0.9000776E+02  0.7816164E-02  0.1186339E+00
        -11   -1    0    0    0    0  0.00000000000E+00  0.00000000000E+00  0.45593999997E+02  0.45594000000E+02  0.51100000000E-03 0.  1.
         11   -1    0    0    0    0 -0.00000000000E+00 -0.00000000000E+00 -0.45593999997E+02  0.45594000000E+02  0.51100000000E-03 0. -1.
    9900012    2    1    2    0    0  0.19675337603E+00  0.98511776226E+00 -0.61951950925E+00  0.90007757093E+02  0.90000018687E+02 0.  0.
        -12    1    1    2    0    0 -0.19675337603E+00 -0.98511776226E+00  0.61951950925E+00  0.11802429067E+01  0.00000000000E+00 0.  1.
         11    1    3    3    0    0  0.95955464264E+00 -0.20223829325E+00  0.79297995889E+01  0.79902044542E+01  0.51100000000E-03 0. -1.
        -11    1    3    3    0    0 -0.27116817501E+02  0.30450043808E+02 -0.11953079654E+02  0.42490034982E+02  0.51100000000E-03 0.  1.
         12    1    3    3    0    0  0.26354016234E+02 -0.29262687753E+02  0.34037605557E+01  0.39527517657E+02  0.00000000000E+00 0. -1.
</event>
<event>
 7    1  0.1716782E-015  0.9000774E+02  0.7816164E-02  0.1186339E+00
        -11   -1    0    0    0    0  0.00000000000E+00  0.00000000000E+00  0.45593999997E+02  0.45594000000E+02  0.51100000000E-03 0.  1.
         11   -1    0    0    0    0 -0.00000000000E+00 -0.00000000000E+00 -0.45593999997E+02  0.45594000000E+02  0.51100000000E-03 0. -1.
    9900012    2    1    2    0    0  0.54345640262E-01 -0.11651121260E+01  0.18049720617E+00  0.90007737760E+02  0.89999999098E+02 0.  0.
        -12    1    1    2    0    0 -0.54345640262E-01  0.11651121260E+01 -0.18049720617E+00  0.11802622404E+01  0.00000000000E+00 0.  1.
         11    1    3    3    0    0 -0.46229554683E+00 -0.57824211787E+01 -0.84873711629E+01  0.10280349283E+02  0.51100000000E-03 0. -1.
        -11    1    3    3    0    0 -0.10599067611E+02 -0.18853457971E+02 -0.27634549306E+02  0.35092184704E+02  0.51100000000E-03 0.  1.
         12    1    3    3    0    0  0.11115708798E+02  0.23470767024E+02  0.36302417675E+02  0.44635203773E+02  0.00000000000E+00 0. -1.
</event>
<event>
 7    1  0.1943364E-015  0.9000753E+02  0.7816164E-02  0.1186339E+00
        -11   -1    0    0    0    0  0.00000000000E+00  0.00000000000E+00  0.45593999997E+02  0.45594000000E+02  0.51100000000E-03 0. -1.
         11   -1    0    0    0    0 -0.00000000000E+00 -0.00000000000E+00 -0.45593999997E+02  0.45594000000E+02  0.51100000000E-03 0.  1.
    9900012    2    1    2    0    0  0.76636478436E+00 -0.81304199016E+00  0.38099432643E+00  0.90007530205E+02  0.89999788803E+02 0.  0.
        -12    1    1    2    0    0 -0.76636478436E+00  0.81304199016E+00 -0.38099432643E+00  0.11804697951E+01  0.00000000000E+00 0.  1.
         11    1    3    3    0    0  0.15333423053E+01  0.21475382913E+02  0.31255855481E+02  0.37953546764E+02  0.51100000000E-03 0. -1.
        -11    1    3    3    0    0  0.64027862425E+01  0.67588081620E+01 -0.35749745757E+00  0.93169181670E+01  0.51100000000E-03 0.  1.
        -12    1    3    3    0    0 -0.71697637634E+01 -0.29047233065E+02 -0.30517363697E+02  0.42737065273E+02  0.00000000000E+00 0.  1.
</event>
<event>
 7    1  0.1716782E-015  0.9000772E+02  0.7816164E-02  0.1186339E+00
        -11   -1    0    0    0    0  0.00000000000E+00  0.00000000000E+00  0.45593999997E+02  0.45594000000E+02  0.51100000000E-03 0.  1.
         11   -1    0    0    0    0 -0.00000000000E+00 -0.00000000000E+00 -0.45593999997E+02  0.45594000000E+02  0.51100000000E-03 0. -1.
    9900012    2    1    2    0    0  0.43836959342E+00  0.10676846827E+00 -0.10906418173E+01  0.90007717415E+02  0.89999978485E+02 0.  0.
        -12    1    1    2    0    0 -0.43836959342E+00 -0.10676846827E+00  0.10906418173E+01  0.11802825847E+01  0.00000000000E+00 0.  1.
         11    1    3    3    0    0  0.49533745170E+01 -0.74805260179E+01  0.82041091741E+00  0.90092875936E+01  0.51100000000E-03 0. -1.
        -11    1    3    3    0    0 -0.33996095572E+00  0.43991159746E+02  0.26551339420E+01  0.44072524840E+02  0.51100000000E-03 0.  1.
         12    1    3    3    0    0 -0.41750439678E+01 -0.36403865260E+02 -0.45661866767E+01  0.36925904982E+02  0.00000000000E+00 0. -1.
</event>
<event>
 7    1  0.1716782E-015  0.9000775E+02  0.7816164E-02  0.1186339E+00
        -11   -1    0    0    0    0  0.00000000000E+00  0.00000000000E+00  0.45593999997E+02  0.45594000000E+02  0.51100000000E-03 0.  1.
         11   -1    0    0    0    0 -0.00000000000E+00 -0.00000000000E+00 -0.45593999997E+02  0.45594000000E+02  0.51100000000E-03 0. -1.
    9900012    2    1    2    0    0  0.41350324571E+00  0.75430609862E+00 -0.80809645872E+00  0.90007753199E+02  0.90000014741E+02 0.  0.
        -12    1    1    2    0    0 -0.41350324571E+00 -0.75430609862E+00  0.80809645872E+00  0.11802468010E+01  0.00000000000E+00 0.  1.
         11    1    3    3    0    0  0.11268871118E+02 -0.37462399073E+00  0.24300054506E+01  0.11533981367E+02  0.51100000000E-03 0. -1.
        -11    1    3    3    0    0  0.14662418460E+02 -0.19355614852E+02  0.25291006892E+02  0.35060823882E+02  0.51100000000E-03 0.  1.
         12    1    3    3    0    0 -0.25517786333E+02  0.20484544941E+02 -0.28529108801E+02  0.43412947951E+02  0.00000000000E+00 0. -1.
</event>
<event>
 7    1  0.1716782E-015  0.9000796E+02  0.7816164E-02  0.1186339E+00
        -11   -1    0    0    0    0  0.00000000000E+00  0.00000000000E+00  0.45593999997E+02  0.45594000000E+02  0.51100000000E-03 0.  1.
         11   -1    0    0    0    0 -0.00000000000E+00 -0.00000000000E+00 -0.45593999997E+02  0.45594000000E+02  0.51100000000E-03 0. -1.
    9900012    2    1    2    0    0 -0.73518735201E+00  0.31853334378E+00 -0.86633092454E+00  0.90007960507E+02  0.90000224786E+02 0.  0.
        -12    1    1    2    0    0  0.73518735201E+00 -0.31853334378E+00  0.86633092454E+00  0.11800394928E+01  0.00000000000E+00 0.  1.
         11    1    3    3    0    0 -0.37304750005E+02 -0.79372622663E+01 -0.19112607223E+02  0.42660710968E+02  0.51100000000E-03 0. -1.
        -11    1    3    3    0    0  0.74576067349E+01  0.16374448452E+01 -0.53251561090E+01  0.93088351409E+01  0.51100000000E-03 0.  1.
        -12    1    3    3    0    0  0.29111955918E+02  0.66183507649E+01  0.23571432407E+02  0.38038414398E+02  0.00000000000E+00 0.  1.
</event>
<event>
 7    1  0.1716782E-015  0.9000767E+02  0.7816164E-02  0.1186339E+00
        -11   -1    0    0    0    0  0.00000000000E+00  0.00000000000E+00  0.45593999997E+02  0.45594000000E+02  0.51100000000E-03 0. -1.
         11   -1    0    0    0    0 -0.00000000000E+00 -0.00000000000E+00 -0.45593999997E+02  0.45594000000E+02  0.51100000000E-03 0.  1.
    9900012    2    1    2    0    0 -0.91874467066E+00  0.51795702752E+00 -0.52992321013E+00  0.90007665361E+02  0.89999925743E+02 0.  0.
        -12    1    1    2    0    0  0.91874467066E+00 -0.51795702752E+00  0.52992321013E+00  0.11803346394E+01  0.00000000000E+00 0.  1.
         11    1    3    3    0    0  0.99095870653E+00  0.54481990291E+01 -0.44832091267E+01  0.71248885011E+01  0.51100000000E-03 0. -1.
        -11    1    3    3    0    0  0.15344847705E+02  0.21556722675E+01 -0.35778750433E+02  0.38990130248E+02  0.51100000000E-03 0.  1.
         12    1    3    3    0    0 -0.17254551082E+02 -0.70859142690E+01  0.39732036349E+02  0.43892646611E+02  0.00000000000E+00 0. -1.
</event>
<event>
 7    1  0.1716782E-015  0.9000773E+02  0.7816164E-02  0.1186339E+00
        -11   -1    0    0    0    0  0.00000000000E+00  0.00000000000E+00  0.45593999997E+02  0.45594000000E+02  0.51100000000E-03 0. -1.
         11   -1    0    0    0    0 -0.00000000000E+00 -0.00000000000E+00 -0.45593999997E+02  0.45594000000E+02  0.51100000000E-03 0.  1.
    9900012    2    1    2    0    0 -0.72327750277E-01  0.55262088696E+00  0.10403940977E+01  0.90007728410E+02  0.89999989625E+02 0.  0.
        -12    1    1    2    0    0  0.72327750277E-01 -0.55262088696E+00 -0.10403940977E+01  0.11802715903E+01  0.00000000000E+00 0.  1.
         11    1    3    3    0    0 -0.79826781826E+01 -0.58275757061E+01  0.70408295033E+01  0.12134952408E+02  0.51100000000E-03 0. -1.
        -11    1    3    3    0    0 -0.82402092901E+01 -0.33108451722E+02 -0.84145723431E+01  0.35140797552E+02  0.51100000000E-03 0.  1.
         12    1    3    3    0    0  0.16150559723E+02  0.39488648315E+02  0.24141369376E+01  0.42731978450E+02  0.00000000000E+00 0. -1.
</event>
<event>
 7    1  0.1716782E-015  0.9000769E+02  0.7816164E-02  0.1186339E+00
        -11   -1    0    0    0    0  0.00000000000E+00  0.00000000000E+00  0.45593999997E+02  0.45594000000E+02  0.51100000000E-03 0. -1.
         11   -1    0    0    0    0 -0.00000000000E+00 -0.00000000000E+00 -0.45593999997E+02  0.45594000000E+02  0.51100000000E-03 0.  1.
    9900012    2    1    2    0    0 -0.20567069165E+00 -0.11609293741E+01  0.55518412093E-01  0.90007686593E+02  0.89999947256E+02 0.  0.
        -12    1    1    2    0    0  0.20567069165E+00  0.11609293741E+01 -0.55518412093E-01  0.11803134071E+01  0.00000000000E+00 0.  1.
         11    1    3    3    0    0 -0.23012635549E+01 -0.42964646972E+01  0.37678936544E+02  0.37992863569E+02  0.51100000000E-03 0. -1.
        -11    1    3    3    0    0 -0.16142978336E+01 -0.93860756513E+01  0.24775602827E+01  0.98408677891E+01  0.51100000000E-03 0.  1.
        -12    1    3    3    0    0  0.37098906968E+01  0.12521610974E+02 -0.40100978414E+02  0.42173955235E+02  0.00000000000E+00 0.  1.
</event>
<event>
 7    1  0.1716782E-015  0.9000784E+02  0.7816164E-02  0.1186339E+00
        -11   -1    0    0    0    0  0.00000000000E+00  0.00000000000E+00  0.45593999997E+02  0.45594000000E+02  0.51100000000E-03 0.  1.
         11   -1    0    0    0    0 -0.00000000000E+00 -0.00000000000E+00 -0.45593999997E+02  0.45594000000E+02  0.51100000000E-03 0. -1.
    9900012    2    1    2    0    0 -0.80524661393E+00  0.78427664193E-01 -0.85919428779E+00  0.90007835676E+02  0.90000098307E+02 0.  0.
        -12    1    1    2    0    0  0.80524661393E+00 -0.78427664193E-01  0.85919428779E+00  0.11801643241E+01  0.00000000000E+00 0.  1.
         11    1    3    3    0    0 -0.93625760657E+01 -0.15510437533E+01 -0.36519984464E+00  0.94972068788E+01  0.51100000000E-03 0. -1.
        -11    1    3    3    0    0  0.41031064816E+02  0.18382074757E+01 -0.16553124314E+02  0.44282425537E+02  0.51100000000E-03 0.  1.
         12    1    3    3    0    0 -0.32473735364E+02 -0.20873605816E+00  0.16059129871E+02  0.36228203260E+02  0.00000000000E+00 0. -1.
</event>
<event>
 7    1  0.1716782E-015  0.9000772E+02  0.7816164E-02  0.1186339E+00
        -11   -1    0    0    0    0  0.00000000000E+00  0.00000000000E+00  0.45593999997E+02  0.45594000000E+02  0.51100000000E-03 0.  1.
         11   -1    0    0    0    0 -0.00000000000E+00 -0.00000000000E+00 -0.45593999997E+02  0.45594000000E+02  0.51100000000E-03 0. -1.
    9900012    2    1    2    0    0 -0.25620401765E+00  0.10663900508E+01 -0.43616602845E+00  0.90007716541E+02  0.89999977599E+02 0.  0.
        -12    1    1    2    0    0  0.25620401765E+00 -0.10663900508E+01  0.43616602845E+00  0.11802834590E+01  0.00000000000E+00 0.  1.
         11    1    3    3    0    0  0.41352013526E+01 -0.31526749238E+01 -0.17573112903E+01  0.54888425587E+01  0.51100000000E-03 0. -1.
        -11    1    3    3    0    0  0.28446812688E+02 -0.26966453417E+02  0.16334831153E+01  0.39231097734E+02  0.51100000000E-03 0.  1.
         12    1    3    3    0    0 -0.32838218059E+02  0.31185518392E+02 -0.31233785341E+00  0.45287776249E+02  0.00000000000E+00 0. -1.
</event>
<event>
 7    1  0.1716782E-015  0.9000772E+02  0.7816164E-02  0.1186339E+00
        -11   -1    0    0    0    0  0.00000000000E+00  0.00000000000E+00  0.45593999997E+02  0.45594000000E+02  0.51100000000E-03 0.  1.
         11   -1    0    0    0    0 -0.00000000000E+00 -0.00000000000E+00 -0.45593999997E+02  0.45594000000E+02  0.51100000000E-03 0. -1.
    9900012    2    1    2    0    0 -0.10347968940E+01  0.55020217016E+00  0.13978510248E+00  0.90007717443E+02  0.89999978513E+02 0.  0.
        -12    1    1    2    0    0  0.10347968940E+01 -0.55020217016E+00 -0.13978510248E+00  0.11802825572E+01  0.00000000000E+00 0.  1.
         11    1    3    3    0    0 -0.33185589171E+02  0.25864938165E+01 -0.20567947533E+02  0.39128170733E+02  0.51100000000E-03 0. -1.
        -11    1    3    3    0    0 -0.51611102825E+01  0.61965897091E+01  0.18678164203E+01  0.82778935613E+01  0.51100000000E-03 0.  1.
        -12    1    3    3    0    0  0.37311902560E+02 -0.82328813554E+01  0.18839916215E+02  0.42601653149E+02  0.00000000000E+00 0.  1.
</event>
<event>
 7    1  0.1716782E-015  0.9000774E+02  0.7816164E-02  0.1186339E+00
        -11   -1    0    0    0    0  0.00000000000E+00  0.00000000000E+00  0.45593999997E+02  0.45594000000E+02  0.51100000000E-03 0.  1.
         11   -1    0    0    0    0 -0.00000000000E+00 -0.00000000000E+00 -0.45593999997E+02  0.45594000000E+02  0.51100000000E-03 0. -1.
    9900012    2    1    2    0    0 -0.18552492198E+00 -0.88413551851E+00 -0.75953168823E+00  0.90007744309E+02  0.90000005733E+02 0.  0.
        -12    1    1    2    0    0  0.18552492198E+00  0.88413551851E+00  0.75953168823E+00  0.11802556914E+01  0.00000000000E+00 0.  1.
         11    1    3    3    0    0 -0.49654235940E+01 -0.68387153464E+01 -0.33964624026E+01  0.91082059798E+01  0.51100000000E-03 0. -1.
        -11    1    3    3    0    0 -0.30118895636E+02  0.26455540852E+02 -0.21325061614E+01  0.40144627273E+02  0.51100000000E-03 0.  1.
         12    1    3    3    0    0  0.34898794308E+02 -0.20500961024E+02  0.47694368758E+01  0.40754911056E+02  0.00000000000E+00 0. -1.
</event>
<event>
 7    1  0.1716782E-015  0.9000761E+02  0.7816164E-02  0.1186339E+00
        -11   -1    0    0    0    0  0.00000000000E+00  0.00000000000E+00  0.45593999997E+02  0.45594000000E+02  0.51100000000E-03 0.  1.
         11   -1    0    0    0    0 -0.00000000000E+00 -0.00000000000E+00 -0.45593999997E+02  0.45594000000E+02  0.51100000000E-03 0. -1.
    9900012    2    1    2    0    0 -0.25649217950E-01  0.63282514564E+00 -0.99608731703E+00  0.90007612144E+02  0.89999871824E+02 0.  0.
        -12    1    1    2    0    0  0.25649217950E-01 -0.63282514564E+00  0.99608731703E+00  0.11803878560E+01  0.00000000000E+00 0.  1.
         11    1    3    3    0    0  0.30225383251E+01  0.17821554737E+02 -0.37587652941E+02  0.41708215078E+02  0.51100000000E-03 0. -1.
        -11    1    3    3    0    0  0.19171846817E+01  0.66818092009E+01  0.60186087814E+01  0.91948802725E+01  0.51100000000E-03 0.  1.
        -12    1    3    3    0    0 -0.49653722248E+01 -0.23870538792E+02  0.30572956842E+02  0.39104516793E+02  0.00000000000E+00 0.  1.
</event>
<event>
 7    1  0.1716782E-015  0.9000771E+02  0.7816164E-02  0.1186339E+00
        -11   -1    0    0    0    0  0.00000000000E+00  0.00000000000E+00  0.45593999997E+02  0.45594000000E+02  0.51100000000E-03 0. -1.
         11   -1    0    0    0    0 -0.00000000000E+00 -0.00000000000E+00 -0.45593999997E+02  0.45594000000E+02  0.51100000000E-03 0.  1.
    9900012    2    1    2    0    0 -0.83646371647E+00 -0.35543486414E+00  0.75304651021E+00  0.90007709977E+02  0.89999970949E+02 0.  0.
        -12    1    1    2    0    0  0.83646371647E+00  0.35543486414E+00 -0.75304651021E+00  0.11802900229E+01  0.00000000000E+00 0.  1.
         11    1    3    3    0    0  0.96553054079E+01  0.51190286799E+00 -0.24774779788E+00  0.96720394074E+01  0.51100000000E-03 0. -1.
        -11    1    3    3    0    0  0.50554712285E+01 -0.12183983381E+02 -0.36161786805E+02  0.38492623521E+02  0.51100000000E-03 0.  1.
         12    1    3    3    0    0 -0.15547240353E+02  0.11316645649E+02  0.37162581113E+02  0.41843047048E+02  0.00000000000E+00 0. -1.
</event>
<event>
 7    1  0.1716782E-015  0.9000760E+02  0.7816164E-02  0.1186339E+00
        -11   -1    0    0    0    0  0.00000000000E+00  0.00000000000E+00  0.45593999997E+02  0.45594000000E+02  0.51100000000E-03 0. -1.
         11   -1    0    0    0    0 -0.00000000000E+00 -0.00000000000E+00 -0.45593999997E+02  0.45594000000E+02  0.51100000000E-03 0.  1.
    9900012    2    1    2    0    0 -0.61239674702E+00 -0.97021755075E+00  0.27746213653E+00  0.90007602987E+02  0.89999862546E+02 0.  0.
        -12    1    1    2    0    0  0.61239674702E+00  0.97021755075E+00 -0.27746213653E+00  0.11803970132E+01  0.00000000000E+00 0.  1.
         11    1    3    3    0    0 -0.28089606909E+02  0.27117491073E+02 -0.81217591598E+01  0.39879158849E+02  0.51100000000E-03 0. -1.
        -11    1    3    3    0    0 -0.53753471875E+01 -0.21512565973E+01  0.57934615553E+01  0.81906324168E+01  0.51100000000E-03 0.  1.
        -12    1    3    3    0    0  0.32852557349E+02 -0.25936452027E+02  0.26057597410E+01  0.41937811721E+02  0.00000000000E+00 0.  1.
</event>
<event>
 7    1  0.1716782E-015  0.9000803E+02  0.7816164E-02  0.1186338E+00
        -11   -1    0    0    0    0  0.00000000000E+00  0.00000000000E+00  0.45593999997E+02  0.45594000000E+02  0.51100000000E-03 0. -1.
         11   -1    0    0    0    0 -0.00000000000E+00 -0.00000000000E+00 -0.45593999997E+02  0.45594000000E+02  0.51100000000E-03 0.  1.
    9900012    2    1    2    0    0  0.66582306264E+00  0.48409471968E+00  0.84538013684E+00  0.90008027278E+02  0.90000292438E+02 0.  0.
        -12    1    1    2    0    0 -0.66582306264E+00 -0.48409471968E+00 -0.84538013684E+00  0.11799727218E+01  0.00000000000E+00 0.  1.
         11    1    3    3    0    0 -0.12473530053E+02 -0.31694540041E+02  0.20420296036E+02  0.39712986678E+02  0.51100000000E-03 0. -1.
        -11    1    3    3    0    0  0.58919887755E+01  0.28548042176E+01  0.73411734728E+01  0.98365780163E+01  0.51100000000E-03 0.  1.
        -12    1    3    3    0    0  0.72473643398E+01  0.29323830543E+02 -0.26916089372E+02  0.40458462584E+02  0.00000000000E+00 0.  1.
</event>
<event>
 7    1  0.1716782E-015  0.9000773E+02  0.7816164E-02  0.1186339E+00
        -11   -1    0    0    0    0  0.00000000000E+00  0.00000000000E+00  0.45593999997E+02  0.45594000000E+02  0.51100000000E-03 0.  1.
         11   -1    0    0    0    0 -0.00000000000E+00 -0.00000000000E+00 -0.45593999997E+02  0.45594000000E+02  0.51100000000E-03 0. -1.
    9900012    2    1    2    0    0 -0.10290398771E+01 -0.31675952045E+00  0.48351539204E+00  0.90007725965E+02  0.89999987148E+02 0.  0.
        -12    1    1    2    0    0  0.10290398771E+01  0.31675952045E+00 -0.48351539204E+00  0.11802740346E+01  0.00000000000E+00 0.  1.
         11    1    3    3    0    0  0.11952519057E+02 -0.23499647860E+01  0.31632154715E+01  0.12585347777E+02  0.51100000000E-03 0. -1.
        -11    1    3    3    0    0 -0.25153495818E+02  0.74327955918E+01  0.31353039249E+02  0.40877351585E+02  0.51100000000E-03 0.  1.
         12    1    3    3    0    0  0.12171936884E+02 -0.53995903262E+01 -0.34032739329E+02  0.36545026603E+02  0.00000000000E+00 0. -1.
</event>
<event>
 7    1  0.1716782E-015  0.9000774E+02  0.7816164E-02  0.1186339E+00
        -11   -1    0    0    0    0  0.00000000000E+00  0.00000000000E+00  0.45593999997E+02  0.45594000000E+02  0.51100000000E-03 0.  1.
         11   -1    0    0    0    0 -0.00000000000E+00 -0.00000000000E+00 -0.45593999997E+02  0.45594000000E+02  0.51100000000E-03 0. -1.
    9900012    2    1    2    0    0  0.34379825589E-01  0.28112022130E+00 -0.11457810123E+01  0.90007735335E+02  0.89999996641E+02 0.  0.
        -12    1    1    2    0    0 -0.34379825589E-01 -0.28112022130E+00  0.11457810123E+01  0.11802646649E+01  0.00000000000E+00 0.  1.
         11    1    3    3    0    0  0.60586969025E+00 -0.13424746594E+02  0.94059816460E+00  0.13471288890E+02  0.51100000000E-03 0. -1.
        -11    1    3    3    0    0 -0.25647106039E+02  0.84200839984E+00 -0.28191229422E+02  0.38121233492E+02  0.51100000000E-03 0.  1.
         12    1    3    3    0    0  0.25075616174E+02  0.12863858416E+02  0.26104850246E+02  0.38415212953E+02  0.00000000000E+00 0. -1.
</event>
<event>
 7    1  0.1716782E-015  0.9000775E+02  0.7816164E-02  0.1186339E+00
        -11   -1    0    0    0    0  0.00000000000E+00  0.00000000000E+00  0.45593999997E+02  0.45594000000E+02  0.51100000000E-03 0.  1.
         11   -1    0    0    0    0 -0.00000000000E+00 -0.00000000000E+00 -0.45593999997E+02  0.45594000000E+02  0.51100000000E-03 0. -1.
    9900012    2    1    2    0    0  0.66913826199E+00  0.51600087882E+00 -0.82400621049E+00  0.90007750384E+02  0.90000011889E+02 0.  0.
        -12    1    1    2    0    0 -0.66913826199E+00 -0.51600087882E+00  0.82400621049E+00  0.11802496158E+01  0.00000000000E+00 0.  1.
         11    1    3    3    0    0  0.12380589564E+02  0.31393802174E+01  0.59714093347E+01  0.14099377142E+02  0.51100000000E-03 0. -1.
        -11    1    3    3    0    0 -0.62973687144E+01  0.14962184310E+02  0.30370664854E+02  0.34436914728E+02  0.51100000000E-03 0.  1.
         12    1    3    3    0    0 -0.54140825873E+01 -0.17585563648E+02 -0.37166080399E+02  0.41471458514E+02  0.00000000000E+00 0. -1.
</event>
<event>
 7    1  0.1716782E-015  0.9000756E+02  0.7816164E-02  0.1186339E+00
        -11   -1    0    0    0    0  0.00000000000E+00  0.00000000000E+00  0.45593999997E+02  0.45594000000E+02  0.51100000000E-03 0.  1.
         11   -1    0    0    0    0 -0.00000000000E+00 -0.00000000000E+00 -0.45593999997E+02  0.45594000000E+02  0.51100000000E-03 0. -1.
    9900012    2    1    2    0    0  0.77894999096E+00 -0.47860760556E+00 -0.74672827882E+00  0.90007563025E+02  0.89999822057E+02 0.  0.
        -12    1    1    2    0    0 -0.77894999096E+00  0.47860760556E+00  0.74672827882E+00  0.11804369746E+01  0.00000000000E+00 0.  1.
         11    1    3    3    0    0 -0.41154279721E+01 -0.31329350770E+02 -0.22154221159E+02  0.38591119218E+02  0.51100000000E-03 0. -1.
        -11    1    3    3    0    0 -0.82192893087E+01 -0.21136810581E+01 -0.22438567656E+01  0.87783402646E+01  0.51100000000E-03 0.  1.
        -12    1    3    3    0    0  0.13113667272E+02  0.32964424223E+02  0.23651349646E+02  0.42638103543E+02  0.00000000000E+00 0.  1.
</event>
<event>
 7    1  0.1901624E-015  0.9000773E+02  0.7816164E-02  0.1186339E+00
        -11   -1    0    0    0    0  0.00000000000E+00  0.00000000000E+00  0.45593999997E+02  0.45594000000E+02  0.51100000000E-03 0. -1.
         11   -1    0    0    0    0 -0.00000000000E+00 -0.00000000000E+00 -0.45593999997E+02  0.45594000000E+02  0.51100000000E-03 0.  1.
    9900012    2    1    2    0    0 -0.84572206371E+00  0.47379157620E+00  0.67329059864E+00  0.90007726940E+02  0.89999988135E+02 0.  0.
        -12    1    1    2    0    0  0.84572206371E+00 -0.47379157620E+00 -0.67329059864E+00  0.11802730603E+01  0.00000000000E+00 0.  1.
         11    1    3    3    0    0 -0.53033019547E+01 -0.11234115625E+02  0.36909674510E+02  0.38944247819E+02  0.51100000000E-03 0. -1.
        -11    1    3    3    0    0 -0.96222022865E+01  0.37108040349E+01  0.10957045606E+01  0.10370988968E+02  0.51100000000E-03 0.  1.
        -12    1    3    3    0    0  0.14079782177E+02  0.79971031662E+01 -0.37332088472E+02  0.40692490153E+02  0.00000000000E+00 0.  1.
</event>
<event>
 7    1  0.1716782E-015  0.9000778E+02  0.7816164E-02  0.1186339E+00
        -11   -1    0    0    0    0  0.00000000000E+00  0.00000000000E+00  0.45593999997E+02  0.45594000000E+02  0.51100000000E-03 0. -1.
         11   -1    0    0    0    0 -0.00000000000E+00 -0.00000000000E+00 -0.45593999997E+02  0.45594000000E+02  0.51100000000E-03 0.  1.
    9900012    2    1    2    0    0 -0.11447532862E+01 -0.81487397445E-01  0.27535592488E+00  0.90007779187E+02  0.90000041072E+02 0.  0.
        -12    1    1    2    0    0  0.11447532862E+01  0.81487397445E-01 -0.27535592488E+00  0.11802208130E+01  0.00000000000E+00 0.  1.
         11    1    3    3    0    0 -0.99200907283E+00  0.25604623446E+00 -0.88919359184E+01  0.89507634486E+01  0.51100000000E-03 0. -1.
        -11    1    3    3    0    0 -0.40187646375E+02 -0.27756514649E+01  0.70201808093E+01  0.40890513583E+02  0.51100000000E-03 0.  1.
         12    1    3    3    0    0  0.40034902161E+02  0.24381178330E+01  0.21471110339E+01  0.40166502156E+02  0.00000000000E+00 0. -1.
</event>
<event>
 7    1  0.1716782E-015  0.9000767E+02  0.7816164E-02  0.1186339E+00
        -11   -1    0    0    0    0  0.00000000000E+00  0.00000000000E+00  0.45593999997E+02  0.45594000000E+02  0.51100000000E-03 0.  1.
         11   -1    0    0    0    0 -0.00000000000E+00 -0.00000000000E+00 -0.45593999997E+02  0.45594000000E+02  0.51100000000E-03 0. -1.
    9900012    2    1    2    0    0  0.40992511685E+00 -0.77084636656E+00 -0.79431013701E+00  0.90007673216E+02  0.89999933703E+02 0.  0.
        -12    1    1    2    0    0 -0.40992511685E+00  0.77084636656E+00  0.79431013701E+00  0.11803267836E+01  0.00000000000E+00 0.  1.
         11    1    3    3    0    0 -0.77060930631E+01  0.25751619906E+01 -0.47832180492E+01  0.94283882367E+01  0.51100000000E-03 0. -1.
        -11    1    3    3    0    0  0.38450121660E+02 -0.13942832488E+02 -0.14635911384E+02  0.43439893367E+02  0.51100000000E-03 0.  1.
         12    1    3    3    0    0 -0.30334103480E+02  0.10596824130E+02  0.18624819296E+02  0.37139391613E+02  0.00000000000E+00 0. -1.
</event>
<event>
 7    1  0.1716782E-015  0.9000775E+02  0.7816164E-02  0.1186339E+00
        -11   -1    0    0    0    0  0.00000000000E+00  0.00000000000E+00  0.45593999997E+02  0.45594000000E+02  0.51100000000E-03 0.  1.
         11   -1    0    0    0    0 -0.00000000000E+00 -0.00000000000E+00 -0.45593999997E+02  0.45594000000E+02  0.51100000000E-03 0. -1.
    9900012    2    1    2    0    0 -0.11956287400E+00  0.69542426574E+00 -0.94608687967E+00  0.90007749783E+02  0.90000011280E+02 0.  0.
        -12    1    1    2    0    0  0.11956287400E+00 -0.69542426574E+00  0.94608687967E+00  0.11802502167E+01  0.00000000000E+00 0.  1.
         11    1    3    3    0    0  0.37255005182E+02  0.10193006438E+02  0.26010003214E+00  0.38625127102E+02  0.51100000000E-03 0. -1.
        -11    1    3    3    0    0  0.61527197520E+01 -0.15337368745E+01  0.28404846836E+01  0.69481409489E+01  0.51100000000E-03 0.  1.
        -12    1    3    3    0    0 -0.43527287808E+02 -0.79638452975E+01 -0.40466715954E+01  0.44434481733E+02  0.00000000000E+00 0.  1.
</event>
<event>
 7    1  0.1716782E-015  0.9000777E+02  0.7816164E-02  0.1186339E+00
        -11   -1    0    0    0    0  0.00000000000E+00  0.00000000000E+00  0.45593999997E+02  0.45594000000E+02  0.51100000000E-03 0.  1.
         11   -1    0    0    0    0 -0.00000000000E+00 -0.00000000000E+00 -0.45593999997E+02  0.45594000000E+02  0.51100000000E-03 0. -1.
    9900012    2    1    2    0    0 -0.35581425172E+00  0.14605033508E+00 -0.11158010886E+01  0.90007768433E+02  0.90000030176E+02 0.  0.
        -12    1    1    2    0    0  0.35581425172E+00 -0.14605033508E+00  0.11158010886E+01  0.11802315669E+01  0.00000000000E+00 0.  1.
         11    1    3    3    0    0  0.89833700316E+01  0.31697054390E+01  0.11414125680E+01  0.95943104289E+01  0.51100000000E-03 0. -1.
        -11    1    3    3    0    0  0.21908815461E+02  0.27578938864E+02  0.64766941503E+01  0.35812590399E+02  0.51100000000E-03 0.  1.
         12    1    3    3    0    0 -0.31247999744E+02 -0.30602593967E+02 -0.87339078069E+01  0.44600867605E+02  0.00000000000E+00 0. -1.
</event>
<event>
 7    1  0.1716782E-015  0.9000771E+02  0.7816164E-02  0.1186339E+00
        -11   -1    0    0    0    0  0.00000000000E+00  0.00000000000E+00  0.45593999997E+02  0.45594000000E+02  0.51100000000E-03 0. -1.
         11   -1    0    0    0    0 -0.00000000000E+00 -0.00000000000E+00 -0.45593999997E+02  0.45594000000E+02  0.51100000000E-03 0.  1.
    9900012    2    1    2    0    0 -0.11193732127E+01  0.14124777798E+00 -0.34660459586E+00  0.90007711023E+02  0.89999972008E+02 0.  0.
        -12    1    1    2    0    0  0.11193732127E+01 -0.14124777798E+00  0.34660459586E+00  0.11802889773E+01  0.00000000000E+00 0.  1.
         11    1    3    3    0    0 -0.33092438945E+02  0.19472920050E+01 -0.20263527679E+02  0.38852438993E+02  0.51100000000E-03 0. -1.
        -11    1    3    3    0    0 -0.47260266601E+01 -0.85760023498E+01  0.37483099534E+01  0.10484892563E+02  0.51100000000E-03 0.  1.
        -12    1    3    3    0    0  0.36699092392E+02  0.67699581229E+01  0.16168613130E+02  0.40670379466E+02  0.00000000000E+00 0.  1.
</event>
<event>
 7    1  0.1716782E-015  0.9000776E+02  0.7816164E-02  0.1186339E+00
        -11   -1    0    0    0    0  0.00000000000E+00  0.00000000000E+00  0.45593999997E+02  0.45594000000E+02  0.51100000000E-03 0. -1.
         11   -1    0    0    0    0 -0.00000000000E+00 -0.00000000000E+00 -0.45593999997E+02  0.45594000000E+02  0.51100000000E-03 0.  1.
    9900012    2    1    2    0    0 -0.77356743967E+00  0.81095364779E+00 -0.37000421031E+00  0.90007764634E+02  0.90000026328E+02 0.  0.
        -12    1    1    2    0    0  0.77356743967E+00 -0.81095364779E+00  0.37000421031E+00  0.11802353656E+01  0.00000000000E+00 0.  1.
         11    1    3    3    0    0 -0.12415956798E+01 -0.33307369834E+01 -0.91489147080E+01  0.98151927786E+01  0.51100000000E-03 0. -1.
        -11    1    3    3    0    0  0.60047510676E-02 -0.36560718630E+02  0.14009329006E+02  0.39152873232E+02  0.51100000000E-03 0.  1.
         12    1    3    3    0    0  0.46202348903E+00  0.40702409262E+02 -0.52304185084E+01  0.41039698624E+02  0.00000000000E+00 0. -1.
</event>
<event>
 7    1  0.1716782E-015  0.9000781E+02  0.7816164E-02  0.1186339E+00
        -11   -1    0    0    0    0  0.00000000000E+00  0.00000000000E+00  0.45593999997E+02  0.45594000000E+02  0.51100000000E-03 0. -1.
         11   -1    0    0    0    0 -0.00000000000E+00 -0.00000000000E+00 -0.45593999997E+02  0.45594000000E+02  0.51100000000E-03 0.  1.
    9900012    2    1    2    0    0  0.66131432501E+00 -0.67519683899E+00  0.70684383668E+00  0.90007806958E+02  0.90000069209E+02 0.  0.
        -12    1    1    2    0    0 -0.66131432501E+00  0.67519683899E+00 -0.70684383668E+00  0.11801930424E+01  0.00000000000E+00 0.  1.
         11    1    3    3    0    0  0.10198507378E+01 -0.11417863116E+02  0.68504858957E+01  0.13354282120E+02  0.51100000000E-03 0. -1.
        -11    1    3    3    0    0 -0.16940403693E+02 -0.46476177209E+01 -0.35489803123E+02  0.39599289813E+02  0.51100000000E-03 0.  1.
         12    1    3    3    0    0  0.16581867280E+02  0.15390283998E+02  0.29346161064E+02  0.37054235024E+02  0.00000000000E+00 0. -1.
</event>
<event>
 7    1  0.1716782E-015  0.9000770E+02  0.7816164E-02  0.1186339E+00
        -11   -1    0    0    0    0  0.00000000000E+00  0.00000000000E+00  0.45593999997E+02  0.45594000000E+02  0.51100000000E-03 0.  1.
         11   -1    0    0    0    0 -0.00000000000E+00 -0.00000000000E+00 -0.45593999997E+02  0.45594000000E+02  0.51100000000E-03 0. -1.
    9900012    2    1    2    0    0  0.45094570397E+00 -0.89044024896E+00  0.62997658855E+00  0.90007700730E+02  0.89999961580E+02 0.  0.
        -12    1    1    2    0    0 -0.45094570397E+00  0.89044024896E+00 -0.62997658855E+00  0.11802992701E+01  0.00000000000E+00 0.  1.
         11    1    3    3    0    0 -0.10144224572E+02  0.56869098502E+00 -0.62384711657E+01  0.11922551084E+02  0.51100000000E-03 0. -1.
        -11    1    3    3    0    0  0.13379568223E+02  0.12968245234E+02 -0.31723340964E+02  0.36790740580E+02  0.51100000000E-03 0.  1.
         12    1    3    3    0    0 -0.27843979472E+01 -0.14427376468E+02  0.38591788718E+02  0.41294409066E+02  0.00000000000E+00 0. -1.
</event>
<event>
 7    1  0.1716782E-015  0.9000760E+02  0.7816164E-02  0.1186339E+00
        -11   -1    0    0    0    0  0.00000000000E+00  0.00000000000E+00  0.45593999997E+02  0.45594000000E+02  0.51100000000E-03 0. -1.
         11   -1    0    0    0    0 -0.00000000000E+00 -0.00000000000E+00 -0.45593999997E+02  0.45594000000E+02  0.51100000000E-03 0.  1.
    9900012    2    1    2    0    0 -0.10303917678E+01  0.42615268840E+00 -0.38734948527E+00  0.90007596284E+02  0.89999855755E+02 0.  0.
        -12    1    1    2    0    0  0.10303917678E+01 -0.42615268840E+00  0.38734948527E+00  0.11804037160E+01  0.00000000000E+00 0.  1.
         11    1    3    3    0    0  0.49125059941E+01 -0.10359389364E+01  0.67681570616E+01  0.84269706830E+01  0.51100000000E-03 0. -1.
        -11    1    3    3    0    0  0.42767217886E+01 -0.25588187101E+02 -0.33562837807E+02  0.42420628829E+02  0.51100000000E-03 0.  1.
         12    1    3    3    0    0 -0.10219619550E+02  0.27050278726E+02  0.26407331260E+02  0.39159996772E+02  0.00000000000E+00 0. -1.
</event>
<event>
 7    1  0.1716782E-015  0.9000779E+02  0.7816164E-02  0.1186339E+00
        -11   -1    0    0    0    0  0.00000000000E+00  0.00000000000E+00  0.45593999997E+02  0.45594000000E+02  0.51100000000E-03 0.  1.
         11   -1    0    0    0    0 -0.00000000000E+00 -0.00000000000E+00 -0.45593999997E+02  0.45594000000E+02  0.51100000000E-03 0. -1.
    9900012    2    1    2    0    0 -0.30049978011E+00  0.83921709159E+00 -0.77350402796E+00  0.90007790728E+02  0.90000052765E+02 0.  0.
        -12    1    1    2    0    0  0.30049978011E+00 -0.83921709159E+00  0.77350402796E+00  0.11802092721E+01  0.00000000000E+00 0.  1.
         11    1    3    3    0    0  0.23647271288E+01  0.89418843475E+01  0.17633833355E+01  0.94158776079E+01  0.51100000000E-03 0. -1.
        -11    1    3    3    0    0  0.51692277270E+01  0.33687531765E+02 -0.13540201198E+02  0.36672984069E+02  0.51100000000E-03 0.  1.
         12    1    3    3    0    0 -0.78344546359E+01 -0.41790199021E+02  0.11003313835E+02  0.43918929052E+02  0.00000000000E+00 0. -1.
</event>
<event>
 7    1  0.1716782E-015  0.9000769E+02  0.7816164E-02  0.1186339E+00
        -11   -1    0    0    0    0  0.00000000000E+00  0.00000000000E+00  0.45593999997E+02  0.45594000000E+02  0.51100000000E-03 0.  1.
         11   -1    0    0    0    0 -0.00000000000E+00 -0.00000000000E+00 -0.45593999997E+02  0.45594000000E+02  0.51100000000E-03 0. -1.
    9900012    2    1    2    0    0 -0.72022353303E+00  0.83130472886E+00 -0.42817674516E+00  0.90007692915E+02  0.89999953661E+02 0.  0.
        -12    1    1    2    0    0  0.72022353303E+00 -0.83130472886E+00  0.42817674516E+00  0.11803070850E+01  0.00000000000E+00 0.  1.
         11    1    3    3    0    0  0.31626162040E+02  0.13788298322E+02  0.13378546739E+02  0.37004280956E+02  0.51100000000E-03 0. -1.
        -11    1    3    3    0    0 -0.44043943765E+01  0.12434293016E+02 -0.14176074580E+01  0.13267250801E+02  0.51100000000E-03 0.  1.
        -12    1    3    3    0    0 -0.27941991196E+02 -0.25391286610E+02 -0.12389116026E+02  0.39736161158E+02  0.00000000000E+00 0.  1.
</event>
<event>
 7    1  0.1716782E-015  0.9000769E+02  0.7816164E-02  0.1186339E+00
        -11   -1    0    0    0    0  0.00000000000E+00  0.00000000000E+00  0.45593999997E+02  0.45594000000E+02  0.51100000000E-03 0. -1.
         11   -1    0    0    0    0 -0.00000000000E+00 -0.00000000000E+00 -0.45593999997E+02  0.45594000000E+02  0.51100000000E-03 0.  1.
    9900012    2    1    2    0    0  0.76038661982E-01  0.11519383856E+01  0.24573097159E+00  0.90007691721E+02  0.89999952452E+02 0.  0.
        -12    1    1    2    0    0 -0.76038661982E-01 -0.11519383856E+01 -0.24573097159E+00  0.11803082787E+01  0.00000000000E+00 0.  1.
         11    1    3    3    0    0 -0.15152917833E+01 -0.60686378145E+01  0.81262800202E+01  0.10254798942E+02  0.51100000000E-03 0. -1.
        -11    1    3    3    0    0 -0.55677737615E+01 -0.25835841019E+02  0.22179618115E+02  0.34502554192E+02  0.51100000000E-03 0.  1.
         12    1    3    3    0    0  0.71591042068E+01  0.33056417219E+02 -0.30060167163E+02  0.45250338587E+02  0.00000000000E+00 0. -1.
</event>
<event>
 7    1  0.1716782E-015  0.9000771E+02  0.7816164E-02  0.1186339E+00
        -11   -1    0    0    0    0  0.00000000000E+00  0.00000000000E+00  0.45593999997E+02  0.45594000000E+02  0.51100000000E-03 0.  1.
         11   -1    0    0    0    0 -0.00000000000E+00 -0.00000000000E+00 -0.45593999997E+02  0.45594000000E+02  0.51100000000E-03 0. -1.
    9900012    2    1    2    0    0  0.93612701147E+00  0.63412537460E+00  0.33856811619E+00  0.90007713110E+02  0.89999974124E+02 0.  0.
        -12    1    1    2    0    0 -0.93612701147E+00 -0.63412537460E+00 -0.33856811619E+00  0.11802868895E+01  0.00000000000E+00 0.  1.
         11    1    3    3    0    0  0.14426166743E+02 -0.23038480612E+02 -0.23942456231E+02  0.36223294804E+02  0.51100000000E-03 0. -1.
        -11    1    3    3    0    0  0.16186681828E+01 -0.94666784303E+01 -0.68430142603E+00  0.96284139863E+01  0.51100000000E-03 0.  1.
        -12    1    3    3    0    0 -0.15108707914E+02  0.33139284417E+02  0.24965325773E+02  0.44156004320E+02  0.00000000000E+00 0.  1.
</event>
<event>
 7    1  0.1716782E-015  0.9000770E+02  0.7816164E-02  0.1186339E+00
        -11   -1    0    0    0    0  0.00000000000E+00  0.00000000000E+00  0.45593999997E+02  0.45594000000E+02  0.51100000000E-03 0.  1.
         11   -1    0    0    0    0 -0.00000000000E+00 -0.00000000000E+00 -0.45593999997E+02  0.45594000000E+02  0.51100000000E-03 0. -1.
    9900012    2    1    2    0    0 -0.45216127946E+00  0.76939108580E+00 -0.77245480195E+00  0.90007703899E+02  0.89999964790E+02 0.  0.
        -12    1    1    2    0    0  0.45216127946E+00 -0.76939108580E+00  0.77245480195E+00  0.11802961012E+01  0.00000000000E+00 0.  1.
         11    1    3    3    0    0  0.40177610614E+00  0.61762956759E+01  0.60424991607E+01  0.86498467434E+01  0.51100000000E-03 0. -1.
        -11    1    3    3    0    0  0.20436025729E+02 -0.21663119539E+02  0.25624820757E+02  0.39288081333E+02  0.51100000000E-03 0.  1.
         12    1    3    3    0    0 -0.21289963114E+02  0.16256214949E+02 -0.32439774720E+02  0.42069775822E+02  0.00000000000E+00 0. -1.
</event>
<event>
 7    1  0.1716782E-015  0.9000769E+02  0.7816164E-02  0.1186339E+00
        -11   -1    0    0    0    0  0.00000000000E+00  0.00000000000E+00  0.45593999997E+02  0.45594000000E+02  0.51100000000E-03 0.  1.
         11   -1    0    0    0    0 -0.00000000000E+00 -0.00000000000E+00 -0.45593999997E+02  0.45594000000E+02  0.51100000000E-03 0. -1.
    9900012    2    1    2    0    0 -0.73688746507E+00 -0.35343003204E+00 -0.85160090114E+00  0.90007686474E+02  0.89999947136E+02 0.  0.
        -12    1    1    2    0    0  0.73688746507E+00  0.35343003204E+00  0.85160090114E+00  0.11803135255E+01  0.00000000000E+00 0.  1.
         11    1    3    3    0    0 -0.42886909082E+01  0.93864951722E+01  0.37544988163E+01  0.10981594736E+02  0.51100000000E-03 0. -1.
        -11    1    3    3    0    0 -0.18081924194E+02  0.28905550323E+02  0.24308676747E+01  0.34181807149E+02  0.51100000000E-03 0.  1.
         12    1    3    3    0    0  0.21633727637E+02 -0.38645475528E+02 -0.70369673922E+01  0.44844284589E+02  0.00000000000E+00 0. -1.
</event>
<event>
 7    1  0.1716782E-015  0.9000782E+02  0.7816164E-02  0.1186339E+00
        -11   -1    0    0    0    0  0.00000000000E+00  0.00000000000E+00  0.45593999997E+02  0.45594000000E+02  0.51100000000E-03 0.  1.
         11   -1    0    0    0    0 -0.00000000000E+00 -0.00000000000E+00 -0.45593999997E+02  0.45594000000E+02  0.51100000000E-03 0. -1.
    9900012    2    1    2    0    0 -0.20505157090E+00  0.20441022008E+00 -0.11441140183E+01  0.90007819263E+02  0.90000081677E+02 0.  0.
        -12    1    1    2    0    0  0.20505157090E+00 -0.20441022008E+00  0.11441140183E+01  0.11801807368E+01  0.00000000000E+00 0.  1.
         11    1    3    3    0    0  0.72306144453E+01 -0.12066116820E+01 -0.56653458011E+01  0.92646554342E+01  0.51100000000E-03 0. -1.
        -11    1    3    3    0    0  0.18512036259E+02  0.21143381708E+02  0.28691746330E+02  0.40161603357E+02  0.51100000000E-03 0.  1.
         12    1    3    3    0    0 -0.25947702275E+02 -0.19732359805E+02 -0.24170514547E+02  0.40581560472E+02  0.00000000000E+00 0. -1.
</event>
<event>
 7    1  0.1716782E-015  0.9000774E+02  0.7816164E-02  0.1186339E+00
        -11   -1    0    0    0    0  0.00000000000E+00  0.00000000000E+00  0.45593999997E+02  0.45594000000E+02  0.51100000000E-03 0.  1.
         11   -1    0    0    0    0 -0.00000000000E+00 -0.00000000000E+00 -0.45593999997E+02  0.45594000000E+02  0.51100000000E-03 0. -1.
    9900012    2    1    2    0    0 -0.51415637018E+00  0.94540050421E+00 -0.48464964470E+00  0.90007735553E+02  0.89999996862E+02 0.  0.
        -12    1    1    2    0    0  0.51415637018E+00 -0.94540050421E+00  0.48464964470E+00  0.11802644468E+01  0.00000000000E+00 0.  1.
         11    1    3    3    0    0  0.16098621054E+01  0.15987728229E+02 -0.33126490365E+02  0.36817977594E+02  0.51100000000E-03 0. -1.
        -11    1    3    3    0    0 -0.17289488331E+01  0.84537998728E+01 -0.41175775434E+01  0.95608807881E+01  0.51100000000E-03 0.  1.
        -12    1    3    3    0    0 -0.39506964245E+00 -0.23496127598E+02  0.36759418264E+02  0.43628877171E+02  0.00000000000E+00 0.  1.
</event>
<event>
 7    1  0.1716782E-015  0.9000781E+02  0.7816164E-02  0.1186339E+00
        -11   -1    0    0    0    0  0.00000000000E+00  0.00000000000E+00  0.45593999997E+02  0.45594000000E+02  0.51100000000E-03 0.  1.
         11   -1    0    0    0    0 -0.00000000000E+00 -0.00000000000E+00 -0.45593999997E+02  0.45594000000E+02  0.51100000000E-03 0. -1.
    9900012    2    1    2    0    0 -0.61095351472E-01  0.10215266976E+01 -0.58787193555E+00  0.90007812367E+02  0.90000074690E+02 0.  0.
        -12    1    1    2    0    0  0.61095351472E-01 -0.10215266976E+01  0.58787193555E+00  0.11801876327E+01  0.00000000000E+00 0.  1.
         11    1    3    3    0    0  0.21804309123E+02  0.25828294166E+02  0.22744007039E+02  0.40740870539E+02  0.51100000000E-03 0. -1.
        -11    1    3    3    0    0  0.66805920547E+01 -0.57574700054E+01 -0.70053056422E+01  0.11262907194E+02  0.51100000000E-03 0.  1.
        -12    1    3    3    0    0 -0.28545996529E+02 -0.19049297463E+02 -0.16326573332E+02  0.38004034634E+02  0.00000000000E+00 0.  1.
</event>
<event>
 7    1  0.1716782E-015  0.9000740E+02  0.7816164E-02  0.1186340E+00
        -11   -1    0    0    0    0  0.00000000000E+00  0.00000000000E+00  0.45593999997E+02  0.45594000000E+02  0.51100000000E-03 0.  1.
         11   -1    0    0    0    0 -0.00000000000E+00 -0.00000000000E+00 -0.45593999997E+02  0.45594000000E+02  0.51100000000E-03 0. -1.
    9900012    2    1    2    0    0 -0.75332761662E+00 -0.18741302892E+00 -0.88948856084E+00  0.90007400135E+02  0.89999657016E+02 0.  0.
        -12    1    1    2    0    0  0.75332761662E+00  0.18741302892E+00  0.88948856084E+00  0.11805998650E+01  0.00000000000E+00 0.  1.
         11    1    3    3    0    0 -0.27984407972E+02 -0.13454637612E+02 -0.12832036716E+02  0.33597850070E+02  0.51100000000E-03 0. -1.
        -11    1    3    3    0    0 -0.81952127204E+01 -0.97920405041E+01  0.14057416609E+01  0.12846076391E+02  0.51100000000E-03 0.  1.
        -12    1    3    3    0    0  0.35426293076E+02  0.23059265087E+02  0.10536806494E+02  0.43563473674E+02  0.00000000000E+00 0.  1.
</event>
<event>
 7    1  0.1716782E-015  0.9000767E+02  0.7816164E-02  0.1186339E+00
        -11   -1    0    0    0    0  0.00000000000E+00  0.00000000000E+00  0.45593999997E+02  0.45594000000E+02  0.51100000000E-03 0.  1.
         11   -1    0    0    0    0 -0.00000000000E+00 -0.00000000000E+00 -0.45593999997E+02  0.45594000000E+02  0.51100000000E-03 0. -1.
    9900012    2    1    2    0    0  0.66433187606E+00  0.96753796276E+00 -0.12530484763E+00  0.90007674682E+02  0.89999935188E+02 0.  0.
        -12    1    1    2    0    0 -0.66433187606E+00 -0.96753796276E+00  0.12530484763E+00  0.11803253178E+01  0.00000000000E+00 0.  1.
         11    1    3    3    0    0 -0.28156126613E+02  0.24779297924E+02 -0.14299936829E+02  0.40140618643E+02  0.51100000000E-03 0. -1.
        -11    1    3    3    0    0 -0.21405388614E+01  0.88352075301E+00  0.97452300111E+01  0.10016587431E+02  0.51100000000E-03 0.  1.
        -12    1    3    3    0    0  0.30960997350E+02 -0.24695280714E+02  0.44294019699E+01  0.39850468608E+02  0.00000000000E+00 0.  1.
</event>
<event>
 7    1  0.1716782E-015  0.9000774E+02  0.7816164E-02  0.1186339E+00
        -11   -1    0    0    0    0  0.00000000000E+00  0.00000000000E+00  0.45593999997E+02  0.45594000000E+02  0.51100000000E-03 0.  1.
         11   -1    0    0    0    0 -0.00000000000E+00 -0.00000000000E+00 -0.45593999997E+02  0.45594000000E+02  0.51100000000E-03 0. -1.
    9900012    2    1    2    0    0  0.68499556271E+00 -0.61857986628E+00 -0.73562735971E+00  0.90007742577E+02  0.90000003979E+02 0.  0.
        -12    1    1    2    0    0 -0.68499556271E+00  0.61857986628E+00  0.73562735971E+00  0.11802574229E+01  0.00000000000E+00 0.  1.
         11    1    3    3    0    0  0.24153150943E+02  0.21904003997E+02 -0.17697863766E+02  0.37099521206E+02  0.51100000000E-03 0. -1.
        -11    1    3    3    0    0 -0.11803047119E+01  0.73802872170E+01 -0.55822214974E+01  0.93286095280E+01  0.51100000000E-03 0.  1.
        -12    1    3    3    0    0 -0.22287850668E+02 -0.29902871080E+02  0.22544457903E+02  0.43579611843E+02  0.00000000000E+00 0.  1.
</event>
<event>
 7    1  0.1716782E-015  0.9000782E+02  0.7816164E-02  0.1186339E+00
        -11   -1    0    0    0    0  0.00000000000E+00  0.00000000000E+00  0.45593999997E+02  0.45594000000E+02  0.51100000000E-03 0. -1.
         11   -1    0    0    0    0 -0.00000000000E+00 -0.00000000000E+00 -0.45593999997E+02  0.45594000000E+02  0.51100000000E-03 0.  1.
    9900012    2    1    2    0    0  0.33576883958E+00 -0.11021845731E+01 -0.25550500753E+00  0.90007815965E+02  0.90000078336E+02 0.  0.
        -12    1    1    2    0    0 -0.33576883958E+00  0.11021845731E+01  0.25550500753E+00  0.11801840347E+01  0.00000000000E+00 0.  1.
         11    1    3    3    0    0 -0.27652184175E+02 -0.12530146063E+02  0.18855959655E+02  0.35737865980E+02  0.51100000000E-03 0. -1.
        -11    1    3    3    0    0 -0.59556876552E+01 -0.48617004362E+01  0.53544355374E+01  0.93689021109E+01  0.51100000000E-03 0.  1.
        -12    1    3    3    0    0  0.33943640670E+02  0.16289661926E+02 -0.24465900200E+02  0.44901047874E+02  0.00000000000E+00 0.  1.
</event>
<event>
 7    1  0.1716782E-015  0.9000786E+02  0.7816164E-02  0.1186339E+00
        -11   -1    0    0    0    0  0.00000000000E+00  0.00000000000E+00  0.45593999997E+02  0.45594000000E+02  0.51100000000E-03 0.  1.
         11   -1    0    0    0    0 -0.00000000000E+00 -0.00000000000E+00 -0.45593999997E+02  0.45594000000E+02  0.51100000000E-03 0. -1.
    9900012    2    1    2    0    0 -0.98849576613E+00  0.19194584023E+00 -0.61544566085E+00  0.90007855752E+02  0.90000118648E+02 0.  0.
        -12    1    1    2    0    0  0.98849576613E+00 -0.19194584023E+00  0.61544566085E+00  0.11801442483E+01  0.00000000000E+00 0.  1.
         11    1    3    3    0    0 -0.21399484808E+02  0.25748703659E+02  0.46850554002E+01  0.33806559046E+02  0.51100000000E-03 0. -1.
        -11    1    3    3    0    0 -0.12758586738E+02  0.18734247870E+01 -0.70969006143E+00  0.12914910616E+02  0.51100000000E-03 0.  1.
        -12    1    3    3    0    0  0.33169575779E+02 -0.27430182605E+02 -0.45908109997E+01  0.43286386090E+02  0.00000000000E+00 0.  1.
</event>
<event>
 7    1  0.1716782E-015  0.9000759E+02  0.7816164E-02  0.1186339E+00
        -11   -1    0    0    0    0  0.00000000000E+00  0.00000000000E+00  0.45593999997E+02  0.45594000000E+02  0.51100000000E-03 0.  1.
         11   -1    0    0    0    0 -0.00000000000E+00 -0.00000000000E+00 -0.45593999997E+02  0.45594000000E+02  0.51100000000E-03 0. -1.
    9900012    2    1    2    0    0  0.63503358050E+00 -0.55031544570E+00 -0.82900308576E+00  0.90007592929E+02  0.89999852355E+02 0.  0.
        -12    1    1    2    0    0 -0.63503358050E+00  0.55031544570E+00  0.82900308576E+00  0.11804070715E+01  0.00000000000E+00 0.  1.
         11    1    3    3    0    0  0.79254439197E+01  0.31352831391E+00  0.29637539704E+01  0.84672781450E+01  0.51100000000E-03 0. -1.
        -11    1    3    3    0    0 -0.37793622953E+02  0.17708725593E+02  0.10559289437E+02  0.43051776871E+02  0.51100000000E-03 0.  1.
         12    1    3    3    0    0  0.30503212614E+02 -0.18572569353E+02 -0.14352046493E+02  0.38488537913E+02  0.00000000000E+00 0. -1.
</event>
<event>
 7    1  0.1716782E-015  0.9000757E+02  0.7816164E-02  0.1186339E+00
        -11   -1    0    0    0    0  0.00000000000E+00  0.00000000000E+00  0.45593999997E+02  0.45594000000E+02  0.51100000000E-03 0.  1.
         11   -1    0    0    0    0 -0.00000000000E+00 -0.00000000000E+00 -0.45593999997E+02  0.45594000000E+02  0.51100000000E-03 0. -1.
    9900012    2    1    2    0    0 -0.47113082282E+00  0.10356510349E+01  0.31445108335E+00  0.90007569230E+02  0.89999828344E+02 0.  0.
        -12    1    1    2    0    0  0.47113082282E+00 -0.10356510349E+01 -0.31445108335E+00  0.11804307698E+01  0.00000000000E+00 0.  1.
         11    1    3    3    0    0 -0.30809622026E+01  0.10896795683E+02  0.22714915317E+01  0.11549552298E+02  0.51100000000E-03 0. -1.
        -11    1    3    3    0    0  0.15781253982E+02  0.31170883208E+02 -0.48187758185E+01  0.35268860739E+02  0.51100000000E-03 0.  1.
         12    1    3    3    0    0 -0.13171422602E+02 -0.41032027856E+02  0.28617353702E+01  0.43189156193E+02  0.00000000000E+00 0. -1.
</event>
<event>
 7    1  0.1716782E-015  0.9000775E+02  0.7816164E-02  0.1186339E+00
        -11   -1    0    0    0    0  0.00000000000E+00  0.00000000000E+00  0.45593999997E+02  0.45594000000E+02  0.51100000000E-03 0.  1.
         11   -1    0    0    0    0 -0.00000000000E+00 -0.00000000000E+00 -0.45593999997E+02  0.45594000000E+02  0.51100000000E-03 0. -1.
    9900012    2    1    2    0    0  0.24859593193E+00  0.79067288103E+00 -0.84024866054E+00  0.90007753689E+02  0.90000015238E+02 0.  0.
        -12    1    1    2    0    0 -0.24859593193E+00 -0.79067288103E+00  0.84024866054E+00  0.11802463106E+01  0.00000000000E+00 0.  1.
         11    1    3    3    0    0 -0.10152518103E+02 -0.29978129573E+01 -0.39252085333E+01  0.11290162472E+02  0.51100000000E-03 0. -1.
        -11    1    3    3    0    0 -0.32975376999E+02 -0.71149823045E+01 -0.14290201989E+01  0.33764486675E+02  0.51100000000E-03 0.  1.
         12    1    3    3    0    0  0.43376491034E+02  0.10903468143E+02  0.45139800716E+01  0.44953104543E+02  0.00000000000E+00 0. -1.
</event>
<event>
 7    1  0.1716782E-015  0.9000760E+02  0.7816164E-02  0.1186339E+00
        -11   -1    0    0    0    0  0.00000000000E+00  0.00000000000E+00  0.45593999997E+02  0.45594000000E+02  0.51100000000E-03 0.  1.
         11   -1    0    0    0    0 -0.00000000000E+00 -0.00000000000E+00 -0.45593999997E+02  0.45594000000E+02  0.51100000000E-03 0. -1.
    9900012    2    1    2    0    0 -0.88222822043E+00  0.49418681020E+00 -0.60892505161E+00  0.90007603052E+02  0.89999862612E+02 0.  0.
        -12    1    1    2    0    0  0.88222822043E+00 -0.49418681020E+00  0.60892505161E+00  0.11803969480E+01  0.00000000000E+00 0.  1.
         11    1    3    3    0    0  0.21948700503E+02 -0.20101237293E+02 -0.29334974875E+02  0.41789304202E+02  0.51100000000E-03 0. -1.
        -11    1    3    3    0    0  0.27072585164E+01 -0.69203643372E+00  0.93030628518E+01  0.97136574875E+01  0.51100000000E-03 0.  1.
        -12    1    3    3    0    0 -0.25538187240E+02  0.21287460537E+02  0.19422986972E+02  0.38504641363E+02  0.00000000000E+00 0.  1.
</event>
<event>
 7    1  0.1716782E-015  0.9000775E+02  0.7816164E-02  0.1186339E+00
        -11   -1    0    0    0    0  0.00000000000E+00  0.00000000000E+00  0.45593999997E+02  0.45594000000E+02  0.51100000000E-03 0.  1.
         11   -1    0    0    0    0 -0.00000000000E+00 -0.00000000000E+00 -0.45593999997E+02  0.45594000000E+02  0.51100000000E-03 0. -1.
    9900012    2    1    2    0    0  0.72003076963E+00  0.76571656366E+00 -0.53685428331E+00  0.90007754819E+02  0.90000016383E+02 0.  0.
        -12    1    1    2    0    0 -0.72003076963E+00 -0.76571656366E+00  0.53685428331E+00  0.11802451807E+01  0.00000000000E+00 0.  1.
         11    1    3    3    0    0 -0.28458484560E+01 -0.38621299373E+02  0.16487655283E+02  0.42089742167E+02  0.51100000000E-03 0. -1.
        -11    1    3    3    0    0  0.70184484242E+01  0.23016706093E+01 -0.43653044440E+01  0.85797546018E+01  0.51100000000E-03 0.  1.
        -12    1    3    3    0    0 -0.34525691985E+01  0.37085345327E+02 -0.12659205122E+02  0.39338258050E+02  0.00000000000E+00 0.  1.
</event>
<event>
 7    1  0.1716782E-015  0.9000757E+02  0.7816164E-02  0.1186339E+00
        -11   -1    0    0    0    0  0.00000000000E+00  0.00000000000E+00  0.45593999997E+02  0.45594000000E+02  0.51100000000E-03 0.  1.
         11   -1    0    0    0    0 -0.00000000000E+00 -0.00000000000E+00 -0.45593999997E+02  0.45594000000E+02  0.51100000000E-03 0. -1.
    9900012    2    1    2    0    0  0.82511403818E+00 -0.74066107502E+00 -0.40498456059E+00  0.90007574442E+02  0.89999833624E+02 0.  0.
        -12    1    1    2    0    0 -0.82511403818E+00  0.74066107502E+00  0.40498456059E+00  0.11804255582E+01  0.00000000000E+00 0.  1.
         11    1    3    3    0    0  0.81565184120E+01  0.18163562715E+01  0.43788618383E+01  0.94341069514E+01  0.51100000000E-03 0. -1.
        -11    1    3    3    0    0 -0.24819549540E+02 -0.22738267722E+02  0.23976680831E+02  0.41326989756E+02  0.51100000000E-03 0.  1.
         12    1    3    3    0    0  0.17488145167E+02  0.20181250375E+02 -0.28760527229E+02  0.39246477735E+02  0.00000000000E+00 0. -1.
</event>
<event>
 7    1  0.1716782E-015  0.9000776E+02  0.7816164E-02  0.1186339E+00
        -11   -1    0    0    0    0  0.00000000000E+00  0.00000000000E+00  0.45593999997E+02  0.45594000000E+02  0.51100000000E-03 0. -1.
         11   -1    0    0    0    0 -0.00000000000E+00 -0.00000000000E+00 -0.45593999997E+02  0.45594000000E+02  0.51100000000E-03 0.  1.
    9900012    2    1    2    0    0 -0.24993038175E+00  0.78547007842E+00  0.84470546664E+00  0.90007764530E+02  0.90000026222E+02 0.  0.
        -12    1    1    2    0    0  0.24993038175E+00 -0.78547007842E+00 -0.84470546664E+00  0.11802354702E+01  0.00000000000E+00 0.  1.
         11    1    3    3    0    0  0.29261974959E+02  0.20683843609E+02  0.27020174047E+01  0.35935852060E+02  0.51100000000E-03 0. -1.
        -11    1    3    3    0    0 -0.55174825688E+01  0.93418891588E+01 -0.10688045069E+02  0.15229833046E+02  0.51100000000E-03 0.  1.
        -12    1    3    3    0    0 -0.23994422772E+02 -0.29240262690E+02  0.88307331310E+01  0.38842079424E+02  0.00000000000E+00 0.  1.
</event>
<event>
 7    1  0.1716782E-015  0.9000784E+02  0.7816164E-02  0.1186339E+00
        -11   -1    0    0    0    0  0.00000000000E+00  0.00000000000E+00  0.45593999997E+02  0.45594000000E+02  0.51100000000E-03 0. -1.
         11   -1    0    0    0    0 -0.00000000000E+00 -0.00000000000E+00 -0.45593999997E+02  0.45594000000E+02  0.51100000000E-03 0.  1.
    9900012    2    1    2    0    0 -0.34714192033E+00  0.28044060240E+00  0.10925298092E+01  0.90007840761E+02  0.90000103459E+02 0.  0.
        -12    1    1    2    0    0  0.34714192033E+00 -0.28044060240E+00 -0.10925298092E+01  0.11801592386E+01  0.00000000000E+00 0.  1.
         11    1    3    3    0    0 -0.21872771253E+01  0.10054641398E+02  0.21760683630E+01  0.10517379362E+02  0.51100000000E-03 0. -1.
        -11    1    3    3    0    0 -0.11380894793E+02  0.29671870448E+01 -0.37178093724E+02  0.38994097226E+02  0.51100000000E-03 0.  1.
         12    1    3    3    0    0  0.13221029998E+02 -0.12741387840E+02  0.36094555171E+02  0.40496364173E+02  0.00000000000E+00 0. -1.
</event>
<event>
 7    1  0.1716782E-015  0.9000768E+02  0.7816164E-02  0.1186339E+00
        -11   -1    0    0    0    0  0.00000000000E+00  0.00000000000E+00  0.45593999997E+02  0.45594000000E+02  0.51100000000E-03 0. -1.
         11   -1    0    0    0    0 -0.00000000000E+00 -0.00000000000E+00 -0.45593999997E+02  0.45594000000E+02  0.51100000000E-03 0.  1.
    9900012    2    1    2    0    0  0.83547523993E+00 -0.65070393132E+00 -0.52125904874E+00  0.90007684161E+02  0.89999944792E+02 0.  0.
        -12    1    1    2    0    0 -0.83547523993E+00  0.65070393132E+00  0.52125904874E+00  0.11803158385E+01  0.00000000000E+00 0.  1.
         11    1    3    3    0    0  0.30756116598E+02  0.11519284556E+02  0.23153122931E+02  0.40183326475E+02  0.51100000000E-03 0. -1.
        -11    1    3    3    0    0 -0.35720022757E+01  0.89864947207E+01 -0.26516575842E+01  0.10027341414E+02  0.51100000000E-03 0.  1.
        -12    1    3    3    0    0 -0.26348639082E+02 -0.21156483208E+02 -0.21022724396E+02  0.39797016273E+02  0.00000000000E+00 0.  1.
</event>
<event>
 7    1  0.1716782E-015  0.9000776E+02  0.7816164E-02  0.1186339E+00
        -11   -1    0    0    0    0  0.00000000000E+00  0.00000000000E+00  0.45593999997E+02  0.45594000000E+02  0.51100000000E-03 0. -1.
         11   -1    0    0    0    0 -0.00000000000E+00 -0.00000000000E+00 -0.45593999997E+02  0.45594000000E+02  0.51100000000E-03 0.  1.
    9900012    2    1    2    0    0 -0.59590251009E+00 -0.60256151412E+00 -0.82144840294E+00  0.90007763728E+02  0.90000025409E+02 0.  0.
        -12    1    1    2    0    0  0.59590251009E+00  0.60256151412E+00  0.82144840294E+00  0.11802362723E+01  0.00000000000E+00 0.  1.
         11    1    3    3    0    0 -0.58563628634E+01  0.84175651484E+01  0.34373888436E+02  0.35870832099E+02  0.51100000000E-03 0. -1.
        -11    1    3    3    0    0  0.10192264936E+01  0.56066433286E+01  0.71460616999E+01  0.91399928960E+01  0.51100000000E-03 0.  1.
        -12    1    3    3    0    0  0.42412338597E+01 -0.14626769991E+02 -0.42341398539E+02  0.44996938732E+02  0.00000000000E+00 0.  1.
</event>
<event>
 7    1  0.1716782E-015  0.9000776E+02  0.7816164E-02  0.1186339E+00
        -11   -1    0    0    0    0  0.00000000000E+00  0.00000000000E+00  0.45593999997E+02  0.45594000000E+02  0.51100000000E-03 0. -1.
         11   -1    0    0    0    0 -0.00000000000E+00 -0.00000000000E+00 -0.45593999997E+02  0.45594000000E+02  0.51100000000E-03 0.  1.
    9900012    2    1    2    0    0 -0.80165854032E+00  0.86181300055E+00 -0.87162951800E-01  0.90007756193E+02  0.90000017775E+02 0.  0.
        -12    1    1    2    0    0  0.80165854032E+00 -0.86181300055E+00  0.87162951800E-01  0.11802438067E+01  0.00000000000E+00 0.  1.
         11    1    3    3    0    0  0.13212619663E+02 -0.19390235095E+02  0.27218323909E+02  0.35935938726E+02  0.51100000000E-03 0. -1.
        -11    1    3    3    0    0 -0.10469976022E+01  0.12629676893E+01  0.10062761913E+02  0.10195610278E+02  0.51100000000E-03 0.  1.
        -12    1    3    3    0    0 -0.12967280601E+02  0.18989080407E+02 -0.37368248774E+02  0.43876207189E+02  0.00000000000E+00 0.  1.
</event>
<event>
 7    1  0.1716782E-015  0.9000775E+02  0.7816164E-02  0.1186339E+00
        -11   -1    0    0    0    0  0.00000000000E+00  0.00000000000E+00  0.45593999997E+02  0.45594000000E+02  0.51100000000E-03 0.  1.
         11   -1    0    0    0    0 -0.00000000000E+00 -0.00000000000E+00 -0.45593999997E+02  0.45594000000E+02  0.51100000000E-03 0. -1.
    9900012    2    1    2    0    0 -0.79358800230E-01  0.67957828153E+00 -0.96170201210E+00  0.90007747815E+02  0.90000009286E+02 0.  0.
        -12    1    1    2    0    0  0.79358800230E-01 -0.67957828153E+00  0.96170201210E+00  0.11802521849E+01  0.00000000000E+00 0.  1.
         11    1    3    3    0    0  0.24348718971E+02 -0.11289214624E+01 -0.22958380860E+02  0.33484650680E+02  0.51100000000E-03 0. -1.
        -11    1    3    3    0    0  0.51396161750E+01 -0.50665315270E+01 -0.10055436461E+02  0.12377285600E+02  0.51100000000E-03 0.  1.
        -12    1    3    3    0    0 -0.29567693947E+02  0.68750312710E+01  0.32052115309E+02  0.44145811535E+02  0.00000000000E+00 0.  1.
</event>
<event>
 7    1  0.1716782E-015  0.9000771E+02  0.7816164E-02  0.1186339E+00
        -11   -1    0    0    0    0  0.00000000000E+00  0.00000000000E+00  0.45593999997E+02  0.45594000000E+02  0.51100000000E-03 0.  1.
         11   -1    0    0    0    0 -0.00000000000E+00 -0.00000000000E+00 -0.45593999997E+02  0.45594000000E+02  0.51100000000E-03 0. -1.
    9900012    2    1    2    0    0  0.47289292837E-02  0.69036497165E+00 -0.95732284015E+00  0.90007706317E+02  0.89999967241E+02 0.  0.
        -12    1    1    2    0    0 -0.47289292837E-02 -0.69036497165E+00  0.95732284015E+00  0.11802936826E+01  0.00000000000E+00 0.  1.
         11    1    3    3    0    0 -0.34539886871E+02  0.14553187746E+02 -0.49634660203E+01  0.37807870263E+02  0.51100000000E-03 0. -1.
        -11    1    3    3    0    0  0.38136623312E+01  0.11547992824E+02  0.13332237473E+01  0.12234281526E+02  0.51100000000E-03 0.  1.
        -12    1    3    3    0    0  0.30730953469E+02 -0.25410815598E+02  0.26729194329E+01  0.39965554529E+02  0.00000000000E+00 0.  1.
</event>
<event>
 7    1  0.1716782E-015  0.9000794E+02  0.7816164E-02  0.1186339E+00
        -11   -1    0    0    0    0  0.00000000000E+00  0.00000000000E+00  0.45593999997E+02  0.45594000000E+02  0.51100000000E-03 0. -1.
         11   -1    0    0    0    0 -0.00000000000E+00 -0.00000000000E+00 -0.45593999997E+02  0.45594000000E+02  0.51100000000E-03 0.  1.
    9900012    2    1    2    0    0  0.40023120433E+00  0.80861929024E+00  0.76057907630E+00  0.90007944618E+02  0.90000208687E+02 0.  0.
        -12    1    1    2    0    0 -0.40023120433E+00 -0.80861929024E+00 -0.76057907630E+00  0.11800553821E+01  0.00000000000E+00 0.  1.
         11    1    3    3    0    0 -0.64940196486E+01  0.62068410782E+01  0.57453074484E+01  0.10663288672E+02  0.51100000000E-03 0. -1.
        -11    1    3    3    0    0 -0.35172552307E+02 -0.17461115357E+01 -0.10531395369E+02  0.36756871874E+02  0.51100000000E-03 0.  1.
         12    1    3    3    0    0  0.42066803160E+02 -0.36521102523E+01  0.55466669972E+01  0.42587784072E+02  0.00000000000E+00 0. -1.
</event>
<event>
 7    1  0.1716782E-015  0.9000775E+02  0.7816164E-02  0.1186339E+00
        -11   -1    0    0    0    0  0.00000000000E+00  0.00000000000E+00  0.45593999997E+02  0.45594000000E+02  0.51100000000E-03 0. -1.
         11   -1    0    0    0    0 -0.00000000000E+00 -0.00000000000E+00 -0.45593999997E+02  0.45594000000E+02  0.51100000000E-03 0.  1.
    9900012    2    1    2    0    0  0.34742951231E+00  0.64594724599E+00  0.92468044715E+00  0.90007750433E+02  0.90000011939E+02 0.  0.
        -12    1    1    2    0    0 -0.34742951231E+00 -0.64594724599E+00 -0.92468044715E+00  0.11802495668E+01  0.00000000000E+00 0.  1.
         11    1    3    3    0    0 -0.25914782103E+02  0.34570511835E+01  0.51065154945E+01  0.26638386495E+02  0.51100000000E-03 0. -1.
        -11    1    3    3    0    0 -0.12883373465E+02  0.87398671500E+01  0.11802970406E+02  0.19536547810E+02  0.51100000000E-03 0.  1.
        -12    1    3    3    0    0  0.39145585080E+02 -0.11550971088E+02 -0.15984805454E+02  0.43832816128E+02  0.00000000000E+00 0.  1.
</event>
<event>
 7    1  0.1716782E-015  0.9000775E+02  0.7816164E-02  0.1186339E+00
        -11   -1    0    0    0    0  0.00000000000E+00  0.00000000000E+00  0.45593999997E+02  0.45594000000E+02  0.51100000000E-03 0.  1.
         11   -1    0    0    0    0 -0.00000000000E+00 -0.00000000000E+00 -0.45593999997E+02  0.45594000000E+02  0.51100000000E-03 0. -1.
    9900012    2    1    2    0    0  0.13559931618E+00  0.81222843213E+00 -0.84551309344E+00  0.90007748081E+02  0.90000009556E+02 0.  0.
        -12    1    1    2    0    0 -0.13559931618E+00 -0.81222843213E+00  0.84551309344E+00  0.11802519187E+01  0.00000000000E+00 0.  1.
         11    1    3    3    0    0 -0.43194372254E+01 -0.21582187571E+02  0.90200109642E+01  0.23786739086E+02  0.51100000000E-03 0. -1.
        -11    1    3    3    0    0  0.12344470421E+02 -0.13575396115E+02 -0.20868023126E+02  0.27787618090E+02  0.51100000000E-03 0.  1.
        -12    1    3    3    0    0 -0.78894338796E+01  0.35969812118E+02  0.11002499068E+02  0.38433390906E+02  0.00000000000E+00 0.  1.
</event>
<event>
 7    1  0.1716782E-015  0.9000780E+02  0.7816164E-02  0.1186339E+00
        -11   -1    0    0    0    0  0.00000000000E+00  0.00000000000E+00  0.45593999997E+02  0.45594000000E+02  0.51100000000E-03 0.  1.
         11   -1    0    0    0    0 -0.00000000000E+00 -0.00000000000E+00 -0.45593999997E+02  0.45594000000E+02  0.51100000000E-03 0. -1.
    9900012    2    1    2    0    0  0.87003838092E+00  0.27449012620E+00 -0.74870228958E+00  0.90007802249E+02  0.90000064438E+02 0.  0.
        -12    1    1    2    0    0 -0.87003838092E+00 -0.27449012620E+00  0.74870228958E+00  0.11801977513E+01  0.00000000000E+00 0.  1.
         11    1    3    3    0    0 -0.13347250263E+02 -0.77962267273E+01 -0.18268220986E+02  0.23930276618E+02  0.51100000000E-03 0. -1.
        -11    1    3    3    0    0 -0.22941900551E+02  0.69954584490E+01  0.16077575804E+02  0.28874827858E+02  0.51100000000E-03 0.  1.
        -12    1    3    3    0    0  0.37159189195E+02  0.10752584045E+01  0.14419428928E+01  0.37202697773E+02  0.00000000000E+00 0.  1.
</event>
<event>
 7    1  0.1716782E-015  0.9000802E+02  0.7816164E-02  0.1186338E+00
        -11   -1    0    0    0    0  0.00000000000E+00  0.00000000000E+00  0.45593999997E+02  0.45594000000E+02  0.51100000000E-03 0. -1.
         11   -1    0    0    0    0 -0.00000000000E+00 -0.00000000000E+00 -0.45593999997E+02  0.45594000000E+02  0.51100000000E-03 0.  1.
    9900012    2    1    2    0    0  0.46272645007E+00  0.15985568395E+00  0.10736348983E+01  0.90008016313E+02  0.90000281328E+02 0.  0.
        -12    1    1    2    0    0 -0.46272645007E+00 -0.15985568395E+00 -0.10736348983E+01  0.11799836872E+01  0.00000000000E+00 0.  1.
         11    1    3    3    0    0  0.49947626048E+01  0.40686101496E+01  0.74418412362E+01  0.98428777943E+01  0.51100000000E-03 0. -1.
        -11    1    3    3    0    0  0.15239938553E+02 -0.30904122181E+02  0.17900090697E+02  0.38829547282E+02  0.51100000000E-03 0.  1.
         12    1    3    3    0    0 -0.19771974708E+02  0.26995367715E+02 -0.24268297035E+02  0.41335591237E+02  0.00000000000E+00 0. -1.
</event>
<event>
 7    1  0.1716782E-015  0.9000773E+02  0.7816164E-02  0.1186339E+00
        -11   -1    0    0    0    0  0.00000000000E+00  0.00000000000E+00  0.45593999997E+02  0.45594000000E+02  0.51100000000E-03 0. -1.
         11   -1    0    0    0    0 -0.00000000000E+00 -0.00000000000E+00 -0.45593999997E+02  0.45594000000E+02  0.51100000000E-03 0.  1.
    9900012    2    1    2    0    0  0.68364236978E+00 -0.56312231999E+00 -0.78010982005E+00  0.90007726740E+02  0.89999987933E+02 0.  0.
        -12    1    1    2    0    0 -0.68364236978E+00  0.56312231999E+00  0.78010982005E+00  0.11802732600E+01  0.00000000000E+00 0.  1.
         11    1    3    3    0    0 -0.46561023719E+01 -0.12443271719E+01 -0.63654905705E+01  0.79841787225E+01  0.51100000000E-03 0. -1.
        -11    1    3    3    0    0 -0.13014418700E+02  0.15719817338E+02 -0.31775351648E+02  0.37764543210E+02  0.51100000000E-03 0.  1.
         12    1    3    3    0    0  0.18354163442E+02 -0.15038612486E+02  0.37360732399E+02  0.44259004807E+02  0.00000000000E+00 0. -1.
</event>
<event>
 7    1  0.1716782E-015  0.9000828E+02  0.7816164E-02  0.1186338E+00
        -11   -1    0    0    0    0  0.00000000000E+00  0.00000000000E+00  0.45593999997E+02  0.45594000000E+02  0.51100000000E-03 0. -1.
         11   -1    0    0    0    0 -0.00000000000E+00 -0.00000000000E+00 -0.45593999997E+02  0.45594000000E+02  0.51100000000E-03 0.  1.
    9900012    2    1    2    0    0  0.26001749742E+00 -0.73196015891E+00  0.88790545002E+00  0.90008275091E+02  0.90000543520E+02 0.  0.
        -12    1    1    2    0    0 -0.26001749742E+00  0.73196015891E+00 -0.88790545002E+00  0.11797249092E+01  0.00000000000E+00 0.  1.
         11    1    3    3    0    0 -0.22969667057E+02  0.13786705821E+02  0.27446486203E+02  0.38353467474E+02  0.51100000000E-03 0. -1.
        -11    1    3    3    0    0 -0.23241747371E+01 -0.93435190396E+01  0.48941424195E+01  0.10800729907E+02  0.51100000000E-03 0.  1.
        -12    1    3    3    0    0  0.25553859291E+02 -0.51751469406E+01 -0.31452723173E+02  0.40854077710E+02  0.00000000000E+00 0.  1.
</event>
<event>
 7    1  0.1716782E-015  0.9000777E+02  0.7816164E-02  0.1186339E+00
        -11   -1    0    0    0    0  0.00000000000E+00  0.00000000000E+00  0.45593999997E+02  0.45594000000E+02  0.51100000000E-03 0.  1.
         11   -1    0    0    0    0 -0.00000000000E+00 -0.00000000000E+00 -0.45593999997E+02  0.45594000000E+02  0.51100000000E-03 0. -1.
    9900012    2    1    2    0    0 -0.10937299544E+01 -0.41648178150E+00 -0.15246679358E+00  0.90007767645E+02  0.90000029378E+02 0.  0.
        -12    1    1    2    0    0  0.10937299544E+01  0.41648178150E+00  0.15246679358E+00  0.11802323545E+01  0.00000000000E+00 0.  1.
         11    1    3    3    0    0  0.29936213706E+01  0.12417357452E+01  0.83770648776E+01  0.89821429957E+01  0.51100000000E-03 0. -1.
        -11    1    3    3    0    0 -0.29067976879E+01 -0.39582057488E+02  0.64956882888E+01  0.40216696960E+02  0.51100000000E-03 0.  1.
         12    1    3    3    0    0 -0.11805536371E+01  0.37923839961E+02 -0.15025219960E+02  0.40808927689E+02  0.00000000000E+00 0. -1.
</event>
<event>
 7    1  0.1716782E-015  0.9000776E+02  0.7816164E-02  0.1186339E+00
        -11   -1    0    0    0    0  0.00000000000E+00  0.00000000000E+00  0.45593999997E+02  0.45594000000E+02  0.51100000000E-03 0.  1.
         11   -1    0    0    0    0 -0.00000000000E+00 -0.00000000000E+00 -0.45593999997E+02  0.45594000000E+02  0.51100000000E-03 0. -1.
    9900012    2    1    2    0    0  0.11686303337E+01 -0.15436104389E+00 -0.58582096352E-01  0.90007764409E+02  0.90000026099E+02 0.  0.
        -12    1    1    2    0    0 -0.11686303337E+01  0.15436104389E+00  0.58582096352E-01  0.11802355912E+01  0.00000000000E+00 0.  1.
         11    1    3    3    0    0  0.22491169144E+02 -0.69750779823E+01 -0.36259464836E+02  0.43234860851E+02  0.51100000000E-03 0. -1.
        -11    1    3    3    0    0  0.31574832630E+01  0.76086495512E+00  0.95239800553E+01  0.10062545026E+02  0.51100000000E-03 0.  1.
        -12    1    3    3    0    0 -0.24480022074E+02  0.60598519833E+01  0.26676902684E+02  0.36710358533E+02  0.00000000000E+00 0.  1.
</event>
<event>
 7    1  0.1716782E-015  0.9000773E+02  0.7816164E-02  0.1186339E+00
        -11   -1    0    0    0    0  0.00000000000E+00  0.00000000000E+00  0.45593999997E+02  0.45594000000E+02  0.51100000000E-03 0.  1.
         11   -1    0    0    0    0 -0.00000000000E+00 -0.00000000000E+00 -0.45593999997E+02  0.45594000000E+02  0.51100000000E-03 0. -1.
    9900012    2    1    2    0    0 -0.11902804464E+00  0.81083223921E+00  0.84937092652E+00  0.90007725639E+02  0.89999986818E+02 0.  0.
        -12    1    1    2    0    0  0.11902804464E+00 -0.81083223921E+00 -0.84937092652E+00  0.11802743606E+01  0.00000000000E+00 0.  1.
         11    1    3    3    0    0 -0.18117238397E+02  0.14579969632E+02  0.17667436058E+02  0.29205275871E+02  0.51100000000E-03 0. -1.
        -11    1    3    3    0    0  0.16417764284E+02  0.43812221596E+01  0.15953003623E+02  0.23307432646E+02  0.51100000000E-03 0.  1.
         12    1    3    3    0    0  0.15804460683E+01 -0.18150359553E+02 -0.32771068754E+02  0.37495017122E+02  0.00000000000E+00 0. -1.
</event>
<event>
 7    1  0.1716782E-015  0.9000778E+02  0.7816164E-02  0.1186339E+00
        -11   -1    0    0    0    0  0.00000000000E+00  0.00000000000E+00  0.45593999997E+02  0.45594000000E+02  0.51100000000E-03 0. -1.
         11   -1    0    0    0    0 -0.00000000000E+00 -0.00000000000E+00 -0.45593999997E+02  0.45594000000E+02  0.51100000000E-03 0.  1.
    9900012    2    1    2    0    0 -0.22290292417E+00 -0.11289345932E+01  0.26216173742E+00  0.90007784848E+02  0.90000046808E+02 0.  0.
        -12    1    1    2    0    0  0.22290292417E+00  0.11289345932E+01 -0.26216173742E+00  0.11802151524E+01  0.00000000000E+00 0.  1.
         11    1    3    3    0    0  0.19091102401E+02 -0.21289123156E+02 -0.84341200631E-01  0.28595525338E+02  0.51100000000E-03 0. -1.
        -11    1    3    3    0    0 -0.22015871074E+02 -0.57544641255E+01  0.18773002955E+02  0.29499797910E+02  0.51100000000E-03 0.  1.
        -12    1    3    3    0    0  0.27018657485E+01  0.25914652689E+02 -0.18426500017E+02  0.31912461600E+02  0.00000000000E+00 0.  1.
</event>
<event>
 7    1  0.1716782E-015  0.9000773E+02  0.7816164E-02  0.1186339E+00
        -11   -1    0    0    0    0  0.00000000000E+00  0.00000000000E+00  0.45593999997E+02  0.45594000000E+02  0.51100000000E-03 0. -1.
         11   -1    0    0    0    0 -0.00000000000E+00 -0.00000000000E+00 -0.45593999997E+02  0.45594000000E+02  0.51100000000E-03 0.  1.
    9900012    2    1    2    0    0  0.31721382388E+00  0.11171698164E+00  0.11313419209E+01  0.90007728914E+02  0.89999990136E+02 0.  0.
        -12    1    1    2    0    0 -0.31721382388E+00 -0.11171698164E+00 -0.11313419209E+01  0.11802710858E+01  0.00000000000E+00 0.  1.
         11    1    3    3    0    0  0.67352369549E+00  0.47576401230E+01  0.33637833931E+02  0.33979297308E+02  0.51100000000E-03 0. -1.
        -11    1    3    3    0    0  0.15922410264E+01 -0.15269406501E+01  0.11580278182E+02  0.11788537750E+02  0.51100000000E-03 0.  1.
        -12    1    3    3    0    0 -0.19485508981E+01 -0.31189824912E+01 -0.44086770193E+02  0.44239893856E+02  0.00000000000E+00 0.  1.
</event>
<event>
 7    1  0.1716782E-015  0.9000772E+02  0.7816164E-02  0.1186339E+00
        -11   -1    0    0    0    0  0.00000000000E+00  0.00000000000E+00  0.45593999997E+02  0.45594000000E+02  0.51100000000E-03 0.  1.
         11   -1    0    0    0    0 -0.00000000000E+00 -0.00000000000E+00 -0.45593999997E+02  0.45594000000E+02  0.51100000000E-03 0. -1.
    9900012    2    1    2    0    0  0.11560513620E+01  0.21928494425E+00  0.92326046271E-01  0.90007718365E+02  0.89999979448E+02 0.  0.
        -12    1    1    2    0    0 -0.11560513620E+01 -0.21928494425E+00 -0.92326046271E-01  0.11802816346E+01  0.00000000000E+00 0.  1.
         11    1    3    3    0    0  0.69630362882E+00  0.79441096847E+01 -0.52919023882E+01  0.95706817194E+01  0.51100000000E-03 0. -1.
        -11    1    3    3    0    0  0.36717343327E+02  0.97673259999E+01  0.11550048128E+02  0.39711050983E+02  0.51100000000E-03 0.  1.
         12    1    3    3    0    0 -0.36257595593E+02 -0.17492150740E+02 -0.61658196932E+01  0.40725985663E+02  0.00000000000E+00 0. -1.
</event>
<event>
 7    1  0.1716782E-015  0.9000787E+02  0.7816164E-02  0.1186339E+00
        -11   -1    0    0    0    0  0.00000000000E+00  0.00000000000E+00  0.45593999997E+02  0.45594000000E+02  0.51100000000E-03 0. -1.
         11   -1    0    0    0    0 -0.00000000000E+00 -0.00000000000E+00 -0.45593999997E+02  0.45594000000E+02  0.51100000000E-03 0.  1.
    9900012    2    1    2    0    0  0.23056297760E+00 -0.10980068422E+01  0.36595736549E+00  0.90007871572E+02  0.90000134677E+02 0.  0.
        -12    1    1    2    0    0 -0.23056297760E+00  0.10980068422E+01 -0.36595736549E+00  0.11801284276E+01  0.00000000000E+00 0.  1.
         11    1    3    3    0    0  0.24977628698E+00  0.38722233645E+02 -0.61102192934E+01  0.39202149771E+02  0.51100000000E-03 0. -1.
        -11    1    3    3    0    0 -0.61346723099E+01 -0.18712381664E+01  0.10346089882E+02  0.12172810388E+02  0.51100000000E-03 0.  1.
        -12    1    3    3    0    0  0.61154590005E+01 -0.37949002321E+02 -0.38699132233E+01  0.38632911413E+02  0.00000000000E+00 0.  1.
</event>
<event>
 7    1  0.1716782E-015  0.9000775E+02  0.7816164E-02  0.1186339E+00
        -11   -1    0    0    0    0  0.00000000000E+00  0.00000000000E+00  0.45593999997E+02  0.45594000000E+02  0.51100000000E-03 0.  1.
         11   -1    0    0    0    0 -0.00000000000E+00 -0.00000000000E+00 -0.45593999997E+02  0.45594000000E+02  0.51100000000E-03 0. -1.
    9900012    2    1    2    0    0  0.16087319967E-01 -0.60637835538E+00 -0.10124432910E+01  0.90007747938E+02  0.90000009411E+02 0.  0.
        -12    1    1    2    0    0 -0.16087319967E-01  0.60637835538E+00  0.10124432910E+01  0.11802520618E+01  0.00000000000E+00 0.  1.
         11    1    3    3    0    0  0.34296557138E+01 -0.33873538798E+02  0.91858452359E+00  0.34059109894E+02  0.51100000000E-03 0. -1.
        -11    1    3    3    0    0 -0.31340650528E+01 -0.11033569027E+02 -0.20221381676E+01  0.11646933170E+02  0.51100000000E-03 0.  1.
        -12    1    3    3    0    0 -0.27950334105E+00  0.44300729470E+02  0.91110352956E-01  0.44301704874E+02  0.00000000000E+00 0.  1.
</event>
<event>
 7    1  0.1716782E-015  0.9000763E+02  0.7816164E-02  0.1186339E+00
        -11   -1    0    0    0    0  0.00000000000E+00  0.00000000000E+00  0.45593999997E+02  0.45594000000E+02  0.51100000000E-03 0.  1.
         11   -1    0    0    0    0 -0.00000000000E+00 -0.00000000000E+00 -0.45593999997E+02  0.45594000000E+02  0.51100000000E-03 0. -1.
    9900012    2    1    2    0    0 -0.32733324553E+00 -0.11156548761E+01 -0.20358439574E+00  0.90007627405E+02  0.89999887287E+02 0.  0.
        -12    1    1    2    0    0  0.32733324553E+00  0.11156548761E+01  0.20358439574E+00  0.11803725947E+01  0.00000000000E+00 0.  1.
         11    1    3    3    0    0  0.21577273941E+02 -0.31872640073E+02 -0.11207305766E+02  0.40087998687E+02  0.51100000000E-03 0. -1.
        -11    1    3    3    0    0  0.30702681363E+01  0.33349424276E+01  0.11987533837E+02  0.12815980461E+02  0.51100000000E-03 0.  1.
        -12    1    3    3    0    0 -0.24974875323E+02  0.27422042769E+02 -0.98381246716E+00  0.37103648257E+02  0.00000000000E+00 0.  1.
</event>
<event>
 7    1  0.1716782E-015  0.9000771E+02  0.7816164E-02  0.1186339E+00
        -11   -1    0    0    0    0  0.00000000000E+00  0.00000000000E+00  0.45593999997E+02  0.45594000000E+02  0.51100000000E-03 0.  1.
         11   -1    0    0    0    0 -0.00000000000E+00 -0.00000000000E+00 -0.45593999997E+02  0.45594000000E+02  0.51100000000E-03 0. -1.
    9900012    2    1    2    0    0  0.82158904019E+00 -0.84240793794E+00 -0.91813089689E-01  0.90007707948E+02  0.89999968893E+02 0.  0.
        -12    1    1    2    0    0 -0.82158904019E+00  0.84240793794E+00  0.91813089689E-01  0.11802920521E+01  0.00000000000E+00 0.  1.
         11    1    3    3    0    0 -0.70488599652E+01 -0.37318009219E+00 -0.54099168648E+01  0.88934184054E+01  0.51100000000E-03 0. -1.
        -11    1    3    3    0    0 -0.41730466628E+01 -0.36294916423E+02 -0.13429686321E+02  0.38924179523E+02  0.51100000000E-03 0.  1.
         12    1    3    3    0    0  0.12043495668E+02  0.35825688577E+02  0.18747790096E+02  0.42190110019E+02  0.00000000000E+00 0. -1.
</event>
<event>
 7    1  0.1716782E-015  0.9000776E+02  0.7816164E-02  0.1186339E+00
        -11   -1    0    0    0    0  0.00000000000E+00  0.00000000000E+00  0.45593999997E+02  0.45594000000E+02  0.51100000000E-03 0. -1.
         11   -1    0    0    0    0 -0.00000000000E+00 -0.00000000000E+00 -0.45593999997E+02  0.45594000000E+02  0.51100000000E-03 0.  1.
    9900012    2    1    2    0    0  0.85389238599E+00 -0.24134155816E+00  0.77819825791E+00  0.90007758295E+02  0.90000019904E+02 0.  0.
        -12    1    1    2    0    0 -0.85389238599E+00  0.24134155816E+00 -0.77819825791E+00  0.11802417054E+01  0.00000000000E+00 0.  1.
         11    1    3    3    0    0 -0.12839463749E+01  0.23354364236E-01  0.69606433105E+01  0.70781084533E+01  0.51100000000E-03 0. -1.
        -11    1    3    3    0    0  0.22523742497E+02  0.27948027676E+02 -0.24633777880E+02  0.43534288095E+02  0.51100000000E-03 0.  1.
         12    1    3    3    0    0 -0.20385903736E+02 -0.28212723599E+02  0.18451332828E+02  0.39395361746E+02  0.00000000000E+00 0. -1.
</event>
<event>
 7    1  0.1716782E-015  0.9000774E+02  0.7816164E-02  0.1186339E+00
        -11   -1    0    0    0    0  0.00000000000E+00  0.00000000000E+00  0.45593999997E+02  0.45594000000E+02  0.51100000000E-03 0. -1.
         11   -1    0    0    0    0 -0.00000000000E+00 -0.00000000000E+00 -0.45593999997E+02  0.45594000000E+02  0.51100000000E-03 0.  1.
    9900012    2    1    2    0    0 -0.24975059075E+00  0.11250467324E+01 -0.25479069117E+00  0.90007735706E+02  0.89999997017E+02 0.  0.
        -12    1    1    2    0    0  0.24975059075E+00 -0.11250467324E+01  0.25479069117E+00  0.11802642941E+01  0.00000000000E+00 0.  1.
         11    1    3    3    0    0  0.97435176507E+01  0.17130934545E+02 -0.29731921939E+02  0.35670607467E+02  0.51100000000E-03 0. -1.
        -11    1    3    3    0    0  0.69019756071E+01  0.45348424560E+01 -0.58478068736E+01  0.10119234599E+02  0.51100000000E-03 0.  1.
        -12    1    3    3    0    0 -0.16895243849E+02 -0.20540730269E+02  0.35324938121E+02  0.44217893640E+02  0.00000000000E+00 0.  1.
</event>
<event>
 7    1  0.1716782E-015  0.9000771E+02  0.7816164E-02  0.1186339E+00
        -11   -1    0    0    0    0  0.00000000000E+00  0.00000000000E+00  0.45593999997E+02  0.45594000000E+02  0.51100000000E-03 0.  1.
         11   -1    0    0    0    0 -0.00000000000E+00 -0.00000000000E+00 -0.45593999997E+02  0.45594000000E+02  0.51100000000E-03 0. -1.
    9900012    2    1    2    0    0  0.24428145708E+00  0.10387696642E+01 -0.50434761050E+00  0.90007710901E+02  0.89999971885E+02 0.  0.
        -12    1    1    2    0    0 -0.24428145708E+00 -0.10387696642E+01  0.50434761050E+00  0.11802890992E+01  0.00000000000E+00 0.  1.
         11    1    3    3    0    0 -0.59714277574E+01  0.36957646655E+01 -0.73312526282E+01  0.10152038775E+02  0.51100000000E-03 0. -1.
        -11    1    3    3    0    0 -0.19594048869E+02  0.31206897012E+02  0.55021715637E+01  0.37256825742E+02  0.51100000000E-03 0.  1.
         12    1    3    3    0    0  0.25809758083E+02 -0.33863892013E+02  0.13247334540E+01  0.42598846385E+02  0.00000000000E+00 0. -1.
</event>
<event>
 7    1  0.1926621E-015  0.9000765E+02  0.7816164E-02  0.1186339E+00
        -11   -1    0    0    0    0  0.00000000000E+00  0.00000000000E+00  0.45593999997E+02  0.45594000000E+02  0.51100000000E-03 0. -1.
         11   -1    0    0    0    0 -0.00000000000E+00 -0.00000000000E+00 -0.45593999997E+02  0.45594000000E+02  0.51100000000E-03 0.  1.
    9900012    2    1    2    0    0  0.12977744183E+00  0.93268752294E+00  0.71167880290E+00  0.90007646274E+02  0.89999906405E+02 0.  0.
        -12    1    1    2    0    0 -0.12977744183E+00 -0.93268752294E+00 -0.71167880290E+00  0.11803537259E+01  0.00000000000E+00 0.  1.
         11    1    3    3    0    0 -0.14074097066E+02  0.21873301251E+02  0.32805401384E+02  0.41865449670E+02  0.51100000000E-03 0. -1.
        -11    1    3    3    0    0 -0.10066872250E+01 -0.95374264661E+01  0.13381717452E+01  0.96833169238E+01  0.51100000000E-03 0.  1.
        -12    1    3    3    0    0  0.15210561733E+02 -0.11403187262E+02 -0.33431894327E+02  0.38458879680E+02  0.00000000000E+00 0.  1.
</event>
<event>
 7    1  0.1716782E-015  0.9000794E+02  0.7816164E-02  0.1186339E+00
        -11   -1    0    0    0    0  0.00000000000E+00  0.00000000000E+00  0.45593999997E+02  0.45594000000E+02  0.51100000000E-03 0.  1.
         11   -1    0    0    0    0 -0.00000000000E+00 -0.00000000000E+00 -0.45593999997E+02  0.45594000000E+02  0.51100000000E-03 0. -1.
    9900012    2    1    2    0    0  0.29988077232E+00  0.47398748467E-01 -0.11403322089E+01  0.90007943787E+02  0.90000207845E+02 0.  0.
        -12    1    1    2    0    0 -0.29988077232E+00 -0.47398748467E-01  0.11403322089E+01  0.11800562129E+01  0.00000000000E+00 0.  1.
         11    1    3    3    0    0  0.31212365696E+02  0.47408189585E+01 -0.16669956718E+02  0.35701184769E+02  0.51100000000E-03 0. -1.
        -11    1    3    3    0    0  0.74397468456E+01  0.59527614562E+01 -0.35494980262E+01  0.10167799102E+02  0.51100000000E-03 0.  1.
        -12    1    3    3    0    0 -0.38352231769E+02 -0.10646181666E+02  0.19079122535E+02  0.44138959916E+02  0.00000000000E+00 0.  1.
</event>
<event>
 7    1  0.1716782E-015  0.9000770E+02  0.7816164E-02  0.1186339E+00
        -11   -1    0    0    0    0  0.00000000000E+00  0.00000000000E+00  0.45593999997E+02  0.45594000000E+02  0.51100000000E-03 0. -1.
         11   -1    0    0    0    0 -0.00000000000E+00 -0.00000000000E+00 -0.45593999997E+02  0.45594000000E+02  0.51100000000E-03 0.  1.
    9900012    2    1    2    0    0  0.13082036714E+00  0.71587465110E+00  0.92925716659E+00  0.90007699459E+02  0.89999960292E+02 0.  0.
        -12    1    1    2    0    0 -0.13082036714E+00 -0.71587465110E+00 -0.92925716659E+00  0.11803005406E+01  0.00000000000E+00 0.  1.
         11    1    3    3    0    0  0.24364071251E+01  0.10530214954E+02  0.41431246784E+02  0.42817866796E+02  0.51100000000E-03 0. -1.
        -11    1    3    3    0    0 -0.59554847788E+01 -0.50625534470E+01 -0.17925118931E+01  0.80193731365E+01  0.51100000000E-03 0.  1.
        -12    1    3    3    0    0  0.36498980209E+01 -0.47517868557E+01 -0.38709477724E+02  0.39170459527E+02  0.00000000000E+00 0.  1.
</event>
<event>
 7    1  0.1716782E-015  0.9000775E+02  0.7816164E-02  0.1186339E+00
        -11   -1    0    0    0    0  0.00000000000E+00  0.00000000000E+00  0.45593999997E+02  0.45594000000E+02  0.51100000000E-03 0.  1.
         11   -1    0    0    0    0 -0.00000000000E+00 -0.00000000000E+00 -0.45593999997E+02  0.45594000000E+02  0.51100000000E-03 0. -1.
    9900012    2    1    2    0    0 -0.13340990565E-01 -0.11778003502E+01 -0.74815283230E-01  0.90007750461E+02  0.90000011967E+02 0.  0.
        -12    1    1    2    0    0  0.13340990565E-01  0.11778003502E+01  0.74815283230E-01  0.11802495387E+01  0.00000000000E+00 0.  1.
         11    1    3    3    0    0  0.34385781441E+02  0.69402169587E+01  0.17328699340E+01  0.35121950618E+02  0.51100000000E-03 0. -1.
        -11    1    3    3    0    0  0.76760652738E+01  0.30612868921E+01  0.65633884179E+01  0.10553270740E+02  0.51100000000E-03 0.  1.
        -12    1    3    3    0    0 -0.42075187706E+02 -0.11179304201E+02 -0.83710736351E+01  0.44332529103E+02  0.00000000000E+00 0.  1.
</event>
<event>
 7    1  0.1716782E-015  0.9000776E+02  0.7816164E-02  0.1186339E+00
        -11   -1    0    0    0    0  0.00000000000E+00  0.00000000000E+00  0.45593999997E+02  0.45594000000E+02  0.51100000000E-03 0.  1.
         11   -1    0    0    0    0 -0.00000000000E+00 -0.00000000000E+00 -0.45593999997E+02  0.45594000000E+02  0.51100000000E-03 0. -1.
    9900012    2    1    2    0    0 -0.66754964033E+00  0.47521397608E+00 -0.84941508169E+00  0.90007764080E+02  0.90000025766E+02 0.  0.
        -12    1    1    2    0    0  0.66754964033E+00 -0.47521397608E+00  0.84941508169E+00  0.11802359198E+01  0.00000000000E+00 0.  1.
         11    1    3    3    0    0  0.45933075167E+01 -0.74319073068E+01 -0.20348737898E+01  0.89706427731E+01  0.51100000000E-03 0. -1.
        -11    1    3    3    0    0  0.11272766694E+02  0.28305120861E+02  0.29509022859E+02  0.42415062964E+02  0.51100000000E-03 0.  1.
         12    1    3    3    0    0 -0.16533623851E+02 -0.20397999578E+02 -0.28323564151E+02  0.38622058343E+02  0.00000000000E+00 0. -1.
</event>
<event>
 7    1  0.1716782E-015  0.9000739E+02  0.7816164E-02  0.1186340E+00
        -11   -1    0    0    0    0  0.00000000000E+00  0.00000000000E+00  0.45593999997E+02  0.45594000000E+02  0.51100000000E-03 0.  1.
         11   -1    0    0    0    0 -0.00000000000E+00 -0.00000000000E+00 -0.45593999997E+02  0.45594000000E+02  0.51100000000E-03 0. -1.
    9900012    2    1    2    0    0  0.11656694717E+01  0.18134400115E+00  0.46595942084E-01  0.90007389079E+02  0.89999645815E+02 0.  0.
        -12    1    1    2    0    0 -0.11656694717E+01 -0.18134400115E+00 -0.46595942084E-01  0.11806109206E+01  0.00000000000E+00 0.  1.
         11    1    3    3    0    0 -0.35107748543E+02 -0.13319479974E+02 -0.19349783749E+02  0.42241883077E+02  0.51100000000E-03 0. -1.
        -11    1    3    3    0    0  0.20824800739E+01  0.23401002279E+01  0.10160155601E+02  0.10632100189E+02  0.51100000000E-03 0.  1.
        -12    1    3    3    0    0  0.34190937941E+02  0.11160723748E+02  0.92362240897E+01  0.37133405813E+02  0.00000000000E+00 0.  1.
</event>
<event>
 7    1  0.1716782E-015  0.9000769E+02  0.7816164E-02  0.1186339E+00
        -11   -1    0    0    0    0  0.00000000000E+00  0.00000000000E+00  0.45593999997E+02  0.45594000000E+02  0.51100000000E-03 0. -1.
         11   -1    0    0    0    0 -0.00000000000E+00 -0.00000000000E+00 -0.45593999997E+02  0.45594000000E+02  0.51100000000E-03 0.  1.
    9900012    2    1    2    0    0  0.20695402444E-01  0.10661787034E+01 -0.50593943089E+00  0.90007686467E+02  0.89999947129E+02 0.  0.
        -12    1    1    2    0    0 -0.20695402444E-01 -0.10661787034E+01  0.50593943089E+00  0.11803135325E+01  0.00000000000E+00 0.  1.
         11    1    3    3    0    0 -0.19070134791E+02 -0.22395417880E+02  0.25463007766E+02  0.38904878199E+02  0.51100000000E-03 0. -1.
        -11    1    3    3    0    0 -0.84905877281E+01  0.58179650032E+01 -0.19012457217E+01  0.10466782328E+02  0.51100000000E-03 0.  1.
        -12    1    3    3    0    0  0.27581417921E+02  0.17643631581E+02 -0.24067701475E+02  0.40636025940E+02  0.00000000000E+00 0.  1.
</event>
<event>
 7    1  0.1733833E-015  0.9000773E+02  0.7816164E-02  0.1186339E+00
        -11   -1    0    0    0    0  0.00000000000E+00  0.00000000000E+00  0.45593999997E+02  0.45594000000E+02  0.51100000000E-03 0. -1.
         11   -1    0    0    0    0 -0.00000000000E+00 -0.00000000000E+00 -0.45593999997E+02  0.45594000000E+02  0.51100000000E-03 0.  1.
    9900012    2    1    2    0    0 -0.37076323932E+00  0.10633094540E+01  0.35346203860E+00  0.90007734018E+02  0.89999995307E+02 0.  0.
        -12    1    1    2    0    0  0.37076323932E+00 -0.10633094540E+01 -0.35346203860E+00  0.11802659816E+01  0.00000000000E+00 0.  1.
         11    1    3    3    0    0 -0.92890886029E+01  0.21303798612E+02  0.31742472526E+02  0.39341117990E+02  0.51100000000E-03 0. -1.
        -11    1    3    3    0    0  0.73640097888E+01 -0.37814616136E+00  0.51877807586E+01  0.90158030230E+01  0.51100000000E-03 0.  1.
        -12    1    3    3    0    0  0.15543155748E+01 -0.19862342996E+02 -0.36576791246E+02  0.41650813006E+02  0.00000000000E+00 0.  1.
</event>
<event>
 7    1  0.1716782E-015  0.9000760E+02  0.7816164E-02  0.1186339E+00
        -11   -1    0    0    0    0  0.00000000000E+00  0.00000000000E+00  0.45593999997E+02  0.45594000000E+02  0.51100000000E-03 0.  1.
         11   -1    0    0    0    0 -0.00000000000E+00 -0.00000000000E+00 -0.45593999997E+02  0.45594000000E+02  0.51100000000E-03 0. -1.
    9900012    2    1    2    0    0  0.44042765640E+00  0.10116124952E+01  0.41952442348E+00  0.90007602989E+02  0.89999862549E+02 0.  0.
        -12    1    1    2    0    0 -0.44042765640E+00 -0.10116124952E+01 -0.41952442348E+00  0.11803970107E+01  0.00000000000E+00 0.  1.
         11    1    3    3    0    0 -0.21804908955E+02  0.90273112159E+00 -0.28112131127E+02  0.35588774843E+02  0.51100000000E-03 0. -1.
        -11    1    3    3    0    0 -0.10730098567E+02 -0.26934195009E+01  0.54342761759E+00  0.11076318779E+02  0.51100000000E-03 0.  1.
        -12    1    3    3    0    0  0.32975435179E+02  0.28023008745E+01  0.27988227933E+02  0.43342509367E+02  0.00000000000E+00 0.  1.
</event>
<event>
 7    1  0.1716782E-015  0.9000773E+02  0.7816164E-02  0.1186339E+00
        -11   -1    0    0    0    0  0.00000000000E+00  0.00000000000E+00  0.45593999997E+02  0.45594000000E+02  0.51100000000E-03 0. -1.
         11   -1    0    0    0    0 -0.00000000000E+00 -0.00000000000E+00 -0.45593999997E+02  0.45594000000E+02  0.51100000000E-03 0.  1.
    9900012    2    1    2    0    0 -0.10772548335E+01 -0.46880705994E+00  0.11302503458E+00  0.90007731940E+02  0.89999993201E+02 0.  0.
        -12    1    1    2    0    0  0.10772548335E+01  0.46880705994E+00 -0.11302503458E+00  0.11802680603E+01  0.00000000000E+00 0.  1.
         11    1    3    3    0    0 -0.17431188347E+02  0.28780803972E+01  0.31922025456E+02  0.36484865128E+02  0.51100000000E-03 0. -1.
        -11    1    3    3    0    0  0.65724749305E+01  0.67383666074E+01  0.73353437280E+01  0.11933577800E+02  0.51100000000E-03 0.  1.
        -12    1    3    3    0    0  0.97814585826E+01 -0.10085254065E+02 -0.39144344150E+02  0.41589289011E+02  0.00000000000E+00 0.  1.
</event>
<event>
 8    1  0.1716782E-015  0.9000780E+02  0.7816164E-02  0.1186339E+00
        -11   -1    0    0    0    0  0.00000000000E+00  0.00000000000E+00  0.45593999997E+02  0.45594000000E+02  0.51100000000E-03 0.  1.
         11   -1    0    0    0    0 -0.00000000000E+00 -0.00000000000E+00 -0.45593999997E+02  0.45594000000E+02  0.51100000000E-03 0. -1.
    9900012    2    1    2    0    0 -0.52605176213E+00 -0.64459254458E+00  0.83703889583E+00  0.90007803356E+02  0.90000065560E+02 0.  0.
         23    2    3    3    0    0 -0.24513498445E+02 -0.69370753735E+01 -0.13024059235E+02  0.61597893467E+02  0.54549424744E+02 0.  0.
        -12    1    1    2    0    0  0.52605176213E+00  0.64459254458E+00 -0.83703889583E+00  0.11801966438E+01  0.00000000000E+00 0.  1.
         11    1    4    4    0    0 -0.22899599204E+02  0.33225840963E+01 -0.32281656770E+02  0.39718214624E+02  0.51100000000E-03 0. -1.
        -11    1    4    4    0    0 -0.16138992403E+01 -0.10259659470E+02  0.19257597536E+02  0.21879678844E+02  0.51100000000E-03 0.  1.
        -12    1    3    3    0    0  0.23987446683E+02  0.62924828289E+01  0.13861098130E+02  0.28409909889E+02  0.00000000000E+00 0.  1.
</event>
<event>
 7    1  0.1716782E-015  0.9000773E+02  0.7816164E-02  0.1186339E+00
        -11   -1    0    0    0    0  0.00000000000E+00  0.00000000000E+00  0.45593999997E+02  0.45594000000E+02  0.51100000000E-03 0.  1.
         11   -1    0    0    0    0 -0.00000000000E+00 -0.00000000000E+00 -0.45593999997E+02  0.45594000000E+02  0.51100000000E-03 0. -1.
    9900012    2    1    2    0    0 -0.92957940806E-01 -0.88479777938E+00 -0.77558581923E+00  0.90007728145E+02  0.89999989356E+02 0.  0.
        -12    1    1    2    0    0  0.92957940806E-01  0.88479777938E+00  0.77558581923E+00  0.11802718552E+01  0.00000000000E+00 0.  1.
         11    1    3    3    0    0  0.25932088628E+02 -0.14764191499E+02  0.23165107112E+02  0.37776669506E+02  0.51100000000E-03 0. -1.
        -11    1    3    3    0    0  0.74240704464E+01  0.61984971900E+01  0.11189889931E+01  0.97360323559E+01  0.51100000000E-03 0.  1.
        -12    1    3    3    0    0 -0.33449117015E+02  0.76808965297E+01 -0.25059681925E+02  0.42495026282E+02  0.00000000000E+00 0.  1.
</event>
<event>
 7    1  0.1716782E-015  0.9000776E+02  0.7816164E-02  0.1186339E+00
        -11   -1    0    0    0    0  0.00000000000E+00  0.00000000000E+00  0.45593999997E+02  0.45594000000E+02  0.51100000000E-03 0.  1.
         11   -1    0    0    0    0 -0.00000000000E+00 -0.00000000000E+00 -0.45593999997E+02  0.45594000000E+02  0.51100000000E-03 0. -1.
    9900012    2    1    2    0    0 -0.77303092868E+00  0.88967671506E+00 -0.62129732381E-01  0.90007762067E+02  0.90000023727E+02 0.  0.
        -12    1    1    2    0    0  0.77303092868E+00 -0.88967671506E+00  0.62129732381E-01  0.11802379327E+01  0.00000000000E+00 0.  1.
         11    1    3    3    0    0 -0.72454281502E+01  0.34527802654E+02 -0.68905155273E+01  0.35946412751E+02  0.51100000000E-03 0. -1.
        -11    1    3    3    0    0  0.24070182474E+01  0.96556656274E+01 -0.50086041916E+00  0.99637581751E+01  0.51100000000E-03 0.  1.
        -12    1    3    3    0    0  0.40653789741E+01 -0.43293791566E+02  0.73292462141E+01  0.44097591141E+02  0.00000000000E+00 0.  1.
</event>
<event>
 7    1  0.1716782E-015  0.9000768E+02  0.7816164E-02  0.1186339E+00
        -11   -1    0    0    0    0  0.00000000000E+00  0.00000000000E+00  0.45593999997E+02  0.45594000000E+02  0.51100000000E-03 0. -1.
         11   -1    0    0    0    0 -0.00000000000E+00 -0.00000000000E+00 -0.45593999997E+02  0.45594000000E+02  0.51100000000E-03 0.  1.
    9900012    2    1    2    0    0 -0.52746999289E+00  0.76906875314E+00  0.72350949883E+00  0.90007679139E+02  0.89999939703E+02 0.  0.
        -12    1    1    2    0    0  0.52746999289E+00 -0.76906875314E+00 -0.72350949883E+00  0.11803208612E+01  0.00000000000E+00 0.  1.
         11    1    3    3    0    0  0.41117565331E+01 -0.80915655236E+01 -0.26909586865E+01  0.94668491761E+01  0.51100000000E-03 0. -1.
        -11    1    3    3    0    0 -0.27436430787E+02  0.27368684571E+02 -0.19416552296E+02  0.43345185809E+02  0.51100000000E-03 0.  1.
         12    1    3    3    0    0  0.22797204261E+02 -0.18508050295E+02  0.22831020481E+02  0.37195644154E+02  0.00000000000E+00 0. -1.
</event>
<event>
 7    1  0.1716782E-015  0.9000767E+02  0.7816164E-02  0.1186339E+00
        -11   -1    0    0    0    0  0.00000000000E+00  0.00000000000E+00  0.45593999997E+02  0.45594000000E+02  0.51100000000E-03 0.  1.
         11   -1    0    0    0    0 -0.00000000000E+00 -0.00000000000E+00 -0.45593999997E+02  0.45594000000E+02  0.51100000000E-03 0. -1.
    9900012    2    1    2    0    0 -0.95375950612E+00  0.68261976438E+00 -0.13252219176E+00  0.90007665696E+02  0.89999926083E+02 0.  0.
        -12    1    1    2    0    0  0.95375950612E+00 -0.68261976438E+00  0.13252219176E+00  0.11803343041E+01  0.00000000000E+00 0.  1.
         11    1    3    3    0    0 -0.27898672862E+02  0.23838505569E+02  0.12879689315E+02  0.38890830440E+02  0.51100000000E-03 0. -1.
        -11    1    3    3    0    0 -0.23504465735E+01  0.67325009753E+01 -0.44288127249E+01  0.83943761466E+01  0.51100000000E-03 0.  1.
        -12    1    3    3    0    0  0.29295359929E+02 -0.29888386780E+02 -0.85833987822E+01  0.42722459109E+02  0.00000000000E+00 0.  1.
</event>
<event>
 7    1  0.1716782E-015  0.9000755E+02  0.7816164E-02  0.1186339E+00
        -11   -1    0    0    0    0  0.00000000000E+00  0.00000000000E+00  0.45593999997E+02  0.45594000000E+02  0.51100000000E-03 0.  1.
         11   -1    0    0    0    0 -0.00000000000E+00 -0.00000000000E+00 -0.45593999997E+02  0.45594000000E+02  0.51100000000E-03 0. -1.
    9900012    2    1    2    0    0 -0.34940905890E+00  0.10808146524E+01 -0.32128229852E+00  0.90007546986E+02  0.89999805806E+02 0.  0.
        -12    1    1    2    0    0  0.34940905890E+00 -0.10808146524E+01  0.32128229852E+00  0.11804530142E+01  0.00000000000E+00 0.  1.
         11    1    3    3    0    0 -0.41845068864E+01  0.64382185065E+01  0.65380289698E+01  0.10084967947E+02  0.51100000000E-03 0. -1.
        -11    1    3    3    0    0  0.37774401417E+02 -0.18070406192E+02  0.40617264408E+01  0.42070685807E+02  0.51100000000E-03 0.  1.
         12    1    3    3    0    0 -0.33939303589E+02  0.12713002338E+02 -0.10921037709E+02  0.37851893232E+02  0.00000000000E+00 0. -1.
</event>
<event>
 7    1  0.1716782E-015  0.9000775E+02  0.7816164E-02  0.1186339E+00
        -11   -1    0    0    0    0  0.00000000000E+00  0.00000000000E+00  0.45593999997E+02  0.45594000000E+02  0.51100000000E-03 0. -1.
         11   -1    0    0    0    0 -0.00000000000E+00 -0.00000000000E+00 -0.45593999997E+02  0.45594000000E+02  0.51100000000E-03 0.  1.
    9900012    2    1    2    0    0 -0.36401130200E+00 -0.90740924628E+00  0.66113951122E+00  0.90007745273E+02  0.90000006710E+02 0.  0.
        -12    1    1    2    0    0  0.36401130200E+00  0.90740924628E+00 -0.66113951122E+00  0.11802547274E+01  0.00000000000E+00 0.  1.
         11    1    3    3    0    0 -0.61971050418E+01 -0.96473489818E+01  0.49202400716E+01  0.12477348112E+02  0.51100000000E-03 0. -1.
        -11    1    3    3    0    0 -0.25751400813E+02 -0.19045758700E+02 -0.12996529984E+02  0.34565667362E+02  0.51100000000E-03 0.  1.
         12    1    3    3    0    0  0.31584494553E+02  0.27785698436E+02  0.87374294233E+01  0.42964729799E+02  0.00000000000E+00 0. -1.
</event>
<event>
 7    1  0.1716782E-015  0.9000774E+02  0.7816164E-02  0.1186339E+00
        -11   -1    0    0    0    0  0.00000000000E+00  0.00000000000E+00  0.45593999997E+02  0.45594000000E+02  0.51100000000E-03 0.  1.
         11   -1    0    0    0    0 -0.00000000000E+00 -0.00000000000E+00 -0.45593999997E+02  0.45594000000E+02  0.51100000000E-03 0. -1.
    9900012    2    1    2    0    0 -0.44220944189E+00 -0.10004549411E+01  0.44335477631E+00  0.90007736158E+02  0.89999997475E+02 0.  0.
        -12    1    1    2    0    0  0.44220944189E+00  0.10004549411E+01 -0.44335477631E+00  0.11802638423E+01  0.00000000000E+00 0.  1.
         11    1    3    3    0    0  0.87641265683E+01 -0.33465867679E+02 -0.47408346747E+01  0.34917756625E+02  0.51100000000E-03 0. -1.
        -11    1    3    3    0    0  0.75333173292E+01 -0.78541854676E+01 -0.12783187212E+01  0.10957791673E+02  0.51100000000E-03 0.  1.
        -12    1    3    3    0    0 -0.16739653339E+02  0.40319598206E+02  0.64625081721E+01  0.44132187860E+02  0.00000000000E+00 0.  1.
</event>
<event>
 7    1  0.1952174E-015  0.9000834E+02  0.7816164E-02  0.1186338E+00
        -11   -1    0    0    0    0  0.00000000000E+00  0.00000000000E+00  0.45593999997E+02  0.45594000000E+02  0.51100000000E-03 0.  1.
         11   -1    0    0    0    0 -0.00000000000E+00 -0.00000000000E+00 -0.45593999997E+02  0.45594000000E+02  0.51100000000E-03 0. -1.
    9900012    2    1    2    0    0  0.96592952893E+00 -0.53609348692E+00 -0.41374287301E+00  0.90008339351E+02  0.90000608628E+02 0.  0.
        -12    1    1    2    0    0 -0.96592952893E+00  0.53609348692E+00  0.41374287301E+00  0.11796606489E+01  0.00000000000E+00 0.  1.
         11    1    3    3    0    0 -0.32244600619E+01 -0.17839343728E+02 -0.33945288617E+02  0.38482748692E+02  0.51100000000E-03 0. -1.
        -11    1    3    3    0    0 -0.61317716603E+01 -0.71364269272E+01  0.87320032396E+00  0.94493223063E+01  0.51100000000E-03 0.  1.
        -12    1    3    3    0    0  0.10322161251E+02  0.24439677168E+02  0.32658345420E+02  0.42076268353E+02  0.00000000000E+00 0.  1.
</event>
<event>
 7    1  0.1716782E-015  0.9000786E+02  0.7816164E-02  0.1186339E+00
        -11   -1    0    0    0    0  0.00000000000E+00  0.00000000000E+00  0.45593999997E+02  0.45594000000E+02  0.51100000000E-03 0. -1.
         11   -1    0    0    0    0 -0.00000000000E+00 -0.00000000000E+00 -0.45593999997E+02  0.45594000000E+02  0.51100000000E-03 0.  1.
    9900012    2    1    2    0    0 -0.61068162902E+00  0.78182722926E+00  0.63918336419E+00  0.90007855415E+02  0.90000118306E+02 0.  0.
        -12    1    1    2    0    0  0.61068162902E+00 -0.78182722926E+00 -0.63918336419E+00  0.11801445850E+01  0.00000000000E+00 0.  1.
         11    1    3    3    0    0 -0.39793900501E+02  0.15808110912E+02 -0.76847729916E+01  0.43502949600E+02  0.51100000000E-03 0. -1.
        -11    1    3    3    0    0  0.27626203683E+01 -0.77375197245E+01  0.39161099792E+01  0.91014944057E+01  0.51100000000E-03 0.  1.
        -12    1    3    3    0    0  0.36420598503E+02 -0.72887639586E+01  0.44078463766E+01  0.37403411410E+02  0.00000000000E+00 0.  1.
</event>
<event>
 7    1  0.1716782E-015  0.9000771E+02  0.7816164E-02  0.1186339E+00
        -11   -1    0    0    0    0  0.00000000000E+00  0.00000000000E+00  0.45593999997E+02  0.45594000000E+02  0.51100000000E-03 0. -1.
         11   -1    0    0    0    0 -0.00000000000E+00 -0.00000000000E+00 -0.45593999997E+02  0.45594000000E+02  0.51100000000E-03 0.  1.
    9900012    2    1    2    0    0 -0.67339454567E+00  0.95685883532E+00 -0.15505711443E+00  0.90007711157E+02  0.89999972144E+02 0.  0.
        -12    1    1    2    0    0  0.67339454567E+00 -0.95685883532E+00  0.15505711443E+00  0.11802888433E+01  0.00000000000E+00 0.  1.
         11    1    3    3    0    0 -0.36457595628E+02  0.23940355945E+01 -0.22333848747E+01  0.36604312501E+02  0.51100000000E-03 0. -1.
        -11    1    3    3    0    0 -0.99515266799E+00  0.74885837393E+01  0.12088666967E+02  0.14255002089E+02  0.51100000000E-03 0.  1.
        -12    1    3    3    0    0  0.36779353750E+02 -0.89257604984E+01 -0.10010339207E+02  0.39148396567E+02  0.00000000000E+00 0.  1.
</event>
<event>
 7    1  0.1716782E-015  0.9000779E+02  0.7816164E-02  0.1186339E+00
        -11   -1    0    0    0    0  0.00000000000E+00  0.00000000000E+00  0.45593999997E+02  0.45594000000E+02  0.51100000000E-03 0.  1.
         11   -1    0    0    0    0 -0.00000000000E+00 -0.00000000000E+00 -0.45593999997E+02  0.45594000000E+02  0.51100000000E-03 0. -1.
    9900012    2    1    2    0    0  0.48369405189E-01  0.97192056183E+00  0.66777893057E+00  0.90007789054E+02  0.90000051069E+02 0.  0.
        -12    1    1    2    0    0 -0.48369405189E-01 -0.97192056183E+00 -0.66777893057E+00  0.11802109464E+01  0.00000000000E+00 0.  1.
         11    1    3    3    0    0 -0.29785583292E+02 -0.10950111985E+02 -0.26676055135E+02  0.41457180830E+02  0.51100000000E-03 0. -1.
        -11    1    3    3    0    0 -0.18504682639E+01  0.75740195722E+01  0.29832190489E+01  0.83480297933E+01  0.51100000000E-03 0.  1.
        -12    1    3    3    0    0  0.31684420961E+02  0.43480129749E+01  0.24360615017E+02  0.40202578430E+02  0.00000000000E+00 0.  1.
</event>
<event>
 7    1  0.1716782E-015  0.9000771E+02  0.7816164E-02  0.1186339E+00
        -11   -1    0    0    0    0  0.00000000000E+00  0.00000000000E+00  0.45593999997E+02  0.45594000000E+02  0.51100000000E-03 0.  1.
         11   -1    0    0    0    0 -0.00000000000E+00 -0.00000000000E+00 -0.45593999997E+02  0.45594000000E+02  0.51100000000E-03 0. -1.
    9900012    2    1    2    0    0  0.34251333471E+00 -0.11030297412E+01 -0.24309617052E+00  0.90007709467E+02  0.89999970432E+02 0.  0.
        -12    1    1    2    0    0 -0.34251333471E+00  0.11030297412E+01  0.24309617052E+00  0.11802905331E+01  0.00000000000E+00 0.  1.
         11    1    3    3    0    0 -0.26281318133E+02 -0.12661364839E+02 -0.28094631338E+02  0.40500940145E+02  0.51100000000E-03 0. -1.
        -11    1    3    3    0    0  0.54235782269E+01 -0.64941440295E+01 -0.19899133731E+01  0.86918848907E+01  0.51100000000E-03 0.  1.
        -12    1    3    3    0    0  0.21200253241E+02  0.18052479127E+02  0.29841448540E+02  0.40814884431E+02  0.00000000000E+00 0.  1.
</event>
<event>
 7    1  0.1716782E-015  0.9000778E+02  0.7816164E-02  0.1186339E+00
        -11   -1    0    0    0    0  0.00000000000E+00  0.00000000000E+00  0.45593999997E+02  0.45594000000E+02  0.51100000000E-03 0.  1.
         11   -1    0    0    0    0 -0.00000000000E+00 -0.00000000000E+00 -0.45593999997E+02  0.45594000000E+02  0.51100000000E-03 0. -1.
    9900012    2    1    2    0    0  0.16796253429E+00  0.40310994259E-01 -0.11675107543E+01  0.90007780635E+02  0.90000042539E+02 0.  0.
        -12    1    1    2    0    0 -0.16796253429E+00 -0.40310994259E-01  0.11675107543E+01  0.11802193654E+01  0.00000000000E+00 0.  1.
         11    1    3    3    0    0 -0.24295327249E+02  0.83124332289E+01 -0.17192094629E+02  0.30901902698E+02  0.51100000000E-03 0. -1.
        -11    1    3    3    0    0 -0.13156903477E+02  0.38285473597E+01 -0.46956853138E+01  0.14484866061E+02  0.51100000000E-03 0.  1.
        -12    1    3    3    0    0  0.37620193260E+02 -0.12100669594E+02  0.20720269189E+02  0.44621011876E+02  0.00000000000E+00 0.  1.
</event>
<event>
 7    1  0.1716782E-015  0.9000771E+02  0.7816164E-02  0.1186339E+00
        -11   -1    0    0    0    0  0.00000000000E+00  0.00000000000E+00  0.45593999997E+02  0.45594000000E+02  0.51100000000E-03 0. -1.
         11   -1    0    0    0    0 -0.00000000000E+00 -0.00000000000E+00 -0.45593999997E+02  0.45594000000E+02  0.51100000000E-03 0.  1.
    9900012    2    1    2    0    0  0.10830106613E+01 -0.46761017197E+00 -0.38986946618E-01  0.90007707093E+02  0.89999968026E+02 0.  0.
        -12    1    1    2    0    0 -0.10830106613E+01  0.46761017197E+00  0.38986946618E-01  0.11802929074E+01  0.00000000000E+00 0.  1.
         11    1    3    3    0    0  0.11656435630E+02  0.54646161564E+01 -0.30036169789E+02  0.32678831332E+02  0.51100000000E-03 0. -1.
        -11    1    3    3    0    0  0.70565916461E+01  0.51148327798E+01 -0.93734056574E+01  0.12799130201E+02  0.51100000000E-03 0.  1.
        -12    1    3    3    0    0 -0.17630016615E+02 -0.11047059108E+02  0.39370588500E+02  0.44529745560E+02  0.00000000000E+00 0.  1.
</event>
<event>
 7    1  0.1716782E-015  0.9000772E+02  0.7816164E-02  0.1186339E+00
        -11   -1    0    0    0    0  0.00000000000E+00  0.00000000000E+00  0.45593999997E+02  0.45594000000E+02  0.51100000000E-03 0. -1.
         11   -1    0    0    0    0 -0.00000000000E+00 -0.00000000000E+00 -0.45593999997E+02  0.45594000000E+02  0.51100000000E-03 0.  1.
    9900012    2    1    2    0    0  0.53032394595E+00  0.99495568492E+00 -0.34911798703E+00  0.90007718817E+02  0.89999979905E+02 0.  0.
        -12    1    1    2    0    0 -0.53032394595E+00 -0.99495568492E+00  0.34911798703E+00  0.11802811832E+01  0.00000000000E+00 0.  1.
         11    1    3    3    0    0 -0.33233158493E+02  0.13596472243E+01  0.12294322939E+02  0.35460426404E+02  0.51100000000E-03 0. -1.
        -11    1    3    3    0    0 -0.83650685190E+01 -0.63605025526E+01 -0.25454939653E+01  0.10812488328E+02  0.51100000000E-03 0.  1.
        -12    1    3    3    0    0  0.42128550958E+02  0.59958110132E+01 -0.10097946961E+02  0.43734804085E+02  0.00000000000E+00 0.  1.
</event>
<event>
 7    1  0.1716782E-015  0.9000773E+02  0.7816164E-02  0.1186339E+00
        -11   -1    0    0    0    0  0.00000000000E+00  0.00000000000E+00  0.45593999997E+02  0.45594000000E+02  0.51100000000E-03 0.  1.
         11   -1    0    0    0    0 -0.00000000000E+00 -0.00000000000E+00 -0.45593999997E+02  0.45594000000E+02  0.51100000000E-03 0. -1.
    9900012    2    1    2    0    0  0.13705107841E+00  0.87118988753E+00  0.78440160451E+00  0.90007728550E+02  0.89999989767E+02 0.  0.
        -12    1    1    2    0    0 -0.13705107841E+00 -0.87118988753E+00 -0.78440160451E+00  0.11802714499E+01  0.00000000000E+00 0.  1.
         11    1    3    3    0    0 -0.99066781556E+01  0.16964131581E+01 -0.44131265198E+00  0.10060558971E+02  0.51100000000E-03 0. -1.
        -11    1    3    3    0    0 -0.30616858556E+02  0.12866693932E+02  0.12666275190E+02  0.35544034211E+02  0.51100000000E-03 0.  1.
         12    1    3    3    0    0  0.40660587790E+02 -0.13691917202E+02 -0.11440560933E+02  0.44403135368E+02  0.00000000000E+00 0. -1.
</event>
<event>
 7    1  0.1716782E-015  0.9000775E+02  0.7816164E-02  0.1186339E+00
        -11   -1    0    0    0    0  0.00000000000E+00  0.00000000000E+00  0.45593999997E+02  0.45594000000E+02  0.51100000000E-03 0.  1.
         11   -1    0    0    0    0 -0.00000000000E+00 -0.00000000000E+00 -0.45593999997E+02  0.45594000000E+02  0.51100000000E-03 0. -1.
    9900012    2    1    2    0    0  0.84733757324E+00 -0.73735765946E+00  0.36236731254E+00  0.90007751149E+02  0.90000012664E+02 0.  0.
        -12    1    1    2    0    0 -0.84733757324E+00  0.73735765946E+00 -0.36236731254E+00  0.11802488510E+01  0.00000000000E+00 0.  1.
         11    1    3    3    0    0  0.94930280184E+01 -0.39179194393E+02  0.73670295643E+01  0.40980482905E+02  0.51100000000E-03 0. -1.
        -11    1    3    3    0    0 -0.14501935497E+01  0.71312584228E+00  0.77240719665E+01  0.78913178750E+01  0.51100000000E-03 0.  1.
        -12    1    3    3    0    0 -0.71954968954E+01  0.37728710891E+02 -0.14728734218E+02  0.41135950369E+02  0.00000000000E+00 0.  1.
</event>
<event>
 7    1  0.1716782E-015  0.9000774E+02  0.7816164E-02  0.1186339E+00
        -11   -1    0    0    0    0  0.00000000000E+00  0.00000000000E+00  0.45593999997E+02  0.45594000000E+02  0.51100000000E-03 0. -1.
         11   -1    0    0    0    0 -0.00000000000E+00 -0.00000000000E+00 -0.45593999997E+02  0.45594000000E+02  0.51100000000E-03 0.  1.
    9900012    2    1    2    0    0 -0.50359801289E+00 -0.11693410356E+00 -0.10610053751E+01  0.90007738610E+02  0.89999999960E+02 0.  0.
        -12    1    1    2    0    0  0.50359801289E+00  0.11693410356E+00  0.10610053751E+01  0.11802613901E+01  0.00000000000E+00 0.  1.
         11    1    3    3    0    0 -0.28888826044E+01  0.96616471001E+01  0.10297937180E+01  0.10136742216E+02  0.51100000000E-03 0. -1.
        -11    1    3    3    0    0 -0.32898965724E+02 -0.12238446548E+02 -0.19815452388E+02  0.40308481405E+02  0.51100000000E-03 0.  1.
         12    1    3    3    0    0  0.35284250315E+02  0.24598653443E+01  0.17724653295E+02  0.39562514989E+02  0.00000000000E+00 0. -1.
</event>
<event>
 7    1  0.1716782E-015  0.9000786E+02  0.7816164E-02  0.1186339E+00
        -11   -1    0    0    0    0  0.00000000000E+00  0.00000000000E+00  0.45593999997E+02  0.45594000000E+02  0.51100000000E-03 0. -1.
         11   -1    0    0    0    0 -0.00000000000E+00 -0.00000000000E+00 -0.45593999997E+02  0.45594000000E+02  0.51100000000E-03 0.  1.
    9900012    2    1    2    0    0  0.29909119559E+00  0.69163710676E+00 -0.90824834146E+00  0.90007859127E+02  0.90000122067E+02 0.  0.
        -12    1    1    2    0    0 -0.29909119559E+00 -0.69163710676E+00  0.90824834146E+00  0.11801408732E+01  0.00000000000E+00 0.  1.
         11    1    3    3    0    0  0.31427881366E+01  0.50551722393E+00  0.69526271200E+01  0.76466783028E+01  0.51100000000E-03 0. -1.
        -11    1    3    3    0    0 -0.24556934968E+02  0.33463372349E+02  0.15173035115E+01  0.41534835430E+02  0.51100000000E-03 0.  1.
         12    1    3    3    0    0  0.21713238027E+02 -0.33277252467E+02 -0.93781789730E+01  0.40826345394E+02  0.00000000000E+00 0. -1.
</event>
<event>
 7    1  0.1716782E-015  0.9000769E+02  0.7816164E-02  0.1186339E+00
        -11   -1    0    0    0    0  0.00000000000E+00  0.00000000000E+00  0.45593999997E+02  0.45594000000E+02  0.51100000000E-03 0. -1.
         11   -1    0    0    0    0 -0.00000000000E+00 -0.00000000000E+00 -0.45593999997E+02  0.45594000000E+02  0.51100000000E-03 0.  1.
    9900012    2    1    2    0    0 -0.90605378748E+00  0.61004239552E+00 -0.44726893303E+00  0.90007688732E+02  0.89999949424E+02 0.  0.
        -12    1    1    2    0    0  0.90605378748E+00 -0.61004239552E+00  0.44726893303E+00  0.11803112677E+01  0.00000000000E+00 0.  1.
         11    1    3    3    0    0  0.27341424542E+02 -0.20187426685E+02  0.17032216047E+02  0.38015550448E+02  0.51100000000E-03 0. -1.
        -11    1    3    3    0    0  0.11877593721E+00 -0.23782120731E+01  0.73591340518E+01  0.77347821327E+01  0.51100000000E-03 0.  1.
        -12    1    3    3    0    0 -0.28366254267E+02  0.23175681154E+02 -0.24838619032E+02  0.44257356151E+02  0.00000000000E+00 0.  1.
</event>
<event>
 7    1  0.1716782E-015  0.9000783E+02  0.7816164E-02  0.1186339E+00
        -11   -1    0    0    0    0  0.00000000000E+00  0.00000000000E+00  0.45593999997E+02  0.45594000000E+02  0.51100000000E-03 0.  1.
         11   -1    0    0    0    0 -0.00000000000E+00 -0.00000000000E+00 -0.45593999997E+02  0.45594000000E+02  0.51100000000E-03 0. -1.
    9900012    2    1    2    0    0  0.44126090564E+00 -0.10509711273E+01 -0.30587345877E+00  0.90007826254E+02  0.90000088761E+02 0.  0.
        -12    1    1    2    0    0 -0.44126090564E+00  0.10509711273E+01  0.30587345877E+00  0.11801737457E+01  0.00000000000E+00 0.  1.
         11    1    3    3    0    0 -0.72946658835E+01  0.29447557044E+01  0.58238332571E+01  0.97877868069E+01  0.51100000000E-03 0. -1.
        -11    1    3    3    0    0 -0.81461546329E+01  0.10670084173E+02  0.32938885959E+02  0.35569379247E+02  0.51100000000E-03 0.  1.
         12    1    3    3    0    0  0.15882081422E+02 -0.14665811004E+02 -0.39068592675E+02  0.44650660200E+02  0.00000000000E+00 0. -1.
</event>
<event>
 7    1  0.1716782E-015  0.9000764E+02  0.7816164E-02  0.1186339E+00
        -11   -1    0    0    0    0  0.00000000000E+00  0.00000000000E+00  0.45593999997E+02  0.45594000000E+02  0.51100000000E-03 0.  1.
         11   -1    0    0    0    0 -0.00000000000E+00 -0.00000000000E+00 -0.45593999997E+02  0.45594000000E+02  0.51100000000E-03 0. -1.
    9900012    2    1    2    0    0  0.40046598656E+00 -0.79853915819E+00 -0.77149327685E+00  0.90007644261E+02  0.89999904366E+02 0.  0.
        -12    1    1    2    0    0 -0.40046598656E+00  0.79853915819E+00  0.77149327685E+00  0.11803557387E+01  0.00000000000E+00 0.  1.
         11    1    3    3    0    0 -0.30974026856E+02 -0.26601302482E+01 -0.14171703598E+02  0.34165828188E+02  0.51100000000E-03 0. -1.
        -11    1    3    3    0    0 -0.91249728073E+01  0.24790646916E+01 -0.57203281308E+01  0.11051382025E+02  0.51100000000E-03 0.  1.
        -12    1    3    3    0    0  0.40499465650E+02 -0.61747360151E+00  0.19120538452E+02  0.44790434049E+02  0.00000000000E+00 0.  1.
</event>
<event>
 7    1  0.1716782E-015  0.9000772E+02  0.7816164E-02  0.1186339E+00
        -11   -1    0    0    0    0  0.00000000000E+00  0.00000000000E+00  0.45593999997E+02  0.45594000000E+02  0.51100000000E-03 0. -1.
         11   -1    0    0    0    0 -0.00000000000E+00 -0.00000000000E+00 -0.45593999997E+02  0.45594000000E+02  0.51100000000E-03 0.  1.
    9900012    2    1    2    0    0 -0.10996205620E+00 -0.11732950896E+01 -0.65902169788E-01  0.90007722017E+02  0.89999983148E+02 0.  0.
        -12    1    1    2    0    0  0.10996205620E+00  0.11732950896E+01  0.65902169788E-01  0.11802779830E+01  0.00000000000E+00 0.  1.
         11    1    3    3    0    0  0.50798580409E+01  0.16753572355E+01  0.35846852456E+02  0.36243738919E+02  0.51100000000E-03 0. -1.
        -11    1    3    3    0    0  0.41204683148E+01 -0.23174970430E+01  0.77709593109E+01  0.90959804612E+01  0.51100000000E-03 0.  1.
        -12    1    3    3    0    0 -0.93102884120E+01 -0.53115528217E+00 -0.43683713937E+02  0.44668002637E+02  0.00000000000E+00 0.  1.
</event>
<event>
 7    1  0.1716782E-015  0.9000791E+02  0.7816164E-02  0.1186339E+00
        -11   -1    0    0    0    0  0.00000000000E+00  0.00000000000E+00  0.45593999997E+02  0.45594000000E+02  0.51100000000E-03 0.  1.
         11   -1    0    0    0    0 -0.00000000000E+00 -0.00000000000E+00 -0.45593999997E+02  0.45594000000E+02  0.51100000000E-03 0. -1.
    9900012    2    1    2    0    0 -0.61588860510E+00 -0.99912749464E+00  0.12258458842E+00  0.90007914619E+02  0.90000178292E+02 0.  0.
        -12    1    1    2    0    0  0.61588860510E+00  0.99912749464E+00 -0.12258458842E+00  0.11800853807E+01  0.00000000000E+00 0.  1.
         11    1    3    3    0    0 -0.63123000857E+01  0.46019291374E+01 -0.38950036987E+01  0.87289139205E+01  0.51100000000E-03 0. -1.
        -11    1    3    3    0    0 -0.11660901430E+02  0.30154960316E+02 -0.16773567612E+02  0.36423218206E+02  0.51100000000E-03 0.  1.
         12    1    3    3    0    0  0.17357312911E+02 -0.35756016948E+02  0.20791155899E+02  0.44855782493E+02  0.00000000000E+00 0. -1.
</event>
<event>
 7    1  0.1716782E-015  0.9000792E+02  0.7816164E-02  0.1186339E+00
        -11   -1    0    0    0    0  0.00000000000E+00  0.00000000000E+00  0.45593999997E+02  0.45594000000E+02  0.51100000000E-03 0. -1.
         11   -1    0    0    0    0 -0.00000000000E+00 -0.00000000000E+00 -0.45593999997E+02  0.45594000000E+02  0.51100000000E-03 0.  1.
    9900012    2    1    2    0    0  0.37692565528E+00  0.11159212275E+01 -0.72321443016E-01  0.90007922237E+02  0.90000186010E+02 0.  0.
        -12    1    1    2    0    0 -0.37692565528E+00 -0.11159212275E+01  0.72321443016E-01  0.11800777630E+01  0.00000000000E+00 0.  1.
         11    1    3    3    0    0 -0.85489511786E+01  0.67436834205E+00  0.60227558753E+01  0.10479166356E+02  0.51100000000E-03 0. -1.
        -11    1    3    3    0    0  0.11663154512E+02  0.38944925126E+02 -0.18570402202E+01  0.40696252467E+02  0.51100000000E-03 0.  1.
         12    1    3    3    0    0 -0.27372776782E+01 -0.38503372240E+02 -0.42380370981E+01  0.38832503414E+02  0.00000000000E+00 0. -1.
</event>
<event>
 7    1  0.1716782E-015  0.9000771E+02  0.7816164E-02  0.1186339E+00
        -11   -1    0    0    0    0  0.00000000000E+00  0.00000000000E+00  0.45593999997E+02  0.45594000000E+02  0.51100000000E-03 0.  1.
         11   -1    0    0    0    0 -0.00000000000E+00 -0.00000000000E+00 -0.45593999997E+02  0.45594000000E+02  0.51100000000E-03 0. -1.
    9900012    2    1    2    0    0  0.64912364634E+00 -0.81506241989E+00 -0.55443468452E+00  0.90007709326E+02  0.89999970289E+02 0.  0.
        -12    1    1    2    0    0 -0.64912364634E+00  0.81506241989E+00  0.55443468452E+00  0.11802906744E+01  0.00000000000E+00 0.  1.
         11    1    3    3    0    0  0.51161813061E+01 -0.64769335331E+01  0.15596123782E+01  0.83999029863E+01  0.51100000000E-03 0. -1.
        -11    1    3    3    0    0  0.34180769255E+02  0.14438047564E+02  0.12817651495E+02  0.39256520407E+02  0.51100000000E-03 0.  1.
         12    1    3    3    0    0 -0.38647826915E+02 -0.87761764506E+01 -0.14931698557E+02  0.42351285933E+02  0.00000000000E+00 0. -1.
</event>
<event>
 7    1  0.1716782E-015  0.9000782E+02  0.7816164E-02  0.1186339E+00
        -11   -1    0    0    0    0  0.00000000000E+00  0.00000000000E+00  0.45593999997E+02  0.45594000000E+02  0.51100000000E-03 0. -1.
         11   -1    0    0    0    0 -0.00000000000E+00 -0.00000000000E+00 -0.45593999997E+02  0.45594000000E+02  0.51100000000E-03 0.  1.
    9900012    2    1    2    0    0  0.49299096908E+00  0.54383185644E+00  0.92414100868E+00  0.90007817901E+02  0.90000080297E+02 0.  0.
        -12    1    1    2    0    0 -0.49299096908E+00 -0.54383185644E+00 -0.92414100868E+00  0.11801820993E+01  0.00000000000E+00 0.  1.
         11    1    3    3    0    0 -0.19878645426E+02 -0.33915097661E+02 -0.11461474368E+02  0.40948257451E+02  0.51100000000E-03 0. -1.
        -11    1    3    3    0    0  0.30074866351E+01  0.51314924483E+01 -0.75216431768E+01  0.95891765521E+01  0.51100000000E-03 0.  1.
        -12    1    3    3    0    0  0.17364149760E+02  0.29327437069E+02  0.19907258553E+02  0.39470383898E+02  0.00000000000E+00 0.  1.
</event>
<event>
 7    1  0.1716782E-015  0.9000777E+02  0.7816164E-02  0.1186339E+00
        -11   -1    0    0    0    0  0.00000000000E+00  0.00000000000E+00  0.45593999997E+02  0.45594000000E+02  0.51100000000E-03 0.  1.
         11   -1    0    0    0    0 -0.00000000000E+00 -0.00000000000E+00 -0.45593999997E+02  0.45594000000E+02  0.51100000000E-03 0. -1.
    9900012    2    1    2    0    0 -0.52940288075E+00  0.37534381818E+00  0.98579939409E+00  0.90007766617E+02  0.90000028337E+02 0.  0.
        -12    1    1    2    0    0  0.52940288075E+00 -0.37534381818E+00 -0.98579939409E+00  0.11802333826E+01  0.00000000000E+00 0.  1.
         11    1    3    3    0    0 -0.66961909848E+01 -0.88893016920E+01  0.15209352933E+01  0.11232626705E+02  0.51100000000E-03 0. -1.
        -11    1    3    3    0    0 -0.13221553196E+02 -0.29352382009E+02 -0.11516547227E+02  0.34190680876E+02  0.51100000000E-03 0.  1.
         12    1    3    3    0    0  0.19388341300E+02  0.38617027519E+02  0.10981411328E+02  0.44584459036E+02  0.00000000000E+00 0. -1.
</event>
<event>
 7    1  0.1716782E-015  0.9000769E+02  0.7816164E-02  0.1186339E+00
        -11   -1    0    0    0    0  0.00000000000E+00  0.00000000000E+00  0.45593999997E+02  0.45594000000E+02  0.51100000000E-03 0. -1.
         11   -1    0    0    0    0 -0.00000000000E+00 -0.00000000000E+00 -0.45593999997E+02  0.45594000000E+02  0.51100000000E-03 0.  1.
    9900012    2    1    2    0    0 -0.10170151858E+01 -0.55006675566E+00  0.23716385570E+00  0.90007686475E+02  0.89999947136E+02 0.  0.
        -12    1    1    2    0    0  0.10170151858E+01  0.55006675566E+00 -0.23716385570E+00  0.11803135255E+01  0.00000000000E+00 0.  1.
         11    1    3    3    0    0 -0.67463992694E+01  0.30440363031E+01 -0.16282784670E+01  0.75783475206E+01  0.51100000000E-03 0. -1.
        -11    1    3    3    0    0 -0.25567677611E+02  0.26634200814E+02 -0.80841266442E+01  0.37794707239E+02  0.51100000000E-03 0.  1.
         12    1    3    3    0    0  0.31297061695E+02 -0.30228303872E+02  0.99495689669E+01  0.44634631715E+02  0.00000000000E+00 0. -1.
</event>
<event>
 7    1  0.1716782E-015  0.9000825E+02  0.7816164E-02  0.1186338E+00
        -11   -1    0    0    0    0  0.00000000000E+00  0.00000000000E+00  0.45593999997E+02  0.45594000000E+02  0.51100000000E-03 0. -1.
         11   -1    0    0    0    0 -0.00000000000E+00 -0.00000000000E+00 -0.45593999997E+02  0.45594000000E+02  0.51100000000E-03 0.  1.
    9900012    2    1    2    0    0 -0.35767345070E-01  0.32460074705E+00  0.11336465148E+01  0.90008254532E+02  0.90000522691E+02 0.  0.
        -12    1    1    2    0    0  0.35767345070E-01 -0.32460074705E+00 -0.11336465148E+01  0.11797454677E+01  0.00000000000E+00 0.  1.
         11    1    3    3    0    0  0.49980561696E+01 -0.33705033132E+01 -0.69573982226E+01  0.92057725557E+01  0.51100000000E-03 0. -1.
        -11    1    3    3    0    0  0.15450265729E+02 -0.12284346818E+02 -0.29265697296E+02  0.35300098106E+02  0.51100000000E-03 0.  1.
         12    1    3    3    0    0 -0.20484089244E+02  0.15979450879E+02  0.37356742033E+02  0.45502383870E+02  0.00000000000E+00 0. -1.
</event>
<event>
 7    1  0.1716782E-015  0.9000780E+02  0.7816164E-02  0.1186339E+00
        -11   -1    0    0    0    0  0.00000000000E+00  0.00000000000E+00  0.45593999997E+02  0.45594000000E+02  0.51100000000E-03 0. -1.
         11   -1    0    0    0    0 -0.00000000000E+00 -0.00000000000E+00 -0.45593999997E+02  0.45594000000E+02  0.51100000000E-03 0.  1.
    9900012    2    1    2    0    0  0.34986805181E+00 -0.77432349232E+00 -0.81907691291E+00  0.90007800223E+02  0.90000062386E+02 0.  0.
        -12    1    1    2    0    0 -0.34986805181E+00  0.77432349232E+00  0.81907691291E+00  0.11801997770E+01  0.00000000000E+00 0.  1.
         11    1    3    3    0    0  0.76668116176E+01 -0.57426291274E+01 -0.82610805257E+01  0.12649238767E+02  0.51100000000E-03 0. -1.
        -11    1    3    3    0    0 -0.12296608122E+02  0.21657300361E+02 -0.28240095531E+02  0.37652997571E+02  0.51100000000E-03 0.  1.
         12    1    3    3    0    0  0.49796645558E+01 -0.16688994726E+02  0.35682099144E+02  0.39705563884E+02  0.00000000000E+00 0. -1.
</event>
<event>
 7    1  0.1716782E-015  0.9000770E+02  0.7816164E-02  0.1186339E+00
        -11   -1    0    0    0    0  0.00000000000E+00  0.00000000000E+00  0.45593999997E+02  0.45594000000E+02  0.51100000000E-03 0. -1.
         11   -1    0    0    0    0 -0.00000000000E+00 -0.00000000000E+00 -0.45593999997E+02  0.45594000000E+02  0.51100000000E-03 0.  1.
    9900012    2    1    2    0    0  0.83926051180E+00 -0.51319253152E+00  0.65221460910E+00  0.90007699751E+02  0.89999960588E+02 0.  0.
        -12    1    1    2    0    0 -0.83926051180E+00  0.51319253152E+00 -0.65221460910E+00  0.11803002488E+01  0.00000000000E+00 0.  1.
         11    1    3    3    0    0 -0.80770363417E+01  0.22393440760E+01  0.35092819863E+01  0.90867066793E+01  0.51100000000E-03 0. -1.
        -11    1    3    3    0    0  0.43231119042E+02 -0.12643865540E+02  0.56239011884E+00  0.45045679841E+02  0.51100000000E-03 0.  1.
         12    1    3    3    0    0 -0.34314822188E+02  0.98913289324E+01 -0.34194574960E+01  0.35875313231E+02  0.00000000000E+00 0. -1.
</event>
<event>
 7    1  0.1716782E-015  0.9000774E+02  0.7816164E-02  0.1186339E+00
        -11   -1    0    0    0    0  0.00000000000E+00  0.00000000000E+00  0.45593999997E+02  0.45594000000E+02  0.51100000000E-03 0. -1.
         11   -1    0    0    0    0 -0.00000000000E+00 -0.00000000000E+00 -0.45593999997E+02  0.45594000000E+02  0.51100000000E-03 0.  1.
    9900012    2    1    2    0    0 -0.11790055660E+01  0.54198568538E-01 -0.55385344009E-02  0.90007736349E+02  0.89999997669E+02 0.  0.
        -12    1    1    2    0    0  0.11790055660E+01 -0.54198568538E-01  0.55385344009E-02  0.11802636506E+01  0.00000000000E+00 0.  1.
         11    1    3    3    0    0  0.43235955805E+02 -0.16704698274E+01 -0.31429104994E+00  0.43269355472E+02  0.51100000000E-03 0. -1.
        -11    1    3    3    0    0 -0.14890907730E+02 -0.55005888050E+01 -0.30276587229E+01  0.16160517560E+02  0.51100000000E-03 0.  1.
        -12    1    3    3    0    0 -0.29524053642E+02  0.72252572010E+01  0.33364112385E+01  0.30577863317E+02  0.00000000000E+00 0.  1.
</event>
<event>
 7    1  0.1716782E-015  0.9000775E+02  0.7816164E-02  0.1186339E+00
        -11   -1    0    0    0    0  0.00000000000E+00  0.00000000000E+00  0.45593999997E+02  0.45594000000E+02  0.51100000000E-03 0.  1.
         11   -1    0    0    0    0 -0.00000000000E+00 -0.00000000000E+00 -0.45593999997E+02  0.45594000000E+02  0.51100000000E-03 0. -1.
    9900012    2    1    2    0    0  0.10661491117E+00 -0.11125672708E+01 -0.37924213346E+00  0.90007746948E+02  0.90000008408E+02 0.  0.
        -12    1    1    2    0    0 -0.10661491117E+00  0.11125672708E+01  0.37924213346E+00  0.11802530522E+01  0.00000000000E+00 0.  1.
         11    1    3    3    0    0  0.31745163754E+02  0.19557705719E+02 -0.90402010247E+01  0.38366450312E+02  0.51100000000E-03 0. -1.
        -11    1    3    3    0    0 -0.44964681680E+01  0.98096919248E+00 -0.10870647999E+02  0.11804724255E+02  0.51100000000E-03 0.  1.
        -12    1    3    3    0    0 -0.27142080674E+02 -0.21651242182E+02  0.19531606891E+02  0.39836572381E+02  0.00000000000E+00 0.  1.
</event>
<event>
 7    1  0.1716782E-015  0.9000781E+02  0.7816164E-02  0.1186339E+00
        -11   -1    0    0    0    0  0.00000000000E+00  0.00000000000E+00  0.45593999997E+02  0.45594000000E+02  0.51100000000E-03 0. -1.
         11   -1    0    0    0    0 -0.00000000000E+00 -0.00000000000E+00 -0.45593999997E+02  0.45594000000E+02  0.51100000000E-03 0.  1.
    9900012    2    1    2    0    0  0.10732065631E+01 -0.24332810476E+00  0.42646415361E+00  0.90007808249E+02  0.90000070518E+02 0.  0.
        -12    1    1    2    0    0 -0.10732065631E+01  0.24332810476E+00 -0.42646415361E+00  0.11801917505E+01  0.00000000000E+00 0.  1.
         11    1    3    3    0    0 -0.63824891389E+01 -0.22397071147E+01  0.72496272750E+01  0.99151173193E+01  0.51100000000E-03 0. -1.
        -11    1    3    3    0    0 -0.19011826593E+02 -0.31506089846E+02  0.34326689340E+00  0.36799471195E+02  0.51100000000E-03 0.  1.
         12    1    3    3    0    0  0.26467522295E+02  0.33502468856E+02 -0.71664300148E+01  0.43293219735E+02  0.00000000000E+00 0. -1.
</event>
<event>
 7    1  0.1716782E-015  0.9000744E+02  0.7816164E-02  0.1186340E+00
        -11   -1    0    0    0    0  0.00000000000E+00  0.00000000000E+00  0.45593999997E+02  0.45594000000E+02  0.51100000000E-03 0. -1.
         11   -1    0    0    0    0 -0.00000000000E+00 -0.00000000000E+00 -0.45593999997E+02  0.45594000000E+02  0.51100000000E-03 0.  1.
    9900012    2    1    2    0    0  0.88933515549E+00  0.71282549731E+00  0.30771248969E+00  0.90007439038E+02  0.89999696433E+02 0.  0.
        -12    1    1    2    0    0 -0.88933515549E+00 -0.71282549731E+00 -0.30771248969E+00  0.11805609619E+01  0.00000000000E+00 0.  1.
         11    1    3    3    0    0 -0.20293054165E+01  0.20248413648E+01  0.69312735927E+01  0.75007077602E+01  0.51100000000E-03 0. -1.
        -11    1    3    3    0    0 -0.32177033407E+02 -0.41745405166E+01 -0.26658644820E+02  0.41993709187E+02  0.51100000000E-03 0.  1.
         12    1    3    3    0    0  0.35095673979E+02  0.28625246491E+01  0.20035083717E+02  0.40513022091E+02  0.00000000000E+00 0. -1.
</event>
<event>
 7    1  0.1716782E-015  0.9000748E+02  0.7816164E-02  0.1186340E+00
        -11   -1    0    0    0    0  0.00000000000E+00  0.00000000000E+00  0.45593999997E+02  0.45594000000E+02  0.51100000000E-03 0. -1.
         11   -1    0    0    0    0 -0.00000000000E+00 -0.00000000000E+00 -0.45593999997E+02  0.45594000000E+02  0.51100000000E-03 0.  1.
    9900012    2    1    2    0    0  0.16983698069E+00 -0.46667752977E-01  0.11673026606E+01  0.90007484019E+02  0.89999742008E+02 0.  0.
        -12    1    1    2    0    0 -0.16983698069E+00  0.46667752977E-01 -0.11673026606E+01  0.11805159807E+01  0.00000000000E+00 0.  1.
         11    1    3    3    0    0 -0.23114827125E+00  0.68525824614E+01  0.37106376381E+00  0.68665132703E+01  0.51100000000E-03 0. -1.
        -11    1    3    3    0    0  0.41012142970E+02  0.23843696054E+01  0.44530023604E+01  0.41322031892E+02  0.51100000000E-03 0.  1.
         12    1    3    3    0    0 -0.40611157718E+02 -0.92836198198E+01 -0.36567634637E+01  0.41818938857E+02  0.00000000000E+00 0. -1.
</event>
<event>
 7    1  0.1716782E-015  0.9000790E+02  0.7816164E-02  0.1186339E+00
        -11   -1    0    0    0    0  0.00000000000E+00  0.00000000000E+00  0.45593999997E+02  0.45594000000E+02  0.51100000000E-03 0. -1.
         11   -1    0    0    0    0 -0.00000000000E+00 -0.00000000000E+00 -0.45593999997E+02  0.45594000000E+02  0.51100000000E-03 0.  1.
    9900012    2    1    2    0    0 -0.54295388461E+00  0.66532343636E+00  0.80943876460E+00  0.90007896060E+02  0.90000159488E+02 0.  0.
        -12    1    1    2    0    0  0.54295388461E+00 -0.66532343636E+00 -0.80943876460E+00  0.11801039401E+01  0.00000000000E+00 0.  1.
         11    1    3    3    0    0  0.13926077749E+01 -0.46157045061E+01 -0.80527160404E+01  0.93856443780E+01  0.51100000000E-03 0. -1.
        -11    1    3    3    0    0  0.13345748206E+02 -0.30705766017E+02  0.21195962310E+02  0.39626025291E+02  0.51100000000E-03 0.  1.
         12    1    3    3    0    0 -0.15281309865E+02  0.35986793960E+02 -0.12333807505E+02  0.40996226391E+02  0.00000000000E+00 0. -1.
</event>
<event>
 7    1  0.1945391E-015  0.9000780E+02  0.7816164E-02  0.1186339E+00
        -11   -1    0    0    0    0  0.00000000000E+00  0.00000000000E+00  0.45593999997E+02  0.45594000000E+02  0.51100000000E-03 0. -1.
         11   -1    0    0    0    0 -0.00000000000E+00 -0.00000000000E+00 -0.45593999997E+02  0.45594000000E+02  0.51100000000E-03 0.  1.
    9900012    2    1    2    0    0  0.64205411790E+00  0.11302902992E+00  0.98379672536E+00  0.90007802962E+02  0.90000065161E+02 0.  0.
        -12    1    1    2    0    0 -0.64205411790E+00 -0.11302902992E+00 -0.98379672536E+00  0.11801970381E+01  0.00000000000E+00 0.  1.
         11    1    3    3    0    0  0.76410836102E+00 -0.36871599508E+01  0.37622429930E+02  0.37810398625E+02  0.51100000000E-03 0. -1.
        -11    1    3    3    0    0  0.76542729092E+01 -0.60247105442E+01  0.33428213636E+01  0.10298518624E+02  0.51100000000E-03 0.  1.
        -12    1    3    3    0    0 -0.77763271524E+01  0.98248995250E+01 -0.39981454568E+02  0.41898885713E+02  0.00000000000E+00 0.  1.
</event>
<event>
 7    1  0.1716782E-015  0.9000762E+02  0.7816164E-02  0.1186339E+00
        -11   -1    0    0    0    0  0.00000000000E+00  0.00000000000E+00  0.45593999997E+02  0.45594000000E+02  0.51100000000E-03 0. -1.
         11   -1    0    0    0    0 -0.00000000000E+00 -0.00000000000E+00 -0.45593999997E+02  0.45594000000E+02  0.51100000000E-03 0.  1.
    9900012    2    1    2    0    0  0.92473429220E+00  0.33614747493E+00  0.65205575595E+00  0.90007616442E+02  0.89999876179E+02 0.  0.
        -12    1    1    2    0    0 -0.92473429220E+00 -0.33614747493E+00 -0.65205575595E+00  0.11803835584E+01  0.00000000000E+00 0.  1.
         11    1    3    3    0    0 -0.13815655223E+01  0.15239896466E+01 -0.86741801922E+01  0.89147445282E+01  0.51100000000E-03 0. -1.
        -11    1    3    3    0    0  0.56827878609E+01 -0.66145160879E+01 -0.35121522028E+02  0.36187942892E+02  0.51100000000E-03 0.  1.
         12    1    3    3    0    0 -0.33764880463E+01  0.54266739162E+01  0.44447757976E+02  0.44904929021E+02  0.00000000000E+00 0. -1.
</event>
<event>
 7    1  0.1716782E-015  0.9000773E+02  0.7816164E-02  0.1186339E+00
        -11   -1    0    0    0    0  0.00000000000E+00  0.00000000000E+00  0.45593999997E+02  0.45594000000E+02  0.51100000000E-03 0. -1.
         11   -1    0    0    0    0 -0.00000000000E+00 -0.00000000000E+00 -0.45593999997E+02  0.45594000000E+02  0.51100000000E-03 0.  1.
    9900012    2    1    2    0    0 -0.39708803967E-01  0.90655072357E-01  0.11761134462E+01  0.90007729705E+02  0.89999990937E+02 0.  0.
        -12    1    1    2    0    0  0.39708803967E-01 -0.90655072357E-01 -0.11761134462E+01  0.11802702951E+01  0.00000000000E+00 0.  1.
         11    1    3    3    0    0  0.36739167314E+01 -0.21675846453E+01  0.93180788131E+01  0.10248057395E+02  0.51100000000E-03 0. -1.
        -11    1    3    3    0    0 -0.48883188166E+01  0.40637700248E+02 -0.49740696828E+01  0.41231780362E+02  0.51100000000E-03 0.  1.
         12    1    3    3    0    0  0.11746932813E+01 -0.38379460530E+02 -0.31678956841E+01  0.38527891948E+02  0.00000000000E+00 0. -1.
</event>
<event>
 7    1  0.1716782E-015  0.9000777E+02  0.7816164E-02  0.1186339E+00
        -11   -1    0    0    0    0  0.00000000000E+00  0.00000000000E+00  0.45593999997E+02  0.45594000000E+02  0.51100000000E-03 0.  1.
         11   -1    0    0    0    0 -0.00000000000E+00 -0.00000000000E+00 -0.45593999997E+02  0.45594000000E+02  0.51100000000E-03 0. -1.
    9900012    2    1    2    0    0  0.44828365536E+00  0.35727682181E+00 -0.10316716171E+01  0.90007766426E+02  0.90000028143E+02 0.  0.
        -12    1    1    2    0    0 -0.44828365536E+00 -0.35727682181E+00  0.10316716171E+01  0.11802335737E+01  0.00000000000E+00 0.  1.
         11    1    3    3    0    0 -0.25190297460E+02 -0.61396413763E+01 -0.22415025595E+02  0.34273599972E+02  0.51100000000E-03 0. -1.
        -11    1    3    3    0    0 -0.99751795018E+01  0.52395645356E+01 -0.40280752992E+01  0.11965894596E+02  0.51100000000E-03 0.  1.
        -12    1    3    3    0    0  0.35613760617E+02  0.12573536625E+01  0.25411429277E+02  0.43768271858E+02  0.00000000000E+00 0.  1.
</event>
<event>
 7    1  0.1716782E-015  0.9000779E+02  0.7816164E-02  0.1186339E+00
        -11   -1    0    0    0    0  0.00000000000E+00  0.00000000000E+00  0.45593999997E+02  0.45594000000E+02  0.51100000000E-03 0. -1.
         11   -1    0    0    0    0 -0.00000000000E+00 -0.00000000000E+00 -0.45593999997E+02  0.45594000000E+02  0.51100000000E-03 0.  1.
    9900012    2    1    2    0    0 -0.15679489797E+00 -0.13419201666E+00  0.11620283217E+01  0.90007787325E+02  0.90000049318E+02 0.  0.
        -12    1    1    2    0    0  0.15679489797E+00  0.13419201666E+00 -0.11620283217E+01  0.11802126749E+01  0.00000000000E+00 0.  1.
         11    1    3    3    0    0 -0.32600774978E+01  0.67021056212E+01 -0.34049289410E+01  0.81938920181E+01  0.51100000000E-03 0. -1.
        -11    1    3    3    0    0 -0.37904210616E+02  0.66963446438E+01  0.28651515944E+01  0.38597659359E+02  0.51100000000E-03 0.  1.
         12    1    3    3    0    0  0.41007493216E+02 -0.13532642282E+02  0.17018056684E+01  0.43216235948E+02  0.00000000000E+00 0. -1.
</event>
<event>
 7    1  0.1725808E-015  0.9000754E+02  0.7816164E-02  0.1186339E+00
        -11   -1    0    0    0    0  0.00000000000E+00  0.00000000000E+00  0.45593999997E+02  0.45594000000E+02  0.51100000000E-03 0.  1.
         11   -1    0    0    0    0 -0.00000000000E+00 -0.00000000000E+00 -0.45593999997E+02  0.45594000000E+02  0.51100000000E-03 0. -1.
    9900012    2    1    2    0    0  0.10739594031E+01  0.13534232851E+00 -0.47092571264E+00  0.90007543575E+02  0.89999802350E+02 0.  0.
        -12    1    1    2    0    0 -0.10739594031E+01 -0.13534232851E+00  0.47092571264E+00  0.11804564254E+01  0.00000000000E+00 0.  1.
         11    1    3    3    0    0  0.22778669495E+02  0.22140325880E+02 -0.23792436270E+02  0.39688056616E+02  0.51100000000E-03 0. -1.
        -11    1    3    3    0    0  0.41404962709E+01 -0.68928564265E+01 -0.46991550067E+01  0.93132828328E+01  0.51100000000E-03 0.  1.
        -12    1    3    3    0    0 -0.25845206363E+02 -0.15112127125E+02  0.28020665564E+02  0.41006204126E+02  0.00000000000E+00 0.  1.
</event>
<event>
 7    1  0.1716782E-015  0.9000773E+02  0.7816164E-02  0.1186339E+00
        -11   -1    0    0    0    0  0.00000000000E+00  0.00000000000E+00  0.45593999997E+02  0.45594000000E+02  0.51100000000E-03 0.  1.
         11   -1    0    0    0    0 -0.00000000000E+00 -0.00000000000E+00 -0.45593999997E+02  0.45594000000E+02  0.51100000000E-03 0. -1.
    9900012    2    1    2    0    0  0.28625280580E+00 -0.10042792904E+01 -0.55002731927E+00  0.90007725619E+02  0.89999986797E+02 0.  0.
        -12    1    1    2    0    0 -0.28625280580E+00  0.10042792904E+01  0.55002731927E+00  0.11802743808E+01  0.00000000000E+00 0.  1.
         11    1    3    3    0    0 -0.59062995392E+00  0.73731351703E+01 -0.12351939437E+01  0.74991779764E+01  0.51100000000E-03 0. -1.
        -11    1    3    3    0    0 -0.20729778483E+02  0.13392608769E+02  0.30837673185E+02  0.39497440085E+02  0.51100000000E-03 0.  1.
         12    1    3    3    0    0  0.21606661242E+02 -0.21770023230E+02 -0.30152506560E+02  0.43011107558E+02  0.00000000000E+00 0. -1.
</event>
<event>
 7    1  0.1716782E-015  0.9000779E+02  0.7816164E-02  0.1186339E+00
        -11   -1    0    0    0    0  0.00000000000E+00  0.00000000000E+00  0.45593999997E+02  0.45594000000E+02  0.51100000000E-03 0.  1.
         11   -1    0    0    0    0 -0.00000000000E+00 -0.00000000000E+00 -0.45593999997E+02  0.45594000000E+02  0.51100000000E-03 0. -1.
    9900012    2    1    2    0    0 -0.10549043090E+01 -0.51570795904E+00  0.11879872873E+00  0.90007791994E+02  0.90000054048E+02 0.  0.
        -12    1    1    2    0    0  0.10549043090E+01  0.51570795904E+00 -0.11879872873E+00  0.11802080063E+01  0.00000000000E+00 0.  1.
         11    1    3    3    0    0 -0.21966598964E+02 -0.13963780362E+01 -0.30580511885E+02  0.37678230440E+02  0.51100000000E-03 0. -1.
        -11    1    3    3    0    0  0.56986735207E+01 -0.21004422935E+01 -0.83444995875E+01  0.10320727268E+02  0.51100000000E-03 0.  1.
        -12    1    3    3    0    0  0.15213021134E+02  0.29811123707E+01  0.39043810201E+02  0.42008834285E+02  0.00000000000E+00 0.  1.
</event>
<event>
 7    1  0.1716782E-015  0.9000787E+02  0.7816164E-02  0.1186339E+00
        -11   -1    0    0    0    0  0.00000000000E+00  0.00000000000E+00  0.45593999997E+02  0.45594000000E+02  0.51100000000E-03 0. -1.
         11   -1    0    0    0    0 -0.00000000000E+00 -0.00000000000E+00 -0.45593999997E+02  0.45594000000E+02  0.51100000000E-03 0.  1.
    9900012    2    1    2    0    0  0.53351098358E-01 -0.10667807561E+01  0.50183825618E+00  0.90007869009E+02  0.90000132079E+02 0.  0.
        -12    1    1    2    0    0 -0.53351098358E-01  0.10667807561E+01 -0.50183825618E+00  0.11801309913E+01  0.00000000000E+00 0.  1.
         11    1    3    3    0    0  0.40926418385E+01  0.41417804659E+01 -0.69986284511E+01  0.91041124281E+01  0.51100000000E-03 0. -1.
        -11    1    3    3    0    0 -0.29039570203E+01  0.15230789757E+02 -0.32477836630E+02  0.35989162194E+02  0.51100000000E-03 0.  1.
         12    1    3    3    0    0 -0.11353337199E+01 -0.20439350979E+02  0.39978303338E+02  0.44914594386E+02  0.00000000000E+00 0. -1.
</event>
<event>
 7    1  0.1716782E-015  0.9000744E+02  0.7816164E-02  0.1186340E+00
        -11   -1    0    0    0    0  0.00000000000E+00  0.00000000000E+00  0.45593999997E+02  0.45594000000E+02  0.51100000000E-03 0. -1.
         11   -1    0    0    0    0 -0.00000000000E+00 -0.00000000000E+00 -0.45593999997E+02  0.45594000000E+02  0.51100000000E-03 0.  1.
    9900012    2    1    2    0    0  0.75760097298E+00 -0.72068429211E+00 -0.54806884951E+00  0.90007438885E+02  0.89999696277E+02 0.  0.
        -12    1    1    2    0    0 -0.75760097298E+00  0.72068429211E+00  0.54806884951E+00  0.11805611153E+01  0.00000000000E+00 0.  1.
         11    1    3    3    0    0  0.47298065605E+01 -0.79585047088E+01 -0.28243185260E+01  0.96791343981E+01  0.51100000000E-03 0. -1.
        -11    1    3    3    0    0  0.29159106861E+01 -0.29075880959E+02 -0.21589177249E+02  0.36331831267E+02  0.51100000000E-03 0.  1.
         12    1    3    3    0    0 -0.68881162736E+01  0.36313701376E+02  0.23865426925E+02  0.43996473219E+02  0.00000000000E+00 0. -1.
</event>
<event>
 7    1  0.1716782E-015  0.9000775E+02  0.7816164E-02  0.1186339E+00
        -11   -1    0    0    0    0  0.00000000000E+00  0.00000000000E+00  0.45593999997E+02  0.45594000000E+02  0.51100000000E-03 0. -1.
         11   -1    0    0    0    0 -0.00000000000E+00 -0.00000000000E+00 -0.45593999997E+02  0.45594000000E+02  0.51100000000E-03 0.  1.
    9900012    2    1    2    0    0  0.10318987639E+01  0.13361789808E+00  0.55706875411E+00  0.90007748163E+02  0.90000009639E+02 0.  0.
        -12    1    1    2    0    0 -0.10318987639E+01 -0.13361789808E+00 -0.55706875411E+00  0.11802518368E+01  0.00000000000E+00 0.  1.
         11    1    3    3    0    0 -0.31223613016E+01 -0.53949457992E+00 -0.97554298238E+01  0.10257124636E+02  0.51100000000E-03 0. -1.
        -11    1    3    3    0    0 -0.17253550923E+02  0.21413052715E+02 -0.22419958087E+02  0.35480394120E+02  0.51100000000E-03 0.  1.
         12    1    3    3    0    0  0.21407810989E+02 -0.20739940237E+02  0.32732456665E+02  0.44270229406E+02  0.00000000000E+00 0. -1.
</event>
<event>
 7    1  0.1716782E-015  0.9000777E+02  0.7816164E-02  0.1186339E+00
        -11   -1    0    0    0    0  0.00000000000E+00  0.00000000000E+00  0.45593999997E+02  0.45594000000E+02  0.51100000000E-03 0. -1.
         11   -1    0    0    0    0 -0.00000000000E+00 -0.00000000000E+00 -0.45593999997E+02  0.45594000000E+02  0.51100000000E-03 0.  1.
    9900012    2    1    2    0    0  0.84036849461E+00 -0.60057471591E+00  0.57100156746E+00  0.90007766131E+02  0.90000027844E+02 0.  0.
        -12    1    1    2    0    0 -0.84036849461E+00  0.60057471591E+00 -0.57100156746E+00  0.11802338693E+01  0.00000000000E+00 0.  1.
         11    1    3    3    0    0  0.21709312554E+02 -0.32177837404E+02  0.39673104865E+01  0.39018547183E+02  0.51100000000E-03 0. -1.
        -11    1    3    3    0    0  0.69793790654E+01 -0.68534102207E+00 -0.45406218306E+01  0.83545599121E+01  0.51100000000E-03 0.  1.
        -12    1    3    3    0    0 -0.27848323125E+02  0.32262603710E+02  0.11443129115E+01  0.42634659035E+02  0.00000000000E+00 0.  1.
</event>
<event>
 7    1  0.1716782E-015  0.9000776E+02  0.7816164E-02  0.1186339E+00
        -11   -1    0    0    0    0  0.00000000000E+00  0.00000000000E+00  0.45593999997E+02  0.45594000000E+02  0.51100000000E-03 0.  1.
         11   -1    0    0    0    0 -0.00000000000E+00 -0.00000000000E+00 -0.45593999997E+02  0.45594000000E+02  0.51100000000E-03 0. -1.
    9900012    2    1    2    0    0 -0.60471464344E+00  0.10135286644E+01  0.60522734820E-02  0.90007764098E+02  0.90000025784E+02 0.  0.
        -12    1    1    2    0    0  0.60471464344E+00 -0.10135286644E+01 -0.60522734820E-02  0.11802359017E+01  0.00000000000E+00 0.  1.
         11    1    3    3    0    0  0.91750310671E+01  0.17380518890E+01 -0.65948854860E+01  0.11432171022E+02  0.51100000000E-03 0. -1.
        -11    1    3    3    0    0  0.17843374477E+02  0.11050453688E+02  0.32656298364E+02  0.38819226712E+02  0.51100000000E-03 0.  1.
         12    1    3    3    0    0 -0.27623120188E+02 -0.11774976912E+02 -0.26055360605E+02  0.39756366364E+02  0.00000000000E+00 0. -1.
</event>
<event>
 7    1  0.1716782E-015  0.9000768E+02  0.7816164E-02  0.1186339E+00
        -11   -1    0    0    0    0  0.00000000000E+00  0.00000000000E+00  0.45593999997E+02  0.45594000000E+02  0.51100000000E-03 0.  1.
         11   -1    0    0    0    0 -0.00000000000E+00 -0.00000000000E+00 -0.45593999997E+02  0.45594000000E+02  0.51100000000E-03 0. -1.
    9900012    2    1    2    0    0 -0.30468337067E-01 -0.47678903627E-01 -0.11789677383E+01  0.90007675246E+02  0.89999935759E+02 0.  0.
        -12    1    1    2    0    0  0.30468337067E-01  0.47678903627E-01  0.11789677383E+01  0.11803247542E+01  0.00000000000E+00 0.  1.
         11    1    3    3    0    0 -0.74216579768E+01  0.18083981085E+01  0.39369035709E+00  0.76489413125E+01  0.51100000000E-03 0. -1.
        -11    1    3    3    0    0 -0.14650493617E+02  0.19057971199E+01  0.35844269371E+02  0.38769584379E+02  0.51100000000E-03 0.  1.
         12    1    3    3    0    0  0.22041683257E+02 -0.37618741321E+01 -0.37416927467E+02  0.43589149554E+02  0.00000000000E+00 0. -1.
</event>
<event>
 7    1  0.1716782E-015  0.9000754E+02  0.7816164E-02  0.1186339E+00
        -11   -1    0    0    0    0  0.00000000000E+00  0.00000000000E+00  0.45593999997E+02  0.45594000000E+02  0.51100000000E-03 0. -1.
         11   -1    0    0    0    0 -0.00000000000E+00 -0.00000000000E+00 -0.45593999997E+02  0.45594000000E+02  0.51100000000E-03 0.  1.
    9900012    2    1    2    0    0 -0.83451698018E-02  0.86738126652E-01  0.11772364629E+01  0.90007542955E+02  0.89999801722E+02 0.  0.
        -12    1    1    2    0    0  0.83451698018E-02 -0.86738126652E-01 -0.11772364629E+01  0.11804570445E+01  0.00000000000E+00 0.  1.
         11    1    3    3    0    0 -0.98200627436E+00  0.70499245349E+01 -0.54074396326E+01  0.89390254453E+01  0.51100000000E-03 0. -1.
        -11    1    3    3    0    0 -0.12438128821E+01  0.25642783194E+02 -0.24845154603E+02  0.35726476287E+02  0.51100000000E-03 0.  1.
         12    1    3    3    0    0  0.22174739866E+01 -0.32605969602E+02  0.31429830698E+02  0.45342041223E+02  0.00000000000E+00 0. -1.
</event>
<event>
 7    1  0.1716782E-015  0.9000769E+02  0.7816164E-02  0.1186339E+00
        -11   -1    0    0    0    0  0.00000000000E+00  0.00000000000E+00  0.45593999997E+02  0.45594000000E+02  0.51100000000E-03 0.  1.
         11   -1    0    0    0    0 -0.00000000000E+00 -0.00000000000E+00 -0.45593999997E+02  0.45594000000E+02  0.51100000000E-03 0. -1.
    9900012    2    1    2    0    0 -0.10746062411E+01  0.45925344037E+00 -0.16566254680E+00  0.90007688018E+02  0.89999948700E+02 0.  0.
        -12    1    1    2    0    0  0.10746062411E+01 -0.45925344037E+00  0.16566254680E+00  0.11803119822E+01  0.00000000000E+00 0.  1.
         11    1    3    3    0    0  0.12091059676E+02  0.47957858971E+01 -0.31959645770E+02  0.34505249521E+02  0.51100000000E-03 0. -1.
        -11    1    3    3    0    0  0.14973783493E+01  0.44496347297E+01 -0.96171709983E+01  0.10701932976E+02  0.51100000000E-03 0.  1.
        -12    1    3    3    0    0 -0.14663044267E+02 -0.87861671863E+01  0.41411154222E+02  0.44800505521E+02  0.00000000000E+00 0.  1.
</event>
<event>
 7    1  0.1716782E-015  0.9000763E+02  0.7816164E-02  0.1186339E+00
        -11   -1    0    0    0    0  0.00000000000E+00  0.00000000000E+00  0.45593999997E+02  0.45594000000E+02  0.51100000000E-03 0. -1.
         11   -1    0    0    0    0 -0.00000000000E+00 -0.00000000000E+00 -0.45593999997E+02  0.45594000000E+02  0.51100000000E-03 0.  1.
    9900012    2    1    2    0    0  0.12111617667E+00 -0.11716889854E+01 -0.75797031263E-01  0.90007631669E+02  0.89999891607E+02 0.  0.
        -12    1    1    2    0    0 -0.12111617667E+00  0.11716889854E+01  0.75797031263E-01  0.11803683309E+01  0.00000000000E+00 0.  1.
         11    1    3    3    0    0 -0.32428398428E+02 -0.20049552842E+02  0.16995278722E+02  0.41742365683E+02  0.51100000000E-03 0. -1.
        -11    1    3    3    0    0  0.29823674619E+01  0.77268279358E+01  0.50420901586E+01  0.96964456919E+01  0.51100000000E-03 0.  1.
        -12    1    3    3    0    0  0.29567147142E+02  0.11151035921E+02 -0.22113165912E+02  0.38568820294E+02  0.00000000000E+00 0.  1.
</event>
<event>
 7    1  0.1716782E-015  0.9000784E+02  0.7816164E-02  0.1186339E+00
        -11   -1    0    0    0    0  0.00000000000E+00  0.00000000000E+00  0.45593999997E+02  0.45594000000E+02  0.51100000000E-03 0.  1.
         11   -1    0    0    0    0 -0.00000000000E+00 -0.00000000000E+00 -0.45593999997E+02  0.45594000000E+02  0.51100000000E-03 0. -1.
    9900012    2    1    2    0    0  0.35591235662E+00 -0.88336600807E+00 -0.69696651803E+00  0.90007842622E+02  0.90000105344E+02 0.  0.
        -12    1    1    2    0    0 -0.35591235662E+00  0.88336600807E+00  0.69696651803E+00  0.11801573781E+01  0.00000000000E+00 0.  1.
         11    1    3    3    0    0 -0.55749342772E+01 -0.71684938314E+01 -0.40795214581E+01  0.99553850550E+01  0.51100000000E-03 0. -1.
        -11    1    3    3    0    0  0.35501804343E+02 -0.13821183871E+02  0.17091767406E+02  0.41755619365E+02  0.51100000000E-03 0.  1.
         12    1    3    3    0    0 -0.29570957709E+02  0.20106311695E+02 -0.13709212466E+02  0.38296838202E+02  0.00000000000E+00 0. -1.
</event>
<event>
 7    1  0.1716782E-015  0.9000784E+02  0.7816164E-02  0.1186339E+00
        -11   -1    0    0    0    0  0.00000000000E+00  0.00000000000E+00  0.45593999997E+02  0.45594000000E+02  0.51100000000E-03 0.  1.
         11   -1    0    0    0    0 -0.00000000000E+00 -0.00000000000E+00 -0.45593999997E+02  0.45594000000E+02  0.51100000000E-03 0. -1.
    9900012    2    1    2    0    0 -0.57661667866E+00 -0.98747617989E+00  0.29187471067E+00  0.90007836093E+02  0.90000098730E+02 0.  0.
        -12    1    1    2    0    0  0.57661667866E+00  0.98747617989E+00 -0.29187471067E+00  0.11801639067E+01  0.00000000000E+00 0.  1.
         11    1    3    3    0    0  0.25629634484E+02  0.17746915939E+02  0.97537197162E+01  0.32664449141E+02  0.51100000000E-03 0. -1.
        -11    1    3    3    0    0  0.77641206329E+01  0.93793060092E+01  0.30490359862E+00  0.12179733859E+02  0.51100000000E-03 0.  1.
        -12    1    3    3    0    0 -0.33970371795E+02 -0.28113698129E+02 -0.97667486042E+01  0.45163653093E+02  0.00000000000E+00 0.  1.
</event>
<event>
 7    1  0.1716782E-015  0.9000771E+02  0.7816164E-02  0.1186339E+00
        -11   -1    0    0    0    0  0.00000000000E+00  0.00000000000E+00  0.45593999997E+02  0.45594000000E+02  0.51100000000E-03 0. -1.
         11   -1    0    0    0    0 -0.00000000000E+00 -0.00000000000E+00 -0.45593999997E+02  0.45594000000E+02  0.51100000000E-03 0.  1.
    9900012    2    1    2    0    0 -0.38143598953E+00 -0.11164439620E+01 -0.33929689523E-01  0.90007706919E+02  0.89999967850E+02 0.  0.
        -12    1    1    2    0    0  0.38143598953E+00  0.11164439620E+01  0.33929689523E-01  0.11802930815E+01  0.00000000000E+00 0.  1.
         11    1    3    3    0    0  0.15022976390E+02  0.34446140435E+02  0.36185484174E+01  0.37753414460E+02  0.51100000000E-03 0. -1.
        -11    1    3    3    0    0  0.56292322455E+01 -0.49632093886E+01 -0.12039989912E+02  0.14187426139E+02  0.51100000000E-03 0.  1.
        -12    1    3    3    0    0 -0.21033644625E+02 -0.30599375008E+02  0.83875118052E+01  0.38066866319E+02  0.00000000000E+00 0.  1.
</event>
<event>
 7    1  0.1716782E-015  0.9000778E+02  0.7816164E-02  0.1186339E+00
        -11   -1    0    0    0    0  0.00000000000E+00  0.00000000000E+00  0.45593999997E+02  0.45594000000E+02  0.51100000000E-03 0. -1.
         11   -1    0    0    0    0 -0.00000000000E+00 -0.00000000000E+00 -0.45593999997E+02  0.45594000000E+02  0.51100000000E-03 0.  1.
    9900012    2    1    2    0    0 -0.62889847130E+00  0.17316105966E+00  0.98358065901E+00  0.90007775889E+02  0.90000037731E+02 0.  0.
        -12    1    1    2    0    0  0.62889847130E+00 -0.17316105966E+00 -0.98358065901E+00  0.11802241112E+01  0.00000000000E+00 0.  1.
         11    1    3    3    0    0  0.10939897994E+02 -0.21958600993E+01 -0.27814871647E+00  0.11161565153E+02  0.51100000000E-03 0. -1.
        -11    1    3    3    0    0 -0.25358983873E+02  0.15695474659E+02 -0.29916421950E+02  0.42242375530E+02  0.51100000000E-03 0.  1.
         12    1    3    3    0    0  0.13790187408E+02 -0.13326453500E+02  0.31178151326E+02  0.36603835205E+02  0.00000000000E+00 0. -1.
</event>
<event>
 7    1  0.1716782E-015  0.9000774E+02  0.7816164E-02  0.1186339E+00
        -11   -1    0    0    0    0  0.00000000000E+00  0.00000000000E+00  0.45593999997E+02  0.45594000000E+02  0.51100000000E-03 0.  1.
         11   -1    0    0    0    0 -0.00000000000E+00 -0.00000000000E+00 -0.45593999997E+02  0.45594000000E+02  0.51100000000E-03 0. -1.
    9900012    2    1    2    0    0  0.14342455748E+00 -0.85916960020E+00 -0.79640945152E+00  0.90007741122E+02  0.90000002504E+02 0.  0.
        -12    1    1    2    0    0 -0.14342455748E+00  0.85916960020E+00  0.79640945152E+00  0.11802588784E+01  0.00000000000E+00 0.  1.
         11    1    3    3    0    0 -0.30707600482E+02  0.11747329462E+02 -0.17970832361E+02  0.37468750885E+02  0.51100000000E-03 0. -1.
        -11    1    3    3    0    0 -0.65298511803E+01  0.45223887399E+01  0.59250750669E+01  0.99094637172E+01  0.51100000000E-03 0.  1.
        -12    1    3    3    0    0  0.37380876220E+02 -0.17128887802E+02  0.11249347843E+02  0.42629526519E+02  0.00000000000E+00 0.  1.
</event>
<event>
 7    1  0.1716782E-015  0.9000812E+02  0.7816164E-02  0.1186338E+00
        -11   -1    0    0    0    0  0.00000000000E+00  0.00000000000E+00  0.45593999997E+02  0.45594000000E+02  0.51100000000E-03 0.  1.
         11   -1    0    0    0    0 -0.00000000000E+00 -0.00000000000E+00 -0.45593999997E+02  0.45594000000E+02  0.51100000000E-03 0. -1.
    9900012    2    1    2    0    0 -0.78889197775E+00 -0.84582166571E+00  0.23314715329E+00  0.90008117617E+02  0.90000383969E+02 0.  0.
        -12    1    1    2    0    0  0.78889197775E+00  0.84582166571E+00 -0.23314715329E+00  0.11798823831E+01  0.00000000000E+00 0.  1.
         11    1    3    3    0    0 -0.69823103114E+01 -0.26449814082E+01  0.40892283634E+01  0.85129532363E+01  0.51100000000E-03 0. -1.
        -11    1    3    3    0    0  0.17421793732E+02 -0.67524194973E+01  0.35263272572E+02  0.39907548893E+02  0.51100000000E-03 0.  1.
         12    1    3    3    0    0 -0.11228375398E+02  0.85515792398E+01 -0.39119353782E+02  0.41587615487E+02  0.00000000000E+00 0. -1.
</event>
<event>
 7    1  0.1716782E-015  0.9000774E+02  0.7816164E-02  0.1186339E+00
        -11   -1    0    0    0    0  0.00000000000E+00  0.00000000000E+00  0.45593999997E+02  0.45594000000E+02  0.51100000000E-03 0.  1.
         11   -1    0    0    0    0 -0.00000000000E+00 -0.00000000000E+00 -0.45593999997E+02  0.45594000000E+02  0.51100000000E-03 0. -1.
    9900012    2    1    2    0    0 -0.10299106883E+01 -0.54467386420E+00  0.18875820493E+00  0.90007739307E+02  0.90000000666E+02 0.  0.
        -12    1    1    2    0    0  0.10299106883E+01  0.54467386420E+00 -0.18875820493E+00  0.11802606933E+01  0.00000000000E+00 0.  1.
         11    1    3    3    0    0  0.36590025434E+00 -0.58182445160E+01  0.79798948650E+01  0.98825388723E+01  0.51100000000E-03 0. -1.
        -11    1    3    3    0    0  0.22375812049E+01 -0.24104158291E+02  0.25782075031E+02  0.35365698208E+02  0.51100000000E-03 0.  1.
         12    1    3    3    0    0 -0.36333921475E+01  0.29377728942E+02 -0.33573211691E+02  0.44759502227E+02  0.00000000000E+00 0. -1.
</event>
<event>
 7    1  0.1716782E-015  0.9000774E+02  0.7816164E-02  0.1186339E+00
        -11   -1    0    0    0    0  0.00000000000E+00  0.00000000000E+00  0.45593999997E+02  0.45594000000E+02  0.51100000000E-03 0.  1.
         11   -1    0    0    0    0 -0.00000000000E+00 -0.00000000000E+00 -0.45593999997E+02  0.45594000000E+02  0.51100000000E-03 0. -1.
    9900012    2    1    2    0    0  0.45826592564E+00 -0.94365678326E-01 -0.10835575576E+01  0.90007741757E+02  0.90000003148E+02 0.  0.
        -12    1    1    2    0    0 -0.45826592564E+00  0.94365678326E-01  0.10835575576E+01  0.11802582431E+01  0.00000000000E+00 0.  1.
         11    1    3    3    0    0 -0.13068034179E+01 -0.99911120543E+01  0.14699274296E+00  0.10077284475E+02  0.51100000000E-03 0. -1.
        -11    1    3    3    0    0 -0.20614749989E+02 -0.22237127672E+02  0.19071324985E+02  0.35821407023E+02  0.51100000000E-03 0.  1.
         12    1    3    3    0    0  0.22379819332E+02  0.32133874048E+02 -0.20301875285E+02  0.44109050259E+02  0.00000000000E+00 0. -1.
</event>
<event>
 7    1  0.1716782E-015  0.9000695E+02  0.7816164E-02  0.1186341E+00
        -11   -1    0    0    0    0  0.00000000000E+00  0.00000000000E+00  0.45593999997E+02  0.45594000000E+02  0.51100000000E-03 0.  1.
         11   -1    0    0    0    0 -0.00000000000E+00 -0.00000000000E+00 -0.45593999997E+02  0.45594000000E+02  0.51100000000E-03 0. -1.
    9900012    2    1    2    0    0 -0.51360397189E+00  0.79080389296E+00 -0.71113257109E+00  0.90006954120E+02  0.89999205111E+02 0.  0.
        -12    1    1    2    0    0  0.51360397189E+00 -0.79080389296E+00  0.71113257109E+00  0.11810458800E+01  0.00000000000E+00 0.  1.
         11    1    3    3    0    0  0.11023578497E+02  0.38254910664E+02 -0.75141465101E+01  0.40514440276E+02  0.51100000000E-03 0. -1.
        -11    1    3    3    0    0 -0.41032928322E+01 -0.17917387105E+01 -0.87845430101E+01  0.98597939041E+01  0.51100000000E-03 0.  1.
        -12    1    3    3    0    0 -0.74338896371E+01 -0.35672368061E+02  0.15587556949E+02  0.39632719940E+02  0.00000000000E+00 0.  1.
</event>
<event>
 7    1  0.1716782E-015  0.9000705E+02  0.7816164E-02  0.1186340E+00
        -11   -1    0    0    0    0  0.00000000000E+00  0.00000000000E+00  0.45593999997E+02  0.45594000000E+02  0.51100000000E-03 0.  1.
         11   -1    0    0    0    0 -0.00000000000E+00 -0.00000000000E+00 -0.45593999997E+02  0.45594000000E+02  0.51100000000E-03 0. -1.
    9900012    2    1    2    0    0 -0.15903751744E+00 -0.86772491649E+00 -0.78511237516E+00  0.90007050846E+02  0.89999303114E+02 0.  0.
        -12    1    1    2    0    0  0.15903751744E+00  0.86772491649E+00  0.78511237516E+00  0.11809491540E+01  0.00000000000E+00 0.  1.
         11    1    3    3    0    0  0.10624999206E+02 -0.36847736821E+01 -0.33628285375E+02  0.35458845762E+02  0.51100000000E-03 0. -1.
        -11    1    3    3    0    0  0.12696786370E+01 -0.19900826974E+00 -0.99269371719E+01  0.10009783714E+02  0.51100000000E-03 0.  1.
        -12    1    3    3    0    0 -0.12053715360E+02  0.30160570353E+01  0.42770110172E+02  0.44538421370E+02  0.00000000000E+00 0.  1.
</event>
<event>
 7    1  0.1716782E-015  0.9000773E+02  0.7816164E-02  0.1186339E+00
        -11   -1    0    0    0    0  0.00000000000E+00  0.00000000000E+00  0.45593999997E+02  0.45594000000E+02  0.51100000000E-03 0.  1.
         11   -1    0    0    0    0 -0.00000000000E+00 -0.00000000000E+00 -0.45593999997E+02  0.45594000000E+02  0.51100000000E-03 0. -1.
    9900012    2    1    2    0    0 -0.11467688606E+01  0.15246182275E+00 -0.23393483786E+00  0.90007725059E+02  0.89999986230E+02 0.  0.
        -12    1    1    2    0    0  0.11467688606E+01 -0.15246182275E+00  0.23393483786E+00  0.11802749406E+01  0.00000000000E+00 0.  1.
         11    1    3    3    0    0 -0.65681584211E+01 -0.35088841735E+01 -0.24093211711E+01  0.78267363539E+01  0.51100000000E-03 0. -1.
        -11    1    3    3    0    0 -0.10916685073E+02  0.36383057340E+02  0.18355529357E+02  0.42187988014E+02  0.51100000000E-03 0.  1.
         12    1    3    3    0    0  0.16338074634E+02 -0.32721711344E+02 -0.16180143024E+02  0.39993000691E+02  0.00000000000E+00 0. -1.
</event>
<event>
 7    1  0.2046925E-015  0.9000772E+02  0.7816164E-02  0.1186339E+00
        -11   -1    0    0    0    0  0.00000000000E+00  0.00000000000E+00  0.45593999997E+02  0.45594000000E+02  0.51100000000E-03 0. -1.
         11   -1    0    0    0    0 -0.00000000000E+00 -0.00000000000E+00 -0.45593999997E+02  0.45594000000E+02  0.51100000000E-03 0.  1.
    9900012    2    1    2    0    0  0.70775146692E+00  0.25275099772E+00  0.91009421488E+00  0.90007717540E+02  0.89999978611E+02 0.  0.
        -12    1    1    2    0    0 -0.70775146692E+00 -0.25275099772E+00 -0.91009421488E+00  0.11802824601E+01  0.00000000000E+00 0.  1.
         11    1    3    3    0    0  0.78367360605E+01  0.12027816399E+02  0.40579734704E+02  0.43044136282E+02  0.51100000000E-03 0. -1.
        -11    1    3    3    0    0  0.44397240729E+00 -0.91935869633E+01 -0.33845269124E+01  0.98068432960E+01  0.51100000000E-03 0.  1.
        -12    1    3    3    0    0 -0.75729570009E+01 -0.25814784377E+01 -0.36285113577E+02  0.37156737961E+02  0.00000000000E+00 0.  1.
</event>
<event>
 7    1  0.1716782E-015  0.9000795E+02  0.7816164E-02  0.1186339E+00
        -11   -1    0    0    0    0  0.00000000000E+00  0.00000000000E+00  0.45593999997E+02  0.45594000000E+02  0.51100000000E-03 0.  1.
         11   -1    0    0    0    0 -0.00000000000E+00 -0.00000000000E+00 -0.45593999997E+02  0.45594000000E+02  0.51100000000E-03 0. -1.
    9900012    2    1    2    0    0  0.42201874325E+00 -0.10994963859E+01 -0.74357254846E-01  0.90007948678E+02  0.90000212800E+02 0.  0.
        -12    1    1    2    0    0 -0.42201874325E+00  0.10994963859E+01  0.74357254846E-01  0.11800513225E+01  0.00000000000E+00 0.  1.
         11    1    3    3    0    0 -0.99170653090E+01  0.24883949737E+01 -0.29169902461E+01  0.10632456266E+02  0.51100000000E-03 0. -1.
        -11    1    3    3    0    0 -0.30932829630E+02  0.14422584510E+02  0.37540107132E+01  0.34335746527E+02  0.51100000000E-03 0.  1.
         12    1    3    3    0    0  0.41271913682E+02 -0.18010475870E+02 -0.91137772188E+00  0.45039745885E+02  0.00000000000E+00 0. -1.
</event>
<event>
 7    1  0.1716782E-015  0.9000801E+02  0.7816164E-02  0.1186338E+00
        -11   -1    0    0    0    0  0.00000000000E+00  0.00000000000E+00  0.45593999997E+02  0.45594000000E+02  0.51100000000E-03 0.  1.
         11   -1    0    0    0    0 -0.00000000000E+00 -0.00000000000E+00 -0.45593999997E+02  0.45594000000E+02  0.51100000000E-03 0. -1.
    9900012    2    1    2    0    0 -0.41754992847E+00  0.72180698342E+00 -0.83487453689E+00  0.90008013239E+02  0.90000278213E+02 0.  0.
        -12    1    1    2    0    0  0.41754992847E+00 -0.72180698342E+00  0.83487453689E+00  0.11799867611E+01  0.00000000000E+00 0.  1.
         11    1    3    3    0    0 -0.62098242537E+01  0.66988119459E+01  0.15825508762E+01  0.92704080970E+01  0.51100000000E-03 0. -1.
        -11    1    3    3    0    0  0.23830638074E+02 -0.36497428451E+01  0.33032288494E+02  0.40894400806E+02  0.51100000000E-03 0.  1.
         12    1    3    3    0    0 -0.18038363749E+02 -0.23272621174E+01 -0.35449713907E+02  0.39843204336E+02  0.00000000000E+00 0. -1.
</event>
<event>
 7    1  0.1716782E-015  0.9000769E+02  0.7816164E-02  0.1186339E+00
        -11   -1    0    0    0    0  0.00000000000E+00  0.00000000000E+00  0.45593999997E+02  0.45594000000E+02  0.51100000000E-03 0. -1.
         11   -1    0    0    0    0 -0.00000000000E+00 -0.00000000000E+00 -0.45593999997E+02  0.45594000000E+02  0.51100000000E-03 0.  1.
    9900012    2    1    2    0    0  0.35074230047E+00 -0.21465887314E+00  0.11063573996E+01  0.90007692714E+02  0.89999953458E+02 0.  0.
        -12    1    1    2    0    0 -0.35074230047E+00  0.21465887314E+00 -0.11063573996E+01  0.11803072857E+01  0.00000000000E+00 0.  1.
         11    1    3    3    0    0  0.68598929469E+01  0.34016017071E+01  0.19506672640E+01  0.79015269697E+01  0.51100000000E-03 0. -1.
        -11    1    3    3    0    0  0.15283626579E+01  0.36267405578E+02 -0.14646801255E+02  0.39143190813E+02  0.51100000000E-03 0.  1.
         12    1    3    3    0    0 -0.80375133043E+01 -0.39883666158E+02  0.13802491391E+02  0.42962974931E+02  0.00000000000E+00 0. -1.
</event>
<event>
 7    1  0.1716782E-015  0.9000774E+02  0.7816164E-02  0.1186339E+00
        -11   -1    0    0    0    0  0.00000000000E+00  0.00000000000E+00  0.45593999997E+02  0.45594000000E+02  0.51100000000E-03 0. -1.
         11   -1    0    0    0    0 -0.00000000000E+00 -0.00000000000E+00 -0.45593999997E+02  0.45594000000E+02  0.51100000000E-03 0.  1.
    9900012    2    1    2    0    0  0.67604998515E+00 -0.96735945809E+00  0.13370857972E-01  0.90007742959E+02  0.90000004366E+02 0.  0.
        -12    1    1    2    0    0 -0.67604998515E+00  0.96735945809E+00 -0.13370857972E-01  0.11802570412E+01  0.00000000000E+00 0.  1.
         11    1    3    3    0    0  0.11021628889E+02 -0.21418862194E+02  0.32143314177E+02  0.40167606445E+02  0.51100000000E-03 0. -1.
        -11    1    3    3    0    0  0.68136797408E+01  0.80050190761E+01  0.94563355087E+00  0.10554657033E+02  0.51100000000E-03 0.  1.
        -12    1    3    3    0    0 -0.17159258645E+02  0.12446483660E+02 -0.33075576869E+02  0.39285479480E+02  0.00000000000E+00 0.  1.
</event>
<event>
 7    1  0.1716782E-015  0.9000777E+02  0.7816164E-02  0.1186339E+00
        -11   -1    0    0    0    0  0.00000000000E+00  0.00000000000E+00  0.45593999997E+02  0.45594000000E+02  0.51100000000E-03 0. -1.
         11   -1    0    0    0    0 -0.00000000000E+00 -0.00000000000E+00 -0.45593999997E+02  0.45594000000E+02  0.51100000000E-03 0.  1.
    9900012    2    1    2    0    0 -0.16019720718E+00 -0.88434383557E-01  0.11659557717E+01  0.90007772629E+02  0.90000034428E+02 0.  0.
        -12    1    1    2    0    0  0.16019720718E+00  0.88434383557E-01 -0.11659557717E+01  0.11802273709E+01  0.00000000000E+00 0.  1.
         11    1    3    3    0    0  0.11161662945E+02  0.71480436057E+01  0.32542226115E+01  0.13647974654E+02  0.51100000000E-03 0. -1.
        -11    1    3    3    0    0  0.12868587443E+02  0.23515762400E+02 -0.19884354852E+02  0.33376326823E+02  0.51100000000E-03 0.  1.
         12    1    3    3    0    0 -0.24190447595E+02 -0.30752240389E+02  0.17796088013E+02  0.42983471153E+02  0.00000000000E+00 0. -1.
</event>
<event>
 7    1  0.1716782E-015  0.9000754E+02  0.7816164E-02  0.1186339E+00
        -11   -1    0    0    0    0  0.00000000000E+00  0.00000000000E+00  0.45593999997E+02  0.45594000000E+02  0.51100000000E-03 0.  1.
         11   -1    0    0    0    0 -0.00000000000E+00 -0.00000000000E+00 -0.45593999997E+02  0.45594000000E+02  0.51100000000E-03 0. -1.
    9900012    2    1    2    0    0  0.23266836593E+00  0.89052705558E+00 -0.73912837833E+00  0.90007540867E+02  0.89999799606E+02 0.  0.
        -12    1    1    2    0    0 -0.23266836593E+00 -0.89052705558E+00  0.73912837833E+00  0.11804591331E+01  0.00000000000E+00 0.  1.
         11    1    3    3    0    0 -0.49270433277E+01  0.11094394637E+02  0.29339891805E+01  0.12488780609E+02  0.51100000000E-03 0. -1.
        -11    1    3    3    0    0 -0.25066304131E+02  0.18267939929E+02 -0.15034385942E+02  0.34468391215E+02  0.51100000000E-03 0.  1.
         12    1    3    3    0    0  0.30226015824E+02 -0.28471807510E+02  0.11361268383E+02  0.43050369044E+02  0.00000000000E+00 0. -1.
</event>
<event>
 7    1  0.1716782E-015  0.9000773E+02  0.7816164E-02  0.1186339E+00
        -11   -1    0    0    0    0  0.00000000000E+00  0.00000000000E+00  0.45593999997E+02  0.45594000000E+02  0.51100000000E-03 0.  1.
         11   -1    0    0    0    0 -0.00000000000E+00 -0.00000000000E+00 -0.45593999997E+02  0.45594000000E+02  0.51100000000E-03 0. -1.
    9900012    2    1    2    0    0 -0.11453198814E+01  0.23026009112E+00 -0.16810682765E+00  0.90007730011E+02  0.89999991248E+02 0.  0.
        -12    1    1    2    0    0  0.11453198814E+01 -0.23026009112E+00  0.16810682765E+00  0.11802699885E+01  0.00000000000E+00 0.  1.
         11    1    3    3    0    0  0.29789269854E+01 -0.37183213777E+01 -0.86770648152E+01  0.98990592442E+01  0.51100000000E-03 0. -1.
        -11    1    3    3    0    0  0.24481681766E+02 -0.10206965983E+02 -0.23111478045E+02  0.35180609920E+02  0.51100000000E-03 0.  1.
         12    1    3    3    0    0 -0.28605928633E+02  0.14155547452E+02  0.31620436032E+02  0.44928060847E+02  0.00000000000E+00 0. -1.
</event>
<event>
 7    1  0.1716782E-015  0.9000771E+02  0.7816164E-02  0.1186339E+00
        -11   -1    0    0    0    0  0.00000000000E+00  0.00000000000E+00  0.45593999997E+02  0.45594000000E+02  0.51100000000E-03 0.  1.
         11   -1    0    0    0    0 -0.00000000000E+00 -0.00000000000E+00 -0.45593999997E+02  0.45594000000E+02  0.51100000000E-03 0. -1.
    9900012    2    1    2    0    0 -0.26322386678E-01  0.72638365610E+00 -0.92992297506E+00  0.90007710704E+02  0.89999971685E+02 0.  0.
        -12    1    1    2    0    0  0.26322386678E-01 -0.72638365610E+00  0.92992297506E+00  0.11802892965E+01  0.00000000000E+00 0.  1.
         11    1    3    3    0    0  0.10712446625E+02 -0.25625703754E+01 -0.34981540073E+02  0.36674670084E+02  0.51100000000E-03 0. -1.
        -11    1    3    3    0    0  0.56748489183E+01  0.26066894460E+01 -0.68417795257E+01  0.92632978713E+01  0.51100000000E-03 0.  1.
        -12    1    3    3    0    0 -0.16413617930E+02  0.68226458551E+00  0.40893396624E+02  0.44069742748E+02  0.00000000000E+00 0.  1.
</event>
<event>
 7    1  0.1716782E-015  0.9000785E+02  0.7816164E-02  0.1186339E+00
        -11   -1    0    0    0    0  0.00000000000E+00  0.00000000000E+00  0.45593999997E+02  0.45594000000E+02  0.51100000000E-03 0.  1.
         11   -1    0    0    0    0 -0.00000000000E+00 -0.00000000000E+00 -0.45593999997E+02  0.45594000000E+02  0.51100000000E-03 0. -1.
    9900012    2    1    2    0    0  0.47187828336E+00 -0.10810996375E+01  0.36106556006E-01  0.90007852033E+02  0.90000114880E+02 0.  0.
        -12    1    1    2    0    0 -0.47187828336E+00  0.10810996375E+01 -0.36106556006E-01  0.11801479670E+01  0.00000000000E+00 0.  1.
         11    1    3    3    0    0 -0.39739739809E+01  0.12844741024E+02 -0.37503221063E+02  0.39840575191E+02  0.51100000000E-03 0. -1.
        -11    1    3    3    0    0  0.11251260413E+02 -0.11363030997E+01  0.16042073477E+01  0.11421712967E+02  0.51100000000E-03 0.  1.
        -12    1    3    3    0    0 -0.68054081492E+01 -0.12789537562E+02  0.35935120271E+02  0.38745563875E+02  0.00000000000E+00 0.  1.
</event>
<event>
 7    1  0.1716782E-015  0.9000772E+02  0.7816164E-02  0.1186339E+00
        -11   -1    0    0    0    0  0.00000000000E+00  0.00000000000E+00  0.45593999997E+02  0.45594000000E+02  0.51100000000E-03 0. -1.
         11   -1    0    0    0    0 -0.00000000000E+00 -0.00000000000E+00 -0.45593999997E+02  0.45594000000E+02  0.51100000000E-03 0.  1.
    9900012    2    1    2    0    0 -0.86051205901E+00 -0.33531470642E+00  0.73494919788E+00  0.90007717288E+02  0.89999978357E+02 0.  0.
        -12    1    1    2    0    0  0.86051205901E+00  0.33531470642E+00 -0.73494919788E+00  0.11802827117E+01  0.00000000000E+00 0.  1.
         11    1    3    3    0    0 -0.56154373756E-01 -0.56164157585E+01  0.55448711426E+01  0.78925835780E+01  0.51100000000E-03 0. -1.
        -11    1    3    3    0    0  0.39614562842E+02 -0.25254555529E+01 -0.91048525195E+01  0.40725788569E+02  0.51100000000E-03 0.  1.
         12    1    3    3    0    0 -0.40418920527E+02  0.78065566050E+01  0.42949305748E+01  0.41389345141E+02  0.00000000000E+00 0. -1.
</event>
<event>
 7    1  0.1716782E-015  0.9000776E+02  0.7816164E-02  0.1186339E+00
        -11   -1    0    0    0    0  0.00000000000E+00  0.00000000000E+00  0.45593999997E+02  0.45594000000E+02  0.51100000000E-03 0.  1.
         11   -1    0    0    0    0 -0.00000000000E+00 -0.00000000000E+00 -0.45593999997E+02  0.45594000000E+02  0.51100000000E-03 0. -1.
    9900012    2    1    2    0    0 -0.64885580778E+00 -0.54815833663E+00 -0.81943376487E+00  0.90007761416E+02  0.90000023066E+02 0.  0.
        -12    1    1    2    0    0  0.64885580778E+00  0.54815833663E+00  0.81943376487E+00  0.11802385845E+01  0.00000000000E+00 0.  1.
         11    1    3    3    0    0 -0.64188708502E+01 -0.53929110256E+01  0.94233872200E+01  0.12612914781E+02  0.51100000000E-03 0. -1.
        -11    1    3    3    0    0  0.65483627188E+01 -0.77538178894E+01  0.31861645021E+02  0.33439006711E+02  0.51100000000E-03 0.  1.
         12    1    3    3    0    0 -0.77834767638E+00  0.12598570578E+02 -0.42104466005E+02  0.43955839923E+02  0.00000000000E+00 0. -1.
</event>
<event>
 7    1  0.1716782E-015  0.9000746E+02  0.7816164E-02  0.1186340E+00
        -11   -1    0    0    0    0  0.00000000000E+00  0.00000000000E+00  0.45593999997E+02  0.45594000000E+02  0.51100000000E-03 0. -1.
         11   -1    0    0    0    0 -0.00000000000E+00 -0.00000000000E+00 -0.45593999997E+02  0.45594000000E+02  0.51100000000E-03 0.  1.
    9900012    2    1    2    0    0  0.70901345969E+00 -0.69249294450E+00  0.64143498241E+00  0.90007455464E+02  0.89999713076E+02 0.  0.
        -12    1    1    2    0    0 -0.70901345969E+00  0.69249294450E+00 -0.64143498241E+00  0.11805445357E+01  0.00000000000E+00 0.  1.
         11    1    3    3    0    0 -0.41080217696E+01 -0.32105530366E+02 -0.20123018458E+02  0.38112685488E+02  0.51100000000E-03 0. -1.
        -11    1    3    3    0    0  0.58766706622E+01 -0.69207275103E+01  0.24884550779E+01  0.94140393180E+01  0.51100000000E-03 0.  1.
        -12    1    3    3    0    0 -0.10596354330E+01  0.38333764932E+02  0.18275998363E+02  0.42480730658E+02  0.00000000000E+00 0.  1.
</event>
<event>
 7    1  0.1716782E-015  0.9000776E+02  0.7816164E-02  0.1186339E+00
        -11   -1    0    0    0    0  0.00000000000E+00  0.00000000000E+00  0.45593999997E+02  0.45594000000E+02  0.51100000000E-03 0.  1.
         11   -1    0    0    0    0 -0.00000000000E+00 -0.00000000000E+00 -0.45593999997E+02  0.45594000000E+02  0.51100000000E-03 0. -1.
    9900012    2    1    2    0    0 -0.94846960464E+00 -0.67715104623E+00  0.18663172020E+00  0.90007762935E+02  0.90000024606E+02 0.  0.
        -12    1    1    2    0    0  0.94846960464E+00  0.67715104623E+00 -0.18663172020E+00  0.11802370649E+01  0.00000000000E+00 0.  1.
         11    1    3    3    0    0 -0.49967841453E+01 -0.10828405518E+02 -0.34191337454E+00  0.11930596082E+02  0.51100000000E-03 0. -1.
        -11    1    3    3    0    0  0.18368531268E-02 -0.33292188900E+02  0.68515365106E+01  0.33989901411E+02  0.51100000000E-03 0.  1.
         12    1    3    3    0    0  0.40464776875E+01  0.43443443372E+02 -0.63229914158E+01  0.44087265442E+02  0.00000000000E+00 0. -1.
</event>
<event>
 7    1  0.1716782E-015  0.9000770E+02  0.7816164E-02  0.1186339E+00
        -11   -1    0    0    0    0  0.00000000000E+00  0.00000000000E+00  0.45593999997E+02  0.45594000000E+02  0.51100000000E-03 0.  1.
         11   -1    0    0    0    0 -0.00000000000E+00 -0.00000000000E+00 -0.45593999997E+02  0.45594000000E+02  0.51100000000E-03 0. -1.
    9900012    2    1    2    0    0 -0.61366313131E+00  0.37475335851E+00 -0.93598819892E+00  0.90007704941E+02  0.89999965846E+02 0.  0.
        -12    1    1    2    0    0  0.61366313131E+00 -0.37475335851E+00  0.93598819892E+00  0.11802950593E+01  0.00000000000E+00 0.  1.
         11    1    3    3    0    0  0.22217824665E+01 -0.82709487004E+01  0.40568073867E+01  0.94764231737E+01  0.51100000000E-03 0. -1.
        -11    1    3    3    0    0 -0.36978424278E+02 -0.67060071629E+01  0.11956257930E+02  0.39437627947E+02  0.51100000000E-03 0.  1.
         12    1    3    3    0    0  0.34142978680E+02  0.15351709222E+02 -0.16949053516E+02  0.41093653820E+02  0.00000000000E+00 0. -1.
</event>
<event>
 7    1  0.1716782E-015  0.9000858E+02  0.7816164E-02  0.1186337E+00
        -11   -1    0    0    0    0  0.00000000000E+00  0.00000000000E+00  0.45593999997E+02  0.45594000000E+02  0.51100000000E-03 0.  1.
         11   -1    0    0    0    0 -0.00000000000E+00 -0.00000000000E+00 -0.45593999997E+02  0.45594000000E+02  0.51100000000E-03 0. -1.
    9900012    2    1    2    0    0  0.85432706463E-01 -0.44768579245E+00 -0.10878000413E+01  0.90008580547E+02  0.90000853006E+02 0.  0.
        -12    1    1    2    0    0 -0.85432706463E-01  0.44768579245E+00  0.10878000413E+01  0.11794194530E+01  0.00000000000E+00 0.  1.
         11    1    3    3    0    0 -0.24060954894E+00 -0.85628599858E+01  0.34000636306E+01  0.92163385921E+01  0.51100000000E-03 0. -1.
        -11    1    3    3    0    0 -0.22851126436E+01 -0.36168078748E+02 -0.37886009838E+00  0.36242174263E+02  0.51100000000E-03 0.  1.
         12    1    3    3    0    0  0.26111548990E+01  0.44283252941E+02 -0.41090035736E+01  0.44550067692E+02  0.00000000000E+00 0. -1.
</event>
<event>
 7    1  0.1716782E-015  0.9000775E+02  0.7816164E-02  0.1186339E+00
        -11   -1    0    0    0    0  0.00000000000E+00  0.00000000000E+00  0.45593999997E+02  0.45594000000E+02  0.51100000000E-03 0. -1.
         11   -1    0    0    0    0 -0.00000000000E+00 -0.00000000000E+00 -0.45593999997E+02  0.45594000000E+02  0.51100000000E-03 0.  1.
    9900012    2    1    2    0    0 -0.10520735531E+01 -0.37441616210E+00  0.38201550364E+00  0.90007753386E+02  0.90000014931E+02 0.  0.
        -12    1    1    2    0    0  0.10520735531E+01  0.37441616210E+00 -0.38201550364E+00  0.11802466135E+01  0.00000000000E+00 0.  1.
         11    1    3    3    0    0  0.24880411680E+02 -0.79152501344E+01  0.21449809275E+02  0.33790241021E+02  0.51100000000E-03 0. -1.
        -11    1    3    3    0    0  0.10459377641E+02 -0.71243278590E+01 -0.29177855289E+01  0.12987228370E+02  0.51100000000E-03 0.  1.
        -12    1    3    3    0    0 -0.36391862875E+02  0.14665161831E+02 -0.18150008243E+02  0.43230283995E+02  0.00000000000E+00 0.  1.
</event>
<event>
 7    1  0.1716782E-015  0.9000767E+02  0.7816164E-02  0.1186339E+00
        -11   -1    0    0    0    0  0.00000000000E+00  0.00000000000E+00  0.45593999997E+02  0.45594000000E+02  0.51100000000E-03 0.  1.
         11   -1    0    0    0    0 -0.00000000000E+00 -0.00000000000E+00 -0.45593999997E+02  0.45594000000E+02  0.51100000000E-03 0. -1.
    9900012    2    1    2    0    0 -0.88318275559E+00 -0.42192445655E+00 -0.65965851051E+00  0.90007668954E+02  0.89999929385E+02 0.  0.
        -12    1    1    2    0    0  0.88318275559E+00  0.42192445655E+00  0.65965851051E+00  0.11803310456E+01  0.00000000000E+00 0.  1.
         11    1    3    3    0    0 -0.10130318494E+02 -0.34283826292E+01 -0.20756824455E+01  0.10894292915E+02  0.51100000000E-03 0. -1.
        -11    1    3    3    0    0  0.22108356519E+02 -0.25322949504E+02  0.23451807882E+02  0.40988028652E+02  0.51100000000E-03 0.  1.
         12    1    3    3    0    0 -0.12861220781E+02  0.28329407676E+02 -0.22035783947E+02  0.38125347388E+02  0.00000000000E+00 0. -1.
</event>
<event>
 7    1  0.1716782E-015  0.9000826E+02  0.7816164E-02  0.1186338E+00
        -11   -1    0    0    0    0  0.00000000000E+00  0.00000000000E+00  0.45593999997E+02  0.45594000000E+02  0.51100000000E-03 0.  1.
         11   -1    0    0    0    0 -0.00000000000E+00 -0.00000000000E+00 -0.45593999997E+02  0.45594000000E+02  0.51100000000E-03 0. -1.
    9900012    2    1    2    0    0 -0.64444940535E+00  0.47232625191E+00  0.86798064342E+00  0.90008255315E+02  0.90000523484E+02 0.  0.
        -12    1    1    2    0    0  0.64444940535E+00 -0.47232625191E+00 -0.86798064342E+00  0.11797446849E+01  0.00000000000E+00 0.  1.
         11    1    3    3    0    0  0.14868082464E+02 -0.14263860336E+02 -0.32138910546E+02  0.38176264343E+02  0.51100000000E-03 0. -1.
        -11    1    3    3    0    0 -0.65921838528E+01 -0.37594835197E+01 -0.46785714071E+01  0.89151351620E+01  0.51100000000E-03 0.  1.
        -12    1    3    3    0    0 -0.89203480170E+01  0.18495670107E+02  0.37685462597E+02  0.42916855810E+02  0.00000000000E+00 0.  1.
</event>
<event>
 7    1  0.1716782E-015  0.9000772E+02  0.7816164E-02  0.1186339E+00
        -11   -1    0    0    0    0  0.00000000000E+00  0.00000000000E+00  0.45593999997E+02  0.45594000000E+02  0.51100000000E-03 0.  1.
         11   -1    0    0    0    0 -0.00000000000E+00 -0.00000000000E+00 -0.45593999997E+02  0.45594000000E+02  0.51100000000E-03 0. -1.
    9900012    2    1    2    0    0  0.87626868384E+00 -0.74038519316E+00  0.27757393745E+00  0.90007718537E+02  0.89999979622E+02 0.  0.
        -12    1    1    2    0    0 -0.87626868384E+00  0.74038519316E+00 -0.27757393745E+00  0.11802814627E+01  0.00000000000E+00 0.  1.
         11    1    3    3    0    0  0.20715193141E+02 -0.22101127878E+02 -0.17441819509E+02  0.34954200726E+02  0.51100000000E-03 0. -1.
        -11    1    3    3    0    0  0.10073332708E+02  0.65168654759E+01 -0.66469879470E+01  0.13715830872E+02  0.51100000000E-03 0.  1.
        -12    1    3    3    0    0 -0.29912257165E+02  0.14843877209E+02  0.24366381393E+02  0.41337686940E+02  0.00000000000E+00 0.  1.
</event>
<event>
 7    1  0.1716782E-015  0.9000774E+02  0.7816164E-02  0.1186339E+00
        -11   -1    0    0    0    0  0.00000000000E+00  0.00000000000E+00  0.45593999997E+02  0.45594000000E+02  0.51100000000E-03 0.  1.
         11   -1    0    0    0    0 -0.00000000000E+00 -0.00000000000E+00 -0.45593999997E+02  0.45594000000E+02  0.51100000000E-03 0. -1.
    9900012    2    1    2    0    0 -0.49820192381E+00  0.30407832114E+00 -0.10258409528E+01  0.90007737977E+02  0.89999999318E+02 0.  0.
        -12    1    1    2    0    0  0.49820192381E+00 -0.30407832114E+00  0.10258409528E+01  0.11802620229E+01  0.00000000000E+00 0.  1.
         11    1    3    3    0    0 -0.37293487640E+01  0.72956530337E+01  0.32433482214E+01  0.88121452177E+01  0.51100000000E-03 0. -1.
        -11    1    3    3    0    0 -0.37482313327E+02 -0.13129549384E+02 -0.49053376118E+01  0.40017136539E+02  0.51100000000E-03 0.  1.
         12    1    3    3    0    0  0.40713460168E+02  0.61379746711E+01  0.63614843759E+00  0.41178456221E+02  0.00000000000E+00 0. -1.
</event>
<event>
 7    1  0.1716782E-015  0.9000779E+02  0.7816164E-02  0.1186339E+00
        -11   -1    0    0    0    0  0.00000000000E+00  0.00000000000E+00  0.45593999997E+02  0.45594000000E+02  0.51100000000E-03 0. -1.
         11   -1    0    0    0    0 -0.00000000000E+00 -0.00000000000E+00 -0.45593999997E+02  0.45594000000E+02  0.51100000000E-03 0.  1.
    9900012    2    1    2    0    0 -0.26016836219E+00 -0.10930789251E+01  0.36109139775E+00  0.90007789802E+02  0.90000051828E+02 0.  0.
        -12    1    1    2    0    0  0.26016836219E+00  0.10930789251E+01 -0.36109139775E+00  0.11802101977E+01  0.00000000000E+00 0.  1.
         11    1    3    3    0    0 -0.49819154256E+01  0.14538319557E+00 -0.85168970535E+01  0.98680369508E+01  0.51100000000E-03 0. -1.
        -11    1    3    3    0    0 -0.36581325063E+02  0.58314369569E+01  0.94594765633E+01  0.38231932955E+02  0.51100000000E-03 0.  1.
         12    1    3    3    0    0  0.41303072127E+02 -0.70698990776E+01 -0.58148811199E+00  0.41907819897E+02  0.00000000000E+00 0. -1.
</event>
<event>
 7    1  0.1716782E-015  0.9000772E+02  0.7816164E-02  0.1186339E+00
        -11   -1    0    0    0    0  0.00000000000E+00  0.00000000000E+00  0.45593999997E+02  0.45594000000E+02  0.51100000000E-03 0.  1.
         11   -1    0    0    0    0 -0.00000000000E+00 -0.00000000000E+00 -0.45593999997E+02  0.45594000000E+02  0.51100000000E-03 0. -1.
    9900012    2    1    2    0    0  0.32209385214E+00  0.11092388820E+01 -0.24268120097E+00  0.90007724815E+02  0.89999985983E+02 0.  0.
        -12    1    1    2    0    0 -0.32209385214E+00 -0.11092388820E+01  0.24268120097E+00  0.11802751850E+01  0.00000000000E+00 0.  1.
         11    1    3    3    0    0  0.28152584994E+02  0.16154780003E+02 -0.21046194809E+02  0.38684457796E+02  0.51100000000E-03 0. -1.
        -11    1    3    3    0    0  0.10305677999E+01  0.91792477593E+01  0.42118664596E+01  0.10151870702E+02  0.51100000000E-03 0.  1.
        -12    1    3    3    0    0 -0.28861058942E+02 -0.24224788881E+02  0.16591647148E+02  0.41171396317E+02  0.00000000000E+00 0.  1.
</event>
<event>
 7    1  0.1716782E-015  0.9000763E+02  0.7816164E-02  0.1186339E+00
        -11   -1    0    0    0    0  0.00000000000E+00  0.00000000000E+00  0.45593999997E+02  0.45594000000E+02  0.51100000000E-03 0. -1.
         11   -1    0    0    0    0 -0.00000000000E+00 -0.00000000000E+00 -0.45593999997E+02  0.45594000000E+02  0.51100000000E-03 0.  1.
    9900012    2    1    2    0    0  0.88307454932E+00 -0.69880567268E+00  0.35373547390E+00  0.90007627680E+02  0.89999887566E+02 0.  0.
        -12    1    1    2    0    0 -0.88307454932E+00  0.69880567268E+00 -0.35373547390E+00  0.11803723198E+01  0.00000000000E+00 0.  1.
         11    1    3    3    0    0  0.10567599756E+01 -0.13918326074E+02 -0.30964830263E+01  0.14297718340E+02  0.51100000000E-03 0. -1.
        -11    1    3    3    0    0 -0.30548697446E+02  0.11467643052E+02 -0.19126809929E+02  0.37822805437E+02  0.51100000000E-03 0.  1.
         12    1    3    3    0    0  0.30375012020E+02  0.17518773493E+01  0.22577028429E+02  0.37887103903E+02  0.00000000000E+00 0. -1.
</event>
<event>
 7    1  0.1716782E-015  0.9000777E+02  0.7816164E-02  0.1186339E+00
        -11   -1    0    0    0    0  0.00000000000E+00  0.00000000000E+00  0.45593999997E+02  0.45594000000E+02  0.51100000000E-03 0. -1.
         11   -1    0    0    0    0 -0.00000000000E+00 -0.00000000000E+00 -0.45593999997E+02  0.45594000000E+02  0.51100000000E-03 0.  1.
    9900012    2    1    2    0    0  0.94978017994E-01  0.50719353504E+00  0.10614536749E+01  0.90007766968E+02  0.90000028692E+02 0.  0.
        -12    1    1    2    0    0 -0.94978017994E-01 -0.50719353504E+00 -0.10614536749E+01  0.11802330320E+01  0.00000000000E+00 0.  1.
         11    1    3    3    0    0  0.45259269163E+01 -0.79939420981E+01 -0.35801738618E+01  0.98592479359E+01  0.51100000000E-03 0. -1.
        -11    1    3    3    0    0 -0.24420032623E+02 -0.26132444488E+00 -0.30320994119E+02  0.38932877731E+02  0.51100000000E-03 0.  1.
         12    1    3    3    0    0  0.19989083725E+02  0.87624600781E+01  0.34962621656E+02  0.41215641301E+02  0.00000000000E+00 0. -1.
</event>
<event>
 7    1  0.1716782E-015  0.9000771E+02  0.7816164E-02  0.1186339E+00
        -11   -1    0    0    0    0  0.00000000000E+00  0.00000000000E+00  0.45593999997E+02  0.45594000000E+02  0.51100000000E-03 0. -1.
         11   -1    0    0    0    0 -0.00000000000E+00 -0.00000000000E+00 -0.45593999997E+02  0.45594000000E+02  0.51100000000E-03 0.  1.
    9900012    2    1    2    0    0  0.86858373601E+00 -0.74446952847E+00 -0.29051922695E+00  0.90007714439E+02  0.89999975469E+02 0.  0.
        -12    1    1    2    0    0 -0.86858373601E+00  0.74446952847E+00  0.29051922695E+00  0.11802855614E+01  0.00000000000E+00 0.  1.
         11    1    3    3    0    0  0.30088739258E+02 -0.11022898294E+02 -0.18300763840E+02  0.36901957594E+02  0.51100000000E-03 0. -1.
        -11    1    3    3    0    0  0.91612113195E+01 -0.21037706591E+01  0.54524805798E+01  0.10866608880E+02  0.51100000000E-03 0.  1.
        -12    1    3    3    0    0 -0.38381366841E+02  0.12382199424E+02  0.12557764034E+02  0.42239147964E+02  0.00000000000E+00 0.  1.
</event>
<event>
 7    1  0.1716782E-015  0.9000773E+02  0.7816164E-02  0.1186339E+00
        -11   -1    0    0    0    0  0.00000000000E+00  0.00000000000E+00  0.45593999997E+02  0.45594000000E+02  0.51100000000E-03 0. -1.
         11   -1    0    0    0    0 -0.00000000000E+00 -0.00000000000E+00 -0.45593999997E+02  0.45594000000E+02  0.51100000000E-03 0.  1.
    9900012    2    1    2    0    0  0.91966752995E+00  0.71887575246E+00  0.17453333252E+00  0.90007731981E+02  0.89999993243E+02 0.  0.
        -12    1    1    2    0    0 -0.91966752995E+00 -0.71887575246E+00 -0.17453333252E+00  0.11802680193E+01  0.00000000000E+00 0.  1.
         11    1    3    3    0    0  0.30655040153E+02  0.17168683125E+01  0.15672780654E+02  0.34471947686E+02  0.51100000000E-03 0. -1.
        -11    1    3    3    0    0  0.10390467490E+02  0.86066113484E+00  0.36367506373E+01  0.11042124239E+02  0.51100000000E-03 0.  1.
        -12    1    3    3    0    0 -0.40125840113E+02 -0.18586536949E+01 -0.19134997959E+02  0.44493660056E+02  0.00000000000E+00 0.  1.
</event>
<event>
 7    1  0.1716782E-015  0.9000785E+02  0.7816164E-02  0.1186339E+00
        -11   -1    0    0    0    0  0.00000000000E+00  0.00000000000E+00  0.45593999997E+02  0.45594000000E+02  0.51100000000E-03 0.  1.
         11   -1    0    0    0    0 -0.00000000000E+00 -0.00000000000E+00 -0.45593999997E+02  0.45594000000E+02  0.51100000000E-03 0. -1.
    9900012    2    1    2    0    0  0.27384342385E+00  0.27271800143E+00 -0.11150729663E+01  0.90007850412E+02  0.90000113238E+02 0.  0.
        -12    1    1    2    0    0 -0.27384342385E+00 -0.27271800143E+00  0.11150729663E+01  0.11801495876E+01  0.00000000000E+00 0.  1.
         11    1    3    3    0    0  0.42735203087E+01  0.66710560702E+01 -0.57101754678E+01  0.97658624327E+01  0.51100000000E-03 0. -1.
        -11    1    3    3    0    0  0.29446794854E+02 -0.11043937999E+02  0.25533327575E+02  0.40509666883E+02  0.51100000000E-03 0.  1.
         12    1    3    3    0    0 -0.33446471739E+02  0.46455999303E+01 -0.20938225073E+02  0.39732321096E+02  0.00000000000E+00 0. -1.
</event>
<event>
 7    1  0.1716782E-015  0.9000779E+02  0.7816164E-02  0.1186339E+00
        -11   -1    0    0    0    0  0.00000000000E+00  0.00000000000E+00  0.45593999997E+02  0.45594000000E+02  0.51100000000E-03 0. -1.
         11   -1    0    0    0    0 -0.00000000000E+00 -0.00000000000E+00 -0.45593999997E+02  0.45594000000E+02  0.51100000000E-03 0.  1.
    9900012    2    1    2    0    0 -0.22289116601E+00  0.45869449187E+00  0.10643399072E+01  0.90007787923E+02  0.90000049924E+02 0.  0.
        -12    1    1    2    0    0  0.22289116601E+00 -0.45869449187E+00 -0.10643399072E+01  0.11802120771E+01  0.00000000000E+00 0.  1.
         11    1    3    3    0    0  0.18034345208E+02  0.17320584635E+02  0.28476079204E+02  0.37896270875E+02  0.51100000000E-03 0. -1.
        -11    1    3    3    0    0 -0.76448436355E+01  0.10033572990E+02 -0.51914728573E+00  0.12624806348E+02  0.51100000000E-03 0.  1.
        -12    1    3    3    0    0 -0.10612392738E+02 -0.26895463134E+02 -0.26892592011E+02  0.39486710699E+02  0.00000000000E+00 0.  1.
</event>
<event>
 7    1  0.1716782E-015  0.9000770E+02  0.7816164E-02  0.1186339E+00
        -11   -1    0    0    0    0  0.00000000000E+00  0.00000000000E+00  0.45593999997E+02  0.45594000000E+02  0.51100000000E-03 0. -1.
         11   -1    0    0    0    0 -0.00000000000E+00 -0.00000000000E+00 -0.45593999997E+02  0.45594000000E+02  0.51100000000E-03 0.  1.
    9900012    2    1    2    0    0  0.10673990681E+01  0.48221349086E+00  0.14570896568E+00  0.90007702697E+02  0.89999963572E+02 0.  0.
        -12    1    1    2    0    0 -0.10673990681E+01 -0.48221349086E+00 -0.14570896568E+00  0.11802973033E+01  0.00000000000E+00 0.  1.
         11    1    3    3    0    0 -0.18744811392E+01  0.11025981099E+01  0.92049228925E+01  0.94583300773E+01  0.51100000000E-03 0. -1.
        -11    1    3    3    0    0  0.36522345594E+02 -0.19521147814E+02 -0.66220750398E+01  0.41938154678E+02  0.51100000000E-03 0.  1.
         12    1    3    3    0    0 -0.33580465387E+02  0.18900763195E+02 -0.24371388870E+01  0.38611217941E+02  0.00000000000E+00 0. -1.
</event>
<event>
 7    1  0.1716782E-015  0.9000776E+02  0.7816164E-02  0.1186339E+00
        -11   -1    0    0    0    0  0.00000000000E+00  0.00000000000E+00  0.45593999997E+02  0.45594000000E+02  0.51100000000E-03 0.  1.
         11   -1    0    0    0    0 -0.00000000000E+00 -0.00000000000E+00 -0.45593999997E+02  0.45594000000E+02  0.51100000000E-03 0. -1.
    9900012    2    1    2    0    0 -0.26836159635E+00  0.11339376003E+01 -0.18744178155E+00  0.90007759834E+02  0.90000021464E+02 0.  0.
        -12    1    1    2    0    0  0.26836159635E+00 -0.11339376003E+01  0.18744178155E+00  0.11802401659E+01  0.00000000000E+00 0.  1.
         11    1    3    3    0    0  0.78015233436E+01  0.21895665260E+01 -0.51281311463E+01  0.95893533341E+01  0.51100000000E-03 0. -1.
        -11    1    3    3    0    0  0.26295579077E+02  0.18764065312E+02  0.19989808697E+02  0.37988683552E+02  0.51100000000E-03 0.  1.
         12    1    3    3    0    0 -0.34365464017E+02 -0.19819694238E+02 -0.15049119332E+02  0.42429722948E+02  0.00000000000E+00 0. -1.
</event>
<event>
 7    1  0.1716782E-015  0.9000773E+02  0.7816164E-02  0.1186339E+00
        -11   -1    0    0    0    0  0.00000000000E+00  0.00000000000E+00  0.45593999997E+02  0.45594000000E+02  0.51100000000E-03 0.  1.
         11   -1    0    0    0    0 -0.00000000000E+00 -0.00000000000E+00 -0.45593999997E+02  0.45594000000E+02  0.51100000000E-03 0. -1.
    9900012    2    1    2    0    0  0.80711215845E+00 -0.85355741541E+00  0.11424032877E+00  0.90007728357E+02  0.89999989572E+02 0.  0.
        -12    1    1    2    0    0 -0.80711215845E+00  0.85355741541E+00 -0.11424032877E+00  0.11802716427E+01  0.00000000000E+00 0.  1.
         11    1    3    3    0    0 -0.17836059403E+02 -0.18695494000E+02 -0.28820936651E+02  0.38707788631E+02  0.51100000000E-03 0. -1.
        -11    1    3    3    0    0 -0.70272245606E+01 -0.25671546331E+00 -0.19006796825E+01  0.72842550319E+01  0.51100000000E-03 0.  1.
        -12    1    3    3    0    0  0.25670396122E+02  0.18098652048E+02  0.30835856662E+02  0.44015684695E+02  0.00000000000E+00 0.  1.
</event>
<event>
 7    1  0.1716782E-015  0.9000775E+02  0.7816164E-02  0.1186339E+00
        -11   -1    0    0    0    0  0.00000000000E+00  0.00000000000E+00  0.45593999997E+02  0.45594000000E+02  0.51100000000E-03 0. -1.
         11   -1    0    0    0    0 -0.00000000000E+00 -0.00000000000E+00 -0.45593999997E+02  0.45594000000E+02  0.51100000000E-03 0.  1.
    9900012    2    1    2    0    0  0.10621630054E+01  0.37612415824E+00 -0.35117704249E+00  0.90007752167E+02  0.90000013695E+02 0.  0.
        -12    1    1    2    0    0 -0.10621630054E+01 -0.37612415824E+00  0.35117704249E+00  0.11802478331E+01  0.00000000000E+00 0.  1.
         11    1    3    3    0    0 -0.21026407735E+02 -0.14399305634E+02  0.30344947325E+02  0.39626577614E+02  0.51100000000E-03 0. -1.
        -11    1    3    3    0    0  0.58335669067E+01  0.22996226889E+01  0.57900817109E+01  0.85348587478E+01  0.51100000000E-03 0.  1.
        -12    1    3    3    0    0  0.16255003833E+02  0.12475807103E+02 -0.36486206078E+02  0.41846315805E+02  0.00000000000E+00 0.  1.
</event>
<event>
 7    1  0.1716782E-015  0.9000767E+02  0.7816164E-02  0.1186339E+00
        -11   -1    0    0    0    0  0.00000000000E+00  0.00000000000E+00  0.45593999997E+02  0.45594000000E+02  0.51100000000E-03 0. -1.
         11   -1    0    0    0    0 -0.00000000000E+00 -0.00000000000E+00 -0.45593999997E+02  0.45594000000E+02  0.51100000000E-03 0.  1.
    9900012    2    1    2    0    0  0.24828125508E+00  0.10898758511E+01  0.37909294668E+00  0.90007667668E+02  0.89999928081E+02 0.  0.
        -12    1    1    2    0    0 -0.24828125508E+00 -0.10898758511E+01 -0.37909294668E+00  0.11803323323E+01  0.00000000000E+00 0.  1.
         11    1    3    3    0    0 -0.13861194792E+01  0.36384274317E+02 -0.21959758782E+02  0.42520204031E+02  0.51100000000E-03 0. -1.
        -11    1    3    3    0    0 -0.71060843119E+01 -0.20572996411E+01  0.54894089922E+01  0.92120859422E+01  0.51100000000E-03 0.  1.
        -12    1    3    3    0    0  0.87404850462E+01 -0.33237098825E+02  0.16849442736E+02  0.38275377695E+02  0.00000000000E+00 0.  1.
</event>
<event>
 7    1  0.1826317E-015  0.9000779E+02  0.7816164E-02  0.1186339E+00
        -11   -1    0    0    0    0  0.00000000000E+00  0.00000000000E+00  0.45593999997E+02  0.45594000000E+02  0.51100000000E-03 0.  1.
         11   -1    0    0    0    0 -0.00000000000E+00 -0.00000000000E+00 -0.45593999997E+02  0.45594000000E+02  0.51100000000E-03 0. -1.
    9900012    2    1    2    0    0 -0.25605907316E+00 -0.93591533532E+00 -0.67185317569E+00  0.90007792199E+02  0.90000054256E+02 0.  0.
        -12    1    1    2    0    0  0.25605907316E+00  0.93591533532E+00  0.67185317569E+00  0.11802078010E+01  0.00000000000E+00 0.  1.
         11    1    3    3    0    0 -0.13803543745E+01 -0.39278719613E+02 -0.45728455441E+01  0.39568094587E+02  0.51100000000E-03 0. -1.
        -11    1    3    3    0    0 -0.52196043826E+01 -0.20830484486E+01  0.74878303692E+01  0.93622093894E+01  0.51100000000E-03 0.  1.
        -12    1    3    3    0    0  0.63438996840E+01  0.40425852726E+02 -0.35868380009E+01  0.41077488223E+02  0.00000000000E+00 0.  1.
</event>
<event>
 7    1  0.1716782E-015  0.9000773E+02  0.7816164E-02  0.1186339E+00
        -11   -1    0    0    0    0  0.00000000000E+00  0.00000000000E+00  0.45593999997E+02  0.45594000000E+02  0.51100000000E-03 0.  1.
         11   -1    0    0    0    0 -0.00000000000E+00 -0.00000000000E+00 -0.45593999997E+02  0.45594000000E+02  0.51100000000E-03 0. -1.
    9900012    2    1    2    0    0  0.66776464821E-01 -0.96611113903E+00 -0.67468650514E+00  0.90007732357E+02  0.89999993624E+02 0.  0.
        -12    1    1    2    0    0 -0.66776464821E-01  0.96611113903E+00  0.67468650514E+00  0.11802676431E+01  0.00000000000E+00 0.  1.
         11    1    3    3    0    0 -0.16916144043E+02 -0.87133265615E+01  0.65146681896E+00  0.19039495747E+02  0.51100000000E-03 0. -1.
        -11    1    3    3    0    0 -0.16269126713E+02 -0.11964948578E+02  0.18620625889E+02  0.27469477375E+02  0.51100000000E-03 0.  1.
        -12    1    3    3    0    0  0.33252047221E+02  0.19712164001E+02 -0.19946779213E+02  0.43498759234E+02  0.00000000000E+00 0.  1.
</event>
<event>
 7    1  0.1716782E-015  0.9000771E+02  0.7816164E-02  0.1186339E+00
        -11   -1    0    0    0    0  0.00000000000E+00  0.00000000000E+00  0.45593999997E+02  0.45594000000E+02  0.51100000000E-03 0.  1.
         11   -1    0    0    0    0 -0.00000000000E+00 -0.00000000000E+00 -0.45593999997E+02  0.45594000000E+02  0.51100000000E-03 0. -1.
    9900012    2    1    2    0    0  0.30977041702E+00  0.87379830803E+00 -0.73047761374E+00  0.90007712434E+02  0.89999973438E+02 0.  0.
        -12    1    1    2    0    0 -0.30977041702E+00 -0.87379830803E+00  0.73047761374E+00  0.11802875660E+01  0.00000000000E+00 0.  1.
         11    1    3    3    0    0 -0.70216989284E+01 -0.13451191582E+01 -0.70812811841E+01  0.10062710612E+02  0.51100000000E-03 0. -1.
        -11    1    3    3    0    0 -0.22850445607E+02  0.24832319418E+02  0.20705721507E+02  0.39591840769E+02  0.51100000000E-03 0.  1.
         12    1    3    3    0    0  0.30181914952E+02 -0.22613401952E+02 -0.14354917936E+02  0.40353161053E+02  0.00000000000E+00 0. -1.
</event>
<event>
 7    1  0.1716782E-015  0.9000776E+02  0.7816164E-02  0.1186339E+00
        -11   -1    0    0    0    0  0.00000000000E+00  0.00000000000E+00  0.45593999997E+02  0.45594000000E+02  0.51100000000E-03 0. -1.
         11   -1    0    0    0    0 -0.00000000000E+00 -0.00000000000E+00 -0.45593999997E+02  0.45594000000E+02  0.51100000000E-03 0.  1.
    9900012    2    1    2    0    0 -0.32771093851E+00  0.18901134295E+00  0.11179626020E+01  0.90007762682E+02  0.90000024350E+02 0.  0.
        -12    1    1    2    0    0  0.32771093851E+00 -0.18901134295E+00 -0.11179626020E+01  0.11802373178E+01  0.00000000000E+00 0.  1.
         11    1    3    3    0    0 -0.89642542310E+01  0.14429531328E+01 -0.62136563207E+00  0.91008825490E+01  0.51100000000E-03 0. -1.
        -11    1    3    3    0    0  0.30784961664E+02  0.29645651843E+02  0.32274055681E+01  0.42860175977E+02  0.51100000000E-03 0.  1.
         12    1    3    3    0    0 -0.22148418371E+02 -0.30899593632E+02 -0.14880773341E+01  0.38046704156E+02  0.00000000000E+00 0. -1.
</event>
<event>
 7    1  0.1716782E-015  0.9000772E+02  0.7816164E-02  0.1186339E+00
        -11   -1    0    0    0    0  0.00000000000E+00  0.00000000000E+00  0.45593999997E+02  0.45594000000E+02  0.51100000000E-03 0. -1.
         11   -1    0    0    0    0 -0.00000000000E+00 -0.00000000000E+00 -0.45593999997E+02  0.45594000000E+02  0.51100000000E-03 0.  1.
    9900012    2    1    2    0    0  0.42991276018E+00  0.34244509955E+00 -0.10444946607E+01  0.90007719218E+02  0.89999980312E+02 0.  0.
        -12    1    1    2    0    0 -0.42991276018E+00 -0.34244509955E+00  0.10444946607E+01  0.11802807817E+01  0.00000000000E+00 0.  1.
         11    1    3    3    0    0 -0.47975903400E+00  0.10263129369E+02  0.49144126201E+01  0.11389181043E+02  0.51100000000E-03 0. -1.
        -11    1    3    3    0    0 -0.25765401149E+02  0.15035005619E+02 -0.23614588355E+02  0.38046761673E+02  0.51100000000E-03 0.  1.
         12    1    3    3    0    0  0.26675072944E+02 -0.24955689888E+02  0.17655681075E+02  0.40571776502E+02  0.00000000000E+00 0. -1.
</event>
<event>
 7    1  0.1716782E-015  0.9000788E+02  0.7816164E-02  0.1186339E+00
        -11   -1    0    0    0    0  0.00000000000E+00  0.00000000000E+00  0.45593999997E+02  0.45594000000E+02  0.51100000000E-03 0.  1.
         11   -1    0    0    0    0 -0.00000000000E+00 -0.00000000000E+00 -0.45593999997E+02  0.45594000000E+02  0.51100000000E-03 0. -1.
    9900012    2    1    2    0    0 -0.65283807434E+00 -0.50621499182E+00 -0.84274920417E+00  0.90007882468E+02  0.90000145716E+02 0.  0.
        -12    1    1    2    0    0  0.65283807434E+00  0.50621499182E+00  0.84274920417E+00  0.11801175324E+01  0.00000000000E+00 0.  1.
         11    1    3    3    0    0  0.17780080067E+02 -0.17049895832E+02 -0.26490241478E+02  0.36174066524E+02  0.51100000000E-03 0. -1.
        -11    1    3    3    0    0  0.50636309573E+01 -0.48260307340E+01 -0.58382297795E+01  0.91113038769E+01  0.51100000000E-03 0.  1.
        -12    1    3    3    0    0 -0.23496549099E+02  0.21369711574E+02  0.31485722054E+02  0.44722512066E+02  0.00000000000E+00 0.  1.
</event>
<event>
 7    1  0.1959849E-015  0.9000765E+02  0.7816164E-02  0.1186339E+00
        -11   -1    0    0    0    0  0.00000000000E+00  0.00000000000E+00  0.45593999997E+02  0.45594000000E+02  0.51100000000E-03 0.  1.
         11   -1    0    0    0    0 -0.00000000000E+00 -0.00000000000E+00 -0.45593999997E+02  0.45594000000E+02  0.51100000000E-03 0. -1.
    9900012    2    1    2    0    0 -0.10739220759E+01  0.32116386207E+00 -0.36981462761E+00  0.90007653564E+02  0.89999913791E+02 0.  0.
        -12    1    1    2    0    0  0.10739220759E+01 -0.32116386207E+00  0.36981462761E+00  0.11803464365E+01  0.00000000000E+00 0.  1.
         11    1    3    3    0    0 -0.10568201980E+02  0.61125003964E+01 -0.39037075803E+02  0.40901623949E+02  0.51100000000E-03 0. -1.
        -11    1    3    3    0    0 -0.86935178955E+01  0.93218765868E-01  0.41159238102E+01  0.96190837511E+01  0.51100000000E-03 0.  1.
        -12    1    3    3    0    0  0.18187797799E+02 -0.58845553001E+01  0.34551337365E+02  0.39486945863E+02  0.00000000000E+00 0.  1.
</event>
<event>
 7    1  0.1716782E-015  0.9000751E+02  0.7816164E-02  0.1186340E+00
        -11   -1    0    0    0    0  0.00000000000E+00  0.00000000000E+00  0.45593999997E+02  0.45594000000E+02  0.51100000000E-03 0.  1.
         11   -1    0    0    0    0 -0.00000000000E+00 -0.00000000000E+00 -0.45593999997E+02  0.45594000000E+02  0.51100000000E-03 0. -1.
    9900012    2    1    2    0    0  0.51350229625E+00  0.10159790152E+01  0.31250094422E+00  0.90007510776E+02  0.89999769118E+02 0.  0.
        -12    1    1    2    0    0 -0.51350229625E+00 -0.10159790152E+01 -0.31250094422E+00  0.11804892239E+01  0.00000000000E+00 0.  1.
         11    1    3    3    0    0 -0.31120522631E+02  0.23071228384E+02  0.78748443595E+01  0.39532033617E+02  0.51100000000E-03 0. -1.
        -11    1    3    3    0    0 -0.52940962479E+01  0.21782715538E+01 -0.52370791440E+00  0.57486165540E+01  0.51100000000E-03 0.  1.
        -12    1    3    3    0    0  0.36928121175E+02 -0.24233520923E+02 -0.70386355009E+01  0.44726860605E+02  0.00000000000E+00 0.  1.
</event>
<event>
 7    1  0.1716782E-015  0.9000773E+02  0.7816164E-02  0.1186339E+00
        -11   -1    0    0    0    0  0.00000000000E+00  0.00000000000E+00  0.45593999997E+02  0.45594000000E+02  0.51100000000E-03 0.  1.
         11   -1    0    0    0    0 -0.00000000000E+00 -0.00000000000E+00 -0.45593999997E+02  0.45594000000E+02  0.51100000000E-03 0. -1.
    9900012    2    1    2    0    0  0.60173620661E+00 -0.93065468987E+00  0.40599324606E+00  0.90007730908E+02  0.89999992156E+02 0.  0.
        -12    1    1    2    0    0 -0.60173620661E+00  0.93065468987E+00 -0.40599324606E+00  0.11802690922E+01  0.00000000000E+00 0.  1.
         11    1    3    3    0    0  0.37302589272E+02  0.12523764241E+02  0.20437266455E+02  0.44339707910E+02  0.51100000000E-03 0. -1.
        -11    1    3    3    0    0 -0.35356448686E+01 -0.48666063186E+01 -0.64375004040E+01  0.88105648746E+01  0.51100000000E-03 0.  1.
        -12    1    3    3    0    0 -0.33165208197E+02 -0.85878126121E+01 -0.13593772805E+02  0.36857458123E+02  0.00000000000E+00 0.  1.
</event>
<event>
 7    1  0.1716782E-015  0.9000780E+02  0.7816164E-02  0.1186339E+00
        -11   -1    0    0    0    0  0.00000000000E+00  0.00000000000E+00  0.45593999997E+02  0.45594000000E+02  0.51100000000E-03 0. -1.
         11   -1    0    0    0    0 -0.00000000000E+00 -0.00000000000E+00 -0.45593999997E+02  0.45594000000E+02  0.51100000000E-03 0.  1.
    9900012    2    1    2    0    0  0.74563688503E+00 -0.37160405894E+00  0.83594641789E+00  0.90007800714E+02  0.90000062883E+02 0.  0.
        -12    1    1    2    0    0 -0.74563688503E+00  0.37160405894E+00 -0.83594641789E+00  0.11801992859E+01  0.00000000000E+00 0.  1.
         11    1    3    3    0    0  0.20319985330E+01 -0.22793525968E+02  0.14260860951E+02  0.26963790523E+02  0.51100000000E-03 0. -1.
        -11    1    3    3    0    0 -0.67747354218E+01 -0.28833660728E+01  0.19681769454E+02  0.21013873728E+02  0.51100000000E-03 0.  1.
        -12    1    3    3    0    0  0.54883737739E+01  0.25305287981E+02 -0.33106683987E+02  0.42030136463E+02  0.00000000000E+00 0.  1.
</event>
<event>
 7    1  0.1716782E-015  0.9000740E+02  0.7816164E-02  0.1186340E+00
        -11   -1    0    0    0    0  0.00000000000E+00  0.00000000000E+00  0.45593999997E+02  0.45594000000E+02  0.51100000000E-03 0.  1.
         11   -1    0    0    0    0 -0.00000000000E+00 -0.00000000000E+00 -0.45593999997E+02  0.45594000000E+02  0.51100000000E-03 0. -1.
    9900012    2    1    2    0    0 -0.52663611307E+00  0.21706997082E+00 -0.10340920912E+01  0.90007402092E+02  0.89999658999E+02 0.  0.
        -12    1    1    2    0    0  0.52663611307E+00 -0.21706997082E+00  0.10340920912E+01  0.11805979083E+01  0.00000000000E+00 0.  1.
         11    1    3    3    0    0 -0.62642524436E+01  0.43231055353E+01  0.55068957111E+01  0.93944664979E+01  0.51100000000E-03 0. -1.
        -11    1    3    3    0    0 -0.30299855710E+02  0.24777267635E+01  0.19094603285E+02  0.35900198618E+02  0.51100000000E-03 0.  1.
         12    1    3    3    0    0  0.36037472041E+02 -0.65837623279E+01 -0.25635591087E+02  0.44712736976E+02  0.00000000000E+00 0. -1.
</event>
<event>
 7    1  0.1716782E-015  0.9000792E+02  0.7816164E-02  0.1186339E+00
        -11   -1    0    0    0    0  0.00000000000E+00  0.00000000000E+00  0.45593999997E+02  0.45594000000E+02  0.51100000000E-03 0.  1.
         11   -1    0    0    0    0 -0.00000000000E+00 -0.00000000000E+00 -0.45593999997E+02  0.45594000000E+02  0.51100000000E-03 0. -1.
    9900012    2    1    2    0    0 -0.44286129501E+00 -0.10455470852E+01 -0.32140829682E+00  0.90007916051E+02  0.90000179742E+02 0.  0.
        -12    1    1    2    0    0  0.44286129501E+00  0.10455470852E+01  0.32140829682E+00  0.11800839492E+01  0.00000000000E+00 0.  1.
         11    1    3    3    0    0  0.31327301104E+01  0.63362377191E+01  0.87303891139E+01  0.11233058387E+02  0.51100000000E-03 0. -1.
        -11    1    3    3    0    0  0.80169927190E+01 -0.21074679503E+02  0.28983010499E+02  0.36720963853E+02  0.51100000000E-03 0.  1.
         12    1    3    3    0    0 -0.11592584124E+02  0.13692894699E+02 -0.38034807910E+02  0.42053893811E+02  0.00000000000E+00 0. -1.
</event>
<event>
 7    1  0.1716782E-015  0.9000773E+02  0.7816164E-02  0.1186339E+00
        -11   -1    0    0    0    0  0.00000000000E+00  0.00000000000E+00  0.45593999997E+02  0.45594000000E+02  0.51100000000E-03 0.  1.
         11   -1    0    0    0    0 -0.00000000000E+00 -0.00000000000E+00 -0.45593999997E+02  0.45594000000E+02  0.51100000000E-03 0. -1.
    9900012    2    1    2    0    0  0.98361647910E+00  0.59531971434E+00 -0.26670099000E+00  0.90007730387E+02  0.89999991629E+02 0.  0.
        -12    1    1    2    0    0 -0.98361647910E+00 -0.59531971434E+00  0.26670099000E+00  0.11802696125E+01  0.00000000000E+00 0.  1.
         11    1    3    3    0    0 -0.16543692842E+02  0.14470110251E+01 -0.37015492137E+02  0.40570115506E+02  0.51100000000E-03 0. -1.
        -11    1    3    3    0    0  0.27940414585E+01  0.65911525334E+01 -0.19040385617E+01  0.74077879624E+01  0.51100000000E-03 0.  1.
        -12    1    3    3    0    0  0.14733267862E+02 -0.74428438442E+01  0.38652829709E+02  0.42029826919E+02  0.00000000000E+00 0.  1.
</event>
<event>
 7    1  0.1716782E-015  0.9000764E+02  0.7816164E-02  0.1186339E+00
        -11   -1    0    0    0    0  0.00000000000E+00  0.00000000000E+00  0.45593999997E+02  0.45594000000E+02  0.51100000000E-03 0.  1.
         11   -1    0    0    0    0 -0.00000000000E+00 -0.00000000000E+00 -0.45593999997E+02  0.45594000000E+02  0.51100000000E-03 0. -1.
    9900012    2    1    2    0    0  0.49578543177E+00  0.73166268748E-01 -0.10686831943E+01  0.90007644008E+02  0.89999904109E+02 0.  0.
        -12    1    1    2    0    0 -0.49578543177E+00 -0.73166268748E-01  0.10686831943E+01  0.11803559916E+01  0.00000000000E+00 0.  1.
         11    1    3    3    0    0  0.12077501409E+02  0.35156038150E+02  0.16140824394E+01  0.37207772321E+02  0.51100000000E-03 0. -1.
        -11    1    3    3    0    0 -0.66275958739E+01  0.71435931251E+01  0.22431322555E+01  0.99993795999E+01  0.51100000000E-03 0.  1.
        -12    1    3    3    0    0 -0.49541201032E+01 -0.42226465006E+02 -0.49258978892E+01  0.42800492088E+02  0.00000000000E+00 0.  1.
</event>
<event>
 7    1  0.1716782E-015  0.9000773E+02  0.7816164E-02  0.1186339E+00
        -11   -1    0    0    0    0  0.00000000000E+00  0.00000000000E+00  0.45593999997E+02  0.45594000000E+02  0.51100000000E-03 0. -1.
         11   -1    0    0    0    0 -0.00000000000E+00 -0.00000000000E+00 -0.45593999997E+02  0.45594000000E+02  0.51100000000E-03 0.  1.
    9900012    2    1    2    0    0  0.31201458284E+00  0.61657706311E+00  0.95682965007E+00  0.90007727424E+02  0.89999988626E+02 0.  0.
        -12    1    1    2    0    0 -0.31201458284E+00 -0.61657706311E+00 -0.95682965007E+00  0.11802725761E+01  0.00000000000E+00 0.  1.
         11    1    3    3    0    0  0.10377426443E+02 -0.35424700219E+02 -0.93160575598E+01  0.38070845721E+02  0.51100000000E-03 0. -1.
        -11    1    3    3    0    0 -0.52259297538E+00  0.25826583999E+01 -0.10896045056E+02  0.11210130506E+02  0.51100000000E-03 0.  1.
        -12    1    3    3    0    0 -0.95428188845E+01  0.33458618882E+02  0.21168932266E+02  0.40726751197E+02  0.00000000000E+00 0.  1.
</event>
<event>
 7    1  0.1716782E-015  0.9000772E+02  0.7816164E-02  0.1186339E+00
        -11   -1    0    0    0    0  0.00000000000E+00  0.00000000000E+00  0.45593999997E+02  0.45594000000E+02  0.51100000000E-03 0. -1.
         11   -1    0    0    0    0 -0.00000000000E+00 -0.00000000000E+00 -0.45593999997E+02  0.45594000000E+02  0.51100000000E-03 0.  1.
    9900012    2    1    2    0    0  0.43463279118E-01 -0.10904416633E+01  0.44957728922E+00  0.90007715366E+02  0.89999976409E+02 0.  0.
        -12    1    1    2    0    0 -0.43463279118E-01  0.10904416633E+01 -0.44957728922E+00  0.11802846337E+01  0.00000000000E+00 0.  1.
         11    1    3    3    0    0  0.10978367995E+02 -0.63806014459E+01  0.12393366684E+02  0.17743510833E+02  0.51100000000E-03 0. -1.
        -11    1    3    3    0    0 -0.25855962989E+00 -0.21741375906E+02 -0.30739919787E+02  0.37652316637E+02  0.51100000000E-03 0.  1.
         12    1    3    3    0    0 -0.10676345086E+02  0.27031535688E+02  0.18796130392E+02  0.34611887897E+02  0.00000000000E+00 0. -1.
</event>
<event>
 7    1  0.1716782E-015  0.9000774E+02  0.7816164E-02  0.1186339E+00
        -11   -1    0    0    0    0  0.00000000000E+00  0.00000000000E+00  0.45593999997E+02  0.45594000000E+02  0.51100000000E-03 0.  1.
         11   -1    0    0    0    0 -0.00000000000E+00 -0.00000000000E+00 -0.45593999997E+02  0.45594000000E+02  0.51100000000E-03 0. -1.
    9900012    2    1    2    0    0  0.81249789662E+00  0.78478540346E+00 -0.34200546964E+00  0.90007742103E+02  0.90000003499E+02 0.  0.
        -12    1    1    2    0    0 -0.81249789662E+00 -0.78478540346E+00  0.34200546964E+00  0.11802578967E+01  0.00000000000E+00 0.  1.
         11    1    3    3    0    0  0.54325264953E+01 -0.86014705619E+01  0.78667582433E+01  0.12860152622E+02  0.51100000000E-03 0. -1.
        -11    1    3    3    0    0  0.29138014115E+02  0.92357764788E+01  0.17036400187E+02  0.34993747518E+02  0.51100000000E-03 0.  1.
         12    1    3    3    0    0 -0.33758042714E+02  0.15047948659E+00 -0.25245163900E+02  0.42153841963E+02  0.00000000000E+00 0. -1.
</event>
<event>
 7    1  0.1716782E-015  0.9000793E+02  0.7816164E-02  0.1186339E+00
        -11   -1    0    0    0    0  0.00000000000E+00  0.00000000000E+00  0.45593999997E+02  0.45594000000E+02  0.51100000000E-03 0.  1.
         11   -1    0    0    0    0 -0.00000000000E+00 -0.00000000000E+00 -0.45593999997E+02  0.45594000000E+02  0.51100000000E-03 0. -1.
    9900012    2    1    2    0    0  0.37793555320E+00 -0.36056396983E+00 -0.10581646382E+01  0.90007934722E+02  0.90000198660E+02 0.  0.
        -12    1    1    2    0    0 -0.37793555320E+00  0.36056396983E+00  0.10581646382E+01  0.11800652780E+01  0.00000000000E+00 0.  1.
         11    1    3    3    0    0  0.10227801054E+02  0.18968442718E+01  0.27284294901E+00  0.10405785704E+02  0.51100000000E-03 0. -1.
        -11    1    3    3    0    0 -0.33703716685E+02 -0.27024409938E+02  0.80845145912E+01  0.43950183473E+02  0.51100000000E-03 0.  1.
         12    1    3    3    0    0  0.23853851184E+02  0.24767001696E+02 -0.94155221785E+01  0.35651965545E+02  0.00000000000E+00 0. -1.
</event>
<event>
 7    1  0.1716782E-015  0.9000786E+02  0.7816164E-02  0.1186339E+00
        -11   -1    0    0    0    0  0.00000000000E+00  0.00000000000E+00  0.45593999997E+02  0.45594000000E+02  0.51100000000E-03 0.  1.
         11   -1    0    0    0    0 -0.00000000000E+00 -0.00000000000E+00 -0.45593999997E+02  0.45594000000E+02  0.51100000000E-03 0. -1.
    9900012    2    1    2    0    0 -0.17203326639E+00  0.10344995114E+00 -0.11629410976E+01  0.90007860460E+02  0.90000123418E+02 0.  0.
        -12    1    1    2    0    0  0.17203326639E+00 -0.10344995114E+00  0.11629410976E+01  0.11801395399E+01  0.00000000000E+00 0.  1.
         11    1    3    3    0    0  0.77289359515E+00  0.81368584196E+01 -0.21691552694E+01  0.84564214827E+01  0.51100000000E-03 0. -1.
        -11    1    3    3    0    0  0.11932996195E+02  0.14387060879E+02  0.34500429755E+02  0.39238547023E+02  0.51100000000E-03 0.  1.
         12    1    3    3    0    0 -0.12877923057E+02 -0.22420469347E+02 -0.33494215584E+02  0.42312891954E+02  0.00000000000E+00 0. -1.
</event>
<event>
 7    1  0.1716782E-015  0.9000777E+02  0.7816164E-02  0.1186339E+00
        -11   -1    0    0    0    0  0.00000000000E+00  0.00000000000E+00  0.45593999997E+02  0.45594000000E+02  0.51100000000E-03 0. -1.
         11   -1    0    0    0    0 -0.00000000000E+00 -0.00000000000E+00 -0.45593999997E+02  0.45594000000E+02  0.51100000000E-03 0.  1.
    9900012    2    1    2    0    0  0.99787736985E+00  0.61562227756E+00 -0.13488264567E+00  0.90007769784E+02  0.90000031545E+02 0.  0.
        -12    1    1    2    0    0 -0.99787736985E+00 -0.61562227756E+00  0.13488264567E+00  0.11802302157E+01  0.00000000000E+00 0.  1.
         11    1    3    3    0    0  0.61749171106E+01 -0.24353116139E+01 -0.54408768033E+01  0.85827434209E+01  0.51100000000E-03 0. -1.
        -11    1    3    3    0    0 -0.39588084928E+02  0.28395376752E+01 -0.13854772441E+02  0.42038484298E+02  0.51100000000E-03 0.  1.
         12    1    3    3    0    0  0.34411045187E+02  0.21139621625E+00  0.19160766598E+02  0.39386542065E+02  0.00000000000E+00 0. -1.
</event>
<event>
 7    1  0.1716782E-015  0.9000757E+02  0.7816164E-02  0.1186339E+00
        -11   -1    0    0    0    0  0.00000000000E+00  0.00000000000E+00  0.45593999997E+02  0.45594000000E+02  0.51100000000E-03 0. -1.
         11   -1    0    0    0    0 -0.00000000000E+00 -0.00000000000E+00 -0.45593999997E+02  0.45594000000E+02  0.51100000000E-03 0.  1.
    9900012    2    1    2    0    0  0.58082361044E+00 -0.97507915682E+00 -0.32445607413E+00  0.90007573309E+02  0.89999832477E+02 0.  0.
        -12    1    1    2    0    0 -0.58082361044E+00  0.97507915682E+00  0.32445607413E+00  0.11804266909E+01  0.00000000000E+00 0.  1.
         11    1    3    3    0    0  0.32018700247E+02 -0.20918231994E+02  0.80394637258E+01  0.39081998062E+02  0.51100000000E-03 0. -1.
        -11    1    3    3    0    0  0.48223940127E+01  0.10391898018E+00 -0.82917648539E+01  0.95926872055E+01  0.51100000000E-03 0.  1.
        -12    1    3    3    0    0 -0.36260270649E+02  0.19839233857E+02 -0.72154945947E-01  0.41332888042E+02  0.00000000000E+00 0.  1.
</event>
<event>
 7    1  0.1716782E-015  0.9000778E+02  0.7816164E-02  0.1186339E+00
        -11   -1    0    0    0    0  0.00000000000E+00  0.00000000000E+00  0.45593999997E+02  0.45594000000E+02  0.51100000000E-03 0.  1.
         11   -1    0    0    0    0 -0.00000000000E+00 -0.00000000000E+00 -0.45593999997E+02  0.45594000000E+02  0.51100000000E-03 0. -1.
    9900012    2    1    2    0    0  0.56495767380E+00 -0.69601924536E-01 -0.10338801063E+01  0.90007775583E+02  0.90000037420E+02 0.  0.
        -12    1    1    2    0    0 -0.56495767380E+00  0.69601924536E-01  0.10338801063E+01  0.11802244174E+01  0.00000000000E+00 0.  1.
         11    1    3    3    0    0  0.14595074444E+02  0.30998167343E+02 -0.21259621348E+02  0.40322128872E+02  0.51100000000E-03 0. -1.
        -11    1    3    3    0    0  0.63953944336E+01  0.17511869678E+01  0.41348382075E+01  0.78143850059E+01  0.51100000000E-03 0.  1.
        -12    1    3    3    0    0 -0.20425511204E+02 -0.32818956235E+02  0.16090903035E+02  0.41871261705E+02  0.00000000000E+00 0.  1.
</event>
<event>
 7    1  0.1716782E-015  0.9000763E+02  0.7816164E-02  0.1186339E+00
        -11   -1    0    0    0    0  0.00000000000E+00  0.00000000000E+00  0.45593999997E+02  0.45594000000E+02  0.51100000000E-03 0.  1.
         11   -1    0    0    0    0 -0.00000000000E+00 -0.00000000000E+00 -0.45593999997E+02  0.45594000000E+02  0.51100000000E-03 0. -1.
    9900012    2    1    2    0    0 -0.33168589468E+00  0.10268841682E+01 -0.47829910309E+00  0.90007628593E+02  0.89999888490E+02 0.  0.
        -12    1    1    2    0    0  0.33168589468E+00 -0.10268841682E+01  0.47829910309E+00  0.11803714075E+01  0.00000000000E+00 0.  1.
         11    1    3    3    0    0  0.76393011266E+01 -0.14857545000E+01  0.92840646817E+01  0.12114464306E+02  0.51100000000E-03 0. -1.
        -11    1    3    3    0    0  0.25638528344E+02 -0.89327668667E+01  0.18211342538E+02  0.32692223186E+02  0.51100000000E-03 0.  1.
         12    1    3    3    0    0 -0.33609515366E+02  0.11445405535E+02 -0.27973706323E+02  0.45200941101E+02  0.00000000000E+00 0. -1.
</event>
<event>
 7    1  0.1716782E-015  0.9000770E+02  0.7816164E-02  0.1186339E+00
        -11   -1    0    0    0    0  0.00000000000E+00  0.00000000000E+00  0.45593999997E+02  0.45594000000E+02  0.51100000000E-03 0.  1.
         11   -1    0    0    0    0 -0.00000000000E+00 -0.00000000000E+00 -0.45593999997E+02  0.45594000000E+02  0.51100000000E-03 0. -1.
    9900012    2    1    2    0    0 -0.49443238739E+00 -0.51172019923E+00  0.94168765721E+00  0.90007704871E+02  0.89999965775E+02 0.  0.
        -12    1    1    2    0    0  0.49443238739E+00  0.51172019923E+00 -0.94168765721E+00  0.11802951291E+01  0.00000000000E+00 0.  1.
         11    1    3    3    0    0  0.17748676496E+02  0.16554606018E+02  0.22753224514E+02  0.33268299082E+02  0.51100000000E-03 0. -1.
        -11    1    3    3    0    0  0.12801812600E+01  0.59553280858E+01  0.10739391395E+02  0.12346632110E+02  0.51100000000E-03 0.  1.
        -12    1    3    3    0    0 -0.19523290143E+02 -0.23021654303E+02 -0.32550928252E+02  0.44392773679E+02  0.00000000000E+00 0.  1.
</event>
<event>
 7    1  0.1716782E-015  0.9000777E+02  0.7816164E-02  0.1186339E+00
        -11   -1    0    0    0    0  0.00000000000E+00  0.00000000000E+00  0.45593999997E+02  0.45594000000E+02  0.51100000000E-03 0.  1.
         11   -1    0    0    0    0 -0.00000000000E+00 -0.00000000000E+00 -0.45593999997E+02  0.45594000000E+02  0.51100000000E-03 0. -1.
    9900012    2    1    2    0    0 -0.88464030403E+00 -0.61031026332E-01 -0.77886769092E+00  0.90007767763E+02  0.90000029497E+02 0.  0.
        -12    1    1    2    0    0  0.88464030403E+00  0.61031026332E-01  0.77886769092E+00  0.11802322372E+01  0.00000000000E+00 0.  1.
         11    1    3    3    0    0  0.15365581921E+01 -0.32607567625E+01  0.93348012115E+01  0.10006600804E+02  0.51100000000E-03 0. -1.
        -11    1    3    3    0    0 -0.13106113670E+02  0.10320330795E+01  0.33004221977E+02  0.35526243489E+02  0.51100000000E-03 0.  1.
         12    1    3    3    0    0  0.10684915174E+02  0.21676926567E+01 -0.43117890880E+02  0.44474923470E+02  0.00000000000E+00 0. -1.
</event>
<event>
 7    1  0.1716782E-015  0.9000773E+02  0.7816164E-02  0.1186339E+00
        -11   -1    0    0    0    0  0.00000000000E+00  0.00000000000E+00  0.45593999997E+02  0.45594000000E+02  0.51100000000E-03 0.  1.
         11   -1    0    0    0    0 -0.00000000000E+00 -0.00000000000E+00 -0.45593999997E+02  0.45594000000E+02  0.51100000000E-03 0. -1.
    9900012    2    1    2    0    0  0.75439109371E+00 -0.27620926983E+00 -0.86465577597E+00  0.90007734312E+02  0.89999995605E+02 0.  0.
        -12    1    1    2    0    0 -0.75439109371E+00  0.27620926983E+00  0.86465577597E+00  0.11802656879E+01  0.00000000000E+00 0.  1.
         11    1    3    3    0    0  0.27877940893E+02 -0.22964014204E+02 -0.24014306050E+02  0.43372945854E+02  0.51100000000E-03 0. -1.
        -11    1    3    3    0    0  0.12072540565E+01  0.10871448464E+01 -0.23259860681E+01  0.28371742498E+01  0.51100000000E-03 0.  1.
        -12    1    3    3    0    0 -0.28330803855E+02  0.21600660087E+02  0.25475636342E+02  0.43797614208E+02  0.00000000000E+00 0.  1.
</event>
<event>
 7    1  0.1716782E-015  0.9000700E+02  0.7816164E-02  0.1186341E+00
        -11   -1    0    0    0    0  0.00000000000E+00  0.00000000000E+00  0.45593999997E+02  0.45594000000E+02  0.51100000000E-03 0.  1.
         11   -1    0    0    0    0 -0.00000000000E+00 -0.00000000000E+00 -0.45593999997E+02  0.45594000000E+02  0.51100000000E-03 0. -1.
    9900012    2    1    2    0    0  0.74619051672E+00  0.46910517018E+00  0.78607264566E+00  0.90006996125E+02  0.89999247671E+02 0.  0.
        -12    1    1    2    0    0 -0.74619051672E+00 -0.46910517018E+00 -0.78607264566E+00  0.11810038748E+01  0.00000000000E+00 0.  1.
         11    1    3    3    0    0 -0.10334283994E+02  0.28378743462E+01  0.62305234462E+01  0.12396385729E+02  0.51100000000E-03 0. -1.
        -11    1    3    3    0    0 -0.28515682510E+02 -0.13669784793E+02 -0.15508901951E+02  0.35221203916E+02  0.51100000000E-03 0.  1.
         12    1    3    3    0    0  0.39596157021E+02  0.11301015617E+02  0.10064451150E+02  0.42389406480E+02  0.00000000000E+00 0. -1.
</event>
<event>
 7    1  0.1716782E-015  0.9000774E+02  0.7816164E-02  0.1186339E+00
        -11   -1    0    0    0    0  0.00000000000E+00  0.00000000000E+00  0.45593999997E+02  0.45594000000E+02  0.51100000000E-03 0.  1.
         11   -1    0    0    0    0 -0.00000000000E+00 -0.00000000000E+00 -0.45593999997E+02  0.45594000000E+02  0.51100000000E-03 0. -1.
    9900012    2    1    2    0    0  0.34510153708E+00  0.10690738234E+01 -0.36193721444E+00  0.90007740512E+02  0.90000001887E+02 0.  0.
        -12    1    1    2    0    0 -0.34510153708E+00 -0.10690738234E+01  0.36193721444E+00  0.11802594876E+01  0.00000000000E+00 0.  1.
         11    1    3    3    0    0  0.18400932061E+02  0.31830922407E+02 -0.45583674598E+00  0.36769684652E+02  0.51100000000E-03 0. -1.
        -11    1    3    3    0    0  0.69583211068E+01  0.51118396517E+01 -0.35873661187E+01  0.93497771728E+01  0.51100000000E-03 0.  1.
        -12    1    3    3    0    0 -0.25014151630E+02 -0.35873688235E+02  0.36812656502E+01  0.43888278688E+02  0.00000000000E+00 0.  1.
</event>
<event>
 7    1  0.1716782E-015  0.9000778E+02  0.7816164E-02  0.1186339E+00
        -11   -1    0    0    0    0  0.00000000000E+00  0.00000000000E+00  0.45593999997E+02  0.45594000000E+02  0.51100000000E-03 0. -1.
         11   -1    0    0    0    0 -0.00000000000E+00 -0.00000000000E+00 -0.45593999997E+02  0.45594000000E+02  0.51100000000E-03 0.  1.
    9900012    2    1    2    0    0  0.15432481838E+00 -0.16779757307E+00  0.11579973689E+01  0.90007775411E+02  0.90000037246E+02 0.  0.
        -12    1    1    2    0    0 -0.15432481838E+00  0.16779757307E+00 -0.11579973689E+01  0.11802245894E+01  0.00000000000E+00 0.  1.
         11    1    3    3    0    0 -0.15063775208E+02 -0.18886892224E+02 -0.11435291919E+02  0.26728223341E+02  0.51100000000E-03 0. -1.
        -11    1    3    3    0    0 -0.19277443873E+02 -0.48356716007E+01  0.86366863282E+00  0.19893453342E+02  0.51100000000E-03 0.  1.
        -12    1    3    3    0    0  0.34495543899E+02  0.23554766252E+02  0.11729620655E+02  0.43386098728E+02  0.00000000000E+00 0.  1.
</event>
<event>
 7    1  0.1716782E-015  0.9000772E+02  0.7816164E-02  0.1186339E+00
        -11   -1    0    0    0    0  0.00000000000E+00  0.00000000000E+00  0.45593999997E+02  0.45594000000E+02  0.51100000000E-03 0. -1.
         11   -1    0    0    0    0 -0.00000000000E+00 -0.00000000000E+00 -0.45593999997E+02  0.45594000000E+02  0.51100000000E-03 0.  1.
    9900012    2    1    2    0    0 -0.11288013761E+01 -0.20797627511E+00  0.27500005610E+00  0.90007715412E+02  0.89999976456E+02 0.  0.
        -12    1    1    2    0    0  0.11288013761E+01  0.20797627511E+00 -0.27500005610E+00  0.11802845879E+01  0.00000000000E+00 0.  1.
         11    1    3    3    0    0 -0.48307966324E+01 -0.17515871750E+01 -0.75426425931E+01  0.91266703284E+01  0.51100000000E-03 0. -1.
        -11    1    3    3    0    0 -0.37321846678E+02 -0.84422771703E+01  0.29149249725E+01  0.38375631214E+02  0.51100000000E-03 0.  1.
         12    1    3    3    0    0  0.41023841934E+02  0.99858880702E+01  0.49027176767E+01  0.42505413869E+02  0.00000000000E+00 0. -1.
</event>
<event>
 7    1  0.1716782E-015  0.9000764E+02  0.7816164E-02  0.1186339E+00
        -11   -1    0    0    0    0  0.00000000000E+00  0.00000000000E+00  0.45593999997E+02  0.45594000000E+02  0.51100000000E-03 0. -1.
         11   -1    0    0    0    0 -0.00000000000E+00 -0.00000000000E+00 -0.45593999997E+02  0.45594000000E+02  0.51100000000E-03 0.  1.
    9900012    2    1    2    0    0  0.58467368881E+00 -0.79104810440E+00  0.65242135095E+00  0.90007638172E+02  0.89999898196E+02 0.  0.
        -12    1    1    2    0    0 -0.58467368881E+00  0.79104810440E+00 -0.65242135095E+00  0.11803618280E+01  0.00000000000E+00 0.  1.
         11    1    3    3    0    0 -0.74301130622E+01 -0.24965982763E+01 -0.46802349071E+01  0.91293034848E+01  0.51100000000E-03 0. -1.
        -11    1    3    3    0    0 -0.26899592665E+02  0.23589980757E+02  0.14600953544E+02  0.38642762871E+02  0.51100000000E-03 0.  1.
         12    1    3    3    0    0  0.34914379416E+02 -0.21884430586E+02 -0.92682972859E+01  0.42235571816E+02  0.00000000000E+00 0. -1.
</event>
<event>
 7    1  0.1716782E-015  0.9000765E+02  0.7816164E-02  0.1186339E+00
        -11   -1    0    0    0    0  0.00000000000E+00  0.00000000000E+00  0.45593999997E+02  0.45594000000E+02  0.51100000000E-03 0.  1.
         11   -1    0    0    0    0 -0.00000000000E+00 -0.00000000000E+00 -0.45593999997E+02  0.45594000000E+02  0.51100000000E-03 0. -1.
    9900012    2    1    2    0    0 -0.11753016768E+01  0.64782252650E-01  0.87731980857E-01  0.90007649344E+02  0.89999909515E+02 0.  0.
        -12    1    1    2    0    0  0.11753016768E+01 -0.64782252650E-01 -0.87731980857E-01  0.11803506565E+01  0.00000000000E+00 0.  1.
         11    1    3    3    0    0 -0.17744287694E+02 -0.74428091880E+01 -0.90610511368E+01  0.21268704764E+02  0.51100000000E-03 0. -1.
        -11    1    3    3    0    0 -0.15905557176E+02 -0.24905703960E+01 -0.18793596040E+02  0.24746493537E+02  0.51100000000E-03 0.  1.
        -12    1    3    3    0    0  0.32474543194E+02  0.99981618366E+01  0.27942379158E+02  0.43992451043E+02  0.00000000000E+00 0.  1.
</event>
<event>
 7    1  0.1716782E-015  0.9000773E+02  0.7816164E-02  0.1186339E+00
        -11   -1    0    0    0    0  0.00000000000E+00  0.00000000000E+00  0.45593999997E+02  0.45594000000E+02  0.51100000000E-03 0.  1.
         11   -1    0    0    0    0 -0.00000000000E+00 -0.00000000000E+00 -0.45593999997E+02  0.45594000000E+02  0.51100000000E-03 0. -1.
    9900012    2    1    2    0    0 -0.11551508424E+01  0.34202059070E-01  0.23977472130E+00  0.90007730892E+02  0.89999992140E+02 0.  0.
        -12    1    1    2    0    0  0.11551508424E+01 -0.34202059070E-01 -0.23977472130E+00  0.11802691077E+01  0.00000000000E+00 0.  1.
         11    1    3    3    0    0 -0.39257702629E+02  0.10008570195E+02  0.39341110781E+00  0.40515348519E+02  0.51100000000E-03 0. -1.
        -11    1    3    3    0    0  0.95688960522E+01  0.98417383898E+01  0.44928451044E+01  0.14443311379E+02  0.51100000000E-03 0.  1.
        -12    1    3    3    0    0  0.28533655734E+02 -0.19816106525E+02 -0.46464814909E+01  0.35049070995E+02  0.00000000000E+00 0.  1.
</event>
<event>
 7    1  0.1716782E-015  0.9000772E+02  0.7816164E-02  0.1186339E+00
        -11   -1    0    0    0    0  0.00000000000E+00  0.00000000000E+00  0.45593999997E+02  0.45594000000E+02  0.51100000000E-03 0. -1.
         11   -1    0    0    0    0 -0.00000000000E+00 -0.00000000000E+00 -0.45593999997E+02  0.45594000000E+02  0.51100000000E-03 0.  1.
    9900012    2    1    2    0    0  0.11708668435E+01  0.37852670040E-01 -0.14390857261E+00  0.90007715430E+02  0.89999976473E+02 0.  0.
        -12    1    1    2    0    0 -0.11708668435E+01 -0.37852670040E-01  0.14390857261E+00  0.11802845704E+01  0.00000000000E+00 0.  1.
         11    1    3    3    0    0 -0.72740455074E+01  0.65207617998E+01 -0.28321921762E+01  0.10171203728E+02  0.51100000000E-03 0. -1.
        -11    1    3    3    0    0 -0.31409304368E+02  0.61491228612E+01 -0.13853024425E+02  0.34874953746E+02  0.51100000000E-03 0.  1.
         12    1    3    3    0    0  0.39854216719E+02 -0.12632031991E+02  0.16541308028E+02  0.44961557955E+02  0.00000000000E+00 0. -1.
</event>
<event>
 7    1  0.1716782E-015  0.9000765E+02  0.7816164E-02  0.1186339E+00
        -11   -1    0    0    0    0  0.00000000000E+00  0.00000000000E+00  0.45593999997E+02  0.45594000000E+02  0.51100000000E-03 0. -1.
         11   -1    0    0    0    0 -0.00000000000E+00 -0.00000000000E+00 -0.45593999997E+02  0.45594000000E+02  0.51100000000E-03 0.  1.
    9900012    2    1    2    0    0  0.95684428620E+00 -0.25930652359E+00  0.64064596039E+00  0.90007653395E+02  0.89999913620E+02 0.  0.
        -12    1    1    2    0    0 -0.95684428620E+00  0.25930652359E+00 -0.64064596039E+00  0.11803466049E+01  0.00000000000E+00 0.  1.
         11    1    3    3    0    0  0.35967774402E+02 -0.21332398642E+02 -0.11910404341E+02  0.43481142569E+02  0.51100000000E-03 0. -1.
        -11    1    3    3    0    0 -0.22863315993E+01  0.89559016835E+01  0.60033718170E+01  0.11021613338E+02  0.51100000000E-03 0.  1.
        -12    1    3    3    0    0 -0.32724598517E+02  0.12117190435E+02  0.65476784840E+01  0.35504897488E+02  0.00000000000E+00 0.  1.
</event>
<event>
 7    1  0.2019013E-015  0.9000768E+02  0.7816164E-02  0.1186339E+00
        -11   -1    0    0    0    0  0.00000000000E+00  0.00000000000E+00  0.45593999997E+02  0.45594000000E+02  0.51100000000E-03 0.  1.
         11   -1    0    0    0    0 -0.00000000000E+00 -0.00000000000E+00 -0.45593999997E+02  0.45594000000E+02  0.51100000000E-03 0. -1.
    9900012    2    1    2    0    0 -0.67194207710E+00 -0.37623978531E+00 -0.89447540186E+00  0.90007682765E+02  0.89999943377E+02 0.  0.
        -12    1    1    2    0    0  0.67194207710E+00  0.37623978531E+00  0.89447540186E+00  0.11803172351E+01  0.00000000000E+00 0.  1.
         11    1    3    3    0    0 -0.32584496455E+02  0.64057035720E+01 -0.14054187038E+02  0.36059709109E+02  0.51100000000E-03 0. -1.
        -11    1    3    3    0    0 -0.67063152188E+01  0.45456753918E+01 -0.52888007434E+01  0.96751869308E+01  0.51100000000E-03 0.  1.
        -12    1    3    3    0    0  0.38618869596E+02 -0.11327618749E+02  0.18448512379E+02  0.44272786725E+02  0.00000000000E+00 0.  1.
</event>
<event>
 7    1  0.1716782E-015  0.9000779E+02  0.7816164E-02  0.1186339E+00
        -11   -1    0    0    0    0  0.00000000000E+00  0.00000000000E+00  0.45593999997E+02  0.45594000000E+02  0.51100000000E-03 0.  1.
         11   -1    0    0    0    0 -0.00000000000E+00 -0.00000000000E+00 -0.45593999997E+02  0.45594000000E+02  0.51100000000E-03 0. -1.
    9900012    2    1    2    0    0 -0.15655504019E+00 -0.10218537770E+01  0.56938039327E+00  0.90007792961E+02  0.90000055028E+02 0.  0.
        -12    1    1    2    0    0  0.15655504019E+00  0.10218537770E+01 -0.56938039327E+00  0.11802070388E+01  0.00000000000E+00 0.  1.
         11    1    3    3    0    0 -0.82228476816E+01  0.19405624570E+01 -0.12929915290E+02  0.15445507966E+02  0.51100000000E-03 0. -1.
        -11    1    3    3    0    0  0.19436368750E+01  0.13073595676E+02 -0.27282374485E+02  0.30315418289E+02  0.51100000000E-03 0.  1.
         12    1    3    3    0    0  0.61226557664E+01 -0.16036011910E+02  0.40781670169E+02  0.44246866707E+02  0.00000000000E+00 0. -1.
</event>
<event>
 7    1  0.1716782E-015  0.9000745E+02  0.7816164E-02  0.1186340E+00
        -11   -1    0    0    0    0  0.00000000000E+00  0.00000000000E+00  0.45593999997E+02  0.45594000000E+02  0.51100000000E-03 0. -1.
         11   -1    0    0    0    0 -0.00000000000E+00 -0.00000000000E+00 -0.45593999997E+02  0.45594000000E+02  0.51100000000E-03 0.  1.
    9900012    2    1    2    0    0 -0.11601929249E+01 -0.70880954036E-01  0.20647269885E+00  0.90007448134E+02  0.89999705649E+02 0.  0.
        -12    1    1    2    0    0  0.11601929249E+01  0.70880954036E-01 -0.20647269885E+00  0.11805518659E+01  0.00000000000E+00 0.  1.
         11    1    3    3    0    0  0.16326544550E+02  0.26653676683E+02 -0.15370543207E+02  0.34831424553E+02  0.51100000000E-03 0. -1.
        -11    1    3    3    0    0  0.88148504963E+01  0.15717690409E+01 -0.61410994792E+01  0.10857492817E+02  0.51100000000E-03 0.  1.
        -12    1    3    3    0    0 -0.26301587971E+02 -0.28296326678E+02  0.21718115386E+02  0.44318530765E+02  0.00000000000E+00 0.  1.
</event>
<event>
 7    1  0.1716782E-015  0.9000841E+02  0.7816164E-02  0.1186338E+00
        -11   -1    0    0    0    0  0.00000000000E+00  0.00000000000E+00  0.45593999997E+02  0.45594000000E+02  0.51100000000E-03 0. -1.
         11   -1    0    0    0    0 -0.00000000000E+00 -0.00000000000E+00 -0.45593999997E+02  0.45594000000E+02  0.51100000000E-03 0.  1.
    9900012    2    1    2    0    0 -0.37986085587E+00  0.81394548731E+00  0.76460409386E+00  0.90008414926E+02  0.90000685201E+02 0.  0.
        -12    1    1    2    0    0  0.37986085587E+00 -0.81394548731E+00 -0.76460409386E+00  0.11795850739E+01  0.00000000000E+00 0.  1.
         11    1    3    3    0    0 -0.61456588550E+01 -0.66036553702E+01 -0.47670370240E+01  0.10203040197E+02  0.51100000000E-03 0. -1.
        -11    1    3    3    0    0 -0.23369765540E+01  0.17776003923E+02 -0.33839605649E+02  0.38295778953E+02  0.51100000000E-03 0.  1.
         12    1    3    3    0    0  0.81027745532E+01 -0.10358403065E+02  0.39371246767E+02  0.41509595776E+02  0.00000000000E+00 0. -1.
</event>
<event>
 7    1  0.1716782E-015  0.9000772E+02  0.7816164E-02  0.1186339E+00
        -11   -1    0    0    0    0  0.00000000000E+00  0.00000000000E+00  0.45593999997E+02  0.45594000000E+02  0.51100000000E-03 0.  1.
         11   -1    0    0    0    0 -0.00000000000E+00 -0.00000000000E+00 -0.45593999997E+02  0.45594000000E+02  0.51100000000E-03 0. -1.
    9900012    2    1    2    0    0  0.10132465833E+00 -0.11699498274E+01 -0.11839949229E+00  0.90007717100E+02  0.89999978165E+02 0.  0.
        -12    1    1    2    0    0 -0.10132465833E+00  0.11699498274E+01  0.11839949229E+00  0.11802829003E+01  0.00000000000E+00 0.  1.
         11    1    3    3    0    0 -0.19025287234E+01 -0.10000179909E+02  0.33163843007E+02  0.34690974287E+02  0.51100000000E-03 0. -1.
        -11    1    3    3    0    0 -0.99243492404E+01  0.11722154417E+00  0.71751715981E+01  0.12247021534E+02  0.51100000000E-03 0.  1.
        -12    1    3    3    0    0  0.11928202622E+02  0.87130085373E+01 -0.40457414097E+02  0.43069721278E+02  0.00000000000E+00 0.  1.
</event>
<event>
 7    1  0.1716782E-015  0.9000784E+02  0.7816164E-02  0.1186339E+00
        -11   -1    0    0    0    0  0.00000000000E+00  0.00000000000E+00  0.45593999997E+02  0.45594000000E+02  0.51100000000E-03 0.  1.
         11   -1    0    0    0    0 -0.00000000000E+00 -0.00000000000E+00 -0.45593999997E+02  0.45594000000E+02  0.51100000000E-03 0. -1.
    9900012    2    1    2    0    0 -0.62310661504E+00 -0.10021316537E+01 -0.16011385380E-01  0.90007836423E+02  0.90000099063E+02 0.  0.
        -12    1    1    2    0    0  0.62310661504E+00  0.10021316537E+01  0.16011385380E-01  0.11801635775E+01  0.00000000000E+00 0.  1.
         11    1    3    3    0    0 -0.30161483278E+02  0.21327249194E+02 -0.19578357265E+02  0.41807639316E+02  0.51100000000E-03 0. -1.
        -11    1    3    3    0    0  0.20723133360E+01 -0.77296430479E+01 -0.42179424092E+01  0.90461540248E+01  0.51100000000E-03 0.  1.
        -12    1    3    3    0    0  0.27466063327E+02 -0.14599737800E+02  0.23780288289E+02  0.39154043081E+02  0.00000000000E+00 0.  1.
</event>
<event>
 7    1  0.1716782E-015  0.9000780E+02  0.7816164E-02  0.1186339E+00
        -11   -1    0    0    0    0  0.00000000000E+00  0.00000000000E+00  0.45593999997E+02  0.45594000000E+02  0.51100000000E-03 0. -1.
         11   -1    0    0    0    0 -0.00000000000E+00 -0.00000000000E+00 -0.45593999997E+02  0.45594000000E+02  0.51100000000E-03 0.  1.
    9900012    2    1    2    0    0  0.24175795819E-01 -0.11797872521E+01  0.19619053859E-01  0.90007801993E+02  0.90000064179E+02 0.  0.
        -12    1    1    2    0    0 -0.24175795819E-01  0.11797872521E+01 -0.19619053859E-01  0.11801980074E+01  0.00000000000E+00 0.  1.
         11    1    3    3    0    0  0.37185653583E+02  0.13311929870E+02  0.12442462848E+02  0.41410085622E+02  0.51100000000E-03 0. -1.
        -11    1    3    3    0    0  0.62057597421E+00 -0.71369916418E+01 -0.64618044856E+01  0.96476257031E+01  0.51100000000E-03 0.  1.
        -12    1    3    3    0    0 -0.37782053762E+02 -0.73547254802E+01 -0.59610393088E+01  0.38950090667E+02  0.00000000000E+00 0.  1.
</event>
<event>
 7    1  0.1716782E-015  0.9000769E+02  0.7816164E-02  0.1186339E+00
        -11   -1    0    0    0    0  0.00000000000E+00  0.00000000000E+00  0.45593999997E+02  0.45594000000E+02  0.51100000000E-03 0.  1.
         11   -1    0    0    0    0 -0.00000000000E+00 -0.00000000000E+00 -0.45593999997E+02  0.45594000000E+02  0.51100000000E-03 0. -1.
    9900012    2    1    2    0    0 -0.67635693849E+00  0.43639856173E+00 -0.86326633006E+00  0.90007690223E+02  0.89999950934E+02 0.  0.
        -12    1    1    2    0    0  0.67635693849E+00 -0.43639856173E+00  0.86326633006E+00  0.11803097769E+01  0.00000000000E+00 0.  1.
         11    1    3    3    0    0  0.21403113749E+02 -0.22543208229E+02  0.19638859239E+02  0.36769203253E+02  0.51100000000E-03 0. -1.
        -11    1    3    3    0    0  0.58374225707E+00  0.12329066541E+01  0.96220748786E+01  0.97182888963E+01  0.51100000000E-03 0.  1.
        -12    1    3    3    0    0 -0.22663212944E+02  0.21746700136E+02 -0.30124200448E+02  0.43520198074E+02  0.00000000000E+00 0.  1.
</event>
<event>
 7    1  0.1716782E-015  0.9000775E+02  0.7816164E-02  0.1186339E+00
        -11   -1    0    0    0    0  0.00000000000E+00  0.00000000000E+00  0.45593999997E+02  0.45594000000E+02  0.51100000000E-03 0.  1.
         11   -1    0    0    0    0 -0.00000000000E+00 -0.00000000000E+00 -0.45593999997E+02  0.45594000000E+02  0.51100000000E-03 0. -1.
    9900012    2    1    2    0    0  0.10546421536E+01  0.94147940600E-01 -0.52140759678E+00  0.90007745880E+02  0.90000007325E+02 0.  0.
        -12    1    1    2    0    0 -0.10546421536E+01 -0.94147940600E-01  0.52140759678E+00  0.11802541204E+01  0.00000000000E+00 0.  1.
         11    1    3    3    0    0 -0.24602118320E+02  0.23414597139E+01 -0.29722327982E+02  0.38654410361E+02  0.51100000000E-03 0. -1.
        -11    1    3    3    0    0 -0.60880693709E+01 -0.65766884425E+01  0.16816214598E+01  0.91184028497E+01  0.51100000000E-03 0.  1.
        -12    1    3    3    0    0  0.31744829844E+02  0.43293766692E+01  0.27519298926E+02  0.42234932669E+02  0.00000000000E+00 0.  1.
</event>
<event>
 7    1  0.1716782E-015  0.9000782E+02  0.7816164E-02  0.1186339E+00
        -11   -1    0    0    0    0  0.00000000000E+00  0.00000000000E+00  0.45593999997E+02  0.45594000000E+02  0.51100000000E-03 0.  1.
         11   -1    0    0    0    0 -0.00000000000E+00 -0.00000000000E+00 -0.45593999997E+02  0.45594000000E+02  0.51100000000E-03 0. -1.
    9900012    2    1    2    0    0 -0.11398131574E+01 -0.14713068949E+00  0.26832492734E+00  0.90007822157E+02  0.90000084610E+02 0.  0.
        -12    1    1    2    0    0  0.11398131574E+01  0.14713068949E+00 -0.26832492734E+00  0.11801778426E+01  0.00000000000E+00 0.  1.
         11    1    3    3    0    0 -0.79023845396E-01  0.59806970218E+01 -0.20064627506E+02  0.20937150208E+02  0.51100000000E-03 0. -1.
        -11    1    3    3    0    0  0.11362390578E+02  0.17632354346E+02  0.33246666765E+02  0.39310872423E+02  0.51100000000E-03 0.  1.
         12    1    3    3    0    0 -0.12423179890E+02 -0.23760182057E+02 -0.12913714332E+02  0.29759799526E+02  0.00000000000E+00 0. -1.
</event>
<event>
 7    1  0.1716782E-015  0.9000779E+02  0.7816164E-02  0.1186339E+00
        -11   -1    0    0    0    0  0.00000000000E+00  0.00000000000E+00  0.45593999997E+02  0.45594000000E+02  0.51100000000E-03 0. -1.
         11   -1    0    0    0    0 -0.00000000000E+00 -0.00000000000E+00 -0.45593999997E+02  0.45594000000E+02  0.51100000000E-03 0.  1.
    9900012    2    1    2    0    0 -0.93581844962E-01 -0.11619122828E+01  0.18464133721E+00  0.90007792333E+02  0.90000054391E+02 0.  0.
        -12    1    1    2    0    0  0.93581844962E-01  0.11619122828E+01 -0.18464133721E+00  0.11802076673E+01  0.00000000000E+00 0.  1.
         11    1    3    3    0    0  0.81711984816E+01  0.53267536706E+01 -0.85516959386E+00  0.97915322901E+01  0.51100000000E-03 0. -1.
        -11    1    3    3    0    0 -0.12251987425E+02 -0.16602346998E+02 -0.36065704727E+02  0.41550982894E+02  0.51100000000E-03 0.  1.
         12    1    3    3    0    0  0.39872070982E+01  0.10113681045E+02  0.37105515658E+02  0.38665277149E+02  0.00000000000E+00 0. -1.
</event>
<event>
 7    1  0.1716782E-015  0.9000771E+02  0.7816164E-02  0.1186339E+00
        -11   -1    0    0    0    0  0.00000000000E+00  0.00000000000E+00  0.45593999997E+02  0.45594000000E+02  0.51100000000E-03 0. -1.
         11   -1    0    0    0    0 -0.00000000000E+00 -0.00000000000E+00 -0.45593999997E+02  0.45594000000E+02  0.51100000000E-03 0.  1.
    9900012    2    1    2    0    0  0.63593611504E-01  0.35259234715E+00  0.11245954135E+01  0.90007711749E+02  0.89999972744E+02 0.  0.
        -12    1    1    2    0    0 -0.63593611504E-01 -0.35259234715E+00 -0.11245954135E+01  0.11802882507E+01  0.00000000000E+00 0.  1.
         11    1    3    3    0    0 -0.30195594736E+02 -0.26073811406E+02  0.68293152076E+01  0.40475389179E+02  0.51100000000E-03 0. -1.
        -11    1    3    3    0    0  0.61663155231E+01 -0.61318917612E+01 -0.12286145048E+01  0.87825416346E+01  0.51100000000E-03 0.  1.
        -12    1    3    3    0    0  0.24092872825E+02  0.32558295514E+02 -0.44761052893E+01  0.40749780936E+02  0.00000000000E+00 0.  1.
</event>
<event>
 7    1  0.1716782E-015  0.9000757E+02  0.7816164E-02  0.1186339E+00
        -11   -1    0    0    0    0  0.00000000000E+00  0.00000000000E+00  0.45593999997E+02  0.45594000000E+02  0.51100000000E-03 0.  1.
         11   -1    0    0    0    0 -0.00000000000E+00 -0.00000000000E+00 -0.45593999997E+02  0.45594000000E+02  0.51100000000E-03 0. -1.
    9900012    2    1    2    0    0  0.75935202611E-01 -0.75694911536E+00 -0.90259956853E+00  0.90007566139E+02  0.89999825212E+02 0.  0.
        -12    1    1    2    0    0 -0.75935202611E-01  0.75694911536E+00  0.90259956853E+00  0.11804338606E+01  0.00000000000E+00 0.  1.
         11    1    3    3    0    0 -0.12749056793E+02 -0.32501545427E+00  0.17270847675E+02  0.21469193367E+02  0.51100000000E-03 0. -1.
        -11    1    3    3    0    0 -0.92512984312E+00  0.99951960115E+01  0.22346155524E+02  0.24497152396E+02  0.51100000000E-03 0.  1.
         12    1    3    3    0    0  0.13750121838E+02 -0.10427129673E+02 -0.40519602768E+02  0.44041220376E+02  0.00000000000E+00 0. -1.
</event>
<event>
 7    1  0.1716782E-015  0.9000769E+02  0.7816164E-02  0.1186339E+00
        -11   -1    0    0    0    0  0.00000000000E+00  0.00000000000E+00  0.45593999997E+02  0.45594000000E+02  0.51100000000E-03 0. -1.
         11   -1    0    0    0    0 -0.00000000000E+00 -0.00000000000E+00 -0.45593999997E+02  0.45594000000E+02  0.51100000000E-03 0.  1.
    9900012    2    1    2    0    0  0.63888264043E+00  0.95755116279E+00 -0.26086643384E+00  0.90007692178E+02  0.89999952915E+02 0.  0.
        -12    1    1    2    0    0 -0.63888264043E+00 -0.95755116279E+00  0.26086643384E+00  0.11803078217E+01  0.00000000000E+00 0.  1.
         11    1    3    3    0    0 -0.12672122893E+02  0.53738872975E+01  0.35707061249E+02  0.38268205950E+02  0.51100000000E-03 0. -1.
        -11    1    3    3    0    0 -0.91634047799E+01  0.26426394737E+01 -0.10169063176E+01  0.95909138912E+01  0.51100000000E-03 0.  1.
        -12    1    3    3    0    0  0.22474410313E+02 -0.70589756084E+01 -0.34951021366E+02  0.42148572337E+02  0.00000000000E+00 0.  1.
</event>
<event>
 7    1  0.1716782E-015  0.9000774E+02  0.7816164E-02  0.1186339E+00
        -11   -1    0    0    0    0  0.00000000000E+00  0.00000000000E+00  0.45593999997E+02  0.45594000000E+02  0.51100000000E-03 0.  1.
         11   -1    0    0    0    0 -0.00000000000E+00 -0.00000000000E+00 -0.45593999997E+02  0.45594000000E+02  0.51100000000E-03 0. -1.
    9900012    2    1    2    0    0  0.27921341174E+00  0.72721338747E-01 -0.11444539030E+01  0.90007735937E+02  0.89999997251E+02 0.  0.
        -12    1    1    2    0    0 -0.27921341174E+00 -0.72721338747E-01  0.11444539030E+01  0.11802640630E+01  0.00000000000E+00 0.  1.
         11    1    3    3    0    0  0.31630330545E+01 -0.39478119616E+01  0.73080506217E+01  0.88880594923E+01  0.51100000000E-03 0. -1.
        -11    1    3    3    0    0  0.12085168535E+02  0.26226700688E+01  0.33949294933E+02  0.36131486595E+02  0.51100000000E-03 0.  1.
         12    1    3    3    0    0 -0.14968988178E+02  0.13978632315E+01 -0.42401799458E+02  0.44988189850E+02  0.00000000000E+00 0. -1.
</event>
<event>
 7    1  0.1716782E-015  0.9000766E+02  0.7816164E-02  0.1186339E+00
        -11   -1    0    0    0    0  0.00000000000E+00  0.00000000000E+00  0.45593999997E+02  0.45594000000E+02  0.51100000000E-03 0.  1.
         11   -1    0    0    0    0 -0.00000000000E+00 -0.00000000000E+00 -0.45593999997E+02  0.45594000000E+02  0.51100000000E-03 0. -1.
    9900012    2    1    2    0    0  0.44824056532E+00  0.10815241395E+01  0.15030819190E+00  0.90007658261E+02  0.89999918550E+02 0.  0.
        -12    1    1    2    0    0 -0.44824056532E+00 -0.10815241395E+01 -0.15030819190E+00  0.11803417392E+01  0.00000000000E+00 0.  1.
         11    1    3    3    0    0  0.22675791526E+02 -0.28062665489E+02 -0.13239198524E+02  0.38431511725E+02  0.51100000000E-03 0. -1.
        -11    1    3    3    0    0  0.59967289562E+01  0.76400393859E+01 -0.57230752378E+01  0.11273178364E+02  0.51100000000E-03 0.  1.
        -12    1    3    3    0    0 -0.28224279917E+02  0.21504150242E+02  0.19112581954E+02  0.40302968171E+02  0.00000000000E+00 0.  1.
</event>
<event>
 7    1  0.1716782E-015  0.9000768E+02  0.7816164E-02  0.1186339E+00
        -11   -1    0    0    0    0  0.00000000000E+00  0.00000000000E+00  0.45593999997E+02  0.45594000000E+02  0.51100000000E-03 0.  1.
         11   -1    0    0    0    0 -0.00000000000E+00 -0.00000000000E+00 -0.45593999997E+02  0.45594000000E+02  0.51100000000E-03 0. -1.
    9900012    2    1    2    0    0 -0.56746201409E-01 -0.81344343671E+00 -0.85337825351E+00  0.90007675977E+02  0.89999936500E+02 0.  0.
        -12    1    1    2    0    0  0.56746201409E-01  0.81344343671E+00  0.85337825351E+00  0.11803240232E+01  0.00000000000E+00 0.  1.
         11    1    3    3    0    0  0.21366474601E+02  0.16612462609E+02 -0.22465851916E+02  0.35174062225E+02  0.51100000000E-03 0. -1.
        -11    1    3    3    0    0  0.18920362167E+01  0.76412869067E+01 -0.67555879095E+01  0.10373381074E+02  0.51100000000E-03 0.  1.
        -12    1    3    3    0    0 -0.23315257019E+02 -0.25067192953E+02  0.28368061572E+02  0.44460232678E+02  0.00000000000E+00 0.  1.
</event>
<event>
 7    1  0.1716782E-015  0.9000776E+02  0.7816164E-02  0.1186339E+00
        -11   -1    0    0    0    0  0.00000000000E+00  0.00000000000E+00  0.45593999997E+02  0.45594000000E+02  0.51100000000E-03 0.  1.
         11   -1    0    0    0    0 -0.00000000000E+00 -0.00000000000E+00 -0.45593999997E+02  0.45594000000E+02  0.51100000000E-03 0. -1.
    9900012    2    1    2    0    0  0.40707796928E-01 -0.41004517675E+00 -0.11059727505E+01  0.90007758543E+02  0.90000020156E+02 0.  0.
        -12    1    1    2    0    0 -0.40707796928E-01  0.41004517675E+00  0.11059727505E+01  0.11802414569E+01  0.00000000000E+00 0.  1.
         11    1    3    3    0    0  0.95108674092E+00 -0.11310132710E+02  0.15658098815E+02  0.19339072539E+02  0.51100000000E-03 0. -1.
        -11    1    3    3    0    0  0.15589503420E+01 -0.14647181090E+02  0.20608490888E+02  0.25331406139E+02  0.51100000000E-03 0.  1.
         12    1    3    3    0    0 -0.24693292859E+01  0.25547268623E+02 -0.37372562454E+02  0.45337279865E+02  0.00000000000E+00 0. -1.
</event>
<event>
 7    1  0.1716782E-015  0.9000760E+02  0.7816164E-02  0.1186339E+00
        -11   -1    0    0    0    0  0.00000000000E+00  0.00000000000E+00  0.45593999997E+02  0.45594000000E+02  0.51100000000E-03 0. -1.
         11   -1    0    0    0    0 -0.00000000000E+00 -0.00000000000E+00 -0.45593999997E+02  0.45594000000E+02  0.51100000000E-03 0.  1.
    9900012    2    1    2    0    0  0.24828040973E+00  0.67592520400E+00  0.93531644323E+00  0.90007603926E+02  0.89999863497E+02 0.  0.
        -12    1    1    2    0    0 -0.24828040973E+00 -0.67592520400E+00 -0.93531644323E+00  0.11803960743E+01  0.00000000000E+00 0.  1.
         11    1    3    3    0    0 -0.33371771358E+01 -0.65829819382E+01 -0.90212467417E+01  0.11655697983E+02  0.51100000000E-03 0. -1.
        -11    1    3    3    0    0 -0.15124526171E+02 -0.10591390106E+02 -0.27325869990E+02  0.32979266324E+02  0.51100000000E-03 0.  1.
         12    1    3    3    0    0  0.18709983717E+02  0.17850297248E+02  0.37282433175E+02  0.45372639619E+02  0.00000000000E+00 0. -1.
</event>
<event>
 7    1  0.1716782E-015  0.9000775E+02  0.7816164E-02  0.1186339E+00
        -11   -1    0    0    0    0  0.00000000000E+00  0.00000000000E+00  0.45593999997E+02  0.45594000000E+02  0.51100000000E-03 0. -1.
         11   -1    0    0    0    0 -0.00000000000E+00 -0.00000000000E+00 -0.45593999997E+02  0.45594000000E+02  0.51100000000E-03 0.  1.
    9900012    2    1    2    0    0 -0.10231200462E+01 -0.33613268213E+00 -0.48293810034E+00  0.90007750443E+02  0.90000011949E+02 0.  0.
        -12    1    1    2    0    0  0.10231200462E+01  0.33613268213E+00  0.48293810034E+00  0.11802495573E+01  0.00000000000E+00 0.  1.
         11    1    3    3    0    0 -0.57282953509E+01 -0.15663711291E+02  0.31991366466E+02  0.36077870609E+02  0.51100000000E-03 0. -1.
        -11    1    3    3    0    0 -0.37573477666E+01 -0.22722165059E+01  0.79238830117E+01  0.90591695167E+01  0.51100000000E-03 0.  1.
        -12    1    3    3    0    0  0.84625230713E+01  0.17599795115E+02 -0.40398187578E+02  0.44870710317E+02  0.00000000000E+00 0.  1.
</event>
<event>
 7    1  0.1716782E-015  0.9000770E+02  0.7816164E-02  0.1186339E+00
        -11   -1    0    0    0    0  0.00000000000E+00  0.00000000000E+00  0.45593999997E+02  0.45594000000E+02  0.51100000000E-03 0.  1.
         11   -1    0    0    0    0 -0.00000000000E+00 -0.00000000000E+00 -0.45593999997E+02  0.45594000000E+02  0.51100000000E-03 0. -1.
    9900012    2    1    2    0    0 -0.69811963598E+00  0.13215334166E+00 -0.94248731739E+00  0.90007695855E+02  0.89999956640E+02 0.  0.
        -12    1    1    2    0    0  0.69811963598E+00 -0.13215334166E+00  0.94248731739E+00  0.11803041452E+01  0.00000000000E+00 0.  1.
         11    1    3    3    0    0 -0.92511362513E+01 -0.24069097042E+01  0.93390946307E+00  0.96046303110E+01  0.51100000000E-03 0. -1.
        -11    1    3    3    0    0 -0.11897893477E+02 -0.28438897143E+02  0.20536573568E+02  0.37041619755E+02  0.51100000000E-03 0.  1.
         12    1    3    3    0    0  0.20450910092E+02  0.30977960189E+02 -0.22412970348E+02  0.43361445789E+02  0.00000000000E+00 0. -1.
</event>
<event>
 7    1  0.1716782E-015  0.9000802E+02  0.7816164E-02  0.1186338E+00
        -11   -1    0    0    0    0  0.00000000000E+00  0.00000000000E+00  0.45593999997E+02  0.45594000000E+02  0.51100000000E-03 0.  1.
         11   -1    0    0    0    0 -0.00000000000E+00 -0.00000000000E+00 -0.45593999997E+02  0.45594000000E+02  0.51100000000E-03 0. -1.
    9900012    2    1    2    0    0 -0.10073103667E+01  0.19299416764E+00 -0.58346292683E+00  0.90008021225E+02  0.90000286304E+02 0.  0.
        -12    1    1    2    0    0  0.10073103667E+01 -0.19299416764E+00  0.58346292683E+00  0.11799787755E+01  0.00000000000E+00 0.  1.
         11    1    3    3    0    0  0.89894136565E+01  0.13760382609E+01 -0.21862860651E+01  0.93532286512E+01  0.51100000000E-03 0. -1.
        -11    1    3    3    0    0 -0.13250576732E+02  0.14301214174E+02  0.37033362242E+02  0.41851791237E+02  0.51100000000E-03 0.  1.
         12    1    3    3    0    0  0.32538527091E+01 -0.15484258267E+02 -0.35430539103E+02  0.38803001336E+02  0.00000000000E+00 0. -1.
</event>
<event>
 7    1  0.1716782E-015  0.9000755E+02  0.7816164E-02  0.1186339E+00
        -11   -1    0    0    0    0  0.00000000000E+00  0.00000000000E+00  0.45593999997E+02  0.45594000000E+02  0.51100000000E-03 0.  1.
         11   -1    0    0    0    0 -0.00000000000E+00 -0.00000000000E+00 -0.45593999997E+02  0.45594000000E+02  0.51100000000E-03 0. -1.
    9900012    2    1    2    0    0 -0.90036774813E+00  0.74154366600E+00 -0.18142551735E+00  0.90007549108E+02  0.89999807956E+02 0.  0.
        -12    1    1    2    0    0  0.90036774813E+00 -0.74154366600E+00  0.18142551735E+00  0.11804508922E+01  0.00000000000E+00 0.  1.
         11    1    3    3    0    0 -0.87207738076E+01 -0.27056715592E+01  0.24100289345E+01  0.94435583397E+01  0.51100000000E-03 0. -1.
        -11    1    3    3    0    0 -0.70266167873E+01 -0.30013660262E+02 -0.23176666861E+02  0.38566190282E+02  0.51100000000E-03 0.  1.
         12    1    3    3    0    0  0.14847022847E+02  0.33460875487E+02  0.20585212409E+02  0.41997800487E+02  0.00000000000E+00 0. -1.
</event>
<event>
 7    1  0.1716782E-015  0.9000789E+02  0.7816164E-02  0.1186339E+00
        -11   -1    0    0    0    0  0.00000000000E+00  0.00000000000E+00  0.45593999997E+02  0.45594000000E+02  0.51100000000E-03 0.  1.
         11   -1    0    0    0    0 -0.00000000000E+00 -0.00000000000E+00 -0.45593999997E+02  0.45594000000E+02  0.51100000000E-03 0. -1.
    9900012    2    1    2    0    0  0.57144760178E+00  0.10322802984E+01 -0.22565557489E-01  0.90007888064E+02  0.90000151387E+02 0.  0.
        -12    1    1    2    0    0 -0.57144760178E+00 -0.10322802984E+01  0.22565557489E-01  0.11801119355E+01  0.00000000000E+00 0.  1.
         11    1    3    3    0    0 -0.45038346149E+01 -0.10154263891E+02  0.62974808140E+01  0.12769176413E+02  0.51100000000E-03 0. -1.
        -11    1    3    3    0    0  0.37345972408E+02 -0.30586357268E+01  0.93806789517E+01  0.38627374302E+02  0.51100000000E-03 0.  1.
         12    1    3    3    0    0 -0.32270690191E+02  0.14245179916E+02 -0.15700725323E+02  0.38611337350E+02  0.00000000000E+00 0. -1.
</event>
<event>
 7    1  0.1716782E-015  0.9000759E+02  0.7816164E-02  0.1186339E+00
        -11   -1    0    0    0    0  0.00000000000E+00  0.00000000000E+00  0.45593999997E+02  0.45594000000E+02  0.51100000000E-03 0.  1.
         11   -1    0    0    0    0 -0.00000000000E+00 -0.00000000000E+00 -0.45593999997E+02  0.45594000000E+02  0.51100000000E-03 0. -1.
    9900012    2    1    2    0    0  0.30679919041E+00  0.92512813743E+00 -0.66586014548E+00  0.90007594329E+02  0.89999853774E+02 0.  0.
        -12    1    1    2    0    0 -0.30679919041E+00 -0.92512813743E+00  0.66586014548E+00  0.11804056706E+01  0.00000000000E+00 0.  1.
         11    1    3    3    0    0  0.12311286587E+01 -0.14450796979E+02 -0.32003040252E+02  0.35135961588E+02  0.51100000000E-03 0. -1.
        -11    1    3    3    0    0 -0.48864422381E+00 -0.14211404342E+02  0.44760397529E+01  0.14907639608E+02  0.51100000000E-03 0.  1.
        -12    1    3    3    0    0 -0.43568524448E+00  0.29587329458E+02  0.26861140353E+02  0.39963993134E+02  0.00000000000E+00 0.  1.
</event>
<event>
 7    1  0.1716782E-015  0.9000774E+02  0.7816164E-02  0.1186339E+00
        -11   -1    0    0    0    0  0.00000000000E+00  0.00000000000E+00  0.45593999997E+02  0.45594000000E+02  0.51100000000E-03 0.  1.
         11   -1    0    0    0    0 -0.00000000000E+00 -0.00000000000E+00 -0.45593999997E+02  0.45594000000E+02  0.51100000000E-03 0. -1.
    9900012    2    1    2    0    0  0.99882184469E+00  0.15252219885E+00 -0.61000192632E+00  0.90007741364E+02  0.90000002750E+02 0.  0.
        -12    1    1    2    0    0 -0.99882184469E+00 -0.15252219885E+00  0.61000192632E+00  0.11802586364E+01  0.00000000000E+00 0.  1.
         11    1    3    3    0    0  0.54244983078E+01  0.60368853788E+01 -0.74739352625E+01  0.11033080963E+02  0.51100000000E-03 0. -1.
        -11    1    3    3    0    0  0.27591958423E+01  0.34147189805E+02 -0.88339432171E+01  0.35379122181E+02  0.51100000000E-03 0.  1.
         12    1    3    3    0    0 -0.71848723054E+01 -0.40031552985E+02  0.15697876553E+02  0.43595538220E+02  0.00000000000E+00 0. -1.
</event>
<event>
 7    1  0.2096545E-015  0.9000775E+02  0.7816164E-02  0.1186339E+00
        -11   -1    0    0    0    0  0.00000000000E+00  0.00000000000E+00  0.45593999997E+02  0.45594000000E+02  0.51100000000E-03 0. -1.
         11   -1    0    0    0    0 -0.00000000000E+00 -0.00000000000E+00 -0.45593999997E+02  0.45594000000E+02  0.51100000000E-03 0.  1.
    9900012    2    1    2    0    0  0.27871172835E+00  0.43068041922E+00  0.10629292187E+01  0.90007752409E+02  0.90000013941E+02 0.  0.
        -12    1    1    2    0    0 -0.27871172835E+00 -0.43068041922E+00 -0.10629292187E+01  0.11802475905E+01  0.00000000000E+00 0.  1.
         11    1    3    3    0    0  0.76607512321E+01  0.19011534909E+02  0.31717013630E+02  0.37763666704E+02  0.51100000000E-03 0. -1.
        -11    1    3    3    0    0 -0.69583984784E+01  0.74582725205E+01  0.20841483756E+01  0.10410994817E+02  0.51100000000E-03 0.  1.
        -12    1    3    3    0    0 -0.42364102538E+00 -0.26039127011E+02 -0.32738232787E+02  0.41833090888E+02  0.00000000000E+00 0.  1.
</event>
<event>
 7    1  0.1716782E-015  0.9000771E+02  0.7816164E-02  0.1186339E+00
        -11   -1    0    0    0    0  0.00000000000E+00  0.00000000000E+00  0.45593999997E+02  0.45594000000E+02  0.51100000000E-03 0. -1.
         11   -1    0    0    0    0 -0.00000000000E+00 -0.00000000000E+00 -0.45593999997E+02  0.45594000000E+02  0.51100000000E-03 0.  1.
    9900012    2    1    2    0    0 -0.83328361058E+00 -0.56487619691E+00  0.61615041856E+00  0.90007708497E+02  0.89999969449E+02 0.  0.
        -12    1    1    2    0    0  0.83328361058E+00  0.56487619691E+00 -0.61615041856E+00  0.11802915029E+01  0.00000000000E+00 0.  1.
         11    1    3    3    0    0  0.18838862650E+01 -0.81758923966E+01 -0.21067490499E+01  0.86505858622E+01  0.51100000000E-03 0. -1.
        -11    1    3    3    0    0  0.39598808840E+01 -0.34962953063E+02 -0.97163112688E+01  0.36503362153E+02  0.51100000000E-03 0.  1.
         12    1    3    3    0    0 -0.66770507596E+01  0.42573969263E+02  0.12439210737E+02  0.44853760482E+02  0.00000000000E+00 0. -1.
</event>
<event>
 7    1  0.1716782E-015  0.9000770E+02  0.7816164E-02  0.1186339E+00
        -11   -1    0    0    0    0  0.00000000000E+00  0.00000000000E+00  0.45593999997E+02  0.45594000000E+02  0.51100000000E-03 0.  1.
         11   -1    0    0    0    0 -0.00000000000E+00 -0.00000000000E+00 -0.45593999997E+02  0.45594000000E+02  0.51100000000E-03 0. -1.
    9900012    2    1    2    0    0 -0.84643174921E+00 -0.81515533937E+00 -0.11036330244E+00  0.90007701312E+02  0.89999962170E+02 0.  0.
        -12    1    1    2    0    0  0.84643174921E+00  0.81515533937E+00  0.11036330244E+00  0.11802986876E+01  0.00000000000E+00 0.  1.
         11    1    3    3    0    0  0.71438772620E+00  0.11026782013E+02 -0.41387783729E+01  0.11799566012E+02  0.51100000000E-03 0. -1.
        -11    1    3    3    0    0 -0.87580612837E+00  0.29841759801E+02  0.17240775863E+02  0.34475237737E+02  0.51100000000E-03 0.  1.
         12    1    3    3    0    0 -0.68501334703E+00 -0.41683697153E+02 -0.13212360792E+02  0.43732897564E+02  0.00000000000E+00 0. -1.
</event>
<event>
 7    1  0.1716782E-015  0.9000780E+02  0.7816164E-02  0.1186339E+00
        -11   -1    0    0    0    0  0.00000000000E+00  0.00000000000E+00  0.45593999997E+02  0.45594000000E+02  0.51100000000E-03 0.  1.
         11   -1    0    0    0    0 -0.00000000000E+00 -0.00000000000E+00 -0.45593999997E+02  0.45594000000E+02  0.51100000000E-03 0. -1.
    9900012    2    1    2    0    0  0.16328600013E+00 -0.92627075403E+00 -0.71289886491E+00  0.90007803144E+02  0.90000065345E+02 0.  0.
        -12    1    1    2    0    0 -0.16328600013E+00  0.92627075403E+00  0.71289886491E+00  0.11801968561E+01  0.00000000000E+00 0.  1.
         11    1    3    3    0    0  0.64997437357E+01  0.65449147508E+01 -0.57852659658E+01  0.10888153208E+02  0.51100000000E-03 0. -1.
        -11    1    3    3    0    0 -0.38808728056E+02 -0.86986322440E+01 -0.13118140233E+02  0.41879221336E+02  0.51100000000E-03 0.  1.
         12    1    3    3    0    0  0.32472270320E+02  0.12274467391E+01  0.18190507334E+02  0.37240428600E+02  0.00000000000E+00 0. -1.
</event>
<event>
 7    1  0.1716782E-015  0.9000678E+02  0.7816164E-02  0.1186341E+00
        -11   -1    0    0    0    0  0.00000000000E+00  0.00000000000E+00  0.45593999997E+02  0.45594000000E+02  0.51100000000E-03 0. -1.
         11   -1    0    0    0    0 -0.00000000000E+00 -0.00000000000E+00 -0.45593999997E+02  0.45594000000E+02  0.51100000000E-03 0.  1.
    9900012    2    1    2    0    0  0.70827778101E+00  0.72243485950E+00 -0.60968520768E+00  0.90006777924E+02  0.89999026587E+02 0.  0.
        -12    1    1    2    0    0 -0.70827778101E+00 -0.72243485950E+00  0.60968520768E+00  0.11812220764E+01  0.00000000000E+00 0.  1.
         11    1    3    3    0    0  0.31250486480E+01 -0.34651232746E+02  0.92278946216E+01  0.35994831564E+02  0.51100000000E-03 0. -1.
        -11    1    3    3    0    0 -0.40037125934E+00 -0.75853203784E+01  0.43161080308E+01  0.87364850588E+01  0.51100000000E-03 0.  1.
        -12    1    3    3    0    0 -0.20163996076E+01  0.42958987984E+02 -0.14153687860E+02  0.45275461301E+02  0.00000000000E+00 0.  1.
</event>
<event>
 7    1  0.1716782E-015  0.9000778E+02  0.7816164E-02  0.1186339E+00
        -11   -1    0    0    0    0  0.00000000000E+00  0.00000000000E+00  0.45593999997E+02  0.45594000000E+02  0.51100000000E-03 0.  1.
         11   -1    0    0    0    0 -0.00000000000E+00 -0.00000000000E+00 -0.45593999997E+02  0.45594000000E+02  0.51100000000E-03 0. -1.
    9900012    2    1    2    0    0 -0.29302930680E+00 -0.86012935277E+00 -0.75314105081E+00  0.90007783867E+02  0.90000045814E+02 0.  0.
        -12    1    1    2    0    0  0.29302930680E+00  0.86012935277E+00  0.75314105081E+00  0.11802161330E+01  0.00000000000E+00 0.  1.
         11    1    3    3    0    0 -0.30425452104E+02  0.37363850158E+01 -0.18604702624E+02  0.35858104645E+02  0.51100000000E-03 0. -1.
        -11    1    3    3    0    0  0.11238860614E+02 -0.41132839242E+01 -0.13188023415E+02  0.17808847644E+02  0.51100000000E-03 0.  1.
        -12    1    3    3    0    0  0.18893562183E+02 -0.48323044439E+00  0.31039584988E+02  0.36340831579E+02  0.00000000000E+00 0.  1.
</event>
<event>
 7    1  0.1716782E-015  0.9000781E+02  0.7816164E-02  0.1186339E+00
        -11   -1    0    0    0    0  0.00000000000E+00  0.00000000000E+00  0.45593999997E+02  0.45594000000E+02  0.51100000000E-03 0.  1.
         11   -1    0    0    0    0 -0.00000000000E+00 -0.00000000000E+00 -0.45593999997E+02  0.45594000000E+02  0.51100000000E-03 0. -1.
    9900012    2    1    2    0    0 -0.97929468529E-01 -0.65996825366E+00 -0.97349380448E+00  0.90007814225E+02  0.90000076573E+02 0.  0.
        -12    1    1    2    0    0  0.97929468529E-01  0.65996825366E+00  0.97349380448E+00  0.11801857752E+01  0.00000000000E+00 0.  1.
         11    1    3    3    0    0  0.19659771263E+02  0.25924065613E+01 -0.29586659515E+02  0.35617377773E+02  0.51100000000E-03 0. -1.
        -11    1    3    3    0    0 -0.79136541121E+01 -0.23174330364E+01 -0.10592698290E+02  0.13423921730E+02  0.51100000000E-03 0.  1.
        -12    1    3    3    0    0 -0.11844046619E+02 -0.93494177854E+00  0.39205864001E+02  0.40966514722E+02  0.00000000000E+00 0.  1.
</event>
<event>
 7    1  0.1716782E-015  0.9000744E+02  0.7816164E-02  0.1186340E+00
        -11   -1    0    0    0    0  0.00000000000E+00  0.00000000000E+00  0.45593999997E+02  0.45594000000E+02  0.51100000000E-03 0.  1.
         11   -1    0    0    0    0 -0.00000000000E+00 -0.00000000000E+00 -0.45593999997E+02  0.45594000000E+02  0.51100000000E-03 0. -1.
    9900012    2    1    2    0    0 -0.83123798919E+00  0.18523914936E+00 -0.81758854297E+00  0.90007440318E+02  0.89999697730E+02 0.  0.
        -12    1    1    2    0    0  0.83123798919E+00 -0.18523914936E+00  0.81758854297E+00  0.11805596820E+01  0.00000000000E+00 0.  1.
         11    1    3    3    0    0  0.78971553275E+01  0.18712929145E+01 -0.29700992912E+01  0.86422386857E+01  0.51100000000E-03 0. -1.
        -11    1    3    3    0    0  0.29088343079E+02  0.65630295034E+01  0.22762086005E+02  0.37514232218E+02  0.51100000000E-03 0.  1.
         12    1    3    3    0    0 -0.37816736395E+02 -0.82490832685E+01 -0.20609575256E+02  0.43850969415E+02  0.00000000000E+00 0. -1.
</event>
<event>
 7    1  0.1716782E-015  0.9000770E+02  0.7816164E-02  0.1186339E+00
        -11   -1    0    0    0    0  0.00000000000E+00  0.00000000000E+00  0.45593999997E+02  0.45594000000E+02  0.51100000000E-03 0.  1.
         11   -1    0    0    0    0 -0.00000000000E+00 -0.00000000000E+00 -0.45593999997E+02  0.45594000000E+02  0.51100000000E-03 0. -1.
    9900012    2    1    2    0    0  0.10378592805E+01 -0.84692205198E-01 -0.55568217153E+00  0.90007700321E+02  0.89999961166E+02 0.  0.
        -12    1    1    2    0    0 -0.10378592805E+01  0.84692205198E-01  0.55568217153E+00  0.11802996787E+01  0.00000000000E+00 0.  1.
         11    1    3    3    0    0 -0.78938441159E+01  0.21862989425E+02 -0.29194276157E+02  0.37317674662E+02  0.51100000000E-03 0. -1.
        -11    1    3    3    0    0 -0.92444234334E+01  0.19151942705E+01 -0.21735848432E+01  0.96877141288E+01  0.51100000000E-03 0.  1.
        -12    1    3    3    0    0  0.18176126830E+02 -0.23862875901E+02  0.30812178829E+02  0.43002311531E+02  0.00000000000E+00 0.  1.
</event>
<event>
 7    1  0.1716782E-015  0.9000773E+02  0.7816164E-02  0.1186339E+00
        -11   -1    0    0    0    0  0.00000000000E+00  0.00000000000E+00  0.45593999997E+02  0.45594000000E+02  0.51100000000E-03 0. -1.
         11   -1    0    0    0    0 -0.00000000000E+00 -0.00000000000E+00 -0.45593999997E+02  0.45594000000E+02  0.51100000000E-03 0.  1.
    9900012    2    1    2    0    0 -0.53716205099E+00  0.97307849063E+00 -0.39701031350E+00  0.90007727994E+02  0.89999989204E+02 0.  0.
        -12    1    1    2    0    0  0.53716205099E+00 -0.97307849063E+00  0.39701031350E+00  0.11802720055E+01  0.00000000000E+00 0.  1.
         11    1    3    3    0    0  0.83553806498E+01 -0.27526164104E+01 -0.30056698603E+01  0.92964151411E+01  0.51100000000E-03 0. -1.
        -11    1    3    3    0    0  0.26692519948E+02  0.15966722237E+01  0.26619009522E+02  0.37730778571E+02  0.51100000000E-03 0.  1.
         12    1    3    3    0    0 -0.35585062649E+02  0.21290226774E+01 -0.24010349975E+02  0.42980534283E+02  0.00000000000E+00 0. -1.
</event>
<event>
 7    1  0.1716782E-015  0.9000793E+02  0.7816164E-02  0.1186339E+00
        -11   -1    0    0    0    0  0.00000000000E+00  0.00000000000E+00  0.45593999997E+02  0.45594000000E+02  0.51100000000E-03 0.  1.
         11   -1    0    0    0    0 -0.00000000000E+00 -0.00000000000E+00 -0.45593999997E+02  0.45594000000E+02  0.51100000000E-03 0. -1.
    9900012    2    1    2    0    0 -0.42416308568E+00 -0.13586025151E-01 -0.11011197714E+01  0.90007930657E+02  0.90000194541E+02 0.  0.
        -12    1    1    2    0    0  0.42416308568E+00  0.13586025151E-01  0.11011197714E+01  0.11800693430E+01  0.00000000000E+00 0.  1.
         11    1    3    3    0    0 -0.68906866762E+01 -0.43271805707E+01 -0.42835372066E+01  0.91953654534E+01  0.51100000000E-03 0. -1.
        -11    1    3    3    0    0  0.18127063343E+02 -0.31501949237E+02 -0.14590143805E+02  0.39164212333E+02  0.51100000000E-03 0.  1.
         12    1    3    3    0    0 -0.11660539752E+02  0.35815543783E+02  0.17772561240E+02  0.41648352870E+02  0.00000000000E+00 0. -1.
</event>
<event>
 7    1  0.1716782E-015  0.9000775E+02  0.7816164E-02  0.1186339E+00
        -11   -1    0    0    0    0  0.00000000000E+00  0.00000000000E+00  0.45593999997E+02  0.45594000000E+02  0.51100000000E-03 0.  1.
         11   -1    0    0    0    0 -0.00000000000E+00 -0.00000000000E+00 -0.45593999997E+02  0.45594000000E+02  0.51100000000E-03 0. -1.
    9900012    2    1    2    0    0  0.26527498254E+00  0.10381151965E+01  0.49491804736E+00  0.90007746700E+02  0.90000008157E+02 0.  0.
        -12    1    1    2    0    0 -0.26527498254E+00 -0.10381151965E+01 -0.49491804736E+00  0.11802532996E+01  0.00000000000E+00 0.  1.
         11    1    3    3    0    0  0.15627650556E+01  0.11448309092E+02  0.47439899251E-01  0.11554577729E+02  0.51100000000E-03 0. -1.
        -11    1    3    3    0    0 -0.16625501259E+01  0.33993474043E+02  0.89151908035E+00  0.34045780311E+02  0.51100000000E-03 0.  1.
         12    1    3    3    0    0  0.36506005287E+00 -0.44403667939E+02 -0.44404093224E+00  0.44407388660E+02  0.00000000000E+00 0. -1.
</event>
<event>
 7    1  0.2435334E-015  0.9000780E+02  0.7816164E-02  0.1186339E+00
        -11   -1    0    0    0    0  0.00000000000E+00  0.00000000000E+00  0.45593999997E+02  0.45594000000E+02  0.51100000000E-03 0. -1.
         11   -1    0    0    0    0 -0.00000000000E+00 -0.00000000000E+00 -0.45593999997E+02  0.45594000000E+02  0.51100000000E-03 0.  1.
    9900012    2    1    2    0    0  0.39807389160E+00 -0.29835271723E+00  0.10702321760E+01  0.90007799137E+02  0.90000061285E+02 0.  0.
        -12    1    1    2    0    0 -0.39807389160E+00  0.29835271723E+00 -0.10702321760E+01  0.11802008632E+01  0.00000000000E+00 0.  1.
         11    1    3    3    0    0 -0.15393960207E+02 -0.34757538198E+02  0.12726087964E+02  0.40087576474E+02  0.51100000000E-03 0. -1.
        -11    1    3    3    0    0 -0.46054538408E+01  0.39189505556E+01  0.65628314430E+01  0.89240761621E+01  0.51100000000E-03 0.  1.
        -12    1    3    3    0    0  0.20397487940E+02  0.30540234925E+02 -0.18218687231E+02  0.40996146501E+02  0.00000000000E+00 0.  1.
</event>
<event>
 7    1  0.1716782E-015  0.9000772E+02  0.7816164E-02  0.1186339E+00
        -11   -1    0    0    0    0  0.00000000000E+00  0.00000000000E+00  0.45593999997E+02  0.45594000000E+02  0.51100000000E-03 0.  1.
         11   -1    0    0    0    0 -0.00000000000E+00 -0.00000000000E+00 -0.45593999997E+02  0.45594000000E+02  0.51100000000E-03 0. -1.
    9900012    2    1    2    0    0 -0.68893663669E+00  0.17520573785E+00 -0.94219766726E+00  0.90007717329E+02  0.89999978397E+02 0.  0.
        -12    1    1    2    0    0  0.68893663669E+00 -0.17520573785E+00  0.94219766726E+00  0.11802826713E+01  0.00000000000E+00 0.  1.
         11    1    3    3    0    0  0.62472344452E+01 -0.81182470968E+01 -0.71959940802E+01  0.12518634319E+02  0.51100000000E-03 0. -1.
        -11    1    3    3    0    0 -0.75173504638E+01 -0.33928375488E+02 -0.33190412449E+00  0.34752775168E+02  0.51100000000E-03 0.  1.
         12    1    3    3    0    0  0.58117938194E+00  0.42221828323E+02  0.65857005375E+01  0.42736307842E+02  0.00000000000E+00 0. -1.
</event>
<event>
 7    1  0.1716782E-015  0.9000777E+02  0.7816164E-02  0.1186339E+00
        -11   -1    0    0    0    0  0.00000000000E+00  0.00000000000E+00  0.45593999997E+02  0.45594000000E+02  0.51100000000E-03 0. -1.
         11   -1    0    0    0    0 -0.00000000000E+00 -0.00000000000E+00 -0.45593999997E+02  0.45594000000E+02  0.51100000000E-03 0.  1.
    9900012    2    1    2    0    0 -0.85303738133E+00 -0.74098264494E+00 -0.34089612622E+00  0.90007771961E+02  0.90000033751E+02 0.  0.
        -12    1    1    2    0    0  0.85303738133E+00  0.74098264494E+00  0.34089612622E+00  0.11802280385E+01  0.00000000000E+00 0.  1.
         11    1    3    3    0    0  0.13377336501E+02  0.20812213088E+02  0.22803041690E+02  0.33646397371E+02  0.51100000000E-03 0. -1.
        -11    1    3    3    0    0  0.37423293912E+01  0.50004649368E+01  0.90028861050E+01  0.10957264136E+02  0.51100000000E-03 0.  1.
        -12    1    3    3    0    0 -0.17972703273E+02 -0.26553660670E+02 -0.32146823921E+02  0.45404110454E+02  0.00000000000E+00 0.  1.
</event>
<event>
 7    1  0.1716782E-015  0.9000773E+02  0.7816164E-02  0.1186339E+00
        -11   -1    0    0    0    0  0.00000000000E+00  0.00000000000E+00  0.45593999997E+02  0.45594000000E+02  0.51100000000E-03 0.  1.
         11   -1    0    0    0    0 -0.00000000000E+00 -0.00000000000E+00 -0.45593999997E+02  0.45594000000E+02  0.51100000000E-03 0. -1.
    9900012    2    1    2    0    0  0.61272577897E+00 -0.78338426084E-01 -0.10057129010E+01  0.90007733832E+02  0.89999995118E+02 0.  0.
        -12    1    1    2    0    0 -0.61272577897E+00  0.78338426084E-01  0.10057129010E+01  0.11802661685E+01  0.00000000000E+00 0.  1.
         11    1    3    3    0    0 -0.64062409070E+01  0.23355984589E+01  0.93457958822E+01  0.11568873915E+02  0.51100000000E-03 0. -1.
        -11    1    3    3    0    0  0.26744942718E+02  0.17062410180E+02  0.19867047440E+02  0.37431502460E+02  0.51100000000E-03 0.  1.
         12    1    3    3    0    0 -0.19725976032E+02 -0.19476347065E+02 -0.30218556223E+02  0.41007357457E+02  0.00000000000E+00 0. -1.
</event>
<event>
 7    1  0.1716782E-015  0.9000780E+02  0.7816164E-02  0.1186339E+00
        -11   -1    0    0    0    0  0.00000000000E+00  0.00000000000E+00  0.45593999997E+02  0.45594000000E+02  0.51100000000E-03 0. -1.
         11   -1    0    0    0    0 -0.00000000000E+00 -0.00000000000E+00 -0.45593999997E+02  0.45594000000E+02  0.51100000000E-03 0.  1.
    9900012    2    1    2    0    0  0.55559192465E+00 -0.23578017257E+00 -0.10142005169E+01  0.90007797744E+02  0.90000059874E+02 0.  0.
        -12    1    1    2    0    0 -0.55559192465E+00  0.23578017257E+00  0.10142005169E+01  0.11802022560E+01  0.00000000000E+00 0.  1.
         11    1    3    3    0    0 -0.18183385014E+02 -0.25879111476E+02  0.41800534171E+01  0.31903553849E+02  0.51100000000E-03 0. -1.
        -11    1    3    3    0    0  0.76343629325E+01 -0.14409766359E+02 -0.13617142586E+01  0.16363958259E+02  0.51100000000E-03 0.  1.
        -12    1    3    3    0    0  0.11104614006E+02  0.40053097663E+02 -0.38325396754E+01  0.41740285636E+02  0.00000000000E+00 0.  1.
</event>
<event>
 7    1  0.1716782E-015  0.9000776E+02  0.7816164E-02  0.1186339E+00
        -11   -1    0    0    0    0  0.00000000000E+00  0.00000000000E+00  0.45593999997E+02  0.45594000000E+02  0.51100000000E-03 0. -1.
         11   -1    0    0    0    0 -0.00000000000E+00 -0.00000000000E+00 -0.45593999997E+02  0.45594000000E+02  0.51100000000E-03 0.  1.
    9900012    2    1    2    0    0 -0.29674132355E+00  0.75150760390E+00  0.86031159533E+00  0.90007764798E+02  0.90000026493E+02 0.  0.
        -12    1    1    2    0    0  0.29674132355E+00 -0.75150760390E+00 -0.86031159533E+00  0.11802352024E+01  0.00000000000E+00 0.  1.
         11    1    3    3    0    0  0.42321745536E+01 -0.40876415427E+01  0.71768582950E+01  0.92804854442E+01  0.51100000000E-03 0. -1.
        -11    1    3    3    0    0 -0.30178805885E+02  0.29055418233E+02  0.80142321667E+01  0.42652146146E+02  0.51100000000E-03 0.  1.
         12    1    3    3    0    0  0.25649890008E+02 -0.24216269087E+02 -0.14330778866E+02  0.38075133208E+02  0.00000000000E+00 0. -1.
</event>
<event>
 7    1  0.1716782E-015  0.9000753E+02  0.7816164E-02  0.1186339E+00
        -11   -1    0    0    0    0  0.00000000000E+00  0.00000000000E+00  0.45593999997E+02  0.45594000000E+02  0.51100000000E-03 0. -1.
         11   -1    0    0    0    0 -0.00000000000E+00 -0.00000000000E+00 -0.45593999997E+02  0.45594000000E+02  0.51100000000E-03 0.  1.
    9900012    2    1    2    0    0  0.15329355449E+00  0.11581941584E+01  0.16907838781E+00  0.90007533938E+02  0.89999792586E+02 0.  0.
        -12    1    1    2    0    0 -0.15329355449E+00 -0.11581941584E+01 -0.16907838781E+00  0.11804660620E+01  0.00000000000E+00 0.  1.
         11    1    3    3    0    0 -0.13789790245E+02  0.63405088171E+01  0.12269412959E+01  0.15227138676E+02  0.51100000000E-03 0. -1.
        -11    1    3    3    0    0 -0.14838506787E+02 -0.18309860493E+01 -0.30191396156E+02  0.33690565381E+02  0.51100000000E-03 0.  1.
         12    1    3    3    0    0  0.28781590586E+02 -0.33513286094E+01  0.29133533248E+02  0.41089829881E+02  0.00000000000E+00 0. -1.
</event>
<event>
 7    1  0.1716782E-015  0.9000792E+02  0.7816164E-02  0.1186339E+00
        -11   -1    0    0    0    0  0.00000000000E+00  0.00000000000E+00  0.45593999997E+02  0.45594000000E+02  0.51100000000E-03 0. -1.
         11   -1    0    0    0    0 -0.00000000000E+00 -0.00000000000E+00 -0.45593999997E+02  0.45594000000E+02  0.51100000000E-03 0.  1.
    9900012    2    1    2    0    0  0.56153458549E+00  0.74910256546E+00  0.71840311686E+00  0.90007924247E+02  0.90000188047E+02 0.  0.
        -12    1    1    2    0    0 -0.56153458549E+00 -0.74910256546E+00 -0.71840311686E+00  0.11800757529E+01  0.00000000000E+00 0.  1.
         11    1    3    3    0    0  0.31086271116E+01 -0.33691387055E+00 -0.50718467792E+01  0.59582466790E+01  0.51100000000E-03 0. -1.
        -11    1    3    3    0    0  0.14210732040E+02  0.19996804487E+02 -0.30928949788E+02  0.39476791030E+02  0.51100000000E-03 0.  1.
         12    1    3    3    0    0 -0.16757824566E+02 -0.18910788051E+02  0.36719199684E+02  0.44572886538E+02  0.00000000000E+00 0. -1.
</event>
<event>
 7    1  0.1716782E-015  0.9000819E+02  0.7816164E-02  0.1186338E+00
        -11   -1    0    0    0    0  0.00000000000E+00  0.00000000000E+00  0.45593999997E+02  0.45594000000E+02  0.51100000000E-03 0.  1.
         11   -1    0    0    0    0 -0.00000000000E+00 -0.00000000000E+00 -0.45593999997E+02  0.45594000000E+02  0.51100000000E-03 0. -1.
    9900012    2    1    2    0    0 -0.73615546095E+00  0.54160957792E+00 -0.74611901741E+00  0.90008186716E+02  0.90000453979E+02 0.  0.
        -12    1    1    2    0    0  0.73615546095E+00 -0.54160957792E+00  0.74611901741E+00  0.11798132843E+01  0.00000000000E+00 0.  1.
         11    1    3    3    0    0  0.21459374739E+02  0.28241011327E+02 -0.13194679606E+02  0.37843877379E+02  0.51100000000E-03 0. -1.
        -11    1    3    3    0    0 -0.23319830173E+01  0.39653668712E+01 -0.82432343374E+01  0.94399783802E+01  0.51100000000E-03 0.  1.
        -12    1    3    3    0    0 -0.19863547182E+02 -0.31664768620E+02  0.20691794926E+02  0.42724330956E+02  0.00000000000E+00 0.  1.
</event>
<event>
 7    1  0.1716782E-015  0.9000772E+02  0.7816164E-02  0.1186339E+00
        -11   -1    0    0    0    0  0.00000000000E+00  0.00000000000E+00  0.45593999997E+02  0.45594000000E+02  0.51100000000E-03 0.  1.
         11   -1    0    0    0    0 -0.00000000000E+00 -0.00000000000E+00 -0.45593999997E+02  0.45594000000E+02  0.51100000000E-03 0. -1.
    9900012    2    1    2    0    0  0.71642919250E+00 -0.54323018221E+00  0.76465689211E+00  0.90007716144E+02  0.89999977197E+02 0.  0.
        -12    1    1    2    0    0 -0.71642919250E+00  0.54323018221E+00 -0.76465689211E+00  0.11802838563E+01  0.00000000000E+00 0.  1.
         11    1    3    3    0    0  0.10968869747E+02  0.21168831925E+02 -0.34551569321E+02  0.41979119708E+02  0.51100000000E-03 0. -1.
        -11    1    3    3    0    0 -0.21620545929E+01  0.44009322965E+01  0.79959915453E+01  0.93796890244E+01  0.51100000000E-03 0.  1.
        -12    1    3    3    0    0 -0.80903859620E+01 -0.26112994404E+02  0.27320234668E+02  0.38648907411E+02  0.00000000000E+00 0.  1.
</event>
<event>
 7    1  0.1716782E-015  0.9000760E+02  0.7816164E-02  0.1186339E+00
        -11   -1    0    0    0    0  0.00000000000E+00  0.00000000000E+00  0.45593999997E+02  0.45594000000E+02  0.51100000000E-03 0.  1.
         11   -1    0    0    0    0 -0.00000000000E+00 -0.00000000000E+00 -0.45593999997E+02  0.45594000000E+02  0.51100000000E-03 0. -1.
    9900012    2    1    2    0    0  0.54244569881E-01 -0.11105052284E+01  0.39645173604E+00  0.90007602476E+02  0.89999862029E+02 0.  0.
        -12    1    1    2    0    0 -0.54244569881E-01  0.11105052284E+01 -0.39645173604E+00  0.11803975240E+01  0.00000000000E+00 0.  1.
         11    1    3    3    0    0 -0.82762138824E+01  0.29880999023E+02 -0.26323616453E+02  0.40673118915E+02  0.51100000000E-03 0. -1.
        -11    1    3    3    0    0 -0.49474943035E+01 -0.67814955040E+01 -0.28612491204E+01  0.88686598731E+01  0.51100000000E-03 0.  1.
        -12    1    3    3    0    0  0.13277952756E+02 -0.24210008748E+02  0.29581317310E+02  0.40465823688E+02  0.00000000000E+00 0.  1.
</event>
<event>
 7    1  0.1716782E-015  0.9000775E+02  0.7816164E-02  0.1186339E+00
        -11   -1    0    0    0    0  0.00000000000E+00  0.00000000000E+00  0.45593999997E+02  0.45594000000E+02  0.51100000000E-03 0. -1.
         11   -1    0    0    0    0 -0.00000000000E+00 -0.00000000000E+00 -0.45593999997E+02  0.45594000000E+02  0.51100000000E-03 0.  1.
    9900012    2    1    2    0    0  0.33445344364E+00 -0.93360325124E+00  0.63992825308E+00  0.90007753286E+02  0.90000014829E+02 0.  0.
        -12    1    1    2    0    0 -0.33445344364E+00  0.93360325124E+00 -0.63992825308E+00  0.11802467140E+01  0.00000000000E+00 0.  1.
         11    1    3    3    0    0 -0.15742245849E+02 -0.90282894461E+01  0.35685295828E+02  0.40034593208E+02  0.51100000000E-03 0. -1.
        -11    1    3    3    0    0 -0.58193221787E+01  0.16899061089E+01  0.20729799864E+01  0.64044937006E+01  0.51100000000E-03 0.  1.
        -12    1    3    3    0    0  0.21896021471E+02  0.64047800860E+01 -0.37118347562E+02  0.43568666378E+02  0.00000000000E+00 0.  1.
</event>
<event>
 7    1  0.1716782E-015  0.9000768E+02  0.7816164E-02  0.1186339E+00
        -11   -1    0    0    0    0  0.00000000000E+00  0.00000000000E+00  0.45593999997E+02  0.45594000000E+02  0.51100000000E-03 0. -1.
         11   -1    0    0    0    0 -0.00000000000E+00 -0.00000000000E+00 -0.45593999997E+02  0.45594000000E+02  0.51100000000E-03 0.  1.
    9900012    2    1    2    0    0 -0.21897034321E+00 -0.86889244698E+00  0.76826134426E+00  0.90007683268E+02  0.89999943887E+02 0.  0.
        -12    1    1    2    0    0  0.21897034321E+00  0.86889244698E+00 -0.76826134426E+00  0.11803167324E+01  0.00000000000E+00 0.  1.
         11    1    3    3    0    0  0.25331363246E+02  0.15110328868E+02  0.25106784876E+02  0.38734360063E+02  0.51100000000E-03 0. -1.
        -11    1    3    3    0    0 -0.11907017576E+01  0.35718303837E+01  0.64157056716E+01  0.74388858367E+01  0.51100000000E-03 0.  1.
        -12    1    3    3    0    0 -0.24359631832E+02 -0.19551051699E+02 -0.30754229203E+02  0.43834437368E+02  0.00000000000E+00 0.  1.
</event>
<event>
 7    1  0.1716782E-015  0.9000761E+02  0.7816164E-02  0.1186339E+00
        -11   -1    0    0    0    0  0.00000000000E+00  0.00000000000E+00  0.45593999997E+02  0.45594000000E+02  0.51100000000E-03 0.  1.
         11   -1    0    0    0    0 -0.00000000000E+00 -0.00000000000E+00 -0.45593999997E+02  0.45594000000E+02  0.51100000000E-03 0. -1.
    9900012    2    1    2    0    0 -0.98078368628E+00  0.32443167087E+00 -0.57107335447E+00  0.90007611367E+02  0.89999871037E+02 0.  0.
        -12    1    1    2    0    0  0.98078368628E+00 -0.32443167087E+00  0.57107335447E+00  0.11803886328E+01  0.00000000000E+00 0.  1.
         11    1    3    3    0    0 -0.22532311705E+02  0.21753763532E+02 -0.14282081534E+02  0.34422509377E+02  0.51100000000E-03 0. -1.
        -11    1    3    3    0    0 -0.13831976334E+02 -0.49622734368E+01  0.19506418077E+01  0.14824059184E+02  0.51100000000E-03 0.  1.
        -12    1    3    3    0    0  0.35383504353E+02 -0.16467058425E+02  0.11760366372E+02  0.40761042806E+02  0.00000000000E+00 0.  1.
</event>
<event>
 7    1  0.1716782E-015  0.9000772E+02  0.7816164E-02  0.1186339E+00
        -11   -1    0    0    0    0  0.00000000000E+00  0.00000000000E+00  0.45593999997E+02  0.45594000000E+02  0.51100000000E-03 0.  1.
         11   -1    0    0    0    0 -0.00000000000E+00 -0.00000000000E+00 -0.45593999997E+02  0.45594000000E+02  0.51100000000E-03 0. -1.
    9900012    2    1    2    0    0  0.73146338243E+00 -0.75267440155E+00 -0.53991769258E+00  0.90007716750E+02  0.89999977811E+02 0.  0.
        -12    1    1    2    0    0 -0.73146338243E+00  0.75267440155E+00  0.53991769258E+00  0.11802832496E+01  0.00000000000E+00 0.  1.
         11    1    3    3    0    0 -0.35542076324E+02  0.15215571692E+02 -0.11380118799E+02  0.40302108077E+02  0.51100000000E-03 0. -1.
        -11    1    3    3    0    0  0.70228240780E+01  0.47719993955E+01 -0.56903550492E+01  0.10221163197E+02  0.51100000000E-03 0.  1.
        -12    1    3    3    0    0  0.29250715628E+02 -0.20740245489E+02  0.16530556155E+02  0.39484445476E+02  0.00000000000E+00 0.  1.
</event>
<event>
 7    1  0.1716782E-015  0.9000782E+02  0.7816164E-02  0.1186339E+00
        -11   -1    0    0    0    0  0.00000000000E+00  0.00000000000E+00  0.45593999997E+02  0.45594000000E+02  0.51100000000E-03 0. -1.
         11   -1    0    0    0    0 -0.00000000000E+00 -0.00000000000E+00 -0.45593999997E+02  0.45594000000E+02  0.51100000000E-03 0.  1.
    9900012    2    1    2    0    0 -0.69149853435E+00  0.28960557096E+00  0.91147058319E+00  0.90007821948E+02  0.90000084398E+02 0.  0.
        -12    1    1    2    0    0  0.69149853435E+00 -0.28960557096E+00 -0.91147058319E+00  0.11801780517E+01  0.00000000000E+00 0.  1.
         11    1    3    3    0    0  0.11056104335E+02  0.83812872855E+01  0.70084166323E+01  0.15543529959E+02  0.51100000000E-03 0. -1.
        -11    1    3    3    0    0  0.29712266286E+01 -0.16860684624E+02 -0.36077433422E+02  0.39933595834E+02  0.51100000000E-03 0.  1.
         12    1    3    3    0    0 -0.14718829498E+02  0.87690029092E+01  0.29980487373E+02  0.34530696155E+02  0.00000000000E+00 0. -1.
</event>
<event>
 7    1  0.1716782E-015  0.9000775E+02  0.7816164E-02  0.1186339E+00
        -11   -1    0    0    0    0  0.00000000000E+00  0.00000000000E+00  0.45593999997E+02  0.45594000000E+02  0.51100000000E-03 0.  1.
         11   -1    0    0    0    0 -0.00000000000E+00 -0.00000000000E+00 -0.45593999997E+02  0.45594000000E+02  0.51100000000E-03 0. -1.
    9900012    2    1    2    0    0 -0.31017732353E+00 -0.57220119114E+00 -0.98455885625E+00  0.90007754129E+02  0.90000015683E+02 0.  0.
        -12    1    1    2    0    0  0.31017732353E+00  0.57220119114E+00  0.98455885625E+00  0.11802458712E+01  0.00000000000E+00 0.  1.
         11    1    3    3    0    0  0.10332003590E+02 -0.26027546614E+02  0.21428319780E+02  0.35261258767E+02  0.51100000000E-03 0. -1.
        -11    1    3    3    0    0  0.70838902733E+01 -0.60210736251E+01  0.38721938367E+01  0.10071182372E+02  0.51100000000E-03 0.  1.
        -12    1    3    3    0    0 -0.17726071187E+02  0.31476419048E+02 -0.26285072473E+02  0.44675312990E+02  0.00000000000E+00 0.  1.
</event>
<event>
 7    1  0.1716782E-015  0.9000778E+02  0.7816164E-02  0.1186339E+00
        -11   -1    0    0    0    0  0.00000000000E+00  0.00000000000E+00  0.45593999997E+02  0.45594000000E+02  0.51100000000E-03 0.  1.
         11   -1    0    0    0    0 -0.00000000000E+00 -0.00000000000E+00 -0.45593999997E+02  0.45594000000E+02  0.51100000000E-03 0. -1.
    9900012    2    1    2    0    0  0.10387075608E+01 -0.11529977698E+00 -0.54837305303E+00  0.90007779495E+02  0.90000041384E+02 0.  0.
        -12    1    1    2    0    0 -0.10387075608E+01  0.11529977698E+00  0.54837305303E+00  0.11802205051E+01  0.00000000000E+00 0.  1.
         11    1    3    3    0    0  0.10535940999E+01 -0.66894912340E+01 -0.72806250976E+01  0.99431813606E+01  0.51100000000E-03 0. -1.
        -11    1    3    3    0    0  0.32284552777E+02 -0.18063115166E+02  0.12467349223E+02  0.39038484530E+02  0.51100000000E-03 0.  1.
         12    1    3    3    0    0 -0.32299439316E+02  0.24637306623E+02 -0.57350971787E+01  0.41026113604E+02  0.00000000000E+00 0. -1.
</event>
<event>
 7    1  0.1716782E-015  0.9000770E+02  0.7816164E-02  0.1186339E+00
        -11   -1    0    0    0    0  0.00000000000E+00  0.00000000000E+00  0.45593999997E+02  0.45594000000E+02  0.51100000000E-03 0. -1.
         11   -1    0    0    0    0 -0.00000000000E+00 -0.00000000000E+00 -0.45593999997E+02  0.45594000000E+02  0.51100000000E-03 0.  1.
    9900012    2    1    2    0    0  0.60411526996E+00 -0.10089737417E+01 -0.10065057266E+00  0.90007697577E+02  0.89999958385E+02 0.  0.
        -12    1    1    2    0    0 -0.60411526996E+00  0.10089737417E+01  0.10065057266E+00  0.11803024225E+01  0.00000000000E+00 0.  1.
         11    1    3    3    0    0 -0.88044820191E+00  0.17054328751E+02  0.34007979784E+02  0.38054802686E+02  0.51100000000E-03 0. -1.
        -11    1    3    3    0    0  0.79418149549E+01  0.63153574486E+01 -0.80594068114E+00  0.10178688772E+02  0.51100000000E-03 0.  1.
        -12    1    3    3    0    0 -0.64572514830E+01 -0.24378659941E+02 -0.33302689676E+02  0.41774206119E+02  0.00000000000E+00 0.  1.
</event>
<event>
 7    1  0.1716782E-015  0.9000733E+02  0.7816164E-02  0.1186340E+00
        -11   -1    0    0    0    0  0.00000000000E+00  0.00000000000E+00  0.45593999997E+02  0.45594000000E+02  0.51100000000E-03 0.  1.
         11   -1    0    0    0    0 -0.00000000000E+00 -0.00000000000E+00 -0.45593999997E+02  0.45594000000E+02  0.51100000000E-03 0. -1.
    9900012    2    1    2    0    0  0.75014395025E+00 -0.23550855998E+00 -0.88079927793E+00  0.90007327482E+02  0.89999583403E+02 0.  0.
        -12    1    1    2    0    0 -0.75014395025E+00  0.23550855998E+00  0.88079927793E+00  0.11806725185E+01  0.00000000000E+00 0.  1.
         11    1    3    3    0    0  0.27852026923E+01 -0.37573365597E+01 -0.85905368003E+01  0.97812194965E+01  0.51100000000E-03 0. -1.
        -11    1    3    3    0    0 -0.30994774479E+02 -0.20889125912E+02  0.17253062962E+02  0.41166731814E+02  0.51100000000E-03 0.  1.
         12    1    3    3    0    0  0.28959715737E+02  0.24410953912E+02 -0.95433254396E+01  0.39059376171E+02  0.00000000000E+00 0. -1.
</event>
<event>
 7    1  0.1716782E-015  0.9000772E+02  0.7816164E-02  0.1186339E+00
        -11   -1    0    0    0    0  0.00000000000E+00  0.00000000000E+00  0.45593999997E+02  0.45594000000E+02  0.51100000000E-03 0. -1.
         11   -1    0    0    0    0 -0.00000000000E+00 -0.00000000000E+00 -0.45593999997E+02  0.45594000000E+02  0.51100000000E-03 0.  1.
    9900012    2    1    2    0    0  0.69443231171E+00  0.97287422929E-01  0.94939905036E+00  0.90007720527E+02  0.89999981638E+02 0.  0.
        -12    1    1    2    0    0 -0.69443231171E+00 -0.97287422929E-01 -0.94939905036E+00  0.11802794733E+01  0.00000000000E+00 0.  1.
         11    1    3    3    0    0 -0.14143461609E+01 -0.61382513332E+01 -0.59384092828E+01  0.86569746196E+01  0.51100000000E-03 0. -1.
        -11    1    3    3    0    0 -0.79429875175E+01 -0.14260078382E+02 -0.32191038375E+02  0.36092988766E+02  0.51100000000E-03 0.  1.
         12    1    3    3    0    0  0.10051765990E+02  0.20495617138E+02  0.39078846708E+02  0.45257757141E+02  0.00000000000E+00 0. -1.
</event>
<event>
 7    1  0.1716782E-015  0.9000780E+02  0.7816164E-02  0.1186339E+00
        -11   -1    0    0    0    0  0.00000000000E+00  0.00000000000E+00  0.45593999997E+02  0.45594000000E+02  0.51100000000E-03 0. -1.
         11   -1    0    0    0    0 -0.00000000000E+00 -0.00000000000E+00 -0.45593999997E+02  0.45594000000E+02  0.51100000000E-03 0.  1.
    9900012    2    1    2    0    0 -0.14653606563E-01 -0.10854608290E+01 -0.46307852746E+00  0.90007795924E+02  0.90000058030E+02 0.  0.
        -12    1    1    2    0    0  0.14653606563E-01  0.10854608290E+01  0.46307852746E+00  0.11802040765E+01  0.00000000000E+00 0.  1.
         11    1    3    3    0    0  0.11487270430E+02  0.14542689209E+02  0.58131160522E+00  0.18541443169E+02  0.51100000000E-03 0. -1.
        -11    1    3    3    0    0  0.55117764588E+01  0.25848019746E+02 -0.29661512887E+01  0.26595072067E+02  0.51100000000E-03 0.  1.
        -12    1    3    3    0    0 -0.17013700496E+02 -0.41476169784E+02  0.19217611560E+01  0.44871280687E+02  0.00000000000E+00 0.  1.
</event>
<event>
 7    1  0.1716782E-015  0.9000779E+02  0.7816164E-02  0.1186339E+00
        -11   -1    0    0    0    0  0.00000000000E+00  0.00000000000E+00  0.45593999997E+02  0.45594000000E+02  0.51100000000E-03 0. -1.
         11   -1    0    0    0    0 -0.00000000000E+00 -0.00000000000E+00 -0.45593999997E+02  0.45594000000E+02  0.51100000000E-03 0.  1.
    9900012    2    1    2    0    0  0.64859656959E+00  0.96777916062E+00 -0.18874750447E+00  0.90007788310E+02  0.90000050315E+02 0.  0.
        -12    1    1    2    0    0 -0.64859656959E+00 -0.96777916062E+00  0.18874750447E+00  0.11802116904E+01  0.00000000000E+00 0.  1.
         11    1    3    3    0    0  0.27428654634E+02 -0.11502607644E+02 -0.22051215039E+02  0.37025628456E+02  0.51100000000E-03 0. -1.
        -11    1    3    3    0    0 -0.18997619285E+00 -0.51774195404E+01 -0.78319361999E+01  0.93904733082E+01  0.51100000000E-03 0.  1.
        -12    1    3    3    0    0 -0.26590081871E+02  0.17647806345E+02  0.29694403735E+02  0.43591686545E+02  0.00000000000E+00 0.  1.
</event>
<event>
 7    1  0.1716782E-015  0.9000771E+02  0.7816164E-02  0.1186339E+00
        -11   -1    0    0    0    0  0.00000000000E+00  0.00000000000E+00  0.45593999997E+02  0.45594000000E+02  0.51100000000E-03 0. -1.
         11   -1    0    0    0    0 -0.00000000000E+00 -0.00000000000E+00 -0.45593999997E+02  0.45594000000E+02  0.51100000000E-03 0.  1.
    9900012    2    1    2    0    0  0.11640594971E+01  0.80693835065E-01 -0.17759614125E+00  0.90007709190E+02  0.89999970151E+02 0.  0.
        -12    1    1    2    0    0 -0.11640594971E+01 -0.80693835065E-01  0.17759614125E+00  0.11802908104E+01  0.00000000000E+00 0.  1.
         11    1    3    3    0    0  0.39582589170E+02  0.65381701637E+01 -0.68899757817E+01  0.40706274713E+02  0.51100000000E-03 0. -1.
        -11    1    3    3    0    0 -0.62263186198E+00 -0.29201690726E+01  0.10721274602E+02  0.11129276131E+02  0.51100000000E-03 0.  1.
        -12    1    3    3    0    0 -0.37795897811E+02 -0.35373072560E+01 -0.40088949613E+01  0.38172158346E+02  0.00000000000E+00 0.  1.
</event>
<event>
 7    1  0.1716782E-015  0.9000777E+02  0.7816164E-02  0.1186339E+00
        -11   -1    0    0    0    0  0.00000000000E+00  0.00000000000E+00  0.45593999997E+02  0.45594000000E+02  0.51100000000E-03 0.  1.
         11   -1    0    0    0    0 -0.00000000000E+00 -0.00000000000E+00 -0.45593999997E+02  0.45594000000E+02  0.51100000000E-03 0. -1.
    9900012    2    1    2    0    0  0.94417188419E+00 -0.69058767144E+00 -0.15675799096E+00  0.90007769113E+02  0.90000030865E+02 0.  0.
        -12    1    1    2    0    0 -0.94417188419E+00  0.69058767144E+00  0.15675799096E+00  0.11802308870E+01  0.00000000000E+00 0.  1.
         11    1    3    3    0    0  0.30188771427E+02  0.18149499329E+02  0.54634063259E+01  0.35645687749E+02  0.51100000000E-03 0. -1.
        -11    1    3    3    0    0  0.24824483906E+00 -0.24393894296E+01  0.14744661022E+02  0.14947149401E+02  0.51100000000E-03 0.  1.
        -12    1    3    3    0    0 -0.29492844382E+02 -0.16400697571E+02 -0.20364825339E+02  0.39414931963E+02  0.00000000000E+00 0.  1.
</event>
<event>
 7    1  0.1716782E-015  0.9000777E+02  0.7816164E-02  0.1186339E+00
        -11   -1    0    0    0    0  0.00000000000E+00  0.00000000000E+00  0.45593999997E+02  0.45594000000E+02  0.51100000000E-03 0.  1.
         11   -1    0    0    0    0 -0.00000000000E+00 -0.00000000000E+00 -0.45593999997E+02  0.45594000000E+02  0.51100000000E-03 0. -1.
    9900012    2    1    2    0    0 -0.37335442990E+00  0.17651347979E+00 -0.11056207483E+01  0.90007767913E+02  0.90000029650E+02 0.  0.
        -12    1    1    2    0    0  0.37335442990E+00 -0.17651347979E+00  0.11056207483E+01  0.11802320865E+01  0.00000000000E+00 0.  1.
         11    1    3    3    0    0  0.24952586481E+01 -0.96294418905E+01 -0.14279355456E+02  0.17402656675E+02  0.51100000000E-03 0. -1.
        -11    1    3    3    0    0 -0.13696185467E+02 -0.30984709764E+01  0.39179686581E+02  0.41620113643E+02  0.51100000000E-03 0.  1.
         12    1    3    3    0    0  0.10827572389E+02  0.12904426347E+02 -0.26005951874E+02  0.30984997596E+02  0.00000000000E+00 0. -1.
</event>
<event>
 7    1  0.1716782E-015  0.9000700E+02  0.7816164E-02  0.1186341E+00
        -11   -1    0    0    0    0  0.00000000000E+00  0.00000000000E+00  0.45593999997E+02  0.45594000000E+02  0.51100000000E-03 0.  1.
         11   -1    0    0    0    0 -0.00000000000E+00 -0.00000000000E+00 -0.45593999997E+02  0.45594000000E+02  0.51100000000E-03 0. -1.
    9900012    2    1    2    0    0 -0.74896369485E+00  0.87790562621E+00 -0.25119369725E+00  0.90006999078E+02  0.89999250662E+02 0.  0.
        -12    1    1    2    0    0  0.74896369485E+00 -0.87790562621E+00  0.25119369725E+00  0.11810009222E+01  0.00000000000E+00 0.  1.
         11    1    3    3    0    0 -0.36065048502E+01 -0.10763725417E+01  0.78060369012E+01  0.86660064301E+01  0.51100000000E-03 0. -1.
        -11    1    3    3    0    0  0.20807628234E+02 -0.26000601235E+02  0.19136909633E+02  0.38408462190E+02  0.51100000000E-03 0.  1.
         12    1    3    3    0    0 -0.17950087079E+02  0.27954879403E+02 -0.27194140231E+02  0.42932530457E+02  0.00000000000E+00 0. -1.
</event>
<event>
 7    1  0.1716782E-015  0.9000773E+02  0.7816164E-02  0.1186339E+00
        -11   -1    0    0    0    0  0.00000000000E+00  0.00000000000E+00  0.45593999997E+02  0.45594000000E+02  0.51100000000E-03 0. -1.
         11   -1    0    0    0    0 -0.00000000000E+00 -0.00000000000E+00 -0.45593999997E+02  0.45594000000E+02  0.51100000000E-03 0.  1.
    9900012    2    1    2    0    0 -0.24988110838E+00  0.20564931358E+00  0.11350314031E+01  0.90007733719E+02  0.89999995004E+02 0.  0.
        -12    1    1    2    0    0  0.24988110838E+00 -0.20564931358E+00 -0.11350314031E+01  0.11802662812E+01  0.00000000000E+00 0.  1.
         11    1    3    3    0    0  0.13248706023E+02  0.20814940006E+02  0.21057140588E+02  0.32437526242E+02  0.51100000000E-03 0. -1.
        -11    1    3    3    0    0  0.13121939491E+02  0.52949917703E+01  0.22261805454E+01  0.14324039721E+02  0.51100000000E-03 0.  1.
        -12    1    3    3    0    0 -0.26620526622E+02 -0.25904282462E+02 -0.22148289730E+02  0.43246167755E+02  0.00000000000E+00 0.  1.
</event>
<event>
 7    1  0.1716782E-015  0.9000762E+02  0.7816164E-02  0.1186339E+00
        -11   -1    0    0    0    0  0.00000000000E+00  0.00000000000E+00  0.45593999997E+02  0.45594000000E+02  0.51100000000E-03 0. -1.
         11   -1    0    0    0    0 -0.00000000000E+00 -0.00000000000E+00 -0.45593999997E+02  0.45594000000E+02  0.51100000000E-03 0.  1.
    9900012    2    1    2    0    0  0.63697988041E+00 -0.96900761490E+00  0.22038526505E+00  0.90007623454E+02  0.89999883283E+02 0.  0.
        -12    1    1    2    0    0 -0.63697988041E+00  0.96900761490E+00 -0.22038526505E+00  0.11803765462E+01  0.00000000000E+00 0.  1.
         11    1    3    3    0    0  0.26332196580E+01  0.97895000132E+01  0.91874184446E+00  0.10179009928E+02  0.51100000000E-03 0. -1.
        -11    1    3    3    0    0  0.39026504713E+01  0.24953280270E+02 -0.25547145023E+02  0.35924274467E+02  0.51100000000E-03 0.  1.
         12    1    3    3    0    0 -0.58988902488E+01 -0.35711787898E+02  0.24848788443E+02  0.43904339058E+02  0.00000000000E+00 0. -1.
</event>
<event>
 7    1  0.1716782E-015  0.9000774E+02  0.7816164E-02  0.1186339E+00
        -11   -1    0    0    0    0  0.00000000000E+00  0.00000000000E+00  0.45593999997E+02  0.45594000000E+02  0.51100000000E-03 0.  1.
         11   -1    0    0    0    0 -0.00000000000E+00 -0.00000000000E+00 -0.45593999997E+02  0.45594000000E+02  0.51100000000E-03 0. -1.
    9900012    2    1    2    0    0 -0.28120556730E+00 -0.11263538569E-01 -0.11462201519E+01  0.90007735591E+02  0.89999996901E+02 0.  0.
        -12    1    1    2    0    0  0.28120556730E+00  0.11263538569E-01  0.11462201519E+01  0.11802644089E+01  0.00000000000E+00 0.  1.
         11    1    3    3    0    0 -0.18141959521E+02 -0.27406534842E+02  0.20877019491E+02  0.38937113278E+02  0.51100000000E-03 0. -1.
        -11    1    3    3    0    0  0.31363893393E+01 -0.73745621800E+01 -0.61909246349E+01  0.10126630907E+02  0.51100000000E-03 0.  1.
        -12    1    3    3    0    0  0.14724364615E+02  0.34769833483E+02 -0.15832315008E+02  0.40943991406E+02  0.00000000000E+00 0.  1.
</event>
<event>
 7    1  0.1716782E-015  0.9000755E+02  0.7816164E-02  0.1186339E+00
        -11   -1    0    0    0    0  0.00000000000E+00  0.00000000000E+00  0.45593999997E+02  0.45594000000E+02  0.51100000000E-03 0. -1.
         11   -1    0    0    0    0 -0.00000000000E+00 -0.00000000000E+00 -0.45593999997E+02  0.45594000000E+02  0.51100000000E-03 0.  1.
    9900012    2    1    2    0    0 -0.11543242471E+00 -0.26597434416E+00  0.11442878811E+01  0.90007550191E+02  0.89999809053E+02 0.  0.
        -12    1    1    2    0    0  0.11543242471E+00  0.26597434416E+00 -0.11442878811E+01  0.11804498089E+01  0.00000000000E+00 0.  1.
         11    1    3    3    0    0  0.40976872229E+01  0.86489468979E+01 -0.35918895837E+01  0.10222377124E+02  0.51100000000E-03 0. -1.
        -11    1    3    3    0    0 -0.39626186469E+02 -0.17299867602E+02  0.18178751064E+01  0.43276145200E+02  0.51100000000E-03 0.  1.
         12    1    3    3    0    0  0.35413066822E+02  0.83849463604E+01  0.29183023585E+01  0.36509027868E+02  0.00000000000E+00 0. -1.
</event>
<event>
 7    1  0.1716782E-015  0.9000775E+02  0.7816164E-02  0.1186339E+00
        -11   -1    0    0    0    0  0.00000000000E+00  0.00000000000E+00  0.45593999997E+02  0.45594000000E+02  0.51100000000E-03 0.  1.
         11   -1    0    0    0    0 -0.00000000000E+00 -0.00000000000E+00 -0.45593999997E+02  0.45594000000E+02  0.51100000000E-03 0. -1.
    9900012    2    1    2    0    0 -0.10169587693E+01  0.52129348190E+00 -0.29501799016E+00  0.90007751023E+02  0.90000012537E+02 0.  0.
        -12    1    1    2    0    0  0.10169587693E+01 -0.52129348190E+00  0.29501799016E+00  0.11802489768E+01  0.00000000000E+00 0.  1.
         11    1    3    3    0    0 -0.46446335188E+01  0.22361359983E+01 -0.10420927913E+02  0.11626205897E+02  0.51100000000E-03 0. -1.
        -11    1    3    3    0    0  0.41222481747E+00  0.36967093317E+02  0.13644697718E+02  0.39407025943E+02  0.51100000000E-03 0.  1.
         12    1    3    3    0    0  0.32154499320E+01 -0.38681935833E+02 -0.35187877953E+01  0.38974519184E+02  0.00000000000E+00 0. -1.
</event>
<event>
 7    1  0.1716782E-015  0.9000767E+02  0.7816164E-02  0.1186339E+00
        -11   -1    0    0    0    0  0.00000000000E+00  0.00000000000E+00  0.45593999997E+02  0.45594000000E+02  0.51100000000E-03 0.  1.
         11   -1    0    0    0    0 -0.00000000000E+00 -0.00000000000E+00 -0.45593999997E+02  0.45594000000E+02  0.51100000000E-03 0. -1.
    9900012    2    1    2    0    0 -0.99742099583E+00  0.81662064889E-01 -0.62582170697E+00  0.90007673713E+02  0.89999934206E+02 0.  0.
        -12    1    1    2    0    0  0.99742099583E+00 -0.81662064889E-01  0.62582170697E+00  0.11803262874E+01  0.00000000000E+00 0.  1.
         11    1    3    3    0    0  0.76389654835E+01  0.19563044311E+01 -0.69379020262E+01  0.10503114085E+02  0.51100000000E-03 0. -1.
        -11    1    3    3    0    0  0.28100169128E+02 -0.98035533342E+01  0.23747592336E+02  0.38074628101E+02  0.51100000000E-03 0.  1.
         12    1    3    3    0    0 -0.36736555607E+02  0.79289109680E+01 -0.17435512017E+02  0.41429931527E+02  0.00000000000E+00 0. -1.
</event>
<event>
 7    1  0.1716782E-015  0.9000775E+02  0.7816164E-02  0.1186339E+00
        -11   -1    0    0    0    0  0.00000000000E+00  0.00000000000E+00  0.45593999997E+02  0.45594000000E+02  0.51100000000E-03 0.  1.
         11   -1    0    0    0    0 -0.00000000000E+00 -0.00000000000E+00 -0.45593999997E+02  0.45594000000E+02  0.51100000000E-03 0. -1.
    9900012    2    1    2    0    0 -0.35353425402E+00 -0.36878756586E+00  0.10639541327E+01  0.90007750393E+02  0.90000011899E+02 0.  0.
        -12    1    1    2    0    0  0.35353425402E+00  0.36878756586E+00 -0.10639541327E+01  0.11802496067E+01  0.00000000000E+00 0.  1.
         11    1    3    3    0    0  0.21265679924E+01  0.40405544548E+02 -0.55428491816E+01  0.40839362127E+02  0.51100000000E-03 0. -1.
        -11    1    3    3    0    0 -0.20371443800E+01 -0.69095902935E+01 -0.92898228865E+01  0.11755560589E+02  0.51100000000E-03 0.  1.
        -12    1    3    3    0    0 -0.44295786633E+00 -0.33864741820E+02  0.15896626201E+02  0.37412827677E+02  0.00000000000E+00 0.  1.
</event>
<event>
 7    1  0.1716782E-015  0.9000760E+02  0.7816164E-02  0.1186339E+00
        -11   -1    0    0    0    0  0.00000000000E+00  0.00000000000E+00  0.45593999997E+02  0.45594000000E+02  0.51100000000E-03 0.  1.
         11   -1    0    0    0    0 -0.00000000000E+00 -0.00000000000E+00 -0.45593999997E+02  0.45594000000E+02  0.51100000000E-03 0. -1.
    9900012    2    1    2    0    0 -0.57215166290E+00 -0.16524448838E+00 -0.10191522813E+01  0.90007604033E+02  0.89999863606E+02 0.  0.
        -12    1    1    2    0    0  0.57215166290E+00  0.16524448838E+00  0.10191522813E+01  0.11803959670E+01  0.00000000000E+00 0.  1.
         11    1    3    3    0    0 -0.19007104387E+02 -0.35853991901E+02 -0.38570911543E+01  0.40763413803E+02  0.51100000000E-03 0. -1.
        -11    1    3    3    0    0  0.80608089650E+01  0.33402522673E+01 -0.96871883626E+01  0.13037466971E+02  0.51100000000E-03 0.  1.
        -12    1    3    3    0    0  0.10374143760E+02  0.32348495145E+02  0.12525127236E+02  0.36206723259E+02  0.00000000000E+00 0.  1.
</event>
<event>
 7    1  0.1716782E-015  0.9000776E+02  0.7816164E-02  0.1186339E+00
        -11   -1    0    0    0    0  0.00000000000E+00  0.00000000000E+00  0.45593999997E+02  0.45594000000E+02  0.51100000000E-03 0.  1.
         11   -1    0    0    0    0 -0.00000000000E+00 -0.00000000000E+00 -0.45593999997E+02  0.45594000000E+02  0.51100000000E-03 0. -1.
    9900012    2    1    2    0    0 -0.30418294280E+00  0.35560151569E+00 -0.10835053732E+01  0.90007761213E+02  0.90000022861E+02 0.  0.
        -12    1    1    2    0    0  0.30418294280E+00 -0.35560151569E+00  0.10835053732E+01  0.11802387870E+01  0.00000000000E+00 0.  1.
         11    1    3    3    0    0 -0.93139566854E+01 -0.32456797210E+01 -0.33209055765E+00  0.98688657093E+01  0.51100000000E-03 0. -1.
        -11    1    3    3    0    0  0.20670034728E+02 -0.25312582556E+02  0.23823109652E+02  0.40441534653E+02  0.51100000000E-03 0.  1.
         12    1    3    3    0    0 -0.11660260986E+02  0.28913863793E+02 -0.24574524468E+02  0.39697360851E+02  0.00000000000E+00 0. -1.
</event>
<event>
 7    1  0.1716782E-015  0.9000772E+02  0.7816164E-02  0.1186339E+00
        -11   -1    0    0    0    0  0.00000000000E+00  0.00000000000E+00  0.45593999997E+02  0.45594000000E+02  0.51100000000E-03 0.  1.
         11   -1    0    0    0    0 -0.00000000000E+00 -0.00000000000E+00 -0.45593999997E+02  0.45594000000E+02  0.51100000000E-03 0. -1.
    9900012    2    1    2    0    0  0.54654116599E+00  0.10256953933E+01  0.20569126950E+00  0.90007717329E+02  0.89999978397E+02 0.  0.
        -12    1    1    2    0    0 -0.54654116599E+00 -0.10256953933E+01 -0.20569126950E+00  0.11802826714E+01  0.00000000000E+00 0.  1.
         11    1    3    3    0    0 -0.20202612474E+01 -0.17660658475E+02 -0.31235363394E+02  0.35939229818E+02  0.51100000000E-03 0. -1.
        -11    1    3    3    0    0  0.14874564940E+01 -0.88455744084E+01 -0.34496700581E+01  0.96102516724E+01  0.51100000000E-03 0.  1.
        -12    1    3    3    0    0  0.10793459193E+01  0.27531928277E+02  0.34890724721E+02  0.44458235838E+02  0.00000000000E+00 0.  1.
</event>
<event>
 7    1  0.1716782E-015  0.9000777E+02  0.7816164E-02  0.1186339E+00
        -11   -1    0    0    0    0  0.00000000000E+00  0.00000000000E+00  0.45593999997E+02  0.45594000000E+02  0.51100000000E-03 0. -1.
         11   -1    0    0    0    0 -0.00000000000E+00 -0.00000000000E+00 -0.45593999997E+02  0.45594000000E+02  0.51100000000E-03 0.  1.
    9900012    2    1    2    0    0  0.91636340970E+00 -0.74210784166E+00  0.49885112834E-01  0.90007773551E+02  0.90000035362E+02 0.  0.
        -12    1    1    2    0    0 -0.91636340970E+00  0.74210784166E+00 -0.49885112834E-01  0.11802264494E+01  0.00000000000E+00 0.  1.
         11    1    3    3    0    0  0.67657312669E+01 -0.69713695927E+01 -0.13631488210E+01  0.98098567035E+01  0.51100000000E-03 0. -1.
        -11    1    3    3    0    0 -0.15428481561E+02  0.28305764366E+01 -0.37145783898E+02  0.40321947720E+02  0.51100000000E-03 0.  1.
         12    1    3    3    0    0  0.95791137039E+01  0.33986853145E+01  0.38558817832E+02  0.39875969127E+02  0.00000000000E+00 0. -1.
</event>
<event>
 7    1  0.1716782E-015  0.9000863E+02  0.7816164E-02  0.1186337E+00
        -11   -1    0    0    0    0  0.00000000000E+00  0.00000000000E+00  0.45593999997E+02  0.45594000000E+02  0.51100000000E-03 0. -1.
         11   -1    0    0    0    0 -0.00000000000E+00 -0.00000000000E+00 -0.45593999997E+02  0.45594000000E+02  0.51100000000E-03 0.  1.
    9900012    2    1    2    0    0  0.94108962812E+00  0.26140259877E+00  0.66101249240E+00  0.90008627912E+02  0.90000900996E+02 0.  0.
        -12    1    1    2    0    0 -0.94108962812E+00 -0.26140259877E+00 -0.66101249240E+00  0.11793720880E+01  0.00000000000E+00 0.  1.
         11    1    3    3    0    0  0.93756907255E+01 -0.64513083383E+00 -0.24073591908E+01  0.97012962489E+01  0.51100000000E-03 0. -1.
        -11    1    3    3    0    0  0.30534199669E+02  0.44749777433E+00 -0.18561138645E+02  0.35735884930E+02  0.51100000000E-03 0.  1.
         12    1    3    3    0    0 -0.38968800766E+02  0.45903565827E+00  0.21629510328E+02  0.44571446733E+02  0.00000000000E+00 0. -1.
</event>
<event>
 7    1  0.1716782E-015  0.9000760E+02  0.7816164E-02  0.1186339E+00
        -11   -1    0    0    0    0  0.00000000000E+00  0.00000000000E+00  0.45593999997E+02  0.45594000000E+02  0.51100000000E-03 0.  1.
         11   -1    0    0    0    0 -0.00000000000E+00 -0.00000000000E+00 -0.45593999997E+02  0.45594000000E+02  0.51100000000E-03 0. -1.
    9900012    2    1    2    0    0  0.83642492923E+00 -0.34020286245E+00 -0.76025916089E+00  0.90007602338E+02  0.89999861888E+02 0.  0.
        -12    1    1    2    0    0 -0.83642492923E+00  0.34020286245E+00  0.76025916089E+00  0.11803976625E+01  0.00000000000E+00 0.  1.
         11    1    3    3    0    0 -0.62511568108E+01 -0.29265307638E+01 -0.76303852556E+01  0.10289038983E+02  0.51100000000E-03 0. -1.
        -11    1    3    3    0    0 -0.26825640646E+02 -0.14646386148E+02  0.23149658244E+02  0.38341078497E+02  0.51100000000E-03 0.  1.
         12    1    3    3    0    0  0.33913222386E+02  0.17232714050E+02 -0.16279532149E+02  0.41377484857E+02  0.00000000000E+00 0. -1.
</event>
<event>
 7    1  0.1716782E-015  0.9000775E+02  0.7816164E-02  0.1186339E+00
        -11   -1    0    0    0    0  0.00000000000E+00  0.00000000000E+00  0.45593999997E+02  0.45594000000E+02  0.51100000000E-03 0.  1.
         11   -1    0    0    0    0 -0.00000000000E+00 -0.00000000000E+00 -0.45593999997E+02  0.45594000000E+02  0.51100000000E-03 0. -1.
    9900012    2    1    2    0    0 -0.20439798657E+00 -0.11451186774E+01  0.19979902350E+00  0.90007747920E+02  0.90000009393E+02 0.  0.
        -12    1    1    2    0    0  0.20439798657E+00  0.11451186774E+01 -0.19979902350E+00  0.11802520799E+01  0.00000000000E+00 0.  1.
         11    1    3    3    0    0 -0.14518725275E+02 -0.27222185293E+02 -0.21471739622E+02  0.37588247609E+02  0.51100000000E-03 0. -1.
        -11    1    3    3    0    0  0.13044795063E+00 -0.15802834062E+01 -0.87705933537E+01  0.89127784864E+01  0.51100000000E-03 0.  1.
        -12    1    3    3    0    0  0.14183879338E+02  0.27657350021E+02  0.30442131999E+02  0.43506721824E+02  0.00000000000E+00 0.  1.
</event>
<event>
 7    1  0.1716782E-015  0.9000775E+02  0.7816164E-02  0.1186339E+00
        -11   -1    0    0    0    0  0.00000000000E+00  0.00000000000E+00  0.45593999997E+02  0.45594000000E+02  0.51100000000E-03 0.  1.
         11   -1    0    0    0    0 -0.00000000000E+00 -0.00000000000E+00 -0.45593999997E+02  0.45594000000E+02  0.51100000000E-03 0. -1.
    9900012    2    1    2    0    0  0.11661972483E+01 -0.69158634822E-01  0.16793452637E+00  0.90007745390E+02  0.90000006829E+02 0.  0.
        -12    1    1    2    0    0 -0.11661972483E+01  0.69158634822E-01 -0.16793452637E+00  0.11802546097E+01  0.00000000000E+00 0.  1.
         11    1    3    3    0    0 -0.75803101405E+01  0.63134748249E+01  0.11121450426E+01  0.99276348164E+01  0.51100000000E-03 0. -1.
        -11    1    3    3    0    0 -0.23954961326E+02  0.24661817265E+02  0.44521174999E+01  0.34667949945E+02  0.51100000000E-03 0.  1.
         12    1    3    3    0    0  0.32701468715E+02 -0.31044450724E+02 -0.53963280161E+01  0.45412160628E+02  0.00000000000E+00 0. -1.
</event>
<event>
 7    1  0.1716782E-015  0.9000771E+02  0.7816164E-02  0.1186339E+00
        -11   -1    0    0    0    0  0.00000000000E+00  0.00000000000E+00  0.45593999997E+02  0.45594000000E+02  0.51100000000E-03 0.  1.
         11   -1    0    0    0    0 -0.00000000000E+00 -0.00000000000E+00 -0.45593999997E+02  0.45594000000E+02  0.51100000000E-03 0. -1.
    9900012    2    1    2    0    0 -0.61389895504E+00  0.40530165330E+00 -0.92300550087E+00  0.90007711683E+02  0.89999972677E+02 0.  0.
        -12    1    1    2    0    0  0.61389895504E+00 -0.40530165330E+00  0.92300550087E+00  0.11802883172E+01  0.00000000000E+00 0.  1.
         11    1    3    3    0    0  0.25916168529E+02 -0.29199817875E+02  0.63542309281E+00  0.39047162739E+02  0.51100000000E-03 0. -1.
        -11    1    3    3    0    0 -0.67553481828E+01  0.38876605499E+01 -0.14155560761E+02  0.16159471970E+02  0.51100000000E-03 0.  1.
        -12    1    3    3    0    0 -0.19774719301E+02  0.25717458979E+02  0.12597132167E+02  0.34801076975E+02  0.00000000000E+00 0.  1.
</event>
<event>
 7    1  0.1716782E-015  0.9000772E+02  0.7816164E-02  0.1186339E+00
        -11   -1    0    0    0    0  0.00000000000E+00  0.00000000000E+00  0.45593999997E+02  0.45594000000E+02  0.51100000000E-03 0.  1.
         11   -1    0    0    0    0 -0.00000000000E+00 -0.00000000000E+00 -0.45593999997E+02  0.45594000000E+02  0.51100000000E-03 0. -1.
    9900012    2    1    2    0    0  0.31366234577E+00 -0.11092838348E+01  0.25329909914E+00  0.90007722436E+02  0.89999983573E+02 0.  0.
        -12    1    1    2    0    0 -0.31366234577E+00  0.11092838348E+01 -0.25329909914E+00  0.11802775635E+01  0.00000000000E+00 0.  1.
         11    1    3    3    0    0 -0.30765356853E+02 -0.14418901318E+02  0.16393398277E+02  0.37724732005E+02  0.51100000000E-03 0. -1.
        -11    1    3    3    0    0 -0.35097263363E+01  0.40556465794E+01  0.76149430773E+01  0.93141723446E+01  0.51100000000E-03 0.  1.
        -12    1    3    3    0    0  0.34588745535E+02  0.92539709042E+01 -0.23755042255E+02  0.42968818087E+02  0.00000000000E+00 0.  1.
</event>
<event>
 7    1  0.1716782E-015  0.9000783E+02  0.7816164E-02  0.1186339E+00
        -11   -1    0    0    0    0  0.00000000000E+00  0.00000000000E+00  0.45593999997E+02  0.45594000000E+02  0.51100000000E-03 0. -1.
         11   -1    0    0    0    0 -0.00000000000E+00 -0.00000000000E+00 -0.45593999997E+02  0.45594000000E+02  0.51100000000E-03 0.  1.
    9900012    2    1    2    0    0  0.98996983716E+00  0.75188655800E-01  0.63805209994E+00  0.90007828786E+02  0.90000091326E+02 0.  0.
        -12    1    1    2    0    0 -0.98996983716E+00 -0.75188655800E-01 -0.63805209994E+00  0.11801712141E+01  0.00000000000E+00 0.  1.
         11    1    3    3    0    0 -0.64368098155E+01  0.55090052505E+01 -0.33234336668E+01  0.91009269335E+01  0.51100000000E-03 0. -1.
        -11    1    3    3    0    0 -0.29136980508E+02 -0.77519856597E+01 -0.20851087353E+02  0.36658215435E+02  0.51100000000E-03 0.  1.
         12    1    3    3    0    0  0.36563760161E+02  0.23181690651E+01  0.24812573119E+02  0.44248686418E+02  0.00000000000E+00 0. -1.
</event>
<event>
 7    1  0.1716782E-015  0.9000771E+02  0.7816164E-02  0.1186339E+00
        -11   -1    0    0    0    0  0.00000000000E+00  0.00000000000E+00  0.45593999997E+02  0.45594000000E+02  0.51100000000E-03 0. -1.
         11   -1    0    0    0    0 -0.00000000000E+00 -0.00000000000E+00 -0.45593999997E+02  0.45594000000E+02  0.51100000000E-03 0.  1.
    9900012    2    1    2    0    0  0.35436596089E+00  0.64626125694E+00  0.92187372292E+00  0.90007711896E+02  0.89999972893E+02 0.  0.
        -12    1    1    2    0    0 -0.35436596089E+00 -0.64626125694E+00 -0.92187372292E+00  0.11802881036E+01  0.00000000000E+00 0.  1.
         11    1    3    3    0    0 -0.18654601491E+02 -0.35214403858E+02 -0.13063183014E+01  0.39871730131E+02  0.51100000000E-03 0. -1.
        -11    1    3    3    0    0 -0.31270208888E+01  0.34656301526E+01  0.91711527611E+01  0.10290718888E+02  0.51100000000E-03 0.  1.
        -12    1    3    3    0    0  0.22135988341E+02  0.32395034962E+02 -0.69429607368E+01  0.39845262878E+02  0.00000000000E+00 0.  1.
</event>
<event>
 7    1  0.1716782E-015  0.9000778E+02  0.7816164E-02  0.1186339E+00
        -11   -1    0    0    0    0  0.00000000000E+00  0.00000000000E+00  0.45593999997E+02  0.45594000000E+02  0.51100000000E-03 0. -1.
         11   -1    0    0    0    0 -0.00000000000E+00 -0.00000000000E+00 -0.45593999997E+02  0.45594000000E+02  0.51100000000E-03 0.  1.
    9900012    2    1    2    0    0 -0.61520535051E+00 -0.57243144206E+00  0.82871315738E+00  0.90007779310E+02  0.90000041197E+02 0.  0.
        -12    1    1    2    0    0  0.61520535051E+00  0.57243144206E+00 -0.82871315738E+00  0.11802206897E+01  0.00000000000E+00 0.  1.
         11    1    3    3    0    0  0.10210360958E+02 -0.64273959720E+01 -0.86029178288E+01  0.14817998694E+02  0.51100000000E-03 0. -1.
        -11    1    3    3    0    0  0.77147927413E+01  0.17151770717E+02 -0.26925632392E+02  0.32843430785E+02  0.51100000000E-03 0.  1.
         12    1    3    3    0    0 -0.18540359050E+02 -0.11296806187E+02  0.36357263378E+02  0.42346349831E+02  0.00000000000E+00 0. -1.
</event>
<event>
 7    1  0.1919239E-015  0.9000772E+02  0.7816164E-02  0.1186339E+00
        -11   -1    0    0    0    0  0.00000000000E+00  0.00000000000E+00  0.45593999997E+02  0.45594000000E+02  0.51100000000E-03 0. -1.
         11   -1    0    0    0    0 -0.00000000000E+00 -0.00000000000E+00 -0.45593999997E+02  0.45594000000E+02  0.51100000000E-03 0.  1.
    9900012    2    1    2    0    0 -0.90874071208E+00 -0.74815701148E+00  0.86649467591E-01  0.90007721759E+02  0.89999982886E+02 0.  0.
        -12    1    1    2    0    0  0.90874071208E+00  0.74815701148E+00 -0.86649467591E-01  0.11802782409E+01  0.00000000000E+00 0.  1.
         11    1    3    3    0    0 -0.16404882821E+02 -0.15835286265E+02  0.37223709473E+02  0.43651815754E+02  0.51100000000E-03 0. -1.
        -11    1    3    3    0    0  0.80544331173E+01  0.33091624226E+01 -0.25578969941E+01  0.90756424606E+01  0.51100000000E-03 0.  1.
        -12    1    3    3    0    0  0.74417089921E+01  0.11777966831E+02 -0.34579163011E+02  0.37280263544E+02  0.00000000000E+00 0.  1.
</event>
<event>
 7    1  0.1716782E-015  0.9000773E+02  0.7816164E-02  0.1186339E+00
        -11   -1    0    0    0    0  0.00000000000E+00  0.00000000000E+00  0.45593999997E+02  0.45594000000E+02  0.51100000000E-03 0.  1.
         11   -1    0    0    0    0 -0.00000000000E+00 -0.00000000000E+00 -0.45593999997E+02  0.45594000000E+02  0.51100000000E-03 0. -1.
    9900012    2    1    2    0    0  0.10707229573E+00 -0.80391298471E+00 -0.85749866342E+00  0.90007726929E+02  0.89999988125E+02 0.  0.
        -12    1    1    2    0    0 -0.10707229573E+00  0.80391298471E+00  0.85749866342E+00  0.11802730706E+01  0.00000000000E+00 0.  1.
         11    1    3    3    0    0 -0.19632506392E+02 -0.31124554633E+02  0.23232456797E+01  0.36872356571E+02  0.51100000000E-03 0. -1.
        -11    1    3    3    0    0 -0.11529372220E+00 -0.88516252482E+01  0.14679062239E+01  0.89732553246E+01  0.51100000000E-03 0.  1.
        -12    1    3    3    0    0  0.19854872410E+02  0.39172266896E+02 -0.46486505671E+01  0.44162115034E+02  0.00000000000E+00 0.  1.
</event>
<event>
 7    1  0.1716782E-015  0.9000770E+02  0.7816164E-02  0.1186339E+00
        -11   -1    0    0    0    0  0.00000000000E+00  0.00000000000E+00  0.45593999997E+02  0.45594000000E+02  0.51100000000E-03 0. -1.
         11   -1    0    0    0    0 -0.00000000000E+00 -0.00000000000E+00 -0.45593999997E+02  0.45594000000E+02  0.51100000000E-03 0.  1.
    9900012    2    1    2    0    0 -0.78206415177E+00 -0.45252952692E+00  0.75941177810E+00  0.90007697683E+02  0.89999958493E+02 0.  0.
        -12    1    1    2    0    0  0.78206415177E+00  0.45252952692E+00 -0.75941177810E+00  0.11803023168E+01  0.00000000000E+00 0.  1.
         11    1    3    3    0    0  0.13019801982E+02  0.83578403027E+01  0.36764461753E+02  0.39887270982E+02  0.51100000000E-03 0. -1.
        -11    1    3    3    0    0  0.96217528475E+01  0.29844208449E+00 -0.82556142603E+01  0.12681575715E+02  0.51100000000E-03 0.  1.
        -12    1    3    3    0    0 -0.23423618981E+02 -0.91088119141E+01 -0.27749435715E+02  0.37438850986E+02  0.00000000000E+00 0.  1.
</event>
<event>
 7    1  0.1716782E-015  0.9000772E+02  0.7816164E-02  0.1186339E+00
        -11   -1    0    0    0    0  0.00000000000E+00  0.00000000000E+00  0.45593999997E+02  0.45594000000E+02  0.51100000000E-03 0.  1.
         11   -1    0    0    0    0 -0.00000000000E+00 -0.00000000000E+00 -0.45593999997E+02  0.45594000000E+02  0.51100000000E-03 0. -1.
    9900012    2    1    2    0    0 -0.23697250484E+00 -0.10513238381E+01 -0.48128282113E+00  0.90007715740E+02  0.89999976788E+02 0.  0.
        -12    1    1    2    0    0  0.23697250484E+00  0.10513238381E+01  0.48128282113E+00  0.11802842601E+01  0.00000000000E+00 0.  1.
         11    1    3    3    0    0  0.24850447438E+02 -0.12667983444E+02 -0.32947774349E+02  0.43169183189E+02  0.51100000000E-03 0. -1.
        -11    1    3    3    0    0  0.82584300757E+00  0.74722346340E+01  0.71572945515E+01  0.10379940879E+02  0.51100000000E-03 0.  1.
        -12    1    3    3    0    0 -0.25913262950E+02  0.41444249722E+01  0.25309196976E+02  0.36458591672E+02  0.00000000000E+00 0.  1.
</event>
<event>
 7    1  0.1716782E-015  0.9000760E+02  0.7816164E-02  0.1186339E+00
        -11   -1    0    0    0    0  0.00000000000E+00  0.00000000000E+00  0.45593999997E+02  0.45594000000E+02  0.51100000000E-03 0.  1.
         11   -1    0    0    0    0 -0.00000000000E+00 -0.00000000000E+00 -0.45593999997E+02  0.45594000000E+02  0.51100000000E-03 0. -1.
    9900012    2    1    2    0    0  0.15790832794E+00  0.10793149727E+00 -0.11647998309E+01  0.90007600536E+02  0.89999860063E+02 0.  0.
        -12    1    1    2    0    0 -0.15790832794E+00 -0.10793149727E+00  0.11647998309E+01  0.11803994639E+01  0.00000000000E+00 0.  1.
         11    1    3    3    0    0  0.33526229012E+02  0.63662082947E+00 -0.16177998417E+02  0.37230913914E+02  0.51100000000E-03 0. -1.
        -11    1    3    3    0    0  0.71039203346E+01  0.39145386553E+01  0.81288546104E+01  0.11483360769E+02  0.51100000000E-03 0.  1.
        -12    1    3    3    0    0 -0.40472241019E+02 -0.44432279875E+01  0.68843439761E+01  0.41293325853E+02  0.00000000000E+00 0.  1.
</event>
<event>
 7    1  0.1716782E-015  0.9000778E+02  0.7816164E-02  0.1186339E+00
        -11   -1    0    0    0    0  0.00000000000E+00  0.00000000000E+00  0.45593999997E+02  0.45594000000E+02  0.51100000000E-03 0. -1.
         11   -1    0    0    0    0 -0.00000000000E+00 -0.00000000000E+00 -0.45593999997E+02  0.45594000000E+02  0.51100000000E-03 0.  1.
    9900012    2    1    2    0    0 -0.81469280253E+00  0.26780986380E+00  0.81084497644E+00  0.90007781350E+02  0.90000043264E+02 0.  0.
        -12    1    1    2    0    0  0.81469280253E+00 -0.26780986380E+00 -0.81084497644E+00  0.11802186499E+01  0.00000000000E+00 0.  1.
         11    1    3    3    0    0  0.34303552077E+02 -0.26249816753E+01  0.33752342314E+01  0.34569009535E+02  0.51100000000E-03 0. -1.
        -11    1    3    3    0    0  0.95110138705E+01  0.49549742945E+00  0.38781140787E+01  0.10283222822E+02  0.51100000000E-03 0.  1.
        -12    1    3    3    0    0 -0.44629258750E+02  0.23972941096E+01 -0.64425033336E+01  0.45155548992E+02  0.00000000000E+00 0.  1.
</event>
<event>
 7    1  0.1716782E-015  0.9000768E+02  0.7816164E-02  0.1186339E+00
        -11   -1    0    0    0    0  0.00000000000E+00  0.00000000000E+00  0.45593999997E+02  0.45594000000E+02  0.51100000000E-03 0. -1.
         11   -1    0    0    0    0 -0.00000000000E+00 -0.00000000000E+00 -0.45593999997E+02  0.45594000000E+02  0.51100000000E-03 0.  1.
    9900012    2    1    2    0    0  0.24569919839E+00  0.11784292991E+00  0.11484297202E+01  0.90007683994E+02  0.89999944622E+02 0.  0.
        -12    1    1    2    0    0 -0.24569919839E+00 -0.11784292991E+00 -0.11484297202E+01  0.11803160062E+01  0.00000000000E+00 0.  1.
         11    1    3    3    0    0 -0.20168461415E+02  0.14385468370E+02  0.32735955259E+02  0.41053030376E+02  0.51100000000E-03 0. -1.
        -11    1    3    3    0    0  0.76843070993E+01 -0.75151087589E+01  0.32711198090E+01  0.11235019373E+02  0.51100000000E-03 0.  1.
        -12    1    3    3    0    0  0.12729853514E+02 -0.67525166809E+01 -0.34858645348E+02  0.37719634244E+02  0.00000000000E+00 0.  1.
</event>
<event>
 7    1  0.1716782E-015  0.9000770E+02  0.7816164E-02  0.1186339E+00
        -11   -1    0    0    0    0  0.00000000000E+00  0.00000000000E+00  0.45593999997E+02  0.45594000000E+02  0.51100000000E-03 0. -1.
         11   -1    0    0    0    0 -0.00000000000E+00 -0.00000000000E+00 -0.45593999997E+02  0.45594000000E+02  0.51100000000E-03 0.  1.
    9900012    2    1    2    0    0 -0.82455813623E+00 -0.82558859303E+00 -0.17781123651E+00  0.90007699411E+02  0.89999960243E+02 0.  0.
        -12    1    1    2    0    0  0.82455813623E+00  0.82558859303E+00  0.17781123651E+00  0.11803005892E+01  0.00000000000E+00 0.  1.
         11    1    3    3    0    0 -0.10166897700E+02 -0.27421514398E+02  0.23867860222E+02  0.37748907435E+02  0.51100000000E-03 0. -1.
        -11    1    3    3    0    0  0.31049060606E+01 -0.92770283863E+01 -0.31482151407E+01  0.10276913747E+02  0.51100000000E-03 0.  1.
        -12    1    3    3    0    0  0.62374335033E+01  0.35872954191E+02 -0.20897456318E+02  0.41981878229E+02  0.00000000000E+00 0.  1.
</event>
<event>
 7    1  0.1716782E-015  0.9000762E+02  0.7816164E-02  0.1186339E+00
        -11   -1    0    0    0    0  0.00000000000E+00  0.00000000000E+00  0.45593999997E+02  0.45594000000E+02  0.51100000000E-03 0.  1.
         11   -1    0    0    0    0 -0.00000000000E+00 -0.00000000000E+00 -0.45593999997E+02  0.45594000000E+02  0.51100000000E-03 0. -1.
    9900012    2    1    2    0    0 -0.11984169701E+00  0.39740323009E+00  0.11049878110E+01  0.90007623186E+02  0.89999883012E+02 0.  0.
        -12    1    1    2    0    0  0.11984169701E+00 -0.39740323009E+00 -0.11049878110E+01  0.11803768136E+01  0.00000000000E+00 0.  1.
         11    1    3    3    0    0  0.43648506994E+01 -0.78085308601E+01  0.19586155890E+01  0.91575788890E+01  0.51100000000E-03 0. -1.
        -11    1    3    3    0    0 -0.35239572668E+02 -0.47043061053E+01 -0.21571497230E+02  0.41584702365E+02  0.51100000000E-03 0.  1.
         12    1    3    3    0    0  0.30754880272E+02  0.12910240195E+02  0.20717869452E+02  0.39265341932E+02  0.00000000000E+00 0. -1.
</event>
<event>
 7    1  0.1716782E-015  0.9000770E+02  0.7816164E-02  0.1186339E+00
        -11   -1    0    0    0    0  0.00000000000E+00  0.00000000000E+00  0.45593999997E+02  0.45594000000E+02  0.51100000000E-03 0.  1.
         11   -1    0    0    0    0 -0.00000000000E+00 -0.00000000000E+00 -0.45593999997E+02  0.45594000000E+02  0.51100000000E-03 0. -1.
    9900012    2    1    2    0    0 -0.66464021783E+00 -0.40016535159E+00 -0.88950598950E+00  0.90007703498E+02  0.89999964384E+02 0.  0.
        -12    1    1    2    0    0  0.66464021783E+00  0.40016535159E+00  0.88950598950E+00  0.11802965022E+01  0.00000000000E+00 0.  1.
         11    1    3    3    0    0 -0.16440541367E+01 -0.34449145633E+02  0.65606623427E+01  0.35106820413E+02  0.51100000000E-03 0. -1.
        -11    1    3    3    0    0  0.60058884042E+01 -0.75733635169E+01 -0.86325584288E+01  0.12959459702E+02  0.51100000000E-03 0.  1.
        -12    1    3    3    0    0 -0.50264744854E+01  0.41622343799E+02  0.11823900966E+01  0.41941423383E+02  0.00000000000E+00 0.  1.
</event>
<event>
 7    1  0.1729718E-015  0.9000776E+02  0.7816164E-02  0.1186339E+00
        -11   -1    0    0    0    0  0.00000000000E+00  0.00000000000E+00  0.45593999997E+02  0.45594000000E+02  0.51100000000E-03 0. -1.
         11   -1    0    0    0    0 -0.00000000000E+00 -0.00000000000E+00 -0.45593999997E+02  0.45594000000E+02  0.51100000000E-03 0.  1.
    9900012    2    1    2    0    0  0.64869748886E+00  0.28948368002E+00  0.94252935038E+00  0.90007758156E+02  0.90000019764E+02 0.  0.
        -12    1    1    2    0    0 -0.64869748886E+00 -0.28948368002E+00 -0.94252935038E+00  0.11802418436E+01  0.00000000000E+00 0.  1.
         11    1    3    3    0    0 -0.34544524583E+02 -0.41592751924E+01  0.83970493806E+01  0.35792934881E+02  0.51100000000E-03 0. -1.
        -11    1    3    3    0    0 -0.70871391661E+01 -0.52186631142E+01  0.35156726852E+01  0.94774437983E+01  0.51100000000E-03 0.  1.
        -12    1    3    3    0    0  0.42280361238E+02  0.96674219866E+01 -0.10970192715E+02  0.44737379477E+02  0.00000000000E+00 0.  1.
</event>
<event>
 7    1  0.1716782E-015  0.9000771E+02  0.7816164E-02  0.1186339E+00
        -11   -1    0    0    0    0  0.00000000000E+00  0.00000000000E+00  0.45593999997E+02  0.45594000000E+02  0.51100000000E-03 0.  1.
         11   -1    0    0    0    0 -0.00000000000E+00 -0.00000000000E+00 -0.45593999997E+02  0.45594000000E+02  0.51100000000E-03 0. -1.
    9900012    2    1    2    0    0  0.69172632747E+00 -0.22898192909E+00 -0.92852627856E+00  0.90007712287E+02  0.89999973289E+02 0.  0.
        -12    1    1    2    0    0 -0.69172632747E+00  0.22898192909E+00  0.92852627856E+00  0.11802877132E+01  0.00000000000E+00 0.  1.
         11    1    3    3    0    0 -0.16946232321E+02  0.21732451091E+01 -0.11523767927E+02  0.20608129747E+02  0.51100000000E-03 0. -1.
        -11    1    3    3    0    0  0.38766629780E+02  0.37305246574E+01 -0.89612840527E+01  0.39963395887E+02  0.51100000000E-03 0.  1.
         12    1    3    3    0    0 -0.21128671132E+02 -0.61327516955E+01  0.19556525701E+02  0.29436186653E+02  0.00000000000E+00 0. -1.
</event>
<event>
 7    1  0.1716782E-015  0.9000773E+02  0.7816164E-02  0.1186339E+00
        -11   -1    0    0    0    0  0.00000000000E+00  0.00000000000E+00  0.45593999997E+02  0.45594000000E+02  0.51100000000E-03 0. -1.
         11   -1    0    0    0    0 -0.00000000000E+00 -0.00000000000E+00 -0.45593999997E+02  0.45594000000E+02  0.51100000000E-03 0.  1.
    9900012    2    1    2    0    0 -0.11732795037E+01  0.95865392642E-01  0.85167735938E-01  0.90007733712E+02  0.89999994997E+02 0.  0.
        -12    1    1    2    0    0  0.11732795037E+01 -0.95865392642E-01 -0.85167735938E-01  0.11802662880E+01  0.00000000000E+00 0.  1.
         11    1    3    3    0    0 -0.22152552677E+02  0.17101685730E+02  0.22926177662E+02  0.36177518812E+02  0.51100000000E-03 0. -1.
        -11    1    3    3    0    0 -0.46128989541E+01  0.68201494524E+01  0.45551034675E+01  0.94096887926E+01  0.51100000000E-03 0.  1.
        -12    1    3    3    0    0  0.25592172127E+02 -0.23825969789E+02 -0.27396113394E+02  0.44420526108E+02  0.00000000000E+00 0.  1.
</event>
<event>
 7    1  0.1716782E-015  0.9000771E+02  0.7816164E-02  0.1186339E+00
        -11   -1    0    0    0    0  0.00000000000E+00  0.00000000000E+00  0.45593999997E+02  0.45594000000E+02  0.51100000000E-03 0.  1.
         11   -1    0    0    0    0 -0.00000000000E+00 -0.00000000000E+00 -0.45593999997E+02  0.45594000000E+02  0.51100000000E-03 0. -1.
    9900012    2    1    2    0    0  0.62094124907E+00  0.69838059682E+00  0.72095292411E+00  0.90007713335E+02  0.89999974351E+02 0.  0.
        -12    1    1    2    0    0 -0.62094124907E+00 -0.69838059682E+00 -0.72095292411E+00  0.11802866650E+01  0.00000000000E+00 0.  1.
         11    1    3    3    0    0  0.75579969398E+01  0.37200112703E+01  0.81426087502E+00  0.84631449608E+01  0.51100000000E-03 0. -1.
        -11    1    3    3    0    0  0.16420778919E+02  0.17904519851E+02  0.29643478665E+02  0.38326878806E+02  0.51100000000E-03 0.  1.
         12    1    3    3    0    0 -0.23357834609E+02 -0.20926150524E+02 -0.29736786616E+02  0.43217689568E+02  0.00000000000E+00 0. -1.
</event>
<event>
 7    1  0.1716782E-015  0.9000773E+02  0.7816164E-02  0.1186339E+00
        -11   -1    0    0    0    0  0.00000000000E+00  0.00000000000E+00  0.45593999997E+02  0.45594000000E+02  0.51100000000E-03 0.  1.
         11   -1    0    0    0    0 -0.00000000000E+00 -0.00000000000E+00 -0.45593999997E+02  0.45594000000E+02  0.51100000000E-03 0. -1.
    9900012    2    1    2    0    0 -0.49367219702E+00 -0.10067104132E+01 -0.36859809157E+00  0.90007727723E+02  0.89999988929E+02 0.  0.
        -12    1    1    2    0    0  0.49367219702E+00  0.10067104132E+01  0.36859809157E+00  0.11802722767E+01  0.00000000000E+00 0.  1.
         11    1    3    3    0    0 -0.34003993991E+02 -0.18593300408E+02 -0.72210735744E+01  0.39422408998E+02  0.51100000000E-03 0. -1.
        -11    1    3    3    0    0  0.31114253611E+01 -0.70879906101E+01  0.83732753640E+01  0.11403171456E+02  0.51100000000E-03 0.  1.
        -12    1    3    3    0    0  0.30398896433E+02  0.24674580605E+02 -0.15207998812E+01  0.39182147269E+02  0.00000000000E+00 0.  1.
</event>
<event>
 7    1  0.1716782E-015  0.9000771E+02  0.7816164E-02  0.1186339E+00
        -11   -1    0    0    0    0  0.00000000000E+00  0.00000000000E+00  0.45593999997E+02  0.45594000000E+02  0.51100000000E-03 0.  1.
         11   -1    0    0    0    0 -0.00000000000E+00 -0.00000000000E+00 -0.45593999997E+02  0.45594000000E+02  0.51100000000E-03 0. -1.
    9900012    2    1    2    0    0  0.95582257809E+00  0.17797640948E+00 -0.66919143593E+00  0.90007707841E+02  0.89999968784E+02 0.  0.
        -12    1    1    2    0    0 -0.95582257809E+00 -0.17797640948E+00  0.66919143593E+00  0.11802921592E+01  0.00000000000E+00 0.  1.
         11    1    3    3    0    0  0.20136297032E+01  0.87033699689E+01 -0.39984971591E+01  0.97873046949E+01  0.51100000000E-03 0. -1.
        -11    1    3    3    0    0 -0.34062903114E+02 -0.61409420373E+01  0.23156566481E+02  0.41643956453E+02  0.51100000000E-03 0.  1.
         12    1    3    3    0    0  0.33005095989E+02 -0.23844515222E+01 -0.19827260758E+02  0.38576446693E+02  0.00000000000E+00 0. -1.
</event>
<event>
 7    1  0.1716782E-015  0.9000806E+02  0.7816164E-02  0.1186338E+00
        -11   -1    0    0    0    0  0.00000000000E+00  0.00000000000E+00  0.45593999997E+02  0.45594000000E+02  0.51100000000E-03 0.  1.
         11   -1    0    0    0    0 -0.00000000000E+00 -0.00000000000E+00 -0.45593999997E+02  0.45594000000E+02  0.51100000000E-03 0. -1.
    9900012    2    1    2    0    0 -0.29511171133E+00  0.11408451811E+01 -0.60415182561E-01  0.90008055661E+02  0.90000321195E+02 0.  0.
        -12    1    1    2    0    0  0.29511171133E+00 -0.11408451811E+01  0.60415182561E-01  0.11799443393E+01  0.00000000000E+00 0.  1.
         11    1    3    3    0    0  0.96809927514E+01  0.11517413290E+02 -0.11859036698E+01  0.15092342340E+02  0.51100000000E-03 0. -1.
        -11    1    3    3    0    0  0.14062438583E+02 -0.94089725730E+01  0.31746738382E+02  0.35974106548E+02  0.51100000000E-03 0.  1.
         12    1    3    3    0    0 -0.24038543046E+02 -0.96759553569E+00 -0.30621249895E+02  0.38941606772E+02  0.00000000000E+00 0. -1.
</event>
<event>
 7    1  0.1716782E-015  0.9000679E+02  0.7816164E-02  0.1186341E+00
        -11   -1    0    0    0    0  0.00000000000E+00  0.00000000000E+00  0.45593999997E+02  0.45594000000E+02  0.51100000000E-03 0. -1.
         11   -1    0    0    0    0 -0.00000000000E+00 -0.00000000000E+00 -0.45593999997E+02  0.45594000000E+02  0.51100000000E-03 0.  1.
    9900012    2    1    2    0    0  0.11603818807E+01 -0.19793769914E+00  0.97981571868E-01  0.90006786289E+02  0.89999035063E+02 0.  0.
        -12    1    1    2    0    0 -0.11603818807E+01  0.19793769914E+00 -0.97981571868E-01  0.11812137107E+01  0.00000000000E+00 0.  1.
         11    1    3    3    0    0 -0.61422850291E+01 -0.20336641787E+01 -0.93216408640E+01  0.11347089672E+02  0.51100000000E-03 0. -1.
        -11    1    3    3    0    0 -0.20284933151E+02 -0.11355578086E+02  0.32774448355E+02  0.40181987655E+02  0.51100000000E-03 0.  1.
         12    1    3    3    0    0  0.27587600061E+02  0.13191304566E+02 -0.23354825920E+02  0.38477708963E+02  0.00000000000E+00 0. -1.
</event>
<event>
 7    1  0.1716782E-015  0.9000772E+02  0.7816164E-02  0.1186339E+00
        -11   -1    0    0    0    0  0.00000000000E+00  0.00000000000E+00  0.45593999997E+02  0.45594000000E+02  0.51100000000E-03 0. -1.
         11   -1    0    0    0    0 -0.00000000000E+00 -0.00000000000E+00 -0.45593999997E+02  0.45594000000E+02  0.51100000000E-03 0.  1.
    9900012    2    1    2    0    0  0.22031307088E+00 -0.10748609893E+01  0.43496861647E+00  0.90007719655E+02  0.89999980754E+02 0.  0.
        -12    1    1    2    0    0 -0.22031307088E+00  0.10748609893E+01 -0.43496861647E+00  0.11802803450E+01  0.00000000000E+00 0.  1.
         11    1    3    3    0    0  0.35965571732E+02  0.17032763077E+02  0.77346595781E+01  0.40539638961E+02  0.51100000000E-03 0. -1.
        -11    1    3    3    0    0  0.82947783390E+00 -0.99632032571E+01  0.32981629787E+01  0.10527646077E+02  0.51100000000E-03 0.  1.
        -12    1    3    3    0    0 -0.36574736495E+02 -0.81444208090E+01 -0.10597853940E+02  0.38940434617E+02  0.00000000000E+00 0.  1.
</event>
<event>
 7    1  0.1716782E-015  0.9000773E+02  0.7816164E-02  0.1186339E+00
        -11   -1    0    0    0    0  0.00000000000E+00  0.00000000000E+00  0.45593999997E+02  0.45594000000E+02  0.51100000000E-03 0.  1.
         11   -1    0    0    0    0 -0.00000000000E+00 -0.00000000000E+00 -0.45593999997E+02  0.45594000000E+02  0.51100000000E-03 0. -1.
    9900012    2    1    2    0    0 -0.84163632250E+00 -0.23036393078E+00 -0.79474999169E+00  0.90007725969E+02  0.89999987151E+02 0.  0.
        -12    1    1    2    0    0  0.84163632250E+00  0.23036393078E+00  0.79474999169E+00  0.11802740314E+01  0.00000000000E+00 0.  1.
         11    1    3    3    0    0 -0.18314085907E+02  0.12142675948E+02  0.35015573211E+02  0.41339335860E+02  0.51100000000E-03 0. -1.
        -11    1    3    3    0    0  0.89697373153E+01 -0.61536687067E+01  0.47174835981E+00  0.10887900295E+02  0.51100000000E-03 0.  1.
        -12    1    3    3    0    0  0.85027122689E+01 -0.62193711720E+01 -0.36282071563E+02  0.37780489814E+02  0.00000000000E+00 0.  1.
</event>
<event>
 8    1  0.1716782E-015  0.9000784E+02  0.7816164E-02  0.1186339E+00
        -11   -1    0    0    0    0  0.00000000000E+00  0.00000000000E+00  0.45593999997E+02  0.45594000000E+02  0.51100000000E-03 0. -1.
         11   -1    0    0    0    0 -0.00000000000E+00 -0.00000000000E+00 -0.45593999997E+02  0.45594000000E+02  0.51100000000E-03 0.  1.
    9900012    2    1    2    0    0 -0.86018354895E+00  0.22530898580E+00  0.77595628536E+00  0.90007835590E+02  0.90000098220E+02 0.  0.
         23    2    3    3    0    0 -0.57766488360E+01 -0.19163096736E+02 -0.10816762474E+02  0.66889162713E+02  0.62901222482E+02 0.  0.
        -12    1    1    2    0    0  0.86018354895E+00 -0.22530898580E+00 -0.77595628536E+00  0.11801644096E+01  0.00000000000E+00 0.  1.
         11    1    4    4    0    0  0.17572001744E+02 -0.20728398324E+02  0.15811511910E+02  0.31439555524E+02  0.51100000000E-03 0. -1.
        -11    1    4    4    0    0 -0.23348650580E+02  0.15653015879E+01 -0.26628274384E+02  0.35449607189E+02  0.51100000000E-03 0.  1.
         12    1    3    3    0    0  0.49164652870E+01  0.19388405722E+02  0.11592718759E+02  0.23118672877E+02  0.00000000000E+00 0. -1.
</event>
<event>
 7    1  0.1716782E-015  0.9000776E+02  0.7816164E-02  0.1186339E+00
        -11   -1    0    0    0    0  0.00000000000E+00  0.00000000000E+00  0.45593999997E+02  0.45594000000E+02  0.51100000000E-03 0.  1.
         11   -1    0    0    0    0 -0.00000000000E+00 -0.00000000000E+00 -0.45593999997E+02  0.45594000000E+02  0.51100000000E-03 0. -1.
    9900012    2    1    2    0    0  0.37647625095E+00 -0.89927649521E+00 -0.66523136616E+00  0.90007760468E+02  0.90000022106E+02 0.  0.
        -12    1    1    2    0    0 -0.37647625095E+00  0.89927649521E+00  0.66523136616E+00  0.11802395320E+01  0.00000000000E+00 0.  1.
         11    1    3    3    0    0  0.17132398570E+02  0.19747700588E+02 -0.31725657145E+02  0.41109707866E+02  0.51100000000E-03 0. -1.
        -11    1    3    3    0    0 -0.86072691157E+01  0.33317011532E+01  0.54956231852E+00  0.92459360374E+01  0.51100000000E-03 0.  1.
        -12    1    3    3    0    0 -0.81486532033E+01 -0.23978678236E+02  0.30510863460E+02  0.39652116565E+02  0.00000000000E+00 0.  1.
</event>
<event>
 7    1  0.1716782E-015  0.9000781E+02  0.7816164E-02  0.1186339E+00
        -11   -1    0    0    0    0  0.00000000000E+00  0.00000000000E+00  0.45593999997E+02  0.45594000000E+02  0.51100000000E-03 0. -1.
         11   -1    0    0    0    0 -0.00000000000E+00 -0.00000000000E+00 -0.45593999997E+02  0.45594000000E+02  0.51100000000E-03 0.  1.
    9900012    2    1    2    0    0  0.45376873854E+00  0.34952422930E-01  0.10889114286E+01  0.90007806864E+02  0.90000069114E+02 0.  0.
        -12    1    1    2    0    0 -0.45376873854E+00 -0.34952422930E-01 -0.10889114286E+01  0.11801931364E+01  0.00000000000E+00 0.  1.
         11    1    3    3    0    0  0.54222665244E+01  0.23351288551E+01 -0.55504181261E+01  0.81031439989E+01  0.51100000000E-03 0. -1.
        -11    1    3    3    0    0  0.15235243401E+02  0.80095402798E+01 -0.32437833430E+02  0.36721634153E+02  0.51100000000E-03 0.  1.
         12    1    3    3    0    0 -0.20203741187E+02 -0.10309716712E+02  0.39077162985E+02  0.45183028712E+02  0.00000000000E+00 0. -1.
</event>
<event>
 7    1  0.1716782E-015  0.9000772E+02  0.7816164E-02  0.1186339E+00
        -11   -1    0    0    0    0  0.00000000000E+00  0.00000000000E+00  0.45593999997E+02  0.45594000000E+02  0.51100000000E-03 0. -1.
         11   -1    0    0    0    0 -0.00000000000E+00 -0.00000000000E+00 -0.45593999997E+02  0.45594000000E+02  0.51100000000E-03 0.  1.
    9900012    2    1    2    0    0 -0.11123539896E+00  0.21011910677E+00  0.11560837959E+01  0.90007723297E+02  0.89999984444E+02 0.  0.
        -12    1    1    2    0    0  0.11123539896E+00 -0.21011910677E+00 -0.11560837959E+01  0.11802767032E+01  0.00000000000E+00 0.  1.
         11    1    3    3    0    0  0.55502420639E+01 -0.64279153615E+01 -0.54938654328E+01  0.10114634967E+02  0.51100000000E-03 0. -1.
        -11    1    3    3    0    0 -0.38238098656E+02  0.39950989971E+01 -0.14358328617E+02  0.41039914787E+02  0.51100000000E-03 0.  1.
         12    1    3    3    0    0  0.32576621193E+02  0.26429354712E+01  0.21008277846E+02  0.38853173542E+02  0.00000000000E+00 0. -1.
</event>
<event>
 7    1  0.1716782E-015  0.9000774E+02  0.7816164E-02  0.1186339E+00
        -11   -1    0    0    0    0  0.00000000000E+00  0.00000000000E+00  0.45593999997E+02  0.45594000000E+02  0.51100000000E-03 0.  1.
         11   -1    0    0    0    0 -0.00000000000E+00 -0.00000000000E+00 -0.45593999997E+02  0.45594000000E+02  0.51100000000E-03 0. -1.
    9900012    2    1    2    0    0 -0.11543830350E+01 -0.22687879977E+00 -0.94490881831E-01  0.90007744643E+02  0.90000006072E+02 0.  0.
        -12    1    1    2    0    0  0.11543830350E+01  0.22687879977E+00  0.94490881831E-01  0.11802553571E+01  0.00000000000E+00 0.  1.
         11    1    3    3    0    0  0.38102282204E+01 -0.94816389606E+01  0.45508592075E+01  0.11186135895E+02  0.51100000000E-03 0. -1.
        -11    1    3    3    0    0 -0.88395186396E+01  0.49956425420E+01  0.36187407757E+02  0.37584864169E+02  0.51100000000E-03 0.  1.
         12    1    3    3    0    0  0.38749073842E+01  0.42591176188E+01 -0.40832757846E+02  0.41236744579E+02  0.00000000000E+00 0. -1.
</event>
<event>
 7    1  0.1716782E-015  0.9000802E+02  0.7816164E-02  0.1186338E+00
        -11   -1    0    0    0    0  0.00000000000E+00  0.00000000000E+00  0.45593999997E+02  0.45594000000E+02  0.51100000000E-03 0. -1.
         11   -1    0    0    0    0 -0.00000000000E+00 -0.00000000000E+00 -0.45593999997E+02  0.45594000000E+02  0.51100000000E-03 0.  1.
    9900012    2    1    2    0    0 -0.75449724208E+00 -0.90510151140E+00 -0.62275071184E-01  0.90008019907E+02  0.90000284970E+02 0.  0.
        -12    1    1    2    0    0  0.75449724208E+00  0.90510151140E+00  0.62275071184E-01  0.11799800925E+01  0.00000000000E+00 0.  1.
         11    1    3    3    0    0 -0.37130378219E+01  0.79839416069E+01  0.33556840400E+01  0.94228758395E+01  0.51100000000E-03 0. -1.
        -11    1    3    3    0    0  0.23248051437E+02  0.86540448066E+01 -0.32589677952E+02  0.40956702704E+02  0.51100000000E-03 0.  1.
         12    1    3    3    0    0 -0.20289510857E+02 -0.17543087925E+02  0.29171718841E+02  0.39628441364E+02  0.00000000000E+00 0. -1.
</event>
<event>
 7    1  0.1716782E-015  0.9000772E+02  0.7816164E-02  0.1186339E+00
        -11   -1    0    0    0    0  0.00000000000E+00  0.00000000000E+00  0.45593999997E+02  0.45594000000E+02  0.51100000000E-03 0. -1.
         11   -1    0    0    0    0 -0.00000000000E+00 -0.00000000000E+00 -0.45593999997E+02  0.45594000000E+02  0.51100000000E-03 0.  1.
    9900012    2    1    2    0    0  0.18431510511E-01  0.14198243960E+00  0.11715619497E+01  0.90007722009E+02  0.89999983140E+02 0.  0.
        -12    1    1    2    0    0 -0.18431510511E-01 -0.14198243960E+00 -0.11715619497E+01  0.11802779908E+01  0.00000000000E+00 0.  1.
         11    1    3    3    0    0 -0.34679821607E+02  0.45591649740E+01 -0.26715946746E+01  0.35080100204E+02  0.51100000000E-03 0. -1.
        -11    1    3    3    0    0 -0.99563835500E+01 -0.56855306374E+00  0.63876756427E+00  0.99930400902E+01  0.51100000000E-03 0.  1.
        -12    1    3    3    0    0  0.44654636667E+02 -0.38486294707E+01  0.32043890600E+01  0.44934581715E+02  0.00000000000E+00 0.  1.
</event>
<event>
 7    1  0.1716782E-015  0.9000761E+02  0.7816164E-02  0.1186339E+00
        -11   -1    0    0    0    0  0.00000000000E+00  0.00000000000E+00  0.45593999997E+02  0.45594000000E+02  0.51100000000E-03 0.  1.
         11   -1    0    0    0    0 -0.00000000000E+00 -0.00000000000E+00 -0.45593999997E+02  0.45594000000E+02  0.51100000000E-03 0. -1.
    9900012    2    1    2    0    0  0.65362439726E+00  0.10111836524E+00 -0.97768741466E+00  0.90007609193E+02  0.89999868834E+02 0.  0.
        -12    1    1    2    0    0 -0.65362439726E+00 -0.10111836524E+00  0.97768741466E+00  0.11803908070E+01  0.00000000000E+00 0.  1.
         11    1    3    3    0    0  0.86931013050E+01 -0.36113958595E+01 -0.41907961440E+01  0.10304123589E+02  0.51100000000E-03 0. -1.
        -11    1    3    3    0    0  0.25814770593E+02  0.13539740074E+02  0.24881131829E+02  0.38324896131E+02  0.51100000000E-03 0.  1.
         12    1    3    3    0    0 -0.33854247501E+02 -0.98272258494E+01 -0.21668023100E+02  0.41378589474E+02  0.00000000000E+00 0. -1.
</event>
<event>
 7    1  0.1716782E-015  0.9000771E+02  0.7816164E-02  0.1186339E+00
        -11   -1    0    0    0    0  0.00000000000E+00  0.00000000000E+00  0.45593999997E+02  0.45594000000E+02  0.51100000000E-03 0.  1.
         11   -1    0    0    0    0 -0.00000000000E+00 -0.00000000000E+00 -0.45593999997E+02  0.45594000000E+02  0.51100000000E-03 0. -1.
    9900012    2    1    2    0    0  0.68758104821E+00 -0.51987460232E+00 -0.80624784071E+00  0.90007714916E+02  0.89999975952E+02 0.  0.
        -12    1    1    2    0    0 -0.68758104821E+00  0.51987460232E+00  0.80624784071E+00  0.11802850845E+01  0.00000000000E+00 0.  1.
         11    1    3    3    0    0 -0.44224718170E+01 -0.18907859341E+02  0.71501329431E+01  0.20692747599E+02  0.51100000000E-03 0. -1.
        -11    1    3    3    0    0  0.23271179714E+01  0.13860927267E+02  0.28868777528E+02  0.32108364937E+02  0.51100000000E-03 0.  1.
         12    1    3    3    0    0  0.27829348938E+01  0.45270574718E+01 -0.36825158311E+02  0.37206602380E+02  0.00000000000E+00 0. -1.
</event>
<event>
 7    1  0.1716782E-015  0.9000787E+02  0.7816164E-02  0.1186339E+00
        -11   -1    0    0    0    0  0.00000000000E+00  0.00000000000E+00  0.45593999997E+02  0.45594000000E+02  0.51100000000E-03 0.  1.
         11   -1    0    0    0    0 -0.00000000000E+00 -0.00000000000E+00 -0.45593999997E+02  0.45594000000E+02  0.51100000000E-03 0. -1.
    9900012    2    1    2    0    0  0.15178334925E+00  0.97157532718E+00 -0.65245652709E+00  0.90007874447E+02  0.90000137589E+02 0.  0.
        -12    1    1    2    0    0 -0.15178334925E+00 -0.97157532718E+00  0.65245652709E+00  0.11801255532E+01  0.00000000000E+00 0.  1.
         11    1    3    3    0    0  0.10960464542E+01  0.41978320537E+02 -0.32418391433E+01  0.42117576310E+02  0.51100000000E-03 0. -1.
        -11    1    3    3    0    0 -0.24509707130E+01  0.28926812146E+01 -0.64587750611E+00  0.38460395291E+01  0.51100000000E-03 0.  1.
        -12    1    3    3    0    0  0.15067076081E+01 -0.43899426425E+02  0.32352601223E+01  0.44044258608E+02  0.00000000000E+00 0.  1.
</event>
<event>
 7    1  0.1716782E-015  0.9000774E+02  0.7816164E-02  0.1186339E+00
        -11   -1    0    0    0    0  0.00000000000E+00  0.00000000000E+00  0.45593999997E+02  0.45594000000E+02  0.51100000000E-03 0.  1.
         11   -1    0    0    0    0 -0.00000000000E+00 -0.00000000000E+00 -0.45593999997E+02  0.45594000000E+02  0.51100000000E-03 0. -1.
    9900012    2    1    2    0    0  0.11533520559E+01  0.15363457569E+00  0.19798657516E+00  0.90007735948E+02  0.89999997263E+02 0.  0.
        -12    1    1    2    0    0 -0.11533520559E+01 -0.15363457569E+00 -0.19798657516E+00  0.11802640516E+01  0.00000000000E+00 0.  1.
         11    1    3    3    0    0  0.15798648928E+02  0.31466467039E+02 -0.12481877265E+02  0.37356834933E+02  0.51100000000E-03 0. -1.
        -11    1    3    3    0    0 -0.34563145002E+01  0.70895580154E+01  0.97553627029E+01  0.12544921064E+02  0.51100000000E-03 0.  1.
        -12    1    3    3    0    0 -0.11188982371E+02 -0.38402390479E+02  0.29245011374E+01  0.40105979952E+02  0.00000000000E+00 0.  1.
</event>
<event>
 7    1  0.1716782E-015  0.9000756E+02  0.7816164E-02  0.1186339E+00
        -11   -1    0    0    0    0  0.00000000000E+00  0.00000000000E+00  0.45593999997E+02  0.45594000000E+02  0.51100000000E-03 0. -1.
         11   -1    0    0    0    0 -0.00000000000E+00 -0.00000000000E+00 -0.45593999997E+02  0.45594000000E+02  0.51100000000E-03 0.  1.
    9900012    2    1    2    0    0 -0.47511869003E-01 -0.17423932812E+00  0.11665403614E+01  0.90007562312E+02  0.89999821334E+02 0.  0.
        -12    1    1    2    0    0  0.47511869003E-01  0.17423932812E+00 -0.11665403614E+01  0.11804376883E+01  0.00000000000E+00 0.  1.
         11    1    3    3    0    0 -0.98402125425E+01  0.48206426767E+01  0.40517339783E+01  0.11682676371E+02  0.51100000000E-03 0. -1.
        -11    1    3    3    0    0 -0.34826601950E+01  0.34923627428E+02 -0.78524814362E+01  0.35964567837E+02  0.51100000000E-03 0.  1.
         12    1    3    3    0    0  0.13275360868E+02 -0.39918509433E+02  0.49672878193E+01  0.42360318103E+02  0.00000000000E+00 0. -1.
</event>
<event>
 7    1  0.1716782E-015  0.9000764E+02  0.7816164E-02  0.1186339E+00
        -11   -1    0    0    0    0  0.00000000000E+00  0.00000000000E+00  0.45593999997E+02  0.45594000000E+02  0.51100000000E-03 0.  1.
         11   -1    0    0    0    0 -0.00000000000E+00 -0.00000000000E+00 -0.45593999997E+02  0.45594000000E+02  0.51100000000E-03 0. -1.
    9900012    2    1    2    0    0  0.57639347111E+00 -0.97585786397E+00  0.32972910926E+00  0.90007640186E+02  0.89999900237E+02 0.  0.
        -12    1    1    2    0    0 -0.57639347111E+00  0.97585786397E+00 -0.32972910926E+00  0.11803598137E+01  0.00000000000E+00 0.  1.
         11    1    3    3    0    0  0.16021207918E+02 -0.26229714225E+00 -0.37992024653E+02  0.41232776289E+02  0.51100000000E-03 0. -1.
        -11    1    3    3    0    0 -0.63011789370E+01  0.15532563540E+01 -0.24440440135E+01  0.69347539753E+01  0.51100000000E-03 0.  1.
        -12    1    3    3    0    0 -0.91436355100E+01 -0.22668170758E+01  0.40765797776E+02  0.41840109922E+02  0.00000000000E+00 0.  1.
</event>
<event>
 7    1  0.1716782E-015  0.9000772E+02  0.7816164E-02  0.1186339E+00
        -11   -1    0    0    0    0  0.00000000000E+00  0.00000000000E+00  0.45593999997E+02  0.45594000000E+02  0.51100000000E-03 0.  1.
         11   -1    0    0    0    0 -0.00000000000E+00 -0.00000000000E+00 -0.45593999997E+02  0.45594000000E+02  0.51100000000E-03 0. -1.
    9900012    2    1    2    0    0 -0.36933009293E+00  0.86995362923E+00 -0.70699473029E+00  0.90007718007E+02  0.89999979085E+02 0.  0.
        -12    1    1    2    0    0  0.36933009293E+00 -0.86995362923E+00  0.70699473029E+00  0.11802819931E+01  0.00000000000E+00 0.  1.
         11    1    3    3    0    0  0.68265369500E+01 -0.65821998329E+01 -0.42064631964E+02  0.43120299441E+02  0.51100000000E-03 0. -1.
        -11    1    3    3    0    0 -0.45873354232E+00 -0.14353102718E+00 -0.21539756854E+01  0.22069547193E+01  0.51100000000E-03 0.  1.
        -12    1    3    3    0    0 -0.67371335006E+01  0.75956844893E+01  0.43511612919E+02  0.44680463846E+02  0.00000000000E+00 0.  1.
</event>
<event>
 7    1  0.1716782E-015  0.9000774E+02  0.7816164E-02  0.1186339E+00
        -11   -1    0    0    0    0  0.00000000000E+00  0.00000000000E+00  0.45593999997E+02  0.45594000000E+02  0.51100000000E-03 0. -1.
         11   -1    0    0    0    0 -0.00000000000E+00 -0.00000000000E+00 -0.45593999997E+02  0.45594000000E+02  0.51100000000E-03 0.  1.
    9900012    2    1    2    0    0 -0.10376802096E+01  0.55976243095E+00  0.53907447561E-01  0.90007737229E+02  0.89999998560E+02 0.  0.
        -12    1    1    2    0    0  0.10376802096E+01 -0.55976243095E+00 -0.53907447561E-01  0.11802627713E+01  0.00000000000E+00 0.  1.
         11    1    3    3    0    0 -0.25711099652E+02 -0.24086806079E+02  0.10030133573E+02  0.36631113171E+02  0.51100000000E-03 0. -1.
        -11    1    3    3    0    0 -0.43980233761E+01 -0.77219192027E+01 -0.89147411480E+00  0.89311461833E+01  0.51100000000E-03 0.  1.
        -12    1    3    3    0    0  0.29071442818E+02  0.32368487713E+02 -0.90847520104E+01  0.44445477874E+02  0.00000000000E+00 0.  1.
</event>
<event>
 7    1  0.1716782E-015  0.9000770E+02  0.7816164E-02  0.1186339E+00
        -11   -1    0    0    0    0  0.00000000000E+00  0.00000000000E+00  0.45593999997E+02  0.45594000000E+02  0.51100000000E-03 0.  1.
         11   -1    0    0    0    0 -0.00000000000E+00 -0.00000000000E+00 -0.45593999997E+02  0.45594000000E+02  0.51100000000E-03 0. -1.
    9900012    2    1    2    0    0  0.21081135154E+00 -0.85800789387E+00 -0.78261478553E+00  0.90007701362E+02  0.89999962220E+02 0.  0.
        -12    1    1    2    0    0 -0.21081135154E+00  0.85800789387E+00  0.78261478553E+00  0.11802986378E+01  0.00000000000E+00 0.  1.
         11    1    3    3    0    0  0.90333157487E+01 -0.33961249264E+02  0.65743885927E+01  0.35751780803E+02  0.51100000000E-03 0. -1.
        -11    1    3    3    0    0 -0.92202621911E+00 -0.99208459382E+01 -0.47964386467E+00  0.99751378425E+01  0.51100000000E-03 0.  1.
        -12    1    3    3    0    0 -0.79004781780E+01  0.43024087308E+02 -0.68773595136E+01  0.44280782717E+02  0.00000000000E+00 0.  1.
</event>
<event>
 7    1  0.1716782E-015  0.9000772E+02  0.7816164E-02  0.1186339E+00
        -11   -1    0    0    0    0  0.00000000000E+00  0.00000000000E+00  0.45593999997E+02  0.45594000000E+02  0.51100000000E-03 0. -1.
         11   -1    0    0    0    0 -0.00000000000E+00 -0.00000000000E+00 -0.45593999997E+02  0.45594000000E+02  0.51100000000E-03 0.  1.
    9900012    2    1    2    0    0 -0.75225436247E-01 -0.10718651342E+01  0.48836718929E+00  0.90007721963E+02  0.89999983093E+02 0.  0.
        -12    1    1    2    0    0  0.75225436247E-01  0.10718651342E+01 -0.48836718929E+00  0.11802780367E+01  0.00000000000E+00 0.  1.
         11    1    3    3    0    0  0.75422853952E+01  0.33494271922E+02  0.14174750030E+01  0.34362211166E+02  0.51100000000E-03 0. -1.
        -11    1    3    3    0    0 -0.49649590733E+01  0.99091242504E+01 -0.14963582497E+00  0.11084401344E+02  0.51100000000E-03 0.  1.
        -12    1    3    3    0    0 -0.26525517581E+01 -0.44475261307E+02 -0.77947198872E+00  0.44561109453E+02  0.00000000000E+00 0.  1.
</event>
<event>
 7    1  0.1716782E-015  0.9000771E+02  0.7816164E-02  0.1186339E+00
        -11   -1    0    0    0    0  0.00000000000E+00  0.00000000000E+00  0.45593999997E+02  0.45594000000E+02  0.51100000000E-03 0. -1.
         11   -1    0    0    0    0 -0.00000000000E+00 -0.00000000000E+00 -0.45593999997E+02  0.45594000000E+02  0.51100000000E-03 0.  1.
    9900012    2    1    2    0    0 -0.78839190346E+00 -0.22383760452E-01 -0.87808340777E+00  0.90007706267E+02  0.89999967189E+02 0.  0.
        -12    1    1    2    0    0  0.78839190346E+00  0.22383760452E-01  0.87808340777E+00  0.11802937334E+01  0.00000000000E+00 0.  1.
         11    1    3    3    0    0  0.21692999979E+02  0.13113581368E+02 -0.53537276691E+01  0.25907810880E+02  0.51100000000E-03 0. -1.
        -11    1    3    3    0    0  0.93607319025E+01 -0.19914393696E+02  0.18407323605E+02  0.28688602974E+02  0.51100000000E-03 0.  1.
        -12    1    3    3    0    0 -0.31842123785E+02  0.67784285671E+01 -0.13931679344E+02  0.35411292413E+02  0.00000000000E+00 0.  1.
</event>
<event>
 7    1  0.1716782E-015  0.9000781E+02  0.7816164E-02  0.1186339E+00
        -11   -1    0    0    0    0  0.00000000000E+00  0.00000000000E+00  0.45593999997E+02  0.45594000000E+02  0.51100000000E-03 0. -1.
         11   -1    0    0    0    0 -0.00000000000E+00 -0.00000000000E+00 -0.45593999997E+02  0.45594000000E+02  0.51100000000E-03 0.  1.
    9900012    2    1    2    0    0 -0.10202498700E+01 -0.38164941932E-01 -0.59202070857E+00  0.90007807270E+02  0.90000069526E+02 0.  0.
        -12    1    1    2    0    0  0.10202498700E+01  0.38164941932E-01  0.59202070857E+00  0.11801927298E+01  0.00000000000E+00 0.  1.
         11    1    3    3    0    0 -0.80522288510E+01  0.42328988788E+01  0.35531067365E+01  0.97662884521E+01  0.51100000000E-03 0. -1.
        -11    1    3    3    0    0 -0.35782593945E+02  0.47440733363E+01  0.14916306142E+01  0.36126516901E+02  0.51100000000E-03 0.  1.
         12    1    3    3    0    0  0.42814572926E+02 -0.90151371570E+01 -0.56367580593E+01  0.44115001917E+02  0.00000000000E+00 0. -1.
</event>
<event>
 7    1  0.1716782E-015  0.9000776E+02  0.7816164E-02  0.1186339E+00
        -11   -1    0    0    0    0  0.00000000000E+00  0.00000000000E+00  0.45593999997E+02  0.45594000000E+02  0.51100000000E-03 0.  1.
         11   -1    0    0    0    0 -0.00000000000E+00 -0.00000000000E+00 -0.45593999997E+02  0.45594000000E+02  0.51100000000E-03 0. -1.
    9900012    2    1    2    0    0  0.29543969688E-01  0.11104777485E+01 -0.39867683860E+00  0.90007755577E+02  0.90000017151E+02 0.  0.
        -12    1    1    2    0    0 -0.29543969688E-01 -0.11104777485E+01  0.39867683860E+00  0.11802444229E+01  0.00000000000E+00 0.  1.
         11    1    3    3    0    0  0.26542858827E+02  0.29364780628E+02  0.75717888517E+01  0.40300690847E+02  0.51100000000E-03 0. -1.
        -11    1    3    3    0    0 -0.67688646187E+01  0.60325849340E+01  0.10461430640E+01  0.91271038552E+01  0.51100000000E-03 0.  1.
        -12    1    3    3    0    0 -0.19744450238E+02 -0.34286887814E+02 -0.90166087544E+01  0.40579960875E+02  0.00000000000E+00 0.  1.
</event>
<event>
 7    1  0.1716782E-015  0.9000773E+02  0.7816164E-02  0.1186339E+00
        -11   -1    0    0    0    0  0.00000000000E+00  0.00000000000E+00  0.45593999997E+02  0.45594000000E+02  0.51100000000E-03 0.  1.
         11   -1    0    0    0    0 -0.00000000000E+00 -0.00000000000E+00 -0.45593999997E+02  0.45594000000E+02  0.51100000000E-03 0. -1.
    9900012    2    1    2    0    0 -0.18313263717E+00 -0.43972132967E+00 -0.10798786691E+01  0.90007732933E+02  0.89999994207E+02 0.  0.
        -12    1    1    2    0    0  0.18313263717E+00  0.43972132967E+00  0.10798786691E+01  0.11802670674E+01  0.00000000000E+00 0.  1.
         11    1    3    3    0    0  0.39405028248E+02 -0.30506109692E+01 -0.11315647954E+02  0.41110903266E+02  0.51100000000E-03 0. -1.
        -11    1    3    3    0    0 -0.47030236396E+01  0.12826774959E+01 -0.81078437248E+01  0.94604874631E+01  0.51100000000E-03 0.  1.
        -12    1    3    3    0    0 -0.34885137245E+02  0.13282121437E+01  0.18343613010E+02  0.39436342203E+02  0.00000000000E+00 0.  1.
</event>
<event>
 7    1  0.1716782E-015  0.9000776E+02  0.7816164E-02  0.1186339E+00
        -11   -1    0    0    0    0  0.00000000000E+00  0.00000000000E+00  0.45593999997E+02  0.45594000000E+02  0.51100000000E-03 0. -1.
         11   -1    0    0    0    0 -0.00000000000E+00 -0.00000000000E+00 -0.45593999997E+02  0.45594000000E+02  0.51100000000E-03 0.  1.
    9900012    2    1    2    0    0  0.10022312632E+01 -0.62133484127E+00 -0.49430248519E-01  0.90007759415E+02  0.90000021039E+02 0.  0.
        -12    1    1    2    0    0 -0.10022312632E+01  0.62133484127E+00  0.49430248519E-01  0.11802405854E+01  0.00000000000E+00 0.  1.
         11    1    3    3    0    0 -0.94955188265E+01  0.93913428025E+01 -0.34798528144E+00  0.13359763899E+02  0.51100000000E-03 0. -1.
        -11    1    3    3    0    0  0.16706585848E+02  0.24611586510E+02 -0.20179305622E+02  0.35945021587E+02  0.51100000000E-03 0.  1.
         12    1    3    3    0    0 -0.62088357583E+01 -0.34624264154E+02  0.20477860655E+02  0.40702973929E+02  0.00000000000E+00 0. -1.
</event>
<event>
 7    1  0.1716782E-015  0.9000773E+02  0.7816164E-02  0.1186339E+00
        -11   -1    0    0    0    0  0.00000000000E+00  0.00000000000E+00  0.45593999997E+02  0.45594000000E+02  0.51100000000E-03 0. -1.
         11   -1    0    0    0    0 -0.00000000000E+00 -0.00000000000E+00 -0.45593999997E+02  0.45594000000E+02  0.51100000000E-03 0.  1.
    9900012    2    1    2    0    0  0.71280162643E+00  0.70236876982E+00 -0.62580625425E+00  0.90007728203E+02  0.89999989415E+02 0.  0.
        -12    1    1    2    0    0 -0.71280162643E+00 -0.70236876982E+00  0.62580625425E+00  0.11802717972E+01  0.00000000000E+00 0.  1.
         11    1    3    3    0    0 -0.76071017686E+01  0.39528773650E+02  0.68945912499E+01  0.40840266066E+02  0.51100000000E-03 0. -1.
        -11    1    3    3    0    0  0.98568655445E+01 -0.12556824156E+01  0.25136878727E+01  0.10249544559E+02  0.51100000000E-03 0.  1.
        -12    1    3    3    0    0 -0.15369621496E+01 -0.37570722465E+02 -0.10034085377E+02  0.38917917577E+02  0.00000000000E+00 0.  1.
</event>
<event>
 7    1  0.1716782E-015  0.9000766E+02  0.7816164E-02  0.1186339E+00
        -11   -1    0    0    0    0  0.00000000000E+00  0.00000000000E+00  0.45593999997E+02  0.45594000000E+02  0.51100000000E-03 0.  1.
         11   -1    0    0    0    0 -0.00000000000E+00 -0.00000000000E+00 -0.45593999997E+02  0.45594000000E+02  0.51100000000E-03 0. -1.
    9900012    2    1    2    0    0 -0.60182895225E+00 -0.43863025480E+00 -0.91575750758E+00  0.90007658354E+02  0.89999918644E+02 0.  0.
        -12    1    1    2    0    0  0.60182895225E+00  0.43863025480E+00  0.91575750758E+00  0.11803416458E+01  0.00000000000E+00 0.  1.
         11    1    3    3    0    0 -0.19187047707E+01 -0.26443653358E+01  0.10878301601E+02  0.11358324789E+02  0.51100000000E-03 0. -1.
        -11    1    3    3    0    0 -0.23671092174E+02  0.12963544385E+02  0.22315366735E+02  0.35019275843E+02  0.51100000000E-03 0.  1.
         12    1    3    3    0    0  0.24987967993E+02 -0.10757809304E+02 -0.34109425844E+02  0.43630057722E+02  0.00000000000E+00 0. -1.
</event>
<event>
 7    1  0.1716782E-015  0.9000773E+02  0.7816164E-02  0.1186339E+00
        -11   -1    0    0    0    0  0.00000000000E+00  0.00000000000E+00  0.45593999997E+02  0.45594000000E+02  0.51100000000E-03 0.  1.
         11   -1    0    0    0    0 -0.00000000000E+00 -0.00000000000E+00 -0.45593999997E+02  0.45594000000E+02  0.51100000000E-03 0. -1.
    9900012    2    1    2    0    0 -0.45244883077E+00 -0.93427061512E+00  0.56165307674E+00  0.90007734900E+02  0.89999996201E+02 0.  0.
        -12    1    1    2    0    0  0.45244883077E+00  0.93427061512E+00 -0.56165307674E+00  0.11802650996E+01  0.00000000000E+00 0.  1.
         11    1    3    3    0    0  0.31579492277E+02  0.21128954368E+01  0.24531536274E+02  0.40044037406E+02  0.51100000000E-03 0. -1.
        -11    1    3    3    0    0 -0.11172455542E+00  0.66116949339E+01  0.28176693081E+01  0.71879240999E+01  0.51100000000E-03 0.  1.
        -12    1    3    3    0    0 -0.31920216552E+02 -0.96588609858E+01 -0.26787552505E+02  0.42775773394E+02  0.00000000000E+00 0.  1.
</event>
<event>
 7    1  0.1716782E-015  0.9000776E+02  0.7816164E-02  0.1186339E+00
        -11   -1    0    0    0    0  0.00000000000E+00  0.00000000000E+00  0.45593999997E+02  0.45594000000E+02  0.51100000000E-03 0.  1.
         11   -1    0    0    0    0 -0.00000000000E+00 -0.00000000000E+00 -0.45593999997E+02  0.45594000000E+02  0.51100000000E-03 0. -1.
    9900012    2    1    2    0    0  0.33666454193E+00  0.10997285527E+01 -0.26497231350E+00  0.90007764333E+02  0.90000026022E+02 0.  0.
        -12    1    1    2    0    0 -0.33666454193E+00 -0.10997285527E+01  0.26497231350E+00  0.11802356672E+01  0.00000000000E+00 0.  1.
         11    1    3    3    0    0  0.47437556462E+01 -0.57662625675E+01  0.57153843510E+01  0.94031175771E+01  0.51100000000E-03 0. -1.
        -11    1    3    3    0    0  0.21567648631E+02 -0.19275550709E+02  0.20302978280E+02  0.35340079936E+02  0.51100000000E-03 0.  1.
         12    1    3    3    0    0 -0.25974739735E+02  0.26141541829E+02 -0.26283334945E+02  0.45264566819E+02  0.00000000000E+00 0. -1.
</event>
<event>
 7    1  0.1716782E-015  0.9000771E+02  0.7816164E-02  0.1186339E+00
        -11   -1    0    0    0    0  0.00000000000E+00  0.00000000000E+00  0.45593999997E+02  0.45594000000E+02  0.51100000000E-03 0. -1.
         11   -1    0    0    0    0 -0.00000000000E+00 -0.00000000000E+00 -0.45593999997E+02  0.45594000000E+02  0.51100000000E-03 0.  1.
    9900012    2    1    2    0    0 -0.35572083238E+00  0.93351631272E+00  0.62856717194E+00  0.90007709059E+02  0.89999970018E+02 0.  0.
        -12    1    1    2    0    0  0.35572083238E+00 -0.93351631272E+00 -0.62856717194E+00  0.11802909414E+01  0.00000000000E+00 0.  1.
         11    1    3    3    0    0  0.30777768399E+02  0.38798780964E+00 -0.19199713366E+02  0.36277411095E+02  0.51100000000E-03 0. -1.
        -11    1    3    3    0    0  0.66291188098E+01 -0.37612965813E+01 -0.42608437958E+01  0.87319733325E+01  0.51100000000E-03 0.  1.
        -12    1    3    3    0    0 -0.37762608041E+02  0.43068250844E+01  0.24089124334E+02  0.44998324631E+02  0.00000000000E+00 0.  1.
</event>
<event>
 7    1  0.1716782E-015  0.9000777E+02  0.7816164E-02  0.1186339E+00
        -11   -1    0    0    0    0  0.00000000000E+00  0.00000000000E+00  0.45593999997E+02  0.45594000000E+02  0.51100000000E-03 0.  1.
         11   -1    0    0    0    0 -0.00000000000E+00 -0.00000000000E+00 -0.45593999997E+02  0.45594000000E+02  0.51100000000E-03 0. -1.
    9900012    2    1    2    0    0  0.11538674157E+01  0.76294978683E-01 -0.23601412959E+00  0.90007773917E+02  0.90000035733E+02 0.  0.
        -12    1    1    2    0    0 -0.11538674157E+01 -0.76294978683E-01  0.23601412959E+00  0.11802260827E+01  0.00000000000E+00 0.  1.
         11    1    3    3    0    0 -0.21961623989E+02 -0.43192774338E+01 -0.18568776401E+02  0.29082100046E+02  0.51100000000E-03 0. -1.
        -11    1    3    3    0    0 -0.10567124709E+02 -0.15665633147E+02  0.57667635229E+01  0.19756815236E+02  0.51100000000E-03 0.  1.
        -12    1    3    3    0    0  0.33682616113E+02  0.20061205559E+02  0.12565998749E+02  0.41168858635E+02  0.00000000000E+00 0.  1.
</event>
<event>
 7    1  0.1716782E-015  0.9000775E+02  0.7816164E-02  0.1186339E+00
        -11   -1    0    0    0    0  0.00000000000E+00  0.00000000000E+00  0.45593999997E+02  0.45594000000E+02  0.51100000000E-03 0. -1.
         11   -1    0    0    0    0 -0.00000000000E+00 -0.00000000000E+00 -0.45593999997E+02  0.45594000000E+02  0.51100000000E-03 0.  1.
    9900012    2    1    2    0    0 -0.10950586183E+00 -0.11381422086E+01  0.29263768882E+00  0.90007747469E+02  0.90000008935E+02 0.  0.
        -12    1    1    2    0    0  0.10950586183E+00  0.11381422086E+01 -0.29263768882E+00  0.11802525313E+01  0.00000000000E+00 0.  1.
         11    1    3    3    0    0 -0.12292152830E+02 -0.92284007238E+01  0.40049378260E+01  0.15883951913E+02  0.51100000000E-03 0. -1.
        -11    1    3    3    0    0  0.48911752106E+01 -0.98928605056E+01 -0.35336973039E+02  0.37020182979E+02  0.51100000000E-03 0.  1.
         12    1    3    3    0    0  0.72914717579E+01  0.17983119021E+02  0.31624672902E+02  0.37103612577E+02  0.00000000000E+00 0. -1.
</event>
<event>
 7    1  0.2234449E-015  0.9000778E+02  0.7816164E-02  0.1186339E+00
        -11   -1    0    0    0    0  0.00000000000E+00  0.00000000000E+00  0.45593999997E+02  0.45594000000E+02  0.51100000000E-03 0. -1.
         11   -1    0    0    0    0 -0.00000000000E+00 -0.00000000000E+00 -0.45593999997E+02  0.45594000000E+02  0.51100000000E-03 0.  1.
    9900012    2    1    2    0    0 -0.19434537333E-01 -0.94904228588E+00  0.70133118438E+00  0.90007777821E+02  0.90000039688E+02 0.  0.
        -12    1    1    2    0    0  0.19434537333E-01  0.94904228588E+00 -0.70133118438E+00  0.11802221790E+01  0.00000000000E+00 0.  1.
         11    1    3    3    0    0  0.11070489775E+01 -0.26430235092E+02  0.24061424153E+02  0.35759404595E+02  0.51100000000E-03 0. -1.
        -11    1    3    3    0    0  0.53429530271E+00 -0.99643570416E+01  0.25641136411E+01  0.10302842411E+02  0.51100000000E-03 0.  1.
        -12    1    3    3    0    0 -0.16607788175E+01  0.35445549847E+02 -0.25924206610E+02  0.43945530815E+02  0.00000000000E+00 0.  1.
</event>
<event>
 7    1  0.1716782E-015  0.9000785E+02  0.7816164E-02  0.1186339E+00
        -11   -1    0    0    0    0  0.00000000000E+00  0.00000000000E+00  0.45593999997E+02  0.45594000000E+02  0.51100000000E-03 0.  1.
         11   -1    0    0    0    0 -0.00000000000E+00 -0.00000000000E+00 -0.45593999997E+02  0.45594000000E+02  0.51100000000E-03 0. -1.
    9900012    2    1    2    0    0 -0.83954775596E+00  0.62807649396E+00  0.54170029470E+00  0.90007847584E+02  0.90000110372E+02 0.  0.
        -12    1    1    2    0    0  0.83954775596E+00 -0.62807649396E+00 -0.54170029470E+00  0.11801524165E+01  0.00000000000E+00 0.  1.
         11    1    3    3    0    0  0.52993768093E+01 -0.60667369216E+01 -0.14160662196E+00  0.80565963123E+01  0.51100000000E-03 0. -1.
        -11    1    3    3    0    0 -0.10848828751E+02 -0.36712620948E+02 -0.93022081585E-01  0.38282140424E+02  0.51100000000E-03 0.  1.
         12    1    3    3    0    0  0.47099041856E+01  0.43407434363E+02  0.77632899824E+00  0.43669110847E+02  0.00000000000E+00 0. -1.
</event>
<event>
 7    1  0.1716782E-015  0.9000758E+02  0.7816164E-02  0.1186339E+00
        -11   -1    0    0    0    0  0.00000000000E+00  0.00000000000E+00  0.45593999997E+02  0.45594000000E+02  0.51100000000E-03 0.  1.
         11   -1    0    0    0    0 -0.00000000000E+00 -0.00000000000E+00 -0.45593999997E+02  0.45594000000E+02  0.51100000000E-03 0. -1.
    9900012    2    1    2    0    0  0.42656999178E+00  0.66316852073E+00 -0.87842216498E+00  0.90007584842E+02  0.89999844162E+02 0.  0.
        -12    1    1    2    0    0 -0.42656999178E+00 -0.66316852073E+00  0.87842216498E+00  0.11804151578E+01  0.00000000000E+00 0.  1.
         11    1    3    3    0    0  0.37947067976E+02  0.12780284369E+02 -0.43106497388E+01  0.40272786568E+02  0.51100000000E-03 0. -1.
        -11    1    3    3    0    0  0.26357487411E+01 -0.86913053730E+01 -0.12252743958E+01  0.91644562370E+01  0.51100000000E-03 0.  1.
        -12    1    3    3    0    0 -0.40156246725E+02 -0.34258104757E+01  0.46575019695E+01  0.40570342037E+02  0.00000000000E+00 0.  1.
</event>
<event>
 7    1  0.1716782E-015  0.9000776E+02  0.7816164E-02  0.1186339E+00
        -11   -1    0    0    0    0  0.00000000000E+00  0.00000000000E+00  0.45593999997E+02  0.45594000000E+02  0.51100000000E-03 0. -1.
         11   -1    0    0    0    0 -0.00000000000E+00 -0.00000000000E+00 -0.45593999997E+02  0.45594000000E+02  0.51100000000E-03 0.  1.
    9900012    2    1    2    0    0  0.12532570629E+00  0.11661387984E+01  0.13186917726E+00  0.90007756080E+02  0.90000017661E+02 0.  0.
        -12    1    1    2    0    0 -0.12532570629E+00 -0.11661387984E+01 -0.13186917726E+00  0.11802439195E+01  0.00000000000E+00 0.  1.
         11    1    3    3    0    0  0.15461834907E+02  0.59037384650E+01  0.11790673038E+02  0.20320985151E+02  0.51100000000E-03 0. -1.
        -11    1    3    3    0    0  0.80907566608E+01 -0.24761521485E+02 -0.24999082956E+02  0.36104673361E+02  0.51100000000E-03 0.  1.
         12    1    3    3    0    0 -0.23427265862E+02  0.20023921818E+02  0.13340279096E+02  0.33582097568E+02  0.00000000000E+00 0. -1.
</event>
<event>
 7    1  0.1716782E-015  0.9000787E+02  0.7816164E-02  0.1186339E+00
        -11   -1    0    0    0    0  0.00000000000E+00  0.00000000000E+00  0.45593999997E+02  0.45594000000E+02  0.51100000000E-03 0.  1.
         11   -1    0    0    0    0 -0.00000000000E+00 -0.00000000000E+00 -0.45593999997E+02  0.45594000000E+02  0.51100000000E-03 0. -1.
    9900012    2    1    2    0    0 -0.98091264348E+00  0.46502988021E+00  0.46287847684E+00  0.90007873359E+02  0.90000136488E+02 0.  0.
        -12    1    1    2    0    0  0.98091264348E+00 -0.46502988021E+00 -0.46287847684E+00  0.11801266406E+01  0.00000000000E+00 0.  1.
         11    1    3    3    0    0 -0.25279552769E+02  0.35448733986E+02 -0.32712119842E+01  0.43661989849E+02  0.51100000000E-03 0. -1.
        -11    1    3    3    0    0 -0.10886121256E+01 -0.96524661838E+01  0.39388841397E+01  0.10481888585E+02  0.51100000000E-03 0.  1.
        -12    1    3    3    0    0  0.25387252251E+02 -0.25331237922E+02 -0.20479367871E+00  0.35863994925E+02  0.00000000000E+00 0.  1.
</event>
<event>
 7    1  0.1716782E-015  0.9000780E+02  0.7816164E-02  0.1186339E+00
        -11   -1    0    0    0    0  0.00000000000E+00  0.00000000000E+00  0.45593999997E+02  0.45594000000E+02  0.51100000000E-03 0.  1.
         11   -1    0    0    0    0 -0.00000000000E+00 -0.00000000000E+00 -0.45593999997E+02  0.45594000000E+02  0.51100000000E-03 0. -1.
    9900012    2    1    2    0    0 -0.10295434673E+01 -0.56557467711E+00 -0.11423243103E+00  0.90007795139E+02  0.90000057234E+02 0.  0.
        -12    1    1    2    0    0  0.10295434673E+01  0.56557467711E+00  0.11423243103E+00  0.11802048614E+01  0.00000000000E+00 0.  1.
         11    1    3    3    0    0  0.24944404995E+01  0.30796289027E+01  0.91461925009E+01  0.99679077598E+01  0.51100000000E-03 0. -1.
        -11    1    3    3    0    0  0.52450800414E+01  0.37267716072E+02 -0.33781639683E+01  0.37786313897E+02  0.51100000000E-03 0.  1.
         12    1    3    3    0    0 -0.87690640083E+01 -0.40912919651E+02 -0.58822609636E+01  0.42253573482E+02  0.00000000000E+00 0. -1.
</event>
<event>
 7    1  0.1716782E-015  0.9000790E+02  0.7816164E-02  0.1186339E+00
        -11   -1    0    0    0    0  0.00000000000E+00  0.00000000000E+00  0.45593999997E+02  0.45594000000E+02  0.51100000000E-03 0.  1.
         11   -1    0    0    0    0 -0.00000000000E+00 -0.00000000000E+00 -0.45593999997E+02  0.45594000000E+02  0.51100000000E-03 0. -1.
    9900012    2    1    2    0    0 -0.25003461826E+00  0.11021739933E+01  0.33959191881E+00  0.90007903609E+02  0.90000167136E+02 0.  0.
        -12    1    1    2    0    0  0.25003461826E+00 -0.11021739933E+01 -0.33959191881E+00  0.11800963915E+01  0.00000000000E+00 0.  1.
         11    1    3    3    0    0  0.31911571052E+02 -0.25317568945E+01  0.30603184546E+02  0.44286714313E+02  0.51100000000E-03 0. -1.
        -11    1    3    3    0    0 -0.24447816389E+01  0.79019398400E+00 -0.82193125065E+01  0.86115307660E+01  0.51100000000E-03 0.  1.
        -12    1    3    3    0    0 -0.29716824032E+02  0.28437369038E+01 -0.22044280121E+02  0.37109658529E+02  0.00000000000E+00 0.  1.
</event>
<event>
 7    1  0.1716782E-015  0.9000776E+02  0.7816164E-02  0.1186339E+00
        -11   -1    0    0    0    0  0.00000000000E+00  0.00000000000E+00  0.45593999997E+02  0.45594000000E+02  0.51100000000E-03 0. -1.
         11   -1    0    0    0    0 -0.00000000000E+00 -0.00000000000E+00 -0.45593999997E+02  0.45594000000E+02  0.51100000000E-03 0.  1.
    9900012    2    1    2    0    0 -0.98266519032E+00 -0.62767585747E+00  0.18267332206E+00  0.90007755364E+02  0.90000016935E+02 0.  0.
        -12    1    1    2    0    0  0.98266519032E+00  0.62767585747E+00 -0.18267332206E+00  0.11802446360E+01  0.00000000000E+00 0.  1.
         11    1    3    3    0    0 -0.11008580744E+02  0.80260025206E-01  0.15691902436E+01  0.11120146130E+02  0.51100000000E-03 0. -1.
        -11    1    3    3    0    0  0.26948818134E+02  0.31820591980E+02 -0.52034575386E+01  0.42022194652E+02  0.51100000000E-03 0.  1.
         12    1    3    3    0    0 -0.16922902580E+02 -0.32528527862E+02  0.38169406170E+01  0.36865414582E+02  0.00000000000E+00 0. -1.
</event>
<event>
 7    1  0.1716782E-015  0.9000780E+02  0.7816164E-02  0.1186339E+00
        -11   -1    0    0    0    0  0.00000000000E+00  0.00000000000E+00  0.45593999997E+02  0.45594000000E+02  0.51100000000E-03 0.  1.
         11   -1    0    0    0    0 -0.00000000000E+00 -0.00000000000E+00 -0.45593999997E+02  0.45594000000E+02  0.51100000000E-03 0. -1.
    9900012    2    1    2    0    0  0.60951475921E+00  0.10949022097E+00 -0.10046791109E+01  0.90007798125E+02  0.90000060260E+02 0.  0.
        -12    1    1    2    0    0 -0.60951475921E+00 -0.10949022097E+00  0.10046791109E+01  0.11802018751E+01  0.00000000000E+00 0.  1.
         11    1    3    3    0    0  0.54588774019E+01  0.87444368928E+01  0.40460119199E+01  0.11074056699E+02  0.51100000000E-03 0. -1.
        -11    1    3    3    0    0 -0.12041511246E+02  0.24688491090E+02 -0.26896511111E+02  0.38444009879E+02  0.51100000000E-03 0.  1.
         12    1    3    3    0    0  0.71921486030E+01 -0.33323437761E+02  0.21845820080E+02  0.40489731547E+02  0.00000000000E+00 0. -1.
</event>
<event>
 7    1  0.1716782E-015  0.9000790E+02  0.7816164E-02  0.1186339E+00
        -11   -1    0    0    0    0  0.00000000000E+00  0.00000000000E+00  0.45593999997E+02  0.45594000000E+02  0.51100000000E-03 0.  1.
         11   -1    0    0    0    0 -0.00000000000E+00 -0.00000000000E+00 -0.45593999997E+02  0.45594000000E+02  0.51100000000E-03 0. -1.
    9900012    2    1    2    0    0 -0.11163383034E+01 -0.37297198135E+00 -0.85514072142E-01  0.90007901715E+02  0.90000165217E+02 0.  0.
        -12    1    1    2    0    0  0.11163383034E+01  0.37297198135E+00  0.85514072142E-01  0.11800982853E+01  0.00000000000E+00 0.  1.
         11    1    3    3    0    0  0.79135906447E+01  0.42689439862E+01 -0.15234715286E+01  0.91197459070E+01  0.51100000000E-03 0. -1.
        -11    1    3    3    0    0  0.85135494981E+01  0.32764646754E+02 -0.14201785926E+02  0.36710942861E+02  0.51100000000E-03 0.  1.
         12    1    3    3    0    0 -0.17543478446E+02 -0.37406562722E+02  0.15639743383E+02  0.44177212947E+02  0.00000000000E+00 0. -1.
</event>
<event>
 7    1  0.1716782E-015  0.9000758E+02  0.7816164E-02  0.1186339E+00
        -11   -1    0    0    0    0  0.00000000000E+00  0.00000000000E+00  0.45593999997E+02  0.45594000000E+02  0.51100000000E-03 0.  1.
         11   -1    0    0    0    0 -0.00000000000E+00 -0.00000000000E+00 -0.45593999997E+02  0.45594000000E+02  0.51100000000E-03 0. -1.
    9900012    2    1    2    0    0 -0.18021221435E+00  0.69503307681E+00 -0.93692708102E+00  0.90007584914E+02  0.89999844235E+02 0.  0.
        -12    1    1    2    0    0  0.18021221435E+00 -0.69503307681E+00  0.93692708102E+00  0.11804150860E+01  0.00000000000E+00 0.  1.
         11    1    3    3    0    0 -0.10289303754E+01  0.38561494024E+02 -0.42168162544E+01  0.38805013318E+02  0.51100000000E-03 0. -1.
        -11    1    3    3    0    0  0.12923556419E+01  0.40500722331E+01 -0.68639121422E+01  0.80738193165E+01  0.51100000000E-03 0.  1.
        -12    1    3    3    0    0 -0.44363748087E+00 -0.41916533180E+02  0.10143801316E+02  0.43128752279E+02  0.00000000000E+00 0.  1.
</event>
<event>
 7    1  0.1716782E-015  0.9000777E+02  0.7816164E-02  0.1186339E+00
        -11   -1    0    0    0    0  0.00000000000E+00  0.00000000000E+00  0.45593999997E+02  0.45594000000E+02  0.51100000000E-03 0. -1.
         11   -1    0    0    0    0 -0.00000000000E+00 -0.00000000000E+00 -0.45593999997E+02  0.45594000000E+02  0.51100000000E-03 0.  1.
    9900012    2    1    2    0    0 -0.86582408890E+00  0.46639565410E+00 -0.65250314457E+00  0.90007772644E+02  0.90000034443E+02 0.  0.
        -12    1    1    2    0    0  0.86582408890E+00 -0.46639565410E+00  0.65250314457E+00  0.11802273564E+01  0.00000000000E+00 0.  1.
         11    1    3    3    0    0 -0.40135163900E+01 -0.67917163039E+01  0.42078271876E+01  0.89410029677E+01  0.51100000000E-03 0. -1.
        -11    1    3    3    0    0 -0.86715658272E+01  0.24822211236E+02 -0.35283181346E+02  0.44002739809E+02  0.51100000000E-03 0.  1.
         12    1    3    3    0    0  0.11819258128E+02 -0.17564099278E+02  0.30422851014E+02  0.37064029867E+02  0.00000000000E+00 0. -1.
</event>
<event>
 7    1  0.1716782E-015  0.9000767E+02  0.7816164E-02  0.1186339E+00
        -11   -1    0    0    0    0  0.00000000000E+00  0.00000000000E+00  0.45593999997E+02  0.45594000000E+02  0.51100000000E-03 0.  1.
         11   -1    0    0    0    0 -0.00000000000E+00 -0.00000000000E+00 -0.45593999997E+02  0.45594000000E+02  0.51100000000E-03 0. -1.
    9900012    2    1    2    0    0 -0.77194374059E-01 -0.99212111913E+00 -0.63476077046E+00  0.90007667622E+02  0.89999928035E+02 0.  0.
        -12    1    1    2    0    0  0.77194374059E-01  0.99212111913E+00  0.63476077046E+00  0.11803323778E+01  0.00000000000E+00 0.  1.
         11    1    3    3    0    0 -0.16126701367E+02  0.93291501938E+01  0.29699358120E+01  0.18865949732E+02  0.51100000000E-03 0. -1.
        -11    1    3    3    0    0 -0.18406097181E+01 -0.30494096551E+02 -0.22735609356E+02  0.38081303833E+02  0.51100000000E-03 0.  1.
         12    1    3    3    0    0  0.17890116711E+02  0.20172825238E+02  0.19130912774E+02  0.33060414056E+02  0.00000000000E+00 0. -1.
</event>
<event>
 7    1  0.1716782E-015  0.9000781E+02  0.7816164E-02  0.1186339E+00
        -11   -1    0    0    0    0  0.00000000000E+00  0.00000000000E+00  0.45593999997E+02  0.45594000000E+02  0.51100000000E-03 0.  1.
         11   -1    0    0    0    0 -0.00000000000E+00 -0.00000000000E+00 -0.45593999997E+02  0.45594000000E+02  0.51100000000E-03 0. -1.
    9900012    2    1    2    0    0 -0.85032452024E+00  0.25484610709E+00 -0.77772556113E+00  0.90007807060E+02  0.90000069313E+02 0.  0.
        -12    1    1    2    0    0  0.85032452024E+00 -0.25484610709E+00  0.77772556113E+00  0.11801929403E+01  0.00000000000E+00 0.  1.
         11    1    3    3    0    0 -0.40401791893E+01 -0.78722758451E+01  0.13970185335E+01  0.89580933188E+01  0.51100000000E-03 0. -1.
        -11    1    3    3    0    0 -0.23653547693E+02  0.34341354225E+02 -0.96287397698E+01  0.42796396557E+02  0.51100000000E-03 0.  1.
         12    1    3    3    0    0  0.26843402362E+02 -0.26214232273E+02  0.74539956752E+01  0.38253317184E+02  0.00000000000E+00 0. -1.
</event>
<event>
 7    1  0.1716782E-015  0.9000776E+02  0.7816164E-02  0.1186339E+00
        -11   -1    0    0    0    0  0.00000000000E+00  0.00000000000E+00  0.45593999997E+02  0.45594000000E+02  0.51100000000E-03 0. -1.
         11   -1    0    0    0    0 -0.00000000000E+00 -0.00000000000E+00 -0.45593999997E+02  0.45594000000E+02  0.51100000000E-03 0.  1.
    9900012    2    1    2    0    0 -0.27775927971E+00 -0.69989107807E+00  0.90882606582E+00  0.90007761653E+02  0.90000023306E+02 0.  0.
        -12    1    1    2    0    0  0.27775927971E+00  0.69989107807E+00 -0.90882606582E+00  0.11802383473E+01  0.00000000000E+00 0.  1.
         11    1    3    3    0    0 -0.10733331474E+02  0.17059965623E+02  0.35869419840E+02  0.41144405592E+02  0.51100000000E-03 0. -1.
        -11    1    3    3    0    0 -0.78927997100E+01 -0.17222420675E+01 -0.28800994040E+01  0.85765597904E+01  0.51100000000E-03 0.  1.
        -12    1    3    3    0    0  0.18348371904E+02 -0.16037614633E+02 -0.32080494371E+02  0.40286796270E+02  0.00000000000E+00 0.  1.
</event>
<event>
 7    1  0.2000918E-015  0.9000777E+02  0.7816164E-02  0.1186339E+00
        -11   -1    0    0    0    0  0.00000000000E+00  0.00000000000E+00  0.45593999997E+02  0.45594000000E+02  0.51100000000E-03 0. -1.
         11   -1    0    0    0    0 -0.00000000000E+00 -0.00000000000E+00 -0.45593999997E+02  0.45594000000E+02  0.51100000000E-03 0.  1.
    9900012    2    1    2    0    0 -0.57233828059E+00 -0.86876671385E+00  0.55733910297E+00  0.90007765453E+02  0.90000027157E+02 0.  0.
        -12    1    1    2    0    0  0.57233828059E+00  0.86876671385E+00 -0.55733910297E+00  0.11802345471E+01  0.00000000000E+00 0.  1.
         11    1    3    3    0    0  0.19062957053E+02 -0.56335570656E+01  0.35579186000E+02  0.40755512185E+02  0.51100000000E-03 0. -1.
        -11    1    3    3    0    0 -0.94685122617E+01 -0.35478204328E+01  0.16995703087E+01  0.10253208950E+02  0.51100000000E-03 0.  1.
        -12    1    3    3    0    0 -0.10166783072E+02  0.83126107845E+01 -0.36721417206E+02  0.38999044318E+02  0.00000000000E+00 0.  1.
</event>
<event>
 7    1  0.1716782E-015  0.9000770E+02  0.7816164E-02  0.1186339E+00
        -11   -1    0    0    0    0  0.00000000000E+00  0.00000000000E+00  0.45593999997E+02  0.45594000000E+02  0.51100000000E-03 0. -1.
         11   -1    0    0    0    0 -0.00000000000E+00 -0.00000000000E+00 -0.45593999997E+02  0.45594000000E+02  0.51100000000E-03 0.  1.
    9900012    2    1    2    0    0  0.97953973380E+00 -0.59257525424E+00  0.28717185687E+00  0.90007698684E+02  0.89999959506E+02 0.  0.
        -12    1    1    2    0    0 -0.97953973380E+00  0.59257525424E+00 -0.28717185687E+00  0.11803013164E+01  0.00000000000E+00 0.  1.
         11    1    3    3    0    0 -0.98355129923E+01 -0.21952672566E+02  0.30506641098E+02  0.38849868725E+02  0.51100000000E-03 0. -1.
        -11    1    3    3    0    0  0.10308418035E+02 -0.31957954153E+01  0.16545531773E+01  0.10918522666E+02  0.51100000000E-03 0.  1.
        -12    1    3    3    0    0  0.50663469106E+00  0.24555892727E+02 -0.31874022418E+02  0.40239307293E+02  0.00000000000E+00 0.  1.
</event>
<event>
 7    1  0.1716782E-015  0.9000784E+02  0.7816164E-02  0.1186339E+00
        -11   -1    0    0    0    0  0.00000000000E+00  0.00000000000E+00  0.45593999997E+02  0.45594000000E+02  0.51100000000E-03 0.  1.
         11   -1    0    0    0    0 -0.00000000000E+00 -0.00000000000E+00 -0.45593999997E+02  0.45594000000E+02  0.51100000000E-03 0. -1.
    9900012    2    1    2    0    0 -0.77141520641E-01  0.43994274373E-01 -0.11768118469E+01  0.90007842200E+02  0.90000104917E+02 0.  0.
        -12    1    1    2    0    0  0.77141520641E-01 -0.43994274373E-01  0.11768118469E+01  0.11801578003E+01  0.00000000000E+00 0.  1.
         11    1    3    3    0    0  0.23502262728E+02 -0.26267010958E+02 -0.10066516547E+02  0.36655790452E+02  0.51100000000E-03 0. -1.
        -11    1    3    3    0    0  0.10764576531E+02  0.84534308304E+01  0.44333162773E+01  0.14387178117E+02  0.51100000000E-03 0.  1.
        -12    1    3    3    0    0 -0.34343980779E+02  0.17857574402E+02  0.44563884227E+01  0.38964873631E+02  0.00000000000E+00 0.  1.
</event>
<event>
 7    1  0.1716782E-015  0.9000769E+02  0.7816164E-02  0.1186339E+00
        -11   -1    0    0    0    0  0.00000000000E+00  0.00000000000E+00  0.45593999997E+02  0.45594000000E+02  0.51100000000E-03 0.  1.
         11   -1    0    0    0    0 -0.00000000000E+00 -0.00000000000E+00 -0.45593999997E+02  0.45594000000E+02  0.51100000000E-03 0. -1.
    9900012    2    1    2    0    0 -0.55493663765E+00 -0.30237051044E+00 -0.99686685784E+00  0.90007692358E+02  0.89999953097E+02 0.  0.
        -12    1    1    2    0    0  0.55493663765E+00  0.30237051044E+00  0.99686685784E+00  0.11803076419E+01  0.00000000000E+00 0.  1.
         11    1    3    3    0    0 -0.97408736213E+01  0.14187694899E+01 -0.39893170279E+02  0.41089689229E+02  0.51100000000E-03 0. -1.
        -11    1    3    3    0    0 -0.32485934836E+01  0.84217550453E+01  0.28573993159E+01  0.94680541177E+01  0.51100000000E-03 0.  1.
        -12    1    3    3    0    0  0.12434530467E+02 -0.10142895046E+02  0.36038904106E+02  0.39449949011E+02  0.00000000000E+00 0.  1.
</event>
<event>
 7    1  0.1716782E-015  0.9000776E+02  0.7816164E-02  0.1186339E+00
        -11   -1    0    0    0    0  0.00000000000E+00  0.00000000000E+00  0.45593999997E+02  0.45594000000E+02  0.51100000000E-03 0. -1.
         11   -1    0    0    0    0 -0.00000000000E+00 -0.00000000000E+00 -0.45593999997E+02  0.45594000000E+02  0.51100000000E-03 0.  1.
    9900012    2    1    2    0    0 -0.11349239176E+01 -0.29076200616E+00  0.14276527259E+00  0.90007755633E+02  0.90000017207E+02 0.  0.
        -12    1    1    2    0    0  0.11349239176E+01  0.29076200616E+00 -0.14276527259E+00  0.11802443671E+01  0.00000000000E+00 0.  1.
         11    1    3    3    0    0  0.31928430709E+01 -0.27103777499E+01 -0.96492171414E+01  0.10518925141E+02  0.51100000000E-03 0. -1.
        -11    1    3    3    0    0 -0.52239035615E+01  0.29597884478E+02 -0.22300244135E+02  0.37424922482E+02  0.51100000000E-03 0.  1.
         12    1    3    3    0    0  0.89613657296E+00 -0.27178268735E+02  0.32092226549E+02  0.42063908010E+02  0.00000000000E+00 0. -1.
</event>
<event>
 7    1  0.1716782E-015  0.9000774E+02  0.7816164E-02  0.1186339E+00
        -11   -1    0    0    0    0  0.00000000000E+00  0.00000000000E+00  0.45593999997E+02  0.45594000000E+02  0.51100000000E-03 0.  1.
         11   -1    0    0    0    0 -0.00000000000E+00 -0.00000000000E+00 -0.45593999997E+02  0.45594000000E+02  0.51100000000E-03 0. -1.
    9900012    2    1    2    0    0  0.36037099965E+00 -0.49418050031E+00 -0.10094225056E+01  0.90007739258E+02  0.90000000616E+02 0.  0.
        -12    1    1    2    0    0 -0.36037099965E+00  0.49418050031E+00  0.10094225056E+01  0.11802607420E+01  0.00000000000E+00 0.  1.
         11    1    3    3    0    0  0.10332541811E+02  0.92342129436E+00 -0.26016929319E+00  0.10376984894E+02  0.51100000000E-03 0. -1.
        -11    1    3    3    0    0 -0.12209481226E+02  0.76293151250E+01  0.37549222090E+02  0.40214698319E+02  0.51100000000E-03 0.  1.
         12    1    3    3    0    0  0.22373104149E+01 -0.90469169197E+01 -0.38298475302E+02  0.39416056045E+02  0.00000000000E+00 0. -1.
</event>
<event>
 7    1  0.1716782E-015  0.9000774E+02  0.7816164E-02  0.1186339E+00
        -11   -1    0    0    0    0  0.00000000000E+00  0.00000000000E+00  0.45593999997E+02  0.45594000000E+02  0.51100000000E-03 0.  1.
         11   -1    0    0    0    0 -0.00000000000E+00 -0.00000000000E+00 -0.45593999997E+02  0.45594000000E+02  0.51100000000E-03 0. -1.
    9900012    2    1    2    0    0 -0.89150350627E+00 -0.46134944969E-01 -0.77207874593E+00  0.90007740484E+02  0.90000001859E+02 0.  0.
        -12    1    1    2    0    0  0.89150350627E+00  0.46134944969E-01  0.77207874593E+00  0.11802595158E+01  0.00000000000E+00 0.  1.
         11    1    3    3    0    0  0.93846283840E+01  0.52955144252E+01  0.82490343071E+01  0.13570567055E+02  0.51100000000E-03 0. -1.
        -11    1    3    3    0    0 -0.12667032445E+02  0.19501719161E+02 -0.33957237839E+02  0.41156588332E+02  0.51100000000E-03 0.  1.
         12    1    3    3    0    0  0.23909005545E+01 -0.24843368531E+02  0.24936124786E+02  0.35280585097E+02  0.00000000000E+00 0. -1.
</event>
<event>
 7    1  0.1716782E-015  0.9000792E+02  0.7816164E-02  0.1186339E+00
        -11   -1    0    0    0    0  0.00000000000E+00  0.00000000000E+00  0.45593999997E+02  0.45594000000E+02  0.51100000000E-03 0.  1.
         11   -1    0    0    0    0 -0.00000000000E+00 -0.00000000000E+00 -0.45593999997E+02  0.45594000000E+02  0.51100000000E-03 0. -1.
    9900012    2    1    2    0    0 -0.84622930213E+00 -0.14983572916E-01 -0.82235081101E+00  0.90007919750E+02  0.90000183491E+02 0.  0.
        -12    1    1    2    0    0  0.84622930213E+00  0.14983572916E-01  0.82235081101E+00  0.11800802496E+01  0.00000000000E+00 0.  1.
         11    1    3    3    0    0  0.14794052899E+02  0.55930956558E+00  0.37238795740E+01  0.15265782250E+02  0.51100000000E-03 0. -1.
        -11    1    3    3    0    0 -0.21877475545E+02 -0.30099385195E+02  0.13497262065E+02  0.39582483612E+02  0.51100000000E-03 0.  1.
         12    1    3    3    0    0  0.62371933441E+01  0.29525092056E+02 -0.18043492450E+02  0.35159653888E+02  0.00000000000E+00 0. -1.
</event>
<event>
 7    1  0.1716782E-015  0.9000754E+02  0.7816164E-02  0.1186339E+00
        -11   -1    0    0    0    0  0.00000000000E+00  0.00000000000E+00  0.45593999997E+02  0.45594000000E+02  0.51100000000E-03 0.  1.
         11   -1    0    0    0    0 -0.00000000000E+00 -0.00000000000E+00 -0.45593999997E+02  0.45594000000E+02  0.51100000000E-03 0. -1.
    9900012    2    1    2    0    0  0.29545813388E+00 -0.41810648317E+00 -0.10636575328E+01  0.90007544204E+02  0.89999802987E+02 0.  0.
        -12    1    1    2    0    0 -0.29545813388E+00  0.41810648317E+00  0.10636575328E+01  0.11804557964E+01  0.00000000000E+00 0.  1.
         11    1    3    3    0    0  0.98878654769E+01  0.25621097314E+02 -0.25176606991E+02  0.37256838984E+02  0.51100000000E-03 0. -1.
        -11    1    3    3    0    0 -0.87723250051E+01  0.51619421403E+01 -0.38132631844E+01  0.10869236819E+02  0.51100000000E-03 0.  1.
        -12    1    3    3    0    0 -0.82008233800E+00 -0.31201145937E+02  0.27926212642E+02  0.41881468401E+02  0.00000000000E+00 0.  1.
</event>
<event>
 7    1  0.1716782E-015  0.9000779E+02  0.7816164E-02  0.1186339E+00
        -11   -1    0    0    0    0  0.00000000000E+00  0.00000000000E+00  0.45593999997E+02  0.45594000000E+02  0.51100000000E-03 0. -1.
         11   -1    0    0    0    0 -0.00000000000E+00 -0.00000000000E+00 -0.45593999997E+02  0.45594000000E+02  0.51100000000E-03 0.  1.
    9900012    2    1    2    0    0  0.83370804036E+00 -0.78528159345E+00 -0.28490317172E+00  0.90007785573E+02  0.90000047542E+02 0.  0.
        -12    1    1    2    0    0 -0.83370804036E+00  0.78528159345E+00  0.28490317172E+00  0.11802144275E+01  0.00000000000E+00 0.  1.
         11    1    3    3    0    0 -0.35550269354E+01  0.18065732265E+01  0.10048093454E+02  0.10810462786E+02  0.51100000000E-03 0. -1.
        -11    1    3    3    0    0 -0.24625688042E+02  0.27316053698E+02 -0.65555715918E+01  0.37357286041E+02  0.51100000000E-03 0.  1.
         12    1    3    3    0    0  0.29014423018E+02 -0.29907908518E+02 -0.37774250340E+01  0.41840036745E+02  0.00000000000E+00 0. -1.
</event>
<event>
 7    1  0.1716782E-015  0.9000760E+02  0.7816164E-02  0.1186339E+00
        -11   -1    0    0    0    0  0.00000000000E+00  0.00000000000E+00  0.45593999997E+02  0.45594000000E+02  0.51100000000E-03 0. -1.
         11   -1    0    0    0    0 -0.00000000000E+00 -0.00000000000E+00 -0.45593999997E+02  0.45594000000E+02  0.51100000000E-03 0.  1.
    9900012    2    1    2    0    0 -0.11405326241E+01 -0.18780946824E+00 -0.23927594196E+00  0.90007601745E+02  0.89999861288E+02 0.  0.
        -12    1    1    2    0    0  0.11405326241E+01  0.18780946824E+00  0.23927594196E+00  0.11803982546E+01  0.00000000000E+00 0.  1.
         11    1    3    3    0    0  0.28006199718E+02 -0.24639211454E+02  0.97275491076E+01  0.38549489953E+02  0.51100000000E-03 0. -1.
        -11    1    3    3    0    0  0.71014700379E+01  0.54744537675E+01  0.11995153314E+01  0.90465108215E+01  0.51100000000E-03 0.  1.
        -12    1    3    3    0    0 -0.36248202380E+02  0.18976948218E+02 -0.11166340381E+02  0.42411600971E+02  0.00000000000E+00 0.  1.
</event>
<event>
 7    1  0.1716782E-015  0.9000772E+02  0.7816164E-02  0.1186339E+00
        -11   -1    0    0    0    0  0.00000000000E+00  0.00000000000E+00  0.45593999997E+02  0.45594000000E+02  0.51100000000E-03 0. -1.
         11   -1    0    0    0    0 -0.00000000000E+00 -0.00000000000E+00 -0.45593999997E+02  0.45594000000E+02  0.51100000000E-03 0.  1.
    9900012    2    1    2    0    0 -0.23236801861E+00  0.11069284522E+01  0.33731950285E+00  0.90007716161E+02  0.89999977214E+02 0.  0.
        -12    1    1    2    0    0  0.23236801861E+00 -0.11069284522E+01 -0.33731950285E+00  0.11802838393E+01  0.00000000000E+00 0.  1.
         11    1    3    3    0    0 -0.70241265231E+01  0.63958622538E+01  0.32303848273E+01  0.10033981950E+02  0.51100000000E-03 0. -1.
        -11    1    3    3    0    0  0.34502041895E+02  0.62009358134E+01 -0.24703704287E+02  0.42884910000E+02  0.51100000000E-03 0.  1.
         12    1    3    3    0    0 -0.27710283391E+02 -0.11489869615E+02  0.21810638963E+02  0.37088824211E+02  0.00000000000E+00 0. -1.
</event>
<event>
 7    1  0.1716782E-015  0.9000713E+02  0.7816164E-02  0.1186340E+00
        -11   -1    0    0    0    0  0.00000000000E+00  0.00000000000E+00  0.45593999997E+02  0.45594000000E+02  0.51100000000E-03 0.  1.
         11   -1    0    0    0    0 -0.00000000000E+00 -0.00000000000E+00 -0.45593999997E+02  0.45594000000E+02  0.51100000000E-03 0. -1.
    9900012    2    1    2    0    0 -0.82916575267E+00 -0.79704627917E+00 -0.26769824574E+00  0.90007127032E+02  0.89999380306E+02 0.  0.
        -12    1    1    2    0    0  0.82916575267E+00  0.79704627917E+00  0.26769824574E+00  0.11808729683E+01  0.00000000000E+00 0.  1.
         11    1    3    3    0    0  0.48461995441E+01 -0.38039587330E+01 -0.53666657076E+01  0.81704867139E+01  0.51100000000E-03 0. -1.
        -11    1    3    3    0    0  0.25480765383E+02  0.10150428174E+02 -0.25599259767E+02  0.37518298169E+02  0.51100000000E-03 0.  1.
         12    1    3    3    0    0 -0.31156130680E+02 -0.71435157203E+01  0.30698227229E+02  0.44318342149E+02  0.00000000000E+00 0. -1.
</event>
<event>
 7    1  0.1716782E-015  0.9000773E+02  0.7816164E-02  0.1186339E+00
        -11   -1    0    0    0    0  0.00000000000E+00  0.00000000000E+00  0.45593999997E+02  0.45594000000E+02  0.51100000000E-03 0. -1.
         11   -1    0    0    0    0 -0.00000000000E+00 -0.00000000000E+00 -0.45593999997E+02  0.45594000000E+02  0.51100000000E-03 0.  1.
    9900012    2    1    2    0    0 -0.10654971842E+01  0.40609521601E+00  0.30471195988E+00  0.90007725899E+02  0.89999987081E+02 0.  0.
        -12    1    1    2    0    0  0.10654971842E+01 -0.40609521601E+00 -0.30471195988E+00  0.11802741005E+01  0.00000000000E+00 0.  1.
         11    1    3    3    0    0  0.24895123552E+02  0.47463341918E+01  0.16075511587E+02  0.30011946587E+02  0.51100000000E-03 0. -1.
        -11    1    3    3    0    0  0.10341671882E+02  0.42189756967E+01  0.97307491184E+01  0.14813419994E+02  0.51100000000E-03 0.  1.
        -12    1    3    3    0    0 -0.36302292618E+02 -0.85592146725E+01 -0.25501548745E+02  0.45182359318E+02  0.00000000000E+00 0.  1.
</event>
<event>
 7    1  0.1716782E-015  0.9000771E+02  0.7816164E-02  0.1186339E+00
        -11   -1    0    0    0    0  0.00000000000E+00  0.00000000000E+00  0.45593999997E+02  0.45594000000E+02  0.51100000000E-03 0. -1.
         11   -1    0    0    0    0 -0.00000000000E+00 -0.00000000000E+00 -0.45593999997E+02  0.45594000000E+02  0.51100000000E-03 0.  1.
    9900012    2    1    2    0    0  0.91081209931E+00  0.60660599824E+00  0.44220005222E+00  0.90007707492E+02  0.89999968431E+02 0.  0.
        -12    1    1    2    0    0 -0.91081209931E+00 -0.60660599824E+00 -0.44220005222E+00  0.11802925076E+01  0.00000000000E+00 0.  1.
         11    1    3    3    0    0  0.39239807510E+01  0.11299471567E+02  0.39472333650E+02  0.41244888249E+02  0.51100000000E-03 0. -1.
        -11    1    3    3    0    0  0.33897812902E+00  0.86918451956E+01 -0.69622188038E+01  0.11141614336E+02  0.51100000000E-03 0.  1.
        -12    1    3    3    0    0 -0.33521467807E+01 -0.19384710765E+02 -0.32067914794E+02  0.37621204908E+02  0.00000000000E+00 0.  1.
</event>
<event>
 7    1  0.1716782E-015  0.9000763E+02  0.7816164E-02  0.1186339E+00
        -11   -1    0    0    0    0  0.00000000000E+00  0.00000000000E+00  0.45593999997E+02  0.45594000000E+02  0.51100000000E-03 0. -1.
         11   -1    0    0    0    0 -0.00000000000E+00 -0.00000000000E+00 -0.45593999997E+02  0.45594000000E+02  0.51100000000E-03 0.  1.
    9900012    2    1    2    0    0 -0.47145567366E+00  0.81503768898E+00  0.71183436065E+00  0.90007633513E+02  0.89999893475E+02 0.  0.
        -12    1    1    2    0    0  0.47145567366E+00 -0.81503768898E+00 -0.71183436065E+00  0.11803664870E+01  0.00000000000E+00 0.  1.
         11    1    3    3    0    0 -0.55165922062E+01  0.34292730542E+02  0.16332339588E+02  0.38381889926E+02  0.51100000000E-03 0. -1.
        -11    1    3    3    0    0 -0.10347387622E+02 -0.11361593475E+01  0.35527766974E+01  0.10999159567E+02  0.51100000000E-03 0.  1.
        -12    1    3    3    0    0  0.15392524154E+02 -0.32341533506E+02 -0.19173281925E+02  0.40626584020E+02  0.00000000000E+00 0.  1.
</event>
<event>
 7    1  0.1716782E-015  0.9000767E+02  0.7816164E-02  0.1186339E+00
        -11   -1    0    0    0    0  0.00000000000E+00  0.00000000000E+00  0.45593999997E+02  0.45594000000E+02  0.51100000000E-03 0.  1.
         11   -1    0    0    0    0 -0.00000000000E+00 -0.00000000000E+00 -0.45593999997E+02  0.45594000000E+02  0.51100000000E-03 0. -1.
    9900012    2    1    2    0    0  0.80148477479E+00  0.35045749480E+00 -0.79244638810E+00  0.90007673953E+02  0.89999934449E+02 0.  0.
        -12    1    1    2    0    0 -0.80148477479E+00 -0.35045749480E+00  0.79244638810E+00  0.11803260473E+01  0.00000000000E+00 0.  1.
         11    1    3    3    0    0  0.10020567000E+02  0.11928106730E+02  0.43011982400E+01  0.16161429384E+02  0.51100000000E-03 0. -1.
        -11    1    3    3    0    0 -0.21958517555E+02  0.14514697609E+02  0.21869364779E+02  0.34221660626E+02  0.51100000000E-03 0.  1.
         12    1    3    3    0    0  0.12739435330E+02 -0.26092346844E+02 -0.26963009407E+02  0.39624583943E+02  0.00000000000E+00 0. -1.
</event>
<event>
 7    1  0.3406362E-015  0.9000774E+02  0.7816164E-02  0.1186339E+00
        -11   -1    0    0    0    0  0.00000000000E+00  0.00000000000E+00  0.45593999997E+02  0.45594000000E+02  0.51100000000E-03 0.  1.
         11   -1    0    0    0    0 -0.00000000000E+00 -0.00000000000E+00 -0.45593999997E+02  0.45594000000E+02  0.51100000000E-03 0. -1.
    9900012    2    1    2    0    0 -0.67554633761E+00  0.46630369841E+00 -0.84805702267E+00  0.90007744643E+02  0.90000006073E+02 0.  0.
        -12    1    1    2    0    0  0.67554633761E+00 -0.46630369841E+00  0.84805702267E+00  0.11802553567E+01  0.00000000000E+00 0.  1.
         11    1    3    3    0    0 -0.14807507708E+02 -0.27186673671E+01 -0.37320210133E+02  0.40242409488E+02  0.51100000000E-03 0. -1.
        -11    1    3    3    0    0  0.68003069826E+01  0.66288284277E+01 -0.26130877369E+01  0.98495568004E+01  0.51100000000E-03 0.  1.
        -12    1    3    3    0    0  0.73316543882E+01 -0.34438573622E+01  0.39085240847E+02  0.39915778355E+02  0.00000000000E+00 0.  1.
</event>
<event>
 7    1  0.1716782E-015  0.9000767E+02  0.7816164E-02  0.1186339E+00
        -11   -1    0    0    0    0  0.00000000000E+00  0.00000000000E+00  0.45593999997E+02  0.45594000000E+02  0.51100000000E-03 0. -1.
         11   -1    0    0    0    0 -0.00000000000E+00 -0.00000000000E+00 -0.45593999997E+02  0.45594000000E+02  0.51100000000E-03 0.  1.
    9900012    2    1    2    0    0  0.49675836431E+00  0.48617932516E+00  0.95395528712E+00  0.90007673817E+02  0.89999934311E+02 0.  0.
        -12    1    1    2    0    0 -0.49675836431E+00 -0.48617932516E+00 -0.95395528712E+00  0.11803261831E+01  0.00000000000E+00 0.  1.
         11    1    3    3    0    0  0.68069688523E+01  0.48259273598E+01  0.42572669592E+01  0.93674287860E+01  0.51100000000E-03 0. -1.
        -11    1    3    3    0    0  0.28386000864E+01 -0.17820827951E+02 -0.38133605758E+02  0.42187811601E+02  0.51100000000E-03 0.  1.
         12    1    3    3    0    0 -0.91488105743E+01  0.13481079916E+02  0.34830294086E+02  0.38452433430E+02  0.00000000000E+00 0. -1.
</event>
<event>
 7    1  0.1716782E-015  0.9000765E+02  0.7816164E-02  0.1186339E+00
        -11   -1    0    0    0    0  0.00000000000E+00  0.00000000000E+00  0.45593999997E+02  0.45594000000E+02  0.51100000000E-03 0.  1.
         11   -1    0    0    0    0 -0.00000000000E+00 -0.00000000000E+00 -0.45593999997E+02  0.45594000000E+02  0.51100000000E-03 0. -1.
    9900012    2    1    2    0    0 -0.11618502417E+01 -0.20813412013E+00 -0.23710452310E-02  0.90007651993E+02  0.89999912199E+02 0.  0.
        -12    1    1    2    0    0  0.11618502417E+01  0.20813412013E+00  0.23710452310E-02  0.11803480071E+01  0.00000000000E+00 0.  1.
         11    1    3    3    0    0 -0.35363809098E+01 -0.73080424175E+01  0.34312570105E+01  0.88140228527E+01  0.51100000000E-03 0. -1.
        -11    1    3    3    0    0 -0.33763570717E+02 -0.11423445138E+02  0.12208236584E+02  0.37676449503E+02  0.51100000000E-03 0.  1.
         12    1    3    3    0    0  0.36138101385E+02  0.18523353435E+02 -0.15641864639E+02  0.43517179638E+02  0.00000000000E+00 0. -1.
</event>
<event>
 7    1  0.1716782E-015  0.9000778E+02  0.7816164E-02  0.1186339E+00
        -11   -1    0    0    0    0  0.00000000000E+00  0.00000000000E+00  0.45593999997E+02  0.45594000000E+02  0.51100000000E-03 0. -1.
         11   -1    0    0    0    0 -0.00000000000E+00 -0.00000000000E+00 -0.45593999997E+02  0.45594000000E+02  0.51100000000E-03 0.  1.
    9900012    2    1    2    0    0  0.72206557071E+00 -0.93254819901E+00 -0.43581631883E-01  0.90007777906E+02  0.90000039775E+02 0.  0.
        -12    1    1    2    0    0 -0.72206557071E+00  0.93254819901E+00  0.43581631883E-01  0.11802220937E+01  0.00000000000E+00 0.  1.
         11    1    3    3    0    0  0.26228141395E+02 -0.15538851289E+01  0.24157589225E+02  0.35692002991E+02  0.51100000000E-03 0. -1.
        -11    1    3    3    0    0  0.40928945788E+01 -0.11662422408E+01  0.89059612606E+01  0.98705649906E+01  0.51100000000E-03 0.  1.
        -12    1    3    3    0    0 -0.29598970403E+02  0.17875791707E+01 -0.33107132118E+02  0.44445209925E+02  0.00000000000E+00 0.  1.
</event>
<event>
 7    1  0.1716782E-015  0.9000771E+02  0.7816164E-02  0.1186339E+00
        -11   -1    0    0    0    0  0.00000000000E+00  0.00000000000E+00  0.45593999997E+02  0.45594000000E+02  0.51100000000E-03 0.  1.
         11   -1    0    0    0    0 -0.00000000000E+00 -0.00000000000E+00 -0.45593999997E+02  0.45594000000E+02  0.51100000000E-03 0. -1.
    9900012    2    1    2    0    0  0.57630495616E+00  0.43309332857E+00 -0.93455030839E+00  0.90007711259E+02  0.89999972247E+02 0.  0.
        -12    1    1    2    0    0 -0.57630495616E+00 -0.43309332857E+00  0.93455030839E+00  0.11802887412E+01  0.00000000000E+00 0.  1.
         11    1    3    3    0    0  0.26300684617E+02  0.15873742891E+02 -0.31660043827E+02  0.44114171194E+02  0.51100000000E-03 0. -1.
        -11    1    3    3    0    0 -0.72240563320E+01  0.23222053798E+01  0.30967969228E+01  0.81957171228E+01  0.51100000000E-03 0.  1.
        -12    1    3    3    0    0 -0.18500323329E+02 -0.17762854942E+02  0.27628696596E+02  0.37697822942E+02  0.00000000000E+00 0.  1.
</event>
<event>
 7    1  0.1716782E-015  0.9000767E+02  0.7816164E-02  0.1186339E+00
        -11   -1    0    0    0    0  0.00000000000E+00  0.00000000000E+00  0.45593999997E+02  0.45594000000E+02  0.51100000000E-03 0. -1.
         11   -1    0    0    0    0 -0.00000000000E+00 -0.00000000000E+00 -0.45593999997E+02  0.45594000000E+02  0.51100000000E-03 0.  1.
    9900012    2    1    2    0    0  0.10733899840E+01 -0.29025009001E+00  0.39594349092E+00  0.90007668512E+02  0.89999928937E+02 0.  0.
        -12    1    1    2    0    0 -0.10733899840E+01  0.29025009001E+00 -0.39594349092E+00  0.11803314876E+01  0.00000000000E+00 0.  1.
         11    1    3    3    0    0 -0.18608927204E+01 -0.28433145418E+02  0.30090556101E+01  0.28652418677E+02  0.51100000000E-03 0. -1.
        -11    1    3    3    0    0  0.44202505921E+01  0.61976435745E+01 -0.27270474484E+02  0.28313039046E+02  0.51100000000E-03 0.  1.
         12    1    3    3    0    0 -0.14859678877E+01  0.21945251754E+02  0.24657362365E+02  0.33042210790E+02  0.00000000000E+00 0. -1.
</event>
<event>
 7    1  0.1716782E-015  0.9000778E+02  0.7816164E-02  0.1186339E+00
        -11   -1    0    0    0    0  0.00000000000E+00  0.00000000000E+00  0.45593999997E+02  0.45594000000E+02  0.51100000000E-03 0.  1.
         11   -1    0    0    0    0 -0.00000000000E+00 -0.00000000000E+00 -0.45593999997E+02  0.45594000000E+02  0.51100000000E-03 0. -1.
    9900012    2    1    2    0    0 -0.42394438821E+00 -0.27207867165E+00 -0.10673169272E+01  0.90007779228E+02  0.90000041114E+02 0.  0.
        -12    1    1    2    0    0  0.42394438821E+00  0.27207867165E+00  0.10673169272E+01  0.11802207721E+01  0.00000000000E+00 0.  1.
         11    1    3    3    0    0 -0.78910111393E+01  0.42120919945E+01 -0.89254404269E+00  0.89892386163E+01  0.51100000000E-03 0. -1.
        -11    1    3    3    0    0 -0.23711550954E+02 -0.29877665034E+02 -0.10384235888E+02  0.39531568041E+02  0.51100000000E-03 0.  1.
         12    1    3    3    0    0  0.31178617705E+02  0.25393494368E+02  0.10209463003E+02  0.41486972570E+02  0.00000000000E+00 0. -1.
</event>
<event>
 7    1  0.1716782E-015  0.9000763E+02  0.7816164E-02  0.1186339E+00
        -11   -1    0    0    0    0  0.00000000000E+00  0.00000000000E+00  0.45593999997E+02  0.45594000000E+02  0.51100000000E-03 0.  1.
         11   -1    0    0    0    0 -0.00000000000E+00 -0.00000000000E+00 -0.45593999997E+02  0.45594000000E+02  0.51100000000E-03 0. -1.
    9900012    2    1    2    0    0 -0.63617703892E+00 -0.98790228920E+00  0.11225750135E+00  0.90007629760E+02  0.89999889672E+02 0.  0.
        -12    1    1    2    0    0  0.63617703892E+00  0.98790228920E+00 -0.11225750135E+00  0.11803702404E+01  0.00000000000E+00 0.  1.
         11    1    3    3    0    0 -0.11385214402E+01 -0.67165824738E+01  0.66186725522E+01  0.94981860274E+01  0.51100000000E-03 0. -1.
        -11    1    3    3    0    0  0.31245870512E+01 -0.26500493519E+02  0.24121841142E+02  0.35970855165E+02  0.51100000000E-03 0.  1.
         12    1    3    3    0    0 -0.26222426499E+01  0.32229173704E+02 -0.30628256193E+02  0.44538588567E+02  0.00000000000E+00 0. -1.
</event>
<event>
 7    1  0.1716782E-015  0.9000786E+02  0.7816164E-02  0.1186339E+00
        -11   -1    0    0    0    0  0.00000000000E+00  0.00000000000E+00  0.45593999997E+02  0.45594000000E+02  0.51100000000E-03 0. -1.
         11   -1    0    0    0    0 -0.00000000000E+00 -0.00000000000E+00 -0.45593999997E+02  0.45594000000E+02  0.51100000000E-03 0.  1.
    9900012    2    1    2    0    0 -0.86228551206E+00  0.75577373943E+00 -0.27926403045E+00  0.90007864987E+02  0.90000128005E+02 0.  0.
        -12    1    1    2    0    0  0.86228551206E+00 -0.75577373943E+00  0.27926403045E+00  0.11801350127E+01  0.00000000000E+00 0.  1.
         11    1    3    3    0    0 -0.85403687873E+01 -0.56589635482E+01  0.53282676944E+01  0.11547822494E+02  0.51100000000E-03 0. -1.
        -11    1    3    3    0    0  0.32367780480E+02 -0.16300734692E+02  0.14850048983E+02  0.39165177387E+02  0.51100000000E-03 0.  1.
         12    1    3    3    0    0 -0.24689697205E+02  0.22715471980E+02 -0.20457580708E+02  0.39294865107E+02  0.00000000000E+00 0. -1.
</event>
<event>
 7    1  0.1716782E-015  0.9000780E+02  0.7816164E-02  0.1186339E+00
        -11   -1    0    0    0    0  0.00000000000E+00  0.00000000000E+00  0.45593999997E+02  0.45594000000E+02  0.51100000000E-03 0. -1.
         11   -1    0    0    0    0 -0.00000000000E+00 -0.00000000000E+00 -0.45593999997E+02  0.45594000000E+02  0.51100000000E-03 0.  1.
    9900012    2    1    2    0    0 -0.73944921764E+00  0.25378105861E+00  0.88412657509E+00  0.90007800961E+02  0.90000063134E+02 0.  0.
        -12    1    1    2    0    0  0.73944921764E+00 -0.25378105861E+00 -0.88412657509E+00  0.11801990391E+01  0.00000000000E+00 0.  1.
         11    1    3    3    0    0 -0.61957213338E+01  0.28601097774E+00  0.74815770087E+01  0.97181664898E+01  0.51100000000E-03 0. -1.
        -11    1    3    3    0    0 -0.18029318494E+02  0.27492047336E+02  0.17080120736E+02  0.37048610186E+02  0.51100000000E-03 0.  1.
         12    1    3    3    0    0  0.23485590610E+02 -0.27524277255E+02 -0.23677571170E+02  0.43241024285E+02  0.00000000000E+00 0. -1.
</event>
<event>
 7    1  0.1716782E-015  0.9000775E+02  0.7816164E-02  0.1186339E+00
        -11   -1    0    0    0    0  0.00000000000E+00  0.00000000000E+00  0.45593999997E+02  0.45594000000E+02  0.51100000000E-03 0.  1.
         11   -1    0    0    0    0 -0.00000000000E+00 -0.00000000000E+00 -0.45593999997E+02  0.45594000000E+02  0.51100000000E-03 0. -1.
    9900012    2    1    2    0    0  0.35262726622E+00  0.85171674744E+00 -0.73703896983E+00  0.90007748396E+02  0.90000009874E+02 0.  0.
        -12    1    1    2    0    0 -0.35262726622E+00 -0.85171674744E+00  0.73703896983E+00  0.11802516044E+01  0.00000000000E+00 0.  1.
         11    1    3    3    0    0 -0.21399181240E+02 -0.30971794267E+02  0.12407604385E+02  0.39637427322E+02  0.51100000000E-03 0. -1.
        -11    1    3    3    0    0 -0.74866202921E+01  0.61306722917E+01 -0.19714391246E+01  0.98752822050E+01  0.51100000000E-03 0.  1.
        -12    1    3    3    0    0  0.29238428798E+02  0.25692838723E+02 -0.11173204230E+02  0.40495038869E+02  0.00000000000E+00 0.  1.
</event>
<event>
 7    1  0.1716782E-015  0.9000769E+02  0.7816164E-02  0.1186339E+00
        -11   -1    0    0    0    0  0.00000000000E+00  0.00000000000E+00  0.45593999997E+02  0.45594000000E+02  0.51100000000E-03 0. -1.
         11   -1    0    0    0    0 -0.00000000000E+00 -0.00000000000E+00 -0.45593999997E+02  0.45594000000E+02  0.51100000000E-03 0.  1.
    9900012    2    1    2    0    0  0.68139892671E+00 -0.87765296464E-01  0.95974834762E+00  0.90007693203E+02  0.89999953953E+02 0.  0.
        -12    1    1    2    0    0 -0.68139892671E+00  0.87765296464E-01 -0.95974834762E+00  0.11803067971E+01  0.00000000000E+00 0.  1.
         11    1    3    3    0    0 -0.32251561542E+01  0.62993850348E+01 -0.50007278058E+01  0.86655157310E+01  0.51100000000E-03 0. -1.
        -11    1    3    3    0    0 -0.37975055416E+02 -0.33517272966E+00 -0.29734946761E+01  0.38092766314E+02  0.51100000000E-03 0.  1.
         12    1    3    3    0    0  0.41881610497E+02 -0.60519776016E+01  0.89339708295E+01  0.43249411158E+02  0.00000000000E+00 0. -1.
</event>
<event>
 7    1  0.1716782E-015  0.9000786E+02  0.7816164E-02  0.1186339E+00
        -11   -1    0    0    0    0  0.00000000000E+00  0.00000000000E+00  0.45593999997E+02  0.45594000000E+02  0.51100000000E-03 0.  1.
         11   -1    0    0    0    0 -0.00000000000E+00 -0.00000000000E+00 -0.45593999997E+02  0.45594000000E+02  0.51100000000E-03 0. -1.
    9900012    2    1    2    0    0 -0.85760018497E+00 -0.40377973595E+00 -0.70300538161E+00  0.90007859026E+02  0.90000121965E+02 0.  0.
        -12    1    1    2    0    0  0.85760018497E+00  0.40377973595E+00  0.70300538161E+00  0.11801409742E+01  0.00000000000E+00 0.  1.
         11    1    3    3    0    0 -0.12543383764E+02  0.15478649856E+01 -0.33831342059E+02  0.36114983982E+02  0.51100000000E-03 0. -1.
        -11    1    3    3    0    0  0.10250776212E+02  0.64012513333E+01 -0.62549008925E+01  0.13608020320E+02  0.51100000000E-03 0.  1.
        -12    1    3    3    0    0  0.14350073667E+01 -0.83528960549E+01  0.39383237570E+02  0.40284854724E+02  0.00000000000E+00 0.  1.
</event>
<event>
 7    1  0.1716782E-015  0.9000787E+02  0.7816164E-02  0.1186339E+00
        -11   -1    0    0    0    0  0.00000000000E+00  0.00000000000E+00  0.45593999997E+02  0.45594000000E+02  0.51100000000E-03 0.  1.
         11   -1    0    0    0    0 -0.00000000000E+00 -0.00000000000E+00 -0.45593999997E+02  0.45594000000E+02  0.51100000000E-03 0. -1.
    9900012    2    1    2    0    0 -0.56195274897E+00 -0.15231819536E+00 -0.10265053298E+01  0.90007870805E+02  0.90000133900E+02 0.  0.
        -12    1    1    2    0    0  0.56195274897E+00  0.15231819536E+00  0.10265053298E+01  0.11801291950E+01  0.00000000000E+00 0.  1.
         11    1    3    3    0    0 -0.20324271829E+01 -0.39871762553E+01  0.79930762629E+01  0.91606551704E+01  0.51100000000E-03 0. -1.
        -11    1    3    3    0    0  0.25154378022E+02 -0.72830819191E+01  0.26153189748E+02  0.37010476222E+02  0.51100000000E-03 0.  1.
         12    1    3    3    0    0 -0.23683903588E+02  0.11117939979E+02 -0.35172771341E+02  0.43836739413E+02  0.00000000000E+00 0. -1.
</event>
<event>
 7    1  0.1751534E-015  0.9000713E+02  0.7816164E-02  0.1186340E+00
        -11   -1    0    0    0    0  0.00000000000E+00  0.00000000000E+00  0.45593999997E+02  0.45594000000E+02  0.51100000000E-03 0.  1.
         11   -1    0    0    0    0 -0.00000000000E+00 -0.00000000000E+00 -0.45593999997E+02  0.45594000000E+02  0.51100000000E-03 0. -1.
    9900012    2    1    2    0    0 -0.82697403850E+00  0.28117119498E+00  0.79467866791E+00  0.90007128506E+02  0.89999381800E+02 0.  0.
        -12    1    1    2    0    0  0.82697403850E+00 -0.28117119498E+00 -0.79467866791E+00  0.11808714945E+01  0.00000000000E+00 0.  1.
         11    1    3    3    0    0 -0.26106024061E+02  0.21621106895E+02  0.15030270836E+02  0.37079722185E+02  0.51100000000E-03 0. -1.
        -11    1    3    3    0    0  0.16352239746E+01  0.76826404712E+01  0.64448365108E+01  0.10160356291E+02  0.51100000000E-03 0.  1.
        -12    1    3    3    0    0  0.23643826048E+02 -0.29022576171E+02 -0.20680428679E+02  0.42767050029E+02  0.00000000000E+00 0.  1.
</event>
<event>
 7    1  0.1716782E-015  0.9000769E+02  0.7816164E-02  0.1186339E+00
        -11   -1    0    0    0    0  0.00000000000E+00  0.00000000000E+00  0.45593999997E+02  0.45594000000E+02  0.51100000000E-03 0. -1.
         11   -1    0    0    0    0 -0.00000000000E+00 -0.00000000000E+00 -0.45593999997E+02  0.45594000000E+02  0.51100000000E-03 0.  1.
    9900012    2    1    2    0    0  0.79147686971E+00 -0.78059009847E+00  0.39669070308E+00  0.90007694933E+02  0.89999955706E+02 0.  0.
        -12    1    1    2    0    0 -0.79147686971E+00  0.78059009847E+00 -0.39669070308E+00  0.11803050669E+01  0.00000000000E+00 0.  1.
         11    1    3    3    0    0  0.18348002015E+02 -0.28097029926E+02  0.24646451036E+02  0.41635799710E+02  0.51100000000E-03 0. -1.
        -11    1    3    3    0    0 -0.24823809887E+01 -0.49604277951E+01 -0.65829178603E+01  0.86083022194E+01  0.51100000000E-03 0.  1.
        -12    1    3    3    0    0 -0.15074144156E+02  0.32276867622E+02 -0.17666842473E+02  0.39763593003E+02  0.00000000000E+00 0.  1.
</event>
<event>
 7    1  0.1716782E-015  0.9000769E+02  0.7816164E-02  0.1186339E+00
        -11   -1    0    0    0    0  0.00000000000E+00  0.00000000000E+00  0.45593999997E+02  0.45594000000E+02  0.51100000000E-03 0. -1.
         11   -1    0    0    0    0 -0.00000000000E+00 -0.00000000000E+00 -0.45593999997E+02  0.45594000000E+02  0.51100000000E-03 0.  1.
    9900012    2    1    2    0    0 -0.30926261265E+00  0.73026663485E+00  0.87419027455E+00  0.90007685907E+02  0.89999946561E+02 0.  0.
        -12    1    1    2    0    0  0.30926261265E+00 -0.73026663485E+00 -0.87419027455E+00  0.11803140928E+01  0.00000000000E+00 0.  1.
         11    1    3    3    0    0  0.21513542161E+02  0.19195984764E+01 -0.21132316692E+02  0.30217414907E+02  0.51100000000E-03 0. -1.
        -11    1    3    3    0    0  0.15225384622E+02  0.72557133609E+01  0.24131085757E+01  0.17037629135E+02  0.51100000000E-03 0.  1.
        -12    1    3    3    0    0 -0.37048189396E+02 -0.84450452024E+01  0.19593398391E+02  0.42752641866E+02  0.00000000000E+00 0.  1.
</event>
<event>
 7    1  0.1716782E-015  0.9000779E+02  0.7816164E-02  0.1186339E+00
        -11   -1    0    0    0    0  0.00000000000E+00  0.00000000000E+00  0.45593999997E+02  0.45594000000E+02  0.51100000000E-03 0.  1.
         11   -1    0    0    0    0 -0.00000000000E+00 -0.00000000000E+00 -0.45593999997E+02  0.45594000000E+02  0.51100000000E-03 0. -1.
    9900012    2    1    2    0    0 -0.79557903008E+00 -0.86284416294E+00  0.12425556277E+00  0.90007794303E+02  0.90000056388E+02 0.  0.
        -12    1    1    2    0    0  0.79557903008E+00  0.86284416294E+00 -0.12425556277E+00  0.11802056971E+01  0.00000000000E+00 0.  1.
         11    1    3    3    0    0 -0.21057116074E+02 -0.10591143484E+02 -0.30662191383E+02  0.38674855375E+02  0.51100000000E-03 0. -1.
        -11    1    3    3    0    0 -0.84397387617E+01  0.30139720777E+01  0.35843548697E+00  0.89689293848E+01  0.51100000000E-03 0.  1.
        -12    1    3    3    0    0  0.28701275806E+02  0.67143272432E+01  0.30428011458E+02  0.42364009543E+02  0.00000000000E+00 0.  1.
</event>
<event>
 7    1  0.1716782E-015  0.9000782E+02  0.7816164E-02  0.1186339E+00
        -11   -1    0    0    0    0  0.00000000000E+00  0.00000000000E+00  0.45593999997E+02  0.45594000000E+02  0.51100000000E-03 0.  1.
         11   -1    0    0    0    0 -0.00000000000E+00 -0.00000000000E+00 -0.45593999997E+02  0.45594000000E+02  0.51100000000E-03 0. -1.
    9900012    2    1    2    0    0 -0.11513414932E+01 -0.21169263604E+00 -0.14974399981E+00  0.90007820238E+02  0.90000082665E+02 0.  0.
        -12    1    1    2    0    0  0.11513414932E+01  0.21169263604E+00  0.14974399981E+00  0.11801797624E+01  0.00000000000E+00 0.  1.
         11    1    3    3    0    0 -0.19310214134E+02 -0.17135329705E+02 -0.29266371849E+02  0.39025945414E+02  0.51100000000E-03 0. -1.
        -11    1    3    3    0    0 -0.67625354220E+01 -0.51149466820E+01  0.73896560072E+01  0.11247292166E+02  0.51100000000E-03 0.  1.
        -12    1    3    3    0    0  0.24921408063E+02  0.22038583751E+02  0.21726971842E+02  0.39734582658E+02  0.00000000000E+00 0.  1.
</event>
<event>
 7    1  0.1716782E-015  0.9000776E+02  0.7816164E-02  0.1186339E+00
        -11   -1    0    0    0    0  0.00000000000E+00  0.00000000000E+00  0.45593999997E+02  0.45594000000E+02  0.51100000000E-03 0.  1.
         11   -1    0    0    0    0 -0.00000000000E+00 -0.00000000000E+00 -0.45593999997E+02  0.45594000000E+02  0.51100000000E-03 0. -1.
    9900012    2    1    2    0    0 -0.63949423676E+00  0.88033440324E+00  0.45718110388E+00  0.90007764387E+02  0.90000026077E+02 0.  0.
        -12    1    1    2    0    0  0.63949423676E+00 -0.88033440324E+00 -0.45718110388E+00  0.11802356130E+01  0.00000000000E+00 0.  1.
         11    1    3    3    0    0 -0.13349836541E+01  0.81254184160E+01  0.54060375559E+00  0.82520820690E+01  0.51100000000E-03 0. -1.
        -11    1    3    3    0    0  0.10025132288E+02  0.56303682668E+00  0.39286263208E+02  0.40549115465E+02  0.51100000000E-03 0.  1.
         12    1    3    3    0    0 -0.93296428710E+01 -0.78081208395E+01 -0.39369685860E+02  0.41206566853E+02  0.00000000000E+00 0. -1.
</event>
<event>
 7    1  0.1716782E-015  0.9000776E+02  0.7816164E-02  0.1186339E+00
        -11   -1    0    0    0    0  0.00000000000E+00  0.00000000000E+00  0.45593999997E+02  0.45594000000E+02  0.51100000000E-03 0.  1.
         11   -1    0    0    0    0 -0.00000000000E+00 -0.00000000000E+00 -0.45593999997E+02  0.45594000000E+02  0.51100000000E-03 0. -1.
    9900012    2    1    2    0    0  0.54940269156E+00  0.10130445691E+01  0.25467309520E+00  0.90007762311E+02  0.90000023974E+02 0.  0.
        -12    1    1    2    0    0 -0.54940269156E+00 -0.10130445691E+01 -0.25467309520E+00  0.11802376888E+01  0.00000000000E+00 0.  1.
         11    1    3    3    0    0  0.24151343829E+01  0.31643012747E+02 -0.23711266470E+02  0.39614861954E+02  0.51100000000E-03 0. -1.
        -11    1    3    3    0    0 -0.67113413875E+01 -0.10588365261E+00 -0.47359130196E+01  0.82147542238E+01  0.51100000000E-03 0.  1.
        -12    1    3    3    0    0  0.48456096962E+01 -0.30524084525E+02  0.28701852585E+02  0.42178146133E+02  0.00000000000E+00 0.  1.
</event>
<event>
 7    1  0.1716782E-015  0.9000774E+02  0.7816164E-02  0.1186339E+00
        -11   -1    0    0    0    0  0.00000000000E+00  0.00000000000E+00  0.45593999997E+02  0.45594000000E+02  0.51100000000E-03 0.  1.
         11   -1    0    0    0    0 -0.00000000000E+00 -0.00000000000E+00 -0.45593999997E+02  0.45594000000E+02  0.51100000000E-03 0. -1.
    9900012    2    1    2    0    0  0.29286635011E+00  0.83474134210E+00 -0.78131202986E+00  0.90007740581E+02  0.90000001957E+02 0.  0.
        -12    1    1    2    0    0 -0.29286635011E+00 -0.83474134210E+00  0.78131202986E+00  0.11802594186E+01  0.00000000000E+00 0.  1.
         11    1    3    3    0    0 -0.59627184953E+00  0.54259693098E+01 -0.68886885681E+00  0.55019290828E+01  0.51100000000E-03 0. -1.
        -11    1    3    3    0    0  0.10220236105E+02  0.16748752818E+02  0.36320396104E+02  0.41281292620E+02  0.51100000000E-03 0.  1.
         12    1    3    3    0    0 -0.93310979051E+01 -0.21339980786E+02 -0.36412839277E+02  0.43224518878E+02  0.00000000000E+00 0. -1.
</event>
<event>
 7    1  0.1716782E-015  0.9000790E+02  0.7816164E-02  0.1186339E+00
        -11   -1    0    0    0    0  0.00000000000E+00  0.00000000000E+00  0.45593999997E+02  0.45594000000E+02  0.51100000000E-03 0.  1.
         11   -1    0    0    0    0 -0.00000000000E+00 -0.00000000000E+00 -0.45593999997E+02  0.45594000000E+02  0.51100000000E-03 0. -1.
    9900012    2    1    2    0    0  0.67203812525E+00 -0.55302332303E+00 -0.79696994544E+00  0.90007902067E+02  0.90000165574E+02 0.  0.
        -12    1    1    2    0    0 -0.67203812525E+00  0.55302332303E+00  0.79696994544E+00  0.11800979330E+01  0.00000000000E+00 0.  1.
         11    1    3    3    0    0  0.11781276317E+02  0.33849210775E+02 -0.45659498418E+01  0.36130533347E+02  0.51100000000E-03 0. -1.
        -11    1    3    3    0    0  0.32235265861E+01  0.66278323937E+01 -0.57956188494E+01  0.93759524316E+01  0.51100000000E-03 0.  1.
        -12    1    3    3    0    0 -0.14332764778E+02 -0.41030066492E+02  0.95645987458E+01  0.44501416288E+02  0.00000000000E+00 0.  1.
</event>
<event>
 7    1  0.1716782E-015  0.9000773E+02  0.7816164E-02  0.1186339E+00
        -11   -1    0    0    0    0  0.00000000000E+00  0.00000000000E+00  0.45593999997E+02  0.45594000000E+02  0.51100000000E-03 0.  1.
         11   -1    0    0    0    0 -0.00000000000E+00 -0.00000000000E+00 -0.45593999997E+02  0.45594000000E+02  0.51100000000E-03 0. -1.
    9900012    2    1    2    0    0  0.90766050867E+00  0.73462812134E+00  0.17177223655E+00  0.90007732328E+02  0.89999993595E+02 0.  0.
        -12    1    1    2    0    0 -0.90766050867E+00 -0.73462812134E+00 -0.17177223655E+00  0.11802676717E+01  0.00000000000E+00 0.  1.
         11    1    3    3    0    0 -0.12967993557E+01  0.38736772352E+01 -0.99281832701E+01  0.10735729467E+02  0.51100000000E-03 0. -1.
        -11    1    3    3    0    0  0.20545176731E+02  0.78782779869E+01  0.38121548949E+02  0.44016179361E+02  0.51100000000E-03 0.  1.
         12    1    3    3    0    0 -0.18340716867E+02 -0.11017327101E+02 -0.28021593443E+02  0.35255823500E+02  0.00000000000E+00 0. -1.
</event>
<event>
 7    1  0.1716782E-015  0.9000774E+02  0.7816164E-02  0.1186339E+00
        -11   -1    0    0    0    0  0.00000000000E+00  0.00000000000E+00  0.45593999997E+02  0.45594000000E+02  0.51100000000E-03 0.  1.
         11   -1    0    0    0    0 -0.00000000000E+00 -0.00000000000E+00 -0.45593999997E+02  0.45594000000E+02  0.51100000000E-03 0. -1.
    9900012    2    1    2    0    0 -0.45836290092E+00 -0.10845777604E+01  0.81274810813E-01  0.90007741104E+02  0.90000002486E+02 0.  0.
        -12    1    1    2    0    0  0.45836290092E+00  0.10845777604E+01 -0.81274810813E-01  0.11802588963E+01  0.00000000000E+00 0.  1.
         11    1    3    3    0    0  0.94053043231E+01  0.14547172709E+02 -0.37942510306E+02  0.41709879787E+02  0.51100000000E-03 0. -1.
        -11    1    3    3    0    0  0.15167158078E+00  0.58881852994E+01  0.57144993721E+01  0.82066578900E+01  0.51100000000E-03 0.  1.
        -12    1    3    3    0    0 -0.10015338805E+02 -0.21519935768E+02  0.32309285745E+02  0.40091203427E+02  0.00000000000E+00 0.  1.
</event>
<event>
 7    1  0.1716782E-015  0.9000770E+02  0.7816164E-02  0.1186339E+00
        -11   -1    0    0    0    0  0.00000000000E+00  0.00000000000E+00  0.45593999997E+02  0.45594000000E+02  0.51100000000E-03 0.  1.
         11   -1    0    0    0    0 -0.00000000000E+00 -0.00000000000E+00 -0.45593999997E+02  0.45594000000E+02  0.51100000000E-03 0. -1.
    9900012    2    1    2    0    0 -0.25176285176E+00  0.10991809250E+01  0.34861700655E+00  0.90007696202E+02  0.89999956991E+02 0.  0.
        -12    1    1    2    0    0  0.25176285176E+00 -0.10991809250E+01 -0.34861700655E+00  0.11803037985E+01  0.00000000000E+00 0.  1.
         11    1    3    3    0    0  0.79073740147E+01  0.37023615228E+02 -0.18285608888E+02  0.42043288894E+02  0.51100000000E-03 0. -1.
        -11    1    3    3    0    0 -0.40902148208E+01 -0.57846658217E+01 -0.56369526383E+01  0.90535877561E+01  0.51100000000E-03 0.  1.
        -12    1    3    3    0    0 -0.40689220456E+01 -0.30139768482E+02  0.24271178533E+02  0.38910819551E+02  0.00000000000E+00 0.  1.
</event>
<event>
 7    1  0.1716782E-015  0.9000766E+02  0.7816164E-02  0.1186339E+00
        -11   -1    0    0    0    0  0.00000000000E+00  0.00000000000E+00  0.45593999997E+02  0.45594000000E+02  0.51100000000E-03 0.  1.
         11   -1    0    0    0    0 -0.00000000000E+00 -0.00000000000E+00 -0.45593999997E+02  0.45594000000E+02  0.51100000000E-03 0. -1.
    9900012    2    1    2    0    0 -0.10471533737E+01  0.53750024300E+00 -0.88134993602E-01  0.90007659169E+02  0.89999919470E+02 0.  0.
        -12    1    1    2    0    0  0.10471533737E+01 -0.53750024300E+00  0.88134993602E-01  0.11803408306E+01  0.00000000000E+00 0.  1.
         11    1    3    3    0    0  0.76326267206E+01 -0.32543468147E+01 -0.78280673334E+01  0.11407296011E+02  0.51100000000E-03 0. -1.
        -11    1    3    3    0    0  0.57575936413E+01 -0.26304767530E+02 -0.21317734620E+02  0.34344380747E+02  0.51100000000E-03 0.  1.
         12    1    3    3    0    0 -0.14437373736E+02  0.30096614588E+02  0.29057666960E+02  0.44255982411E+02  0.00000000000E+00 0. -1.
</event>
<event>
 7    1  0.1716782E-015  0.9000784E+02  0.7816164E-02  0.1186339E+00
        -11   -1    0    0    0    0  0.00000000000E+00  0.00000000000E+00  0.45593999997E+02  0.45594000000E+02  0.51100000000E-03 0. -1.
         11   -1    0    0    0    0 -0.00000000000E+00 -0.00000000000E+00 -0.45593999997E+02  0.45594000000E+02  0.51100000000E-03 0.  1.
    9900012    2    1    2    0    0  0.10725956813E+01  0.43918454816E+00  0.22234783181E+00  0.90007837672E+02  0.90000100329E+02 0.  0.
        -12    1    1    2    0    0 -0.10725956813E+01 -0.43918454816E+00 -0.22234783181E+00  0.11801623283E+01  0.00000000000E+00 0.  1.
         11    1    3    3    0    0 -0.80953430495E+01 -0.34725730900E+02  0.15750008157E+02  0.38980427433E+02  0.51100000000E-03 0. -1.
        -11    1    3    3    0    0 -0.91001620762E+01  0.23112988135E+00 -0.40901223967E+01  0.99797531190E+01  0.51100000000E-03 0.  1.
        -12    1    3    3    0    0  0.18268100807E+02  0.34933785567E+02 -0.11437537929E+02  0.41047657120E+02  0.00000000000E+00 0.  1.
</event>
<event>
 7    1  0.1716782E-015  0.9000768E+02  0.7816164E-02  0.1186339E+00
        -11   -1    0    0    0    0  0.00000000000E+00  0.00000000000E+00  0.45593999997E+02  0.45594000000E+02  0.51100000000E-03 0.  1.
         11   -1    0    0    0    0 -0.00000000000E+00 -0.00000000000E+00 -0.45593999997E+02  0.45594000000E+02  0.51100000000E-03 0. -1.
    9900012    2    1    2    0    0  0.12079241020E+00  0.51788026749E+00 -0.10537388314E+01  0.90007679576E+02  0.89999940147E+02 0.  0.
        -12    1    1    2    0    0 -0.12079241020E+00 -0.51788026749E+00  0.10537388314E+01  0.11803204237E+01  0.00000000000E+00 0.  1.
         11    1    3    3    0    0  0.24475910261E+01  0.36471477932E+01 -0.11207923079E+02  0.12037853998E+02  0.51100000000E-03 0. -1.
        -11    1    3    3    0    0  0.23339441795E+02  0.24384266308E+02 -0.10107581869E+02  0.35234715809E+02  0.51100000000E-03 0.  1.
        -12    1    3    3    0    0 -0.25666240411E+02 -0.27513533833E+02  0.20261766117E+02  0.42735109769E+02  0.00000000000E+00 0.  1.
</event>
<event>
 7    1  0.1716782E-015  0.9000781E+02  0.7816164E-02  0.1186339E+00
        -11   -1    0    0    0    0  0.00000000000E+00  0.00000000000E+00  0.45593999997E+02  0.45594000000E+02  0.51100000000E-03 0. -1.
         11   -1    0    0    0    0 -0.00000000000E+00 -0.00000000000E+00 -0.45593999997E+02  0.45594000000E+02  0.51100000000E-03 0.  1.
    9900012    2    1    2    0    0 -0.34874548103E+00 -0.27203062455E+00  0.10941810407E+01  0.90007806702E+02  0.90000068950E+02 0.  0.
        -12    1    1    2    0    0  0.34874548103E+00  0.27203062455E+00 -0.10941810407E+01  0.11801932982E+01  0.00000000000E+00 0.  1.
         11    1    3    3    0    0  0.21410776112E+02 -0.17182735975E+02 -0.15535536789E+02  0.31543947959E+02  0.51100000000E-03 0. -1.
        -11    1    3    3    0    0  0.10005507906E+02 -0.27004028095E+01 -0.85495204551E+01  0.13434904692E+02  0.51100000000E-03 0.  1.
        -12    1    3    3    0    0 -0.31765029499E+02  0.19611108160E+02  0.25179238285E+02  0.45028954051E+02  0.00000000000E+00 0.  1.
</event>
<event>
 7    1  0.1716782E-015  0.9000756E+02  0.7816164E-02  0.1186339E+00
        -11   -1    0    0    0    0  0.00000000000E+00  0.00000000000E+00  0.45593999997E+02  0.45594000000E+02  0.51100000000E-03 0. -1.
         11   -1    0    0    0    0 -0.00000000000E+00 -0.00000000000E+00 -0.45593999997E+02  0.45594000000E+02  0.51100000000E-03 0.  1.
    9900012    2    1    2    0    0 -0.44962388569E+00  0.10123890241E+01  0.40784552618E+00  0.90007563154E+02  0.89999822187E+02 0.  0.
        -12    1    1    2    0    0  0.44962388569E+00 -0.10123890241E+01 -0.40784552618E+00  0.11804368463E+01  0.00000000000E+00 0.  1.
         11    1    3    3    0    0  0.59185783117E+00  0.55947728330E+01 -0.97401303080E+01  0.11248196185E+02  0.51100000000E-03 0. -1.
        -11    1    3    3    0    0  0.33945390218E+02  0.12898905068E+02 -0.53190613750E+01  0.36701003845E+02  0.51100000000E-03 0.  1.
         12    1    3    3    0    0 -0.34986871935E+02 -0.17481288877E+02  0.15467037209E+02  0.42058363124E+02  0.00000000000E+00 0. -1.
</event>
<event>
 7    1  0.1716782E-015  0.9000760E+02  0.7816164E-02  0.1186339E+00
        -11   -1    0    0    0    0  0.00000000000E+00  0.00000000000E+00  0.45593999997E+02  0.45594000000E+02  0.51100000000E-03 0.  1.
         11   -1    0    0    0    0 -0.00000000000E+00 -0.00000000000E+00 -0.45593999997E+02  0.45594000000E+02  0.51100000000E-03 0. -1.
    9900012    2    1    2    0    0  0.43033114107E+00 -0.38716877439E+00 -0.10287135980E+01  0.90007603364E+02  0.89999862929E+02 0.  0.
        -12    1    1    2    0    0 -0.43033114107E+00  0.38716877439E+00  0.10287135980E+01  0.11803966357E+01  0.00000000000E+00 0.  1.
         11    1    3    3    0    0 -0.10758802509E+02 -0.14800519968E+02  0.31994850342E+02  0.36857532086E+02  0.51100000000E-03 0. -1.
        -11    1    3    3    0    0  0.13063850318E+01 -0.43339497492E+01  0.67239931487E+01  0.81056675483E+01  0.51100000000E-03 0.  1.
        -12    1    3    3    0    0  0.98827486184E+01  0.18747300942E+02 -0.39747557089E+02  0.45044403730E+02  0.00000000000E+00 0.  1.
</event>
<event>
 7    1  0.1716782E-015  0.9000780E+02  0.7816164E-02  0.1186339E+00
        -11   -1    0    0    0    0  0.00000000000E+00  0.00000000000E+00  0.45593999997E+02  0.45594000000E+02  0.51100000000E-03 0. -1.
         11   -1    0    0    0    0 -0.00000000000E+00 -0.00000000000E+00 -0.45593999997E+02  0.45594000000E+02  0.51100000000E-03 0.  1.
    9900012    2    1    2    0    0 -0.79617695121E+00 -0.78307627419E+00 -0.38180201385E+00  0.90007797065E+02  0.90000059187E+02 0.  0.
        -12    1    1    2    0    0  0.79617695121E+00  0.78307627419E+00  0.38180201385E+00  0.11802029345E+01  0.00000000000E+00 0.  1.
         11    1    3    3    0    0 -0.18961539104E+02 -0.30632365378E+02  0.21171098983E+02  0.41786327983E+02  0.51100000000E-03 0. -1.
        -11    1    3    3    0    0 -0.62199213052E+01  0.79274447389E+01 -0.28473217240E+01  0.10470866363E+02  0.51100000000E-03 0.  1.
        -12    1    3    3    0    0  0.24385283459E+02  0.21921844365E+02 -0.18705579273E+02  0.37750602719E+02  0.00000000000E+00 0.  1.
</event>
<event>
 7    1  0.1716782E-015  0.9000774E+02  0.7816164E-02  0.1186339E+00
        -11   -1    0    0    0    0  0.00000000000E+00  0.00000000000E+00  0.45593999997E+02  0.45594000000E+02  0.51100000000E-03 0. -1.
         11   -1    0    0    0    0 -0.00000000000E+00 -0.00000000000E+00 -0.45593999997E+02  0.45594000000E+02  0.51100000000E-03 0.  1.
    9900012    2    1    2    0    0 -0.89979666483E-01 -0.68482342724E+00  0.95704765236E+00  0.90007737455E+02  0.89999998789E+02 0.  0.
        -12    1    1    2    0    0  0.89979666483E-01  0.68482342724E+00 -0.95704765236E+00  0.11802625453E+01  0.00000000000E+00 0.  1.
         11    1    3    3    0    0 -0.87317555381E+01  0.57297015449E+00 -0.57937447568E+00  0.87696935305E+01  0.51100000000E-03 0. -1.
        -11    1    3    3    0    0 -0.14310893532E+02 -0.11957967577E+02 -0.33301791824E+02  0.38168101881E+02  0.51100000000E-03 0.  1.
         12    1    3    3    0    0  0.22952669403E+02  0.10700173995E+02  0.34838213952E+02  0.43069942043E+02  0.00000000000E+00 0. -1.
</event>
<event>
 7    1  0.1716782E-015  0.9000772E+02  0.7816164E-02  0.1186339E+00
        -11   -1    0    0    0    0  0.00000000000E+00  0.00000000000E+00  0.45593999997E+02  0.45594000000E+02  0.51100000000E-03 0.  1.
         11   -1    0    0    0    0 -0.00000000000E+00 -0.00000000000E+00 -0.45593999997E+02  0.45594000000E+02  0.51100000000E-03 0. -1.
    9900012    2    1    2    0    0  0.44425338395E+00  0.80101058973E+00 -0.74437134954E+00  0.90007717093E+02  0.89999978159E+02 0.  0.
        -12    1    1    2    0    0 -0.44425338395E+00 -0.80101058973E+00  0.74437134954E+00  0.11802829068E+01  0.00000000000E+00 0.  1.
         11    1    3    3    0    0  0.11025645945E+02 -0.14223718720E+01 -0.77680858002E+01  0.13562122530E+02  0.51100000000E-03 0. -1.
        -11    1    3    3    0    0  0.39961842287E+00  0.34317397582E+02 -0.13409076785E+02  0.36846259134E+02  0.51100000000E-03 0.  1.
         12    1    3    3    0    0 -0.10981010984E+02 -0.32094015120E+02  0.20432791236E+02  0.39599335429E+02  0.00000000000E+00 0. -1.
</event>
<event>
 7    1  0.1716782E-015  0.9000771E+02  0.7816164E-02  0.1186339E+00
        -11   -1    0    0    0    0  0.00000000000E+00  0.00000000000E+00  0.45593999997E+02  0.45594000000E+02  0.51100000000E-03 0.  1.
         11   -1    0    0    0    0 -0.00000000000E+00 -0.00000000000E+00 -0.45593999997E+02  0.45594000000E+02  0.51100000000E-03 0. -1.
    9900012    2    1    2    0    0  0.10262559893E+01  0.54106260533E+00 -0.21711932547E+00  0.90007707282E+02  0.89999968218E+02 0.  0.
        -12    1    1    2    0    0 -0.10262559893E+01 -0.54106260533E+00  0.21711932547E+00  0.11802927179E+01  0.00000000000E+00 0.  1.
         11    1    3    3    0    0  0.13349263014E+02 -0.10914208875E+01 -0.14770854619E+01  0.13475006653E+02  0.51100000000E-03 0. -1.
        -11    1    3    3    0    0  0.85915912968E+01 -0.13651470691E+02  0.32300080770E+02  0.36103646783E+02  0.51100000000E-03 0.  1.
         12    1    3    3    0    0 -0.20914598322E+02  0.15283954184E+02 -0.31040114633E+02  0.40429053846E+02  0.00000000000E+00 0. -1.
</event>
<event>
 7    1  0.1716782E-015  0.9000828E+02  0.7816164E-02  0.1186338E+00
        -11   -1    0    0    0    0  0.00000000000E+00  0.00000000000E+00  0.45593999997E+02  0.45594000000E+02  0.51100000000E-03 0. -1.
         11   -1    0    0    0    0 -0.00000000000E+00 -0.00000000000E+00 -0.45593999997E+02  0.45594000000E+02  0.51100000000E-03 0.  1.
    9900012    2    1    2    0    0  0.28305395652E-01 -0.95790212321E+00  0.68800784803E+00  0.90008282885E+02  0.90000551417E+02 0.  0.
        -12    1    1    2    0    0 -0.28305395652E-01  0.95790212321E+00 -0.68800784803E+00  0.11797171153E+01  0.00000000000E+00 0.  1.
         11    1    3    3    0    0 -0.37478666552E+01 -0.62016402660E+00 -0.90033609865E+01  0.97719812320E+01  0.51100000000E-03 0. -1.
        -11    1    3    3    0    0 -0.20121265757E+02 -0.24985515327E+02 -0.17407707909E+02  0.36498898706E+02  0.51100000000E-03 0.  1.
         12    1    3    3    0    0  0.23897437808E+02  0.24647777230E+02  0.27099076743E+02  0.43737402947E+02  0.00000000000E+00 0. -1.
</event>
<event>
 7    1  0.1716782E-015  0.9000774E+02  0.7816164E-02  0.1186339E+00
        -11   -1    0    0    0    0  0.00000000000E+00  0.00000000000E+00  0.45593999997E+02  0.45594000000E+02  0.51100000000E-03 0.  1.
         11   -1    0    0    0    0 -0.00000000000E+00 -0.00000000000E+00 -0.45593999997E+02  0.45594000000E+02  0.51100000000E-03 0. -1.
    9900012    2    1    2    0    0  0.60616902845E+00  0.37733302730E+00 -0.93978825514E+00  0.90007736017E+02  0.89999997333E+02 0.  0.
        -12    1    1    2    0    0 -0.60616902845E+00 -0.37733302730E+00  0.93978825514E+00  0.11802639828E+01  0.00000000000E+00 0.  1.
         11    1    3    3    0    0  0.11243918628E+02 -0.19321193940E+02  0.21313994716E+02  0.30887224096E+02  0.51100000000E-03 0. -1.
        -11    1    3    3    0    0  0.18317599234E+02  0.57652403180E+01  0.13481676722E+01  0.19250714115E+02  0.51100000000E-03 0.  1.
        -12    1    3    3    0    0 -0.28955348833E+02  0.13933286649E+02 -0.23601950643E+02  0.39869797806E+02  0.00000000000E+00 0.  1.
</event>
<event>
 7    1  0.1716782E-015  0.9000791E+02  0.7816164E-02  0.1186339E+00
        -11   -1    0    0    0    0  0.00000000000E+00  0.00000000000E+00  0.45593999997E+02  0.45594000000E+02  0.51100000000E-03 0.  1.
         11   -1    0    0    0    0 -0.00000000000E+00 -0.00000000000E+00 -0.45593999997E+02  0.45594000000E+02  0.51100000000E-03 0. -1.
    9900012    2    1    2    0    0  0.74375340359E+00 -0.81089218553E+00 -0.42650246130E+00  0.90007906948E+02  0.90000170520E+02 0.  0.
        -12    1    1    2    0    0 -0.74375340359E+00  0.81089218553E+00  0.42650246130E+00  0.11800930520E+01  0.00000000000E+00 0.  1.
         11    1    3    3    0    0 -0.42067742021E+01 -0.68250924433E+01 -0.59874659898E+01  0.10006427199E+02  0.51100000000E-03 0. -1.
        -11    1    3    3    0    0  0.28315700793E+02 -0.12149264715E+02 -0.23326052820E+02  0.38645676148E+02  0.51100000000E-03 0.  1.
         12    1    3    3    0    0 -0.23365173188E+02  0.18163464973E+02  0.28887016349E+02  0.41355803601E+02  0.00000000000E+00 0. -1.
</event>
<event>
 7    1  0.1716782E-015  0.9000769E+02  0.7816164E-02  0.1186339E+00
        -11   -1    0    0    0    0  0.00000000000E+00  0.00000000000E+00  0.45593999997E+02  0.45594000000E+02  0.51100000000E-03 0. -1.
         11   -1    0    0    0    0 -0.00000000000E+00 -0.00000000000E+00 -0.45593999997E+02  0.45594000000E+02  0.51100000000E-03 0.  1.
    9900012    2    1    2    0    0  0.35785202804E+00  0.10468503682E+01  0.41130794766E+00  0.90007691568E+02  0.89999952296E+02 0.  0.
        -12    1    1    2    0    0 -0.35785202804E+00 -0.10468503682E+01 -0.41130794766E+00  0.11803084323E+01  0.00000000000E+00 0.  1.
         11    1    3    3    0    0 -0.31650451797E+01 -0.80584770011E+01 -0.21652570382E+01  0.89243991882E+01  0.51100000000E-03 0. -1.
        -11    1    3    3    0    0  0.27011252173E+02 -0.22612063083E+02 -0.14481492985E+02  0.38087094666E+02  0.51100000000E-03 0.  1.
         12    1    3    3    0    0 -0.23488354965E+02  0.31717390452E+02  0.17058057970E+02  0.42996197713E+02  0.00000000000E+00 0. -1.
</event>
<event>
 7    1  0.1716782E-015  0.9000781E+02  0.7816164E-02  0.1186339E+00
        -11   -1    0    0    0    0  0.00000000000E+00  0.00000000000E+00  0.45593999997E+02  0.45594000000E+02  0.51100000000E-03 0. -1.
         11   -1    0    0    0    0 -0.00000000000E+00 -0.00000000000E+00 -0.45593999997E+02  0.45594000000E+02  0.51100000000E-03 0.  1.
    9900012    2    1    2    0    0  0.92858181073E+00  0.69691450059E+00  0.21185877912E+00  0.90007814361E+02  0.90000076710E+02 0.  0.
        -12    1    1    2    0    0 -0.92858181073E+00 -0.69691450059E+00 -0.21185877912E+00  0.11801856391E+01  0.00000000000E+00 0.  1.
         11    1    3    3    0    0  0.11002309930E+02 -0.10204301210E+01  0.32031742311E+02  0.33883987622E+02  0.51100000000E-03 0. -1.
        -11    1    3    3    0    0  0.45239321017E+00 -0.20675519454E+01  0.11341095282E+02  0.11536891831E+02  0.51100000000E-03 0.  1.
        -12    1    3    3    0    0 -0.10526121329E+02  0.37848965670E+01 -0.43160978814E+02  0.44586934908E+02  0.00000000000E+00 0.  1.
</event>
<event>
 7    1  0.1716782E-015  0.9000771E+02  0.7816164E-02  0.1186339E+00
        -11   -1    0    0    0    0  0.00000000000E+00  0.00000000000E+00  0.45593999997E+02  0.45594000000E+02  0.51100000000E-03 0. -1.
         11   -1    0    0    0    0 -0.00000000000E+00 -0.00000000000E+00 -0.45593999997E+02  0.45594000000E+02  0.51100000000E-03 0.  1.
    9900012    2    1    2    0    0  0.31411787462E+00  0.11352685798E+01  0.74644254780E-01  0.90007713360E+02  0.89999974376E+02 0.  0.
        -12    1    1    2    0    0 -0.31411787462E+00 -0.11352685798E+01 -0.74644254780E-01  0.11802866399E+01  0.00000000000E+00 0.  1.
         11    1    3    3    0    0 -0.86807170689E+01 -0.22480584554E+01  0.66269005601E+00  0.89915390240E+01  0.51100000000E-03 0. -1.
        -11    1    3    3    0    0 -0.25154263556E+02 -0.25211196282E+02 -0.61138329487E+01  0.36134752616E+02  0.51100000000E-03 0.  1.
         12    1    3    3    0    0  0.34149098499E+02  0.28594523317E+02  0.55257871474E+01  0.44881421721E+02  0.00000000000E+00 0. -1.
</event>
<event>
 7    1  0.1716782E-015  0.9000775E+02  0.7816164E-02  0.1186339E+00
        -11   -1    0    0    0    0  0.00000000000E+00  0.00000000000E+00  0.45593999997E+02  0.45594000000E+02  0.51100000000E-03 0. -1.
         11   -1    0    0    0    0 -0.00000000000E+00 -0.00000000000E+00 -0.45593999997E+02  0.45594000000E+02  0.51100000000E-03 0.  1.
    9900012    2    1    2    0    0 -0.11757293161E+01 -0.83957644861E-01 -0.60102332774E-01  0.90007745535E+02  0.90000006976E+02 0.  0.
        -12    1    1    2    0    0  0.11757293161E+01  0.83957644861E-01  0.60102332774E-01  0.11802544646E+01  0.00000000000E+00 0.  1.
         11    1    3    3    0    0 -0.15179020710E+02  0.16240437060E+02  0.34001290023E+02  0.40623173056E+02  0.51100000000E-03 0. -1.
        -11    1    3    3    0    0 -0.72257238155E+01 -0.52485723325E+01 -0.16408158736E+01  0.90802463171E+01  0.51100000000E-03 0.  1.
        -12    1    3    3    0    0  0.21229015209E+02 -0.11075822372E+02 -0.32420576482E+02  0.40304326163E+02  0.00000000000E+00 0.  1.
</event>
<event>
 7    1  0.1716782E-015  0.9000774E+02  0.7816164E-02  0.1186339E+00
        -11   -1    0    0    0    0  0.00000000000E+00  0.00000000000E+00  0.45593999997E+02  0.45594000000E+02  0.51100000000E-03 0.  1.
         11   -1    0    0    0    0 -0.00000000000E+00 -0.00000000000E+00 -0.45593999997E+02  0.45594000000E+02  0.51100000000E-03 0. -1.
    9900012    2    1    2    0    0 -0.33475543499E-02 -0.17077463189E+00 -0.11678393935E+01  0.90007735610E+02  0.89999996920E+02 0.  0.
        -12    1    1    2    0    0  0.33475543499E-02  0.17077463189E+00  0.11678393935E+01  0.11802643899E+01  0.00000000000E+00 0.  1.
         11    1    3    3    0    0 -0.60152118241E+01 -0.55432146190E+01 -0.38830216576E+02  0.39682435929E+02  0.51100000000E-03 0. -1.
        -11    1    3    3    0    0 -0.95425849827E+01  0.55821633997E+01  0.17558656947E+01  0.11193951089E+02  0.51100000000E-03 0.  1.
        -12    1    3    3    0    0  0.15554449252E+02 -0.20972341258E+00  0.35906511488E+02  0.39131348593E+02  0.00000000000E+00 0.  1.
</event>
<event>
 7    1  0.1716782E-015  0.9000774E+02  0.7816164E-02  0.1186339E+00
        -11   -1    0    0    0    0  0.00000000000E+00  0.00000000000E+00  0.45593999997E+02  0.45594000000E+02  0.51100000000E-03 0.  1.
         11   -1    0    0    0    0 -0.00000000000E+00 -0.00000000000E+00 -0.45593999997E+02  0.45594000000E+02  0.51100000000E-03 0. -1.
    9900012    2    1    2    0    0  0.21585011953E+00  0.27567270209E+00 -0.11271357528E+01  0.90007736590E+02  0.89999997913E+02 0.  0.
        -12    1    1    2    0    0 -0.21585011953E+00 -0.27567270209E+00  0.11271357528E+01  0.11802634104E+01  0.00000000000E+00 0.  1.
         11    1    3    3    0    0  0.26982216166E+02 -0.26101524601E+02 -0.21884944723E+02  0.43454348246E+02  0.51100000000E-03 0. -1.
        -11    1    3    3    0    0 -0.49820723313E+01  0.15197044418E+00 -0.22031346538E+01  0.54495818458E+01  0.51100000000E-03 0.  1.
        -12    1    3    3    0    0 -0.21784293715E+02  0.26225226859E+02  0.22960943624E+02  0.41103806497E+02  0.00000000000E+00 0.  1.
</event>
<event>
 7    1  0.1716782E-015  0.9000768E+02  0.7816164E-02  0.1186339E+00
        -11   -1    0    0    0    0  0.00000000000E+00  0.00000000000E+00  0.45593999997E+02  0.45594000000E+02  0.51100000000E-03 0.  1.
         11   -1    0    0    0    0 -0.00000000000E+00 -0.00000000000E+00 -0.45593999997E+02  0.45594000000E+02  0.51100000000E-03 0. -1.
    9900012    2    1    2    0    0 -0.98313729984E+00 -0.54121448411E+00  0.36562622138E+00  0.90007680297E+02  0.89999940877E+02 0.  0.
        -12    1    1    2    0    0  0.98313729984E+00  0.54121448411E+00 -0.36562622138E+00  0.11803197033E+01  0.00000000000E+00 0.  1.
         11    1    3    3    0    0 -0.15313687381E+02  0.12950356860E+02 -0.11226175426E+02  0.22983641552E+02  0.51100000000E-03 0. -1.
        -11    1    3    3    0    0 -0.17861295755E+02 -0.20961422100E+01 -0.15257229462E+02  0.23583951096E+02  0.51100000000E-03 0.  1.
        -12    1    3    3    0    0  0.32191845836E+02 -0.11395429134E+02  0.26849031109E+02  0.43440087649E+02  0.00000000000E+00 0.  1.
</event>
<event>
 7    1  0.1716782E-015  0.9000781E+02  0.7816164E-02  0.1186339E+00
        -11   -1    0    0    0    0  0.00000000000E+00  0.00000000000E+00  0.45593999997E+02  0.45594000000E+02  0.51100000000E-03 0. -1.
         11   -1    0    0    0    0 -0.00000000000E+00 -0.00000000000E+00 -0.45593999997E+02  0.45594000000E+02  0.51100000000E-03 0.  1.
    9900012    2    1    2    0    0  0.75548003683E+00 -0.66867974966E+00 -0.61235378599E+00  0.90007805163E+02  0.90000067391E+02 0.  0.
        -12    1    1    2    0    0 -0.75548003683E+00  0.66867974966E+00  0.61235378599E+00  0.11801948368E+01  0.00000000000E+00 0.  1.
         11    1    3    3    0    0  0.27137718209E+02 -0.64090782208E+01  0.26104046023E+02  0.38196246573E+02  0.51100000000E-03 0. -1.
        -11    1    3    3    0    0 -0.25504946693E+01 -0.73132532496E+01  0.56235764856E+01  0.95714841535E+01  0.51100000000E-03 0.  1.
        -12    1    3    3    0    0 -0.23831743503E+02  0.13053651721E+02 -0.32339976295E+02  0.42240074436E+02  0.00000000000E+00 0.  1.
</event>
<event>
 7    1  0.1716782E-015  0.9000775E+02  0.7816164E-02  0.1186339E+00
        -11   -1    0    0    0    0  0.00000000000E+00  0.00000000000E+00  0.45593999997E+02  0.45594000000E+02  0.51100000000E-03 0. -1.
         11   -1    0    0    0    0 -0.00000000000E+00 -0.00000000000E+00 -0.45593999997E+02  0.45594000000E+02  0.51100000000E-03 0.  1.
    9900012    2    1    2    0    0  0.42482970501E+00 -0.28217720348E-01  0.11007775669E+01  0.90007750971E+02  0.90000012484E+02 0.  0.
        -12    1    1    2    0    0 -0.42482970501E+00  0.28217720348E-01 -0.11007775669E+01  0.11802490287E+01  0.00000000000E+00 0.  1.
         11    1    3    3    0    0 -0.10720332231E+02 -0.60307534669E+00  0.33683116239E+00  0.10742563870E+02  0.51100000000E-03 0. -1.
        -11    1    3    3    0    0 -0.18589864258E+02  0.28985001994E+02 -0.11576523664E+02  0.36328078591E+02  0.51100000000E-03 0.  1.
         12    1    3    3    0    0  0.29735026194E+02 -0.28410144367E+02  0.12340470068E+02  0.42937108510E+02  0.00000000000E+00 0. -1.
</event>
<event>
 7    1  0.1716782E-015  0.9000777E+02  0.7816164E-02  0.1186339E+00
        -11   -1    0    0    0    0  0.00000000000E+00  0.00000000000E+00  0.45593999997E+02  0.45594000000E+02  0.51100000000E-03 0. -1.
         11   -1    0    0    0    0 -0.00000000000E+00 -0.00000000000E+00 -0.45593999997E+02  0.45594000000E+02  0.51100000000E-03 0.  1.
    9900012    2    1    2    0    0 -0.70463107288E+00 -0.84258716018E+00 -0.43184571613E+00  0.90007767483E+02  0.90000029214E+02 0.  0.
        -12    1    1    2    0    0  0.70463107288E+00  0.84258716018E+00  0.43184571613E+00  0.11802325169E+01  0.00000000000E+00 0.  1.
         11    1    3    3    0    0 -0.16850012055E+01  0.81828238696E+00 -0.10134764026E+02  0.10306418256E+02  0.51100000000E-03 0. -1.
        -11    1    3    3    0    0 -0.10769845065E+01 -0.25491287118E+02 -0.26193444653E+02  0.36565860547E+02  0.51100000000E-03 0.  1.
         12    1    3    3    0    0  0.20573546391E+01  0.23830417571E+02  0.35896362963E+02  0.43135488680E+02  0.00000000000E+00 0. -1.
</event>
<event>
 7    1  0.1716782E-015  0.9000823E+02  0.7816164E-02  0.1186338E+00
        -11   -1    0    0    0    0  0.00000000000E+00  0.00000000000E+00  0.45593999997E+02  0.45594000000E+02  0.51100000000E-03 0.  1.
         11   -1    0    0    0    0 -0.00000000000E+00 -0.00000000000E+00 -0.45593999997E+02  0.45594000000E+02  0.51100000000E-03 0. -1.
    9900012    2    1    2    0    0 -0.16215632809E+00 -0.98698897537E+00 -0.62562864876E+00  0.90008231752E+02  0.90000499610E+02 0.  0.
        -12    1    1    2    0    0  0.16215632809E+00  0.98698897537E+00  0.62562864876E+00  0.11797682477E+01  0.00000000000E+00 0.  1.
         11    1    3    3    0    0  0.28501732206E+01 -0.98238983350E+01  0.41788307213E+00  0.10237533512E+02  0.51100000000E-03 0. -1.
        -11    1    3    3    0    0  0.30292691867E+02  0.14134636199E+02  0.21004297534E+02  0.39479306429E+02  0.51100000000E-03 0.  1.
         12    1    3    3    0    0 -0.33305021415E+02 -0.52977268395E+01 -0.22047809255E+02  0.40291391811E+02  0.00000000000E+00 0. -1.
</event>
<event>
 7    1  0.1716782E-015  0.9000755E+02  0.7816164E-02  0.1186339E+00
        -11   -1    0    0    0    0  0.00000000000E+00  0.00000000000E+00  0.45593999997E+02  0.45594000000E+02  0.51100000000E-03 0. -1.
         11   -1    0    0    0    0 -0.00000000000E+00 -0.00000000000E+00 -0.45593999997E+02  0.45594000000E+02  0.51100000000E-03 0.  1.
    9900012    2    1    2    0    0 -0.18463896592E+00 -0.11273646077E+01  0.29736725920E+00  0.90007546785E+02  0.89999805602E+02 0.  0.
        -12    1    1    2    0    0  0.18463896592E+00  0.11273646077E+01 -0.29736725920E+00  0.11804532152E+01  0.00000000000E+00 0.  1.
         11    1    3    3    0    0 -0.21625968648E+02 -0.20616189100E+02  0.29299536283E+02  0.41847014225E+02  0.51100000000E-03 0. -1.
        -11    1    3    3    0    0 -0.28856314623E+01 -0.25456600364E+01  0.67956864301E+00  0.39075654516E+01  0.51100000000E-03 0.  1.
        -12    1    3    3    0    0  0.24326961144E+02  0.22034484529E+02 -0.29681737666E+02  0.44252967108E+02  0.00000000000E+00 0.  1.
</event>
<event>
 7    1  0.1716782E-015  0.9000781E+02  0.7816164E-02  0.1186339E+00
        -11   -1    0    0    0    0  0.00000000000E+00  0.00000000000E+00  0.45593999997E+02  0.45594000000E+02  0.51100000000E-03 0.  1.
         11   -1    0    0    0    0 -0.00000000000E+00 -0.00000000000E+00 -0.45593999997E+02  0.45594000000E+02  0.51100000000E-03 0. -1.
    9900012    2    1    2    0    0 -0.60955946630E+00  0.50234565125E+00 -0.87688257885E+00  0.90007814865E+02  0.90000077221E+02 0.  0.
        -12    1    1    2    0    0  0.60955946630E+00 -0.50234565125E+00  0.87688257885E+00  0.11801851352E+01  0.00000000000E+00 0.  1.
         11    1    3    3    0    0  0.86668469066E+01 -0.36356111115E+02 -0.35701181155E+01  0.37544996928E+02  0.51100000000E-03 0. -1.
        -11    1    3    3    0    0  0.40221658114E+01 -0.33043487725E+01  0.82881420773E+01  0.97872283094E+01  0.51100000000E-03 0.  1.
        -12    1    3    3    0    0 -0.13298572184E+02  0.40162805539E+02 -0.55949065406E+01  0.42675589628E+02  0.00000000000E+00 0.  1.
</event>
<event>
 7    1  0.1716782E-015  0.9000777E+02  0.7816164E-02  0.1186339E+00
        -11   -1    0    0    0    0  0.00000000000E+00  0.00000000000E+00  0.45593999997E+02  0.45594000000E+02  0.51100000000E-03 0.  1.
         11   -1    0    0    0    0 -0.00000000000E+00 -0.00000000000E+00 -0.45593999997E+02  0.45594000000E+02  0.51100000000E-03 0. -1.
    9900012    2    1    2    0    0 -0.10641603836E+01 -0.36962453544E+00  0.35197434270E+00  0.90007768854E+02  0.90000030603E+02 0.  0.
        -12    1    1    2    0    0  0.10641603836E+01  0.36962453544E+00 -0.35197434270E+00  0.11802311457E+01  0.00000000000E+00 0.  1.
         11    1    3    3    0    0 -0.23434311448E+02 -0.14657918938E+02 -0.29631872888E+02  0.40522455895E+02  0.51100000000E-03 0. -1.
        -11    1    3    3    0    0  0.60723960995E+01  0.14182449129E+01 -0.55370756312E+01  0.83393416904E+01  0.51100000000E-03 0.  1.
        -12    1    3    3    0    0  0.16297754965E+02  0.12870049490E+02  0.35520922862E+02  0.41145971269E+02  0.00000000000E+00 0.  1.
</event>
<event>
 7    1  0.1716782E-015  0.9000762E+02  0.7816164E-02  0.1186339E+00
        -11   -1    0    0    0    0  0.00000000000E+00  0.00000000000E+00  0.45593999997E+02  0.45594000000E+02  0.51100000000E-03 0. -1.
         11   -1    0    0    0    0 -0.00000000000E+00 -0.00000000000E+00 -0.45593999997E+02  0.45594000000E+02  0.51100000000E-03 0.  1.
    9900012    2    1    2    0    0 -0.47886175225E+00  0.10128951771E+01  0.37151106314E+00  0.90007624768E+02  0.89999884615E+02 0.  0.
        -12    1    1    2    0    0  0.47886175225E+00 -0.10128951771E+01 -0.37151106314E+00  0.11803752317E+01  0.00000000000E+00 0.  1.
         11    1    3    3    0    0  0.61469732734E+01 -0.45127374746E+01 -0.37078343870E+01  0.84792756791E+01  0.51100000000E-03 0. -1.
        -11    1    3    3    0    0  0.16431566284E+02  0.23883629582E+02 -0.26342615624E+02  0.39170876053E+02  0.51100000000E-03 0.  1.
         12    1    3    3    0    0 -0.23057401310E+02 -0.18357996930E+02  0.30421961074E+02  0.42357473037E+02  0.00000000000E+00 0. -1.
</event>
<event>
 7    1  0.1716782E-015  0.9000781E+02  0.7816164E-02  0.1186339E+00
        -11   -1    0    0    0    0  0.00000000000E+00  0.00000000000E+00  0.45593999997E+02  0.45594000000E+02  0.51100000000E-03 0. -1.
         11   -1    0    0    0    0 -0.00000000000E+00 -0.00000000000E+00 -0.45593999997E+02  0.45594000000E+02  0.51100000000E-03 0.  1.
    9900012    2    1    2    0    0 -0.11265573508E+01 -0.29361214728E+00 -0.19367973146E+00  0.90007808746E+02  0.90000071021E+02 0.  0.
        -12    1    1    2    0    0  0.11265573508E+01  0.29361214728E+00  0.19367973146E+00  0.11801912540E+01  0.00000000000E+00 0.  1.
         11    1    3    3    0    0 -0.10300370875E+02  0.24412086141E+01  0.43056955423E+01  0.11427867431E+02  0.51100000000E-03 0. -1.
        -11    1    3    3    0    0 -0.13211825153E+02  0.30122042359E+02  0.12703298955E+02  0.35259942773E+02  0.51100000000E-03 0.  1.
         12    1    3    3    0    0  0.22385638677E+02 -0.32856863120E+02 -0.17202674228E+02  0.43319998542E+02  0.00000000000E+00 0. -1.
</event>
<event>
 7    1  0.1716782E-015  0.9000776E+02  0.7816164E-02  0.1186339E+00
        -11   -1    0    0    0    0  0.00000000000E+00  0.00000000000E+00  0.45593999997E+02  0.45594000000E+02  0.51100000000E-03 0. -1.
         11   -1    0    0    0    0 -0.00000000000E+00 -0.00000000000E+00 -0.45593999997E+02  0.45594000000E+02  0.51100000000E-03 0.  1.
    9900012    2    1    2    0    0  0.32779119266E+00 -0.92680056927E+00  0.65311733659E+00  0.90007759085E+02  0.90000020705E+02 0.  0.
        -12    1    1    2    0    0 -0.32779119266E+00  0.92680056927E+00 -0.65311733659E+00  0.11802409146E+01  0.00000000000E+00 0.  1.
         11    1    3    3    0    0  0.49812102879E+01 -0.89159982277E+01 -0.18731566275E+01  0.10383457822E+02  0.51100000000E-03 0. -1.
        -11    1    3    3    0    0  0.76363660931E+01 -0.30685727078E+02 -0.15504628236E+02  0.35218197432E+02  0.51100000000E-03 0.  1.
         12    1    3    3    0    0 -0.12289785188E+02  0.38674924736E+02  0.18030902200E+02  0.44406103831E+02  0.00000000000E+00 0. -1.
</event>
<event>
 7    1  0.1716782E-015  0.9000765E+02  0.7816164E-02  0.1186339E+00
        -11   -1    0    0    0    0  0.00000000000E+00  0.00000000000E+00  0.45593999997E+02  0.45594000000E+02  0.51100000000E-03 0.  1.
         11   -1    0    0    0    0 -0.00000000000E+00 -0.00000000000E+00 -0.45593999997E+02  0.45594000000E+02  0.51100000000E-03 0. -1.
    9900012    2    1    2    0    0  0.57600046298E-01  0.11773511750E+01  0.61196971236E-01  0.90007653176E+02  0.89999913398E+02 0.  0.
        -12    1    1    2    0    0 -0.57600046298E-01 -0.11773511750E+01 -0.61196971236E-01  0.11803468235E+01  0.00000000000E+00 0.  1.
         11    1    3    3    0    0  0.21290722492E+02 -0.16488753761E+02 -0.29612126741E+02  0.40025640722E+02  0.51100000000E-03 0. -1.
        -11    1    3    3    0    0 -0.91489812968E+01  0.16543957080E+01 -0.45207218143E+01  0.10338172465E+02  0.51100000000E-03 0.  1.
        -12    1    3    3    0    0 -0.12084141149E+02  0.16011709228E+02  0.34194045526E+02  0.39643839990E+02  0.00000000000E+00 0.  1.
</event>
<event>
 7    1  0.1716782E-015  0.9000725E+02  0.7816164E-02  0.1186340E+00
        -11   -1    0    0    0    0  0.00000000000E+00  0.00000000000E+00  0.45593999997E+02  0.45594000000E+02  0.51100000000E-03 0. -1.
         11   -1    0    0    0    0 -0.00000000000E+00 -0.00000000000E+00 -0.45593999997E+02  0.45594000000E+02  0.51100000000E-03 0.  1.
    9900012    2    1    2    0    0 -0.69455103147E+00  0.62381225876E+00  0.72293390548E+00  0.90007247570E+02  0.89999502436E+02 0.  0.
        -12    1    1    2    0    0  0.69455103147E+00 -0.62381225876E+00 -0.72293390548E+00  0.11807524301E+01  0.00000000000E+00 0.  1.
         11    1    3    3    0    0 -0.20274585797E+01  0.26426987654E+02  0.23637683803E+02  0.35513889685E+02  0.51100000000E-03 0. -1.
        -11    1    3    3    0    0 -0.77713064259E+01  0.37108167010E+01  0.72972282624E+01  0.11287732488E+02  0.51100000000E-03 0.  1.
        -12    1    3    3    0    0  0.91042139742E+01 -0.29513992096E+02 -0.30211978160E+02  0.43205625396E+02  0.00000000000E+00 0.  1.
</event>
<event>
 7    1  0.1716782E-015  0.9000778E+02  0.7816164E-02  0.1186339E+00
        -11   -1    0    0    0    0  0.00000000000E+00  0.00000000000E+00  0.45593999997E+02  0.45594000000E+02  0.51100000000E-03 0. -1.
         11   -1    0    0    0    0 -0.00000000000E+00 -0.00000000000E+00 -0.45593999997E+02  0.45594000000E+02  0.51100000000E-03 0.  1.
    9900012    2    1    2    0    0 -0.63785073933E+00  0.63169527759E+00  0.76617372307E+00  0.90007781942E+02  0.90000043864E+02 0.  0.
        -12    1    1    2    0    0  0.63785073933E+00 -0.63169527759E+00 -0.76617372307E+00  0.11802180575E+01  0.00000000000E+00 0.  1.
         11    1    3    3    0    0 -0.72896205265E+00 -0.77513033152E+01 -0.35680368431E+01  0.85641681401E+01  0.51100000000E-03 0. -1.
        -11    1    3    3    0    0  0.45889558397E+01 -0.36089813914E+02  0.51079567598E+01  0.36737234607E+02  0.51100000000E-03 0.  1.
         12    1    3    3    0    0 -0.44978445264E+01  0.44472812506E+02 -0.77374619363E+00  0.44706379196E+02  0.00000000000E+00 0. -1.
</event>
<event>
 7    1  0.1716782E-015  0.9000768E+02  0.7816164E-02  0.1186339E+00
        -11   -1    0    0    0    0  0.00000000000E+00  0.00000000000E+00  0.45593999997E+02  0.45594000000E+02  0.51100000000E-03 0.  1.
         11   -1    0    0    0    0 -0.00000000000E+00 -0.00000000000E+00 -0.45593999997E+02  0.45594000000E+02  0.51100000000E-03 0. -1.
    9900012    2    1    2    0    0 -0.43107486583E+00 -0.40491048173E+00 -0.10214559603E+01  0.90007682112E+02  0.89999942716E+02 0.  0.
        -12    1    1    2    0    0  0.43107486583E+00  0.40491048173E+00  0.10214559603E+01  0.11803178881E+01  0.00000000000E+00 0.  1.
         11    1    3    3    0    0  0.26877241100E+02 -0.22907704067E+02  0.18471188572E+02  0.39853905735E+02  0.51100000000E-03 0. -1.
        -11    1    3    3    0    0 -0.73536729538E+01 -0.24524035137E+00  0.68359373860E+01  0.10043240958E+02  0.51100000000E-03 0.  1.
        -12    1    3    3    0    0 -0.19954643012E+02  0.22748033937E+02 -0.26328581919E+02  0.40110535419E+02  0.00000000000E+00 0.  1.
</event>
<event>
 7    1  0.1716782E-015  0.9000777E+02  0.7816164E-02  0.1186339E+00
        -11   -1    0    0    0    0  0.00000000000E+00  0.00000000000E+00  0.45593999997E+02  0.45594000000E+02  0.51100000000E-03 0. -1.
         11   -1    0    0    0    0 -0.00000000000E+00 -0.00000000000E+00 -0.45593999997E+02  0.45594000000E+02  0.51100000000E-03 0.  1.
    9900012    2    1    2    0    0  0.69894503265E+00  0.73033264819E+00 -0.60911958063E+00  0.90007772649E+02  0.90000034448E+02 0.  0.
        -12    1    1    2    0    0 -0.69894503265E+00 -0.73033264819E+00  0.60911958063E+00  0.11802273506E+01  0.00000000000E+00 0.  1.
         11    1    3    3    0    0  0.36928361254E+01  0.25384223098E+01  0.39946212192E+02  0.40196772199E+02  0.51100000000E-03 0. -1.
        -11    1    3    3    0    0  0.14533671284E+01 -0.29946848550E+01  0.38946444854E+01  0.51233455202E+01  0.51100000000E-03 0.  1.
        -12    1    3    3    0    0 -0.44472582212E+01  0.11865951934E+01 -0.44449976258E+02  0.44687654930E+02  0.00000000000E+00 0.  1.
</event>
<event>
 7    1  0.1716782E-015  0.9000775E+02  0.7816164E-02  0.1186339E+00
        -11   -1    0    0    0    0  0.00000000000E+00  0.00000000000E+00  0.45593999997E+02  0.45594000000E+02  0.51100000000E-03 0.  1.
         11   -1    0    0    0    0 -0.00000000000E+00 -0.00000000000E+00 -0.45593999997E+02  0.45594000000E+02  0.51100000000E-03 0. -1.
    9900012    2    1    2    0    0 -0.21301920795E+00 -0.93575518274E-01 -0.11570935112E+01  0.90007746233E+02  0.90000007683E+02 0.  0.
        -12    1    1    2    0    0  0.21301920795E+00  0.93575518274E-01  0.11570935112E+01  0.11802537668E+01  0.00000000000E+00 0.  1.
         11    1    3    3    0    0  0.15608059769E+02  0.31882076827E+02 -0.18528865541E+02  0.40042442622E+02  0.51100000000E-03 0. -1.
        -11    1    3    3    0    0  0.23963777697E+01  0.27682117567E+01  0.91878601341E+01  0.98905205550E+01  0.51100000000E-03 0.  1.
        -12    1    3    3    0    0 -0.18217456747E+02 -0.34743864102E+02  0.81839118961E+01  0.40074783056E+02  0.00000000000E+00 0.  1.
</event>
<event>
 7    1  0.1716782E-015  0.9000861E+02  0.7816164E-02  0.1186337E+00
        -11   -1    0    0    0    0  0.00000000000E+00  0.00000000000E+00  0.45593999997E+02  0.45594000000E+02  0.51100000000E-03 0. -1.
         11   -1    0    0    0    0 -0.00000000000E+00 -0.00000000000E+00 -0.45593999997E+02  0.45594000000E+02  0.51100000000E-03 0.  1.
    9900012    2    1    2    0    0  0.26791586188E+00  0.17376660073E+00  0.11353372404E+01  0.90008608466E+02  0.90000881294E+02 0.  0.
        -12    1    1    2    0    0 -0.26791586188E+00 -0.17376660073E+00 -0.11353372404E+01  0.11793915338E+01  0.00000000000E+00 0.  1.
         11    1    3    3    0    0 -0.22294196488E+01 -0.75466073831E+01  0.53534603298E+01  0.95174120815E+01  0.51100000000E-03 0. -1.
        -11    1    3    3    0    0 -0.98916189139E+01  0.40528967058E+02  0.95803494172E+01  0.42804490310E+02  0.51100000000E-03 0.  1.
         12    1    3    3    0    0  0.12388954425E+02 -0.32808593074E+02 -0.13798472507E+02  0.37686706074E+02  0.00000000000E+00 0. -1.
</event>
<event>
 7    1  0.1716782E-015  0.9000776E+02  0.7816164E-02  0.1186339E+00
        -11   -1    0    0    0    0  0.00000000000E+00  0.00000000000E+00  0.45593999997E+02  0.45594000000E+02  0.51100000000E-03 0.  1.
         11   -1    0    0    0    0 -0.00000000000E+00 -0.00000000000E+00 -0.45593999997E+02  0.45594000000E+02  0.51100000000E-03 0. -1.
    9900012    2    1    2    0    0 -0.51413590566E+00 -0.51414075709E+00 -0.92966670568E+00  0.90007764163E+02  0.90000025850E+02 0.  0.
        -12    1    1    2    0    0  0.51413590566E+00  0.51414075709E+00  0.92966670568E+00  0.11802358371E+01  0.00000000000E+00 0.  1.
         11    1    3    3    0    0 -0.56379985351E+01  0.22688524714E+01  0.69702693002E+01  0.92476685385E+01  0.51100000000E-03 0. -1.
        -11    1    3    3    0    0 -0.10827478441E+02  0.19761769382E+02  0.27697421529E+02  0.35705867559E+02  0.51100000000E-03 0.  1.
         12    1    3    3    0    0  0.15951341071E+02 -0.22544762610E+02 -0.35597357535E+02  0.45054228066E+02  0.00000000000E+00 0. -1.
</event>
<event>
 7    1  0.1716782E-015  0.9000660E+02  0.7816164E-02  0.1186341E+00
        -11   -1    0    0    0    0  0.00000000000E+00  0.00000000000E+00  0.45593999997E+02  0.45594000000E+02  0.51100000000E-03 0. -1.
         11   -1    0    0    0    0 -0.00000000000E+00 -0.00000000000E+00 -0.45593999997E+02  0.45594000000E+02  0.51100000000E-03 0.  1.
    9900012    2    1    2    0    0 -0.11631076350E+01 -0.12824049303E+00  0.16262723379E+00  0.90006597185E+02  0.89998843460E+02 0.  0.
        -12    1    1    2    0    0  0.11631076350E+01  0.12824049303E+00 -0.16262723379E+00  0.11814028153E+01  0.00000000000E+00 0.  1.
         11    1    3    3    0    0  0.54308985379E+01 -0.35153874464E+02 -0.25962693398E+01  0.35665531869E+02  0.51100000000E-03 0. -1.
        -11    1    3    3    0    0 -0.19784222792E+00 -0.89970474267E+01 -0.29973932231E+01  0.94852712318E+01  0.51100000000E-03 0.  1.
        -12    1    3    3    0    0 -0.63961639450E+01  0.44022681398E+02  0.57562897968E+01  0.44855794084E+02  0.00000000000E+00 0.  1.
</event>
<event>
 7    1  0.1716782E-015  0.9000780E+02  0.7816164E-02  0.1186339E+00
        -11   -1    0    0    0    0  0.00000000000E+00  0.00000000000E+00  0.45593999997E+02  0.45594000000E+02  0.51100000000E-03 0.  1.
         11   -1    0    0    0    0 -0.00000000000E+00 -0.00000000000E+00 -0.45593999997E+02  0.45594000000E+02  0.51100000000E-03 0. -1.
    9900012    2    1    2    0    0  0.56257110157E+00 -0.48771444679E+00  0.91570604366E+00  0.90007801210E+02  0.90000063386E+02 0.  0.
        -12    1    1    2    0    0 -0.56257110157E+00  0.48771444679E+00 -0.91570604366E+00  0.11801987902E+01  0.00000000000E+00 0.  1.
         11    1    3    3    0    0  0.13673937493E+02  0.16044278696E+02 -0.28681898628E+02  0.35595600214E+02  0.51100000000E-03 0. -1.
        -11    1    3    3    0    0 -0.17288687162E+01 -0.72137411343E+01 -0.98386150791E+01  0.12321744809E+02  0.51100000000E-03 0.  1.
        -12    1    3    3    0    0 -0.11382497675E+02 -0.93182520089E+01  0.39436219751E+02  0.42090456187E+02  0.00000000000E+00 0.  1.
</event>
<event>
 7    1  0.1716782E-015  0.9000780E+02  0.7816164E-02  0.1186339E+00
        -11   -1    0    0    0    0  0.00000000000E+00  0.00000000000E+00  0.45593999997E+02  0.45594000000E+02  0.51100000000E-03 0. -1.
         11   -1    0    0    0    0 -0.00000000000E+00 -0.00000000000E+00 -0.45593999997E+02  0.45594000000E+02  0.51100000000E-03 0.  1.
    9900012    2    1    2    0    0  0.96844772136E+00  0.55052205347E+00  0.38976608821E+00  0.90007795304E+02  0.90000057402E+02 0.  0.
        -12    1    1    2    0    0 -0.96844772136E+00 -0.55052205347E+00 -0.38976608821E+00  0.11802046958E+01  0.00000000000E+00 0.  1.
         11    1    3    3    0    0  0.22151585294E+02 -0.37982647382E+01  0.29314359362E+02  0.36938478733E+02  0.51100000000E-03 0. -1.
        -11    1    3    3    0    0  0.63762290163E+01  0.21922515385E+01  0.56537965579E+01  0.87992999185E+01  0.51100000000E-03 0.  1.
        -12    1    3    3    0    0 -0.27559366589E+02  0.21565352532E+01 -0.34578389831E+02  0.44270016653E+02  0.00000000000E+00 0.  1.
</event>
<event>
 7    1  0.1716782E-015  0.9000770E+02  0.7816164E-02  0.1186339E+00
        -11   -1    0    0    0    0  0.00000000000E+00  0.00000000000E+00  0.45593999997E+02  0.45594000000E+02  0.51100000000E-03 0. -1.
         11   -1    0    0    0    0 -0.00000000000E+00 -0.00000000000E+00 -0.45593999997E+02  0.45594000000E+02  0.51100000000E-03 0.  1.
    9900012    2    1    2    0    0  0.32137411609E+00  0.10448767150E+01  0.44502695072E+00  0.90007704419E+02  0.89999965317E+02 0.  0.
        -12    1    1    2    0    0 -0.32137411609E+00 -0.10448767150E+01 -0.44502695072E+00  0.11802955812E+01  0.00000000000E+00 0.  1.
         11    1    3    3    0    0 -0.48762964669E+00 -0.11098597333E+02 -0.14420365255E+01  0.11202504856E+02  0.51100000000E-03 0. -1.
        -11    1    3    3    0    0 -0.20428590117E+02 -0.15673582969E+02 -0.24058514386E+02  0.35239191421E+02  0.51100000000E-03 0.  1.
         12    1    3    3    0    0  0.21237593880E+02  0.27817057017E+02  0.25945577862E+02  0.43566008143E+02  0.00000000000E+00 0. -1.
</event>
<event>
 7    1  0.1716782E-015  0.9000824E+02  0.7816164E-02  0.1186338E+00
        -11   -1    0    0    0    0  0.00000000000E+00  0.00000000000E+00  0.45593999997E+02  0.45594000000E+02  0.51100000000E-03 0.  1.
         11   -1    0    0    0    0 -0.00000000000E+00 -0.00000000000E+00 -0.45593999997E+02  0.45594000000E+02  0.51100000000E-03 0. -1.
    9900012    2    1    2    0    0 -0.11088535923E+01  0.28072353907E+00 -0.28891610943E+00  0.90008239638E+02  0.90000507599E+02 0.  0.
        -12    1    1    2    0    0  0.11088535923E+01 -0.28072353907E+00  0.28891610943E+00  0.11797603625E+01  0.00000000000E+00 0.  1.
         11    1    3    3    0    0 -0.31995355953E+01  0.62355430330E+01  0.60109908356E+01  0.92331487603E+01  0.51100000000E-03 0. -1.
        -11    1    3    3    0    0 -0.71300072268E+00  0.12428362218E+02  0.34099792045E+02  0.36301079532E+02  0.51100000000E-03 0.  1.
         12    1    3    3    0    0  0.28036827257E+01 -0.18383181712E+02 -0.40399698990E+02  0.44474011345E+02  0.00000000000E+00 0. -1.
</event>
<event>
 7    1  0.1716782E-015  0.9000777E+02  0.7816164E-02  0.1186339E+00
        -11   -1    0    0    0    0  0.00000000000E+00  0.00000000000E+00  0.45593999997E+02  0.45594000000E+02  0.51100000000E-03 0. -1.
         11   -1    0    0    0    0 -0.00000000000E+00 -0.00000000000E+00 -0.45593999997E+02  0.45594000000E+02  0.51100000000E-03 0.  1.
    9900012    2    1    2    0    0 -0.89997476207E+00 -0.74468080210E+00  0.16864944661E+00  0.90007768368E+02  0.90000030110E+02 0.  0.
        -12    1    1    2    0    0  0.89997476207E+00  0.74468080210E+00 -0.16864944661E+00  0.11802316320E+01  0.00000000000E+00 0.  1.
         11    1    3    3    0    0 -0.12472091981E+01 -0.46842685313E+01 -0.97617746795E+01  0.10899089302E+02  0.51100000000E-03 0. -1.
        -11    1    3    3    0    0  0.29126940394E+01  0.23246882710E+02 -0.27976406791E+02  0.36490830075E+02  0.51100000000E-03 0.  1.
         12    1    3    3    0    0 -0.25654596033E+01 -0.19307294981E+02  0.37906830917E+02  0.42617848992E+02  0.00000000000E+00 0. -1.
</event>
<event>
 7    1  0.1716782E-015  0.9000778E+02  0.7816164E-02  0.1186339E+00
        -11   -1    0    0    0    0  0.00000000000E+00  0.00000000000E+00  0.45593999997E+02  0.45594000000E+02  0.51100000000E-03 0. -1.
         11   -1    0    0    0    0 -0.00000000000E+00 -0.00000000000E+00 -0.45593999997E+02  0.45594000000E+02  0.51100000000E-03 0.  1.
    9900012    2    1    2    0    0 -0.91190252896E+00  0.11980160028E+00  0.73960199856E+00  0.90007775546E+02  0.90000037383E+02 0.  0.
        -12    1    1    2    0    0  0.91190252896E+00 -0.11980160028E+00 -0.73960199856E+00  0.11802244541E+01  0.00000000000E+00 0.  1.
         11    1    3    3    0    0 -0.96601246518E+01  0.28577044570E+02 -0.18175282043E+02  0.35217983506E+02  0.51100000000E-03 0. -1.
        -11    1    3    3    0    0 -0.19294438056E+01  0.74698871147E+00 -0.11267166856E+02  0.11455557374E+02  0.51100000000E-03 0.  1.
        -12    1    3    3    0    0  0.10677665928E+02 -0.29204231681E+02  0.30182050897E+02  0.43334234666E+02  0.00000000000E+00 0.  1.
</event>
<event>
 7    1  0.1716782E-015  0.9000809E+02  0.7816164E-02  0.1186338E+00
        -11   -1    0    0    0    0  0.00000000000E+00  0.00000000000E+00  0.45593999997E+02  0.45594000000E+02  0.51100000000E-03 0. -1.
         11   -1    0    0    0    0 -0.00000000000E+00 -0.00000000000E+00 -0.45593999997E+02  0.45594000000E+02  0.51100000000E-03 0.  1.
    9900012    2    1    2    0    0 -0.22287600556E+00 -0.26776984888E+00  0.11273045155E+01  0.90008089039E+02  0.90000355013E+02 0.  0.
        -12    1    1    2    0    0  0.22287600556E+00  0.26776984888E+00 -0.11273045155E+01  0.11799109613E+01  0.00000000000E+00 0.  1.
         11    1    3    3    0    0 -0.35160166317E+02 -0.19057384430E+02  0.14183215159E+02  0.42433298120E+02  0.51100000000E-03 0. -1.
        -11    1    3    3    0    0  0.76834709646E+01 -0.43510111443E+01 -0.70978147629E+01  0.11328989307E+02  0.51100000000E-03 0.  1.
        -12    1    3    3    0    0  0.27253819347E+02  0.23140625726E+02 -0.59580958809E+01  0.36245801612E+02  0.00000000000E+00 0.  1.
</event>
<event>
 7    1  0.1716782E-015  0.9000775E+02  0.7816164E-02  0.1186339E+00
        -11   -1    0    0    0    0  0.00000000000E+00  0.00000000000E+00  0.45593999997E+02  0.45594000000E+02  0.51100000000E-03 0. -1.
         11   -1    0    0    0    0 -0.00000000000E+00 -0.00000000000E+00 -0.45593999997E+02  0.45594000000E+02  0.51100000000E-03 0.  1.
    9900012    2    1    2    0    0  0.69392155407E+00  0.87711609075E+00  0.37701233322E+00  0.90007746612E+02  0.90000008068E+02 0.  0.
        -12    1    1    2    0    0 -0.69392155407E+00 -0.87711609075E+00 -0.37701233322E+00  0.11802533877E+01  0.00000000000E+00 0.  1.
         11    1    3    3    0    0 -0.22778435832E+02 -0.14522064431E+02 -0.11389509482E+02  0.29316691846E+02  0.51100000000E-03 0. -1.
        -11    1    3    3    0    0 -0.10308206268E+02  0.11797289127E+02 -0.11570189582E+02  0.19475739637E+02  0.51100000000E-03 0.  1.
        -12    1    3    3    0    0  0.33780563654E+02  0.36018913943E+01  0.23336711397E+02  0.41215315129E+02  0.00000000000E+00 0.  1.
</event>
<event>
 7    1  0.1716782E-015  0.9000764E+02  0.7816164E-02  0.1186339E+00
        -11   -1    0    0    0    0  0.00000000000E+00  0.00000000000E+00  0.45593999997E+02  0.45594000000E+02  0.51100000000E-03 0. -1.
         11   -1    0    0    0    0 -0.00000000000E+00 -0.00000000000E+00 -0.45593999997E+02  0.45594000000E+02  0.51100000000E-03 0.  1.
    9900012    2    1    2    0    0 -0.43042187407E+00  0.41688259240E+00  0.10169554660E+01  0.90007638824E+02  0.89999898857E+02 0.  0.
        -12    1    1    2    0    0  0.43042187407E+00 -0.41688259240E+00 -0.10169554660E+01  0.11803611758E+01  0.00000000000E+00 0.  1.
         11    1    3    3    0    0 -0.19966425468E+02 -0.22374467215E+02  0.20990656126E+02  0.36604406483E+02  0.51100000000E-03 0. -1.
        -11    1    3    3    0    0 -0.24052285148E+01 -0.65409541380E+01  0.54223585402E+01  0.88301289709E+01  0.51100000000E-03 0.  1.
        -12    1    3    3    0    0  0.21941232109E+02  0.29332303945E+02 -0.25396059200E+02  0.44573103370E+02  0.00000000000E+00 0.  1.
</event>
<event>
 7    1  0.1716782E-015  0.9000778E+02  0.7816164E-02  0.1186339E+00
        -11   -1    0    0    0    0  0.00000000000E+00  0.00000000000E+00  0.45593999997E+02  0.45594000000E+02  0.51100000000E-03 0. -1.
         11   -1    0    0    0    0 -0.00000000000E+00 -0.00000000000E+00 -0.45593999997E+02  0.45594000000E+02  0.51100000000E-03 0.  1.
    9900012    2    1    2    0    0 -0.22050962904E-01  0.23735618520E+00  0.11558921565E+01  0.90007783545E+02  0.90000045488E+02 0.  0.
        -12    1    1    2    0    0  0.22050962904E-01 -0.23735618520E+00 -0.11558921565E+01  0.11802164552E+01  0.00000000000E+00 0.  1.
         11    1    3    3    0    0  0.16887547702E+01 -0.38735140594E+01 -0.90694665929E+01  0.10005559874E+02  0.51100000000E-03 0. -1.
        -11    1    3    3    0    0  0.32202587072E+02  0.98760996653E+01 -0.15469300455E+02  0.37065391075E+02  0.51100000000E-03 0.  1.
         12    1    3    3    0    0 -0.33913392805E+02 -0.57652294207E+01  0.25694659204E+02  0.42936832596E+02  0.00000000000E+00 0. -1.
</event>
<event>
 7    1  0.1838322E-015  0.9000775E+02  0.7816164E-02  0.1186339E+00
        -11   -1    0    0    0    0  0.00000000000E+00  0.00000000000E+00  0.45593999997E+02  0.45594000000E+02  0.51100000000E-03 0.  1.
         11   -1    0    0    0    0 -0.00000000000E+00 -0.00000000000E+00 -0.45593999997E+02  0.45594000000E+02  0.51100000000E-03 0. -1.
    9900012    2    1    2    0    0 -0.75272179959E+00 -0.66249636968E+00 -0.62249065544E+00  0.90007751652E+02  0.90000013174E+02 0.  0.
        -12    1    1    2    0    0  0.75272179959E+00  0.66249636968E+00  0.62249065544E+00  0.11802483482E+01  0.00000000000E+00 0.  1.
         11    1    3    3    0    0  0.13283510839E+02  0.25191674008E+02 -0.21766483868E+02  0.35844831145E+02  0.51100000000E-03 0. -1.
        -11    1    3    3    0    0  0.84514835275E+00  0.86861255290E+01 -0.32748298080E+01  0.93213498473E+01  0.51100000000E-03 0.  1.
        -12    1    3    3    0    0 -0.14881380991E+02 -0.34540295906E+02  0.24418823021E+02  0.44841570660E+02  0.00000000000E+00 0.  1.
</event>
<event>
 7    1  0.1716782E-015  0.9000774E+02  0.7816164E-02  0.1186339E+00
        -11   -1    0    0    0    0  0.00000000000E+00  0.00000000000E+00  0.45593999997E+02  0.45594000000E+02  0.51100000000E-03 0. -1.
         11   -1    0    0    0    0 -0.00000000000E+00 -0.00000000000E+00 -0.45593999997E+02  0.45594000000E+02  0.51100000000E-03 0.  1.
    9900012    2    1    2    0    0  0.11039113788E+01  0.39883718624E+00  0.12373944232E+00  0.90007744569E+02  0.90000005997E+02 0.  0.
        -12    1    1    2    0    0 -0.11039113788E+01 -0.39883718624E+00 -0.12373944232E+00  0.11802554313E+01  0.00000000000E+00 0.  1.
         11    1    3    3    0    0 -0.26351234104E+02 -0.21550691498E+02  0.15709724078E+02  0.37491536028E+02  0.51100000000E-03 0. -1.
        -11    1    3    3    0    0 -0.70613960617E+01  0.75766499861E+01  0.29712377382E+01  0.10774840756E+02  0.51100000000E-03 0.  1.
        -12    1    3    3    0    0  0.34516541545E+02  0.14372878698E+02 -0.18557222374E+02  0.41741367785E+02  0.00000000000E+00 0.  1.
</event>
<event>
 7    1  0.1716782E-015  0.9000772E+02  0.7816164E-02  0.1186339E+00
        -11   -1    0    0    0    0  0.00000000000E+00  0.00000000000E+00  0.45593999997E+02  0.45594000000E+02  0.51100000000E-03 0.  1.
         11   -1    0    0    0    0 -0.00000000000E+00 -0.00000000000E+00 -0.45593999997E+02  0.45594000000E+02  0.51100000000E-03 0. -1.
    9900012    2    1    2    0    0 -0.88538930622E+00 -0.61816155525E+00 -0.47646023165E+00  0.90007723641E+02  0.89999984793E+02 0.  0.
        -12    1    1    2    0    0  0.88538930622E+00  0.61816155525E+00  0.47646023165E+00  0.11802763593E+01  0.00000000000E+00 0.  1.
         11    1    3    3    0    0 -0.81220657553E+00 -0.27725074175E+02 -0.27497489135E+02  0.39057026596E+02  0.51100000000E-03 0. -1.
        -11    1    3    3    0    0  0.73209343204E+01 -0.25848924671E+01 -0.27716657811E+01  0.82437782511E+01  0.51100000000E-03 0.  1.
        -12    1    3    3    0    0 -0.73941170510E+01  0.29691805087E+02  0.29792694685E+02  0.42706918794E+02  0.00000000000E+00 0.  1.
</event>
<event>
 7    1  0.1716782E-015  0.9000778E+02  0.7816164E-02  0.1186339E+00
        -11   -1    0    0    0    0  0.00000000000E+00  0.00000000000E+00  0.45593999997E+02  0.45594000000E+02  0.51100000000E-03 0.  1.
         11   -1    0    0    0    0 -0.00000000000E+00 -0.00000000000E+00 -0.45593999997E+02  0.45594000000E+02  0.51100000000E-03 0. -1.
    9900012    2    1    2    0    0  0.89876510603E+00 -0.12826019251E+00  0.75411788005E+00  0.90007778339E+02  0.90000040213E+02 0.  0.
        -12    1    1    2    0    0 -0.89876510603E+00  0.12826019251E+00 -0.75411788005E+00  0.11802216613E+01  0.00000000000E+00 0.  1.
         11    1    3    3    0    0  0.13334926189E+02 -0.34308816946E+02 -0.48298611778E+01  0.37124691729E+02  0.51100000000E-03 0. -1.
        -11    1    3    3    0    0  0.57421668380E+01 -0.47039857092E+01  0.66209214179E+01  0.99466859923E+01  0.51100000000E-03 0.  1.
        -12    1    3    3    0    0 -0.18178327921E+02  0.38884542463E+02 -0.10369423600E+01  0.42936400618E+02  0.00000000000E+00 0.  1.
</event>
<event>
 7    1  0.1924458E-015  0.9000766E+02  0.7816164E-02  0.1186339E+00
        -11   -1    0    0    0    0  0.00000000000E+00  0.00000000000E+00  0.45593999997E+02  0.45594000000E+02  0.51100000000E-03 0.  1.
         11   -1    0    0    0    0 -0.00000000000E+00 -0.00000000000E+00 -0.45593999997E+02  0.45594000000E+02  0.51100000000E-03 0. -1.
    9900012    2    1    2    0    0 -0.85273510926E+00 -0.60781073678E+00 -0.54461651888E+00  0.90007661823E+02  0.89999922160E+02 0.  0.
        -12    1    1    2    0    0  0.85273510926E+00  0.60781073678E+00  0.54461651888E+00  0.11803381765E+01  0.00000000000E+00 0.  1.
         11    1    3    3    0    0 -0.25119283674E+02  0.26427011552E+02  0.17416341569E+01  0.36502036130E+02  0.51100000000E-03 0. -1.
        -11    1    3    3    0    0  0.47466681123E+00  0.91989284672E+01  0.33341929455E+01  0.97960418734E+01  0.51100000000E-03 0.  1.
        -12    1    3    3    0    0  0.23791881753E+02 -0.36233750756E+02 -0.56204436213E+01  0.43709583820E+02  0.00000000000E+00 0.  1.
</event>
<event>
 7    1  0.1716782E-015  0.9000770E+02  0.7816164E-02  0.1186339E+00
        -11   -1    0    0    0    0  0.00000000000E+00  0.00000000000E+00  0.45593999997E+02  0.45594000000E+02  0.51100000000E-03 0. -1.
         11   -1    0    0    0    0 -0.00000000000E+00 -0.00000000000E+00 -0.45593999997E+02  0.45594000000E+02  0.51100000000E-03 0.  1.
    9900012    2    1    2    0    0 -0.59077493737E+00 -0.95018776761E+00  0.37581491055E+00  0.90007699755E+02  0.89999960592E+02 0.  0.
        -12    1    1    2    0    0  0.59077493737E+00  0.95018776761E+00 -0.37581491055E+00  0.11803002446E+01  0.00000000000E+00 0.  1.
         11    1    3    3    0    0 -0.90815163865E+01 -0.47391134231E+01 -0.18209282133E+01  0.10404273917E+02  0.51100000000E-03 0. -1.
        -11    1    3    3    0    0 -0.44514709739E+01  0.26120455515E+02 -0.28888066158E+02  0.39199670365E+02  0.51100000000E-03 0.  1.
         12    1    3    3    0    0  0.12942212423E+02 -0.22331529859E+02  0.31084809282E+02  0.40403755473E+02  0.00000000000E+00 0. -1.
</event>
<event>
 7    1  0.1716782E-015  0.9000769E+02  0.7816164E-02  0.1186339E+00
        -11   -1    0    0    0    0  0.00000000000E+00  0.00000000000E+00  0.45593999997E+02  0.45594000000E+02  0.51100000000E-03 0.  1.
         11   -1    0    0    0    0 -0.00000000000E+00 -0.00000000000E+00 -0.45593999997E+02  0.45594000000E+02  0.51100000000E-03 0. -1.
    9900012    2    1    2    0    0  0.35205666975E+00 -0.11173931912E+01 -0.14357949021E+00  0.90007692196E+02  0.89999952933E+02 0.  0.
        -12    1    1    2    0    0 -0.35205666975E+00  0.11173931912E+01  0.14357949021E+00  0.11803078041E+01  0.00000000000E+00 0.  1.
         11    1    3    3    0    0 -0.16054687615E+02  0.19902306227E+02  0.24634601481E+02  0.35506596260E+02  0.51100000000E-03 0. -1.
        -11    1    3    3    0    0  0.77544187350E+01  0.37519667902E+01  0.85138592949E+01  0.12111732538E+02  0.51100000000E-03 0.  1.
        -12    1    3    3    0    0  0.86523255498E+01 -0.24771666209E+02 -0.33292040266E+02  0.42389363398E+02  0.00000000000E+00 0.  1.
</event>
<event>
 7    1  0.1716782E-015  0.9000777E+02  0.7816164E-02  0.1186339E+00
        -11   -1    0    0    0    0  0.00000000000E+00  0.00000000000E+00  0.45593999997E+02  0.45594000000E+02  0.51100000000E-03 0. -1.
         11   -1    0    0    0    0 -0.00000000000E+00 -0.00000000000E+00 -0.45593999997E+02  0.45594000000E+02  0.51100000000E-03 0.  1.
    9900012    2    1    2    0    0 -0.95690605169E+00  0.49635971617E+00  0.48052625356E+00  0.90007767972E+02  0.90000029709E+02 0.  0.
        -12    1    1    2    0    0  0.95690605169E+00 -0.49635971617E+00 -0.48052625356E+00  0.11802320280E+01  0.00000000000E+00 0.  1.
         11    1    3    3    0    0 -0.14109656290E+01  0.88113264188E+01  0.77556086791E-01  0.89239180001E+01  0.51100000000E-03 0. -1.
        -11    1    3    3    0    0  0.13617572420E+02 -0.23611648090E+01 -0.37796229647E+02  0.40243861067E+02  0.51100000000E-03 0.  1.
         12    1    3    3    0    0 -0.13163512842E+02 -0.59538018936E+01  0.38199199813E+02  0.40839988904E+02  0.00000000000E+00 0. -1.
</event>
<event>
 7    1  0.1716782E-015  0.9000782E+02  0.7816164E-02  0.1186339E+00
        -11   -1    0    0    0    0  0.00000000000E+00  0.00000000000E+00  0.45593999997E+02  0.45594000000E+02  0.51100000000E-03 0.  1.
         11   -1    0    0    0    0 -0.00000000000E+00 -0.00000000000E+00 -0.45593999997E+02  0.45594000000E+02  0.51100000000E-03 0. -1.
    9900012    2    1    2    0    0  0.67638312405E+00  0.38060839214E-02 -0.96711447660E+00  0.90007822459E+02  0.90000084916E+02 0.  0.
        -12    1    1    2    0    0 -0.67638312405E+00 -0.38060839214E-02  0.96711447660E+00  0.11801775407E+01  0.00000000000E+00 0.  1.
         11    1    3    3    0    0  0.33510788619E+01 -0.29460655802E+02 -0.22392844495E+02  0.37156418754E+02  0.51100000000E-03 0. -1.
        -11    1    3    3    0    0 -0.27582128848E+01 -0.91659476507E+01  0.57158968308E+01  0.11148713446E+02  0.51100000000E-03 0.  1.
        -12    1    3    3    0    0  0.83517146943E-01  0.38630409536E+02  0.15709833188E+02  0.41702690259E+02  0.00000000000E+00 0.  1.
</event>
<event>
 7    1  0.1716782E-015  0.9000769E+02  0.7816164E-02  0.1186339E+00
        -11   -1    0    0    0    0  0.00000000000E+00  0.00000000000E+00  0.45593999997E+02  0.45594000000E+02  0.51100000000E-03 0. -1.
         11   -1    0    0    0    0 -0.00000000000E+00 -0.00000000000E+00 -0.45593999997E+02  0.45594000000E+02  0.51100000000E-03 0.  1.
    9900012    2    1    2    0    0 -0.11337639132E+01  0.14095590466E+00  0.29639562545E+00  0.90007686675E+02  0.89999947339E+02 0.  0.
        -12    1    1    2    0    0  0.11337639132E+01 -0.14095590466E+00 -0.29639562545E+00  0.11803133248E+01  0.00000000000E+00 0.  1.
         11    1    3    3    0    0 -0.23392728583E+01 -0.65879976041E+01  0.30831481702E+01  0.76406618063E+01  0.51100000000E-03 0. -1.
        -11    1    3    3    0    0 -0.10607446019E+02 -0.33171019290E+02  0.13949367638E+02  0.37515587288E+02  0.51100000000E-03 0.  1.
         12    1    3    3    0    0  0.11812954964E+02  0.39899972799E+02 -0.16736120183E+02  0.44851437581E+02  0.00000000000E+00 0. -1.
</event>
<event>
 7    1  0.1716782E-015  0.9000777E+02  0.7816164E-02  0.1186339E+00
        -11   -1    0    0    0    0  0.00000000000E+00  0.00000000000E+00  0.45593999997E+02  0.45594000000E+02  0.51100000000E-03 0. -1.
         11   -1    0    0    0    0 -0.00000000000E+00 -0.00000000000E+00 -0.45593999997E+02  0.45594000000E+02  0.51100000000E-03 0.  1.
    9900012    2    1    2    0    0  0.55075031683E+00 -0.64979943865E+00  0.81693559880E+00  0.90007767398E+02  0.90000029128E+02 0.  0.
        -12    1    1    2    0    0 -0.55075031683E+00  0.64979943865E+00 -0.81693559880E+00  0.11802326019E+01  0.00000000000E+00 0.  1.
         11    1    3    3    0    0 -0.19186514767E+02 -0.28220835615E+02  0.73137296859E+01  0.34900265814E+02  0.51100000000E-03 0. -1.
        -11    1    3    3    0    0  0.10696825450E+02 -0.39480838014E-01  0.15383450477E+02  0.18736973669E+02  0.51100000000E-03 0.  1.
        -12    1    3    3    0    0  0.90404396344E+01  0.27610517014E+02 -0.21880244564E+02  0.36370527915E+02  0.00000000000E+00 0.  1.
</event>
<event>
 7    1  0.1716782E-015  0.9000772E+02  0.7816164E-02  0.1186339E+00
        -11   -1    0    0    0    0  0.00000000000E+00  0.00000000000E+00  0.45593999997E+02  0.45594000000E+02  0.51100000000E-03 0.  1.
         11   -1    0    0    0    0 -0.00000000000E+00 -0.00000000000E+00 -0.45593999997E+02  0.45594000000E+02  0.51100000000E-03 0. -1.
    9900012    2    1    2    0    0 -0.11518049798E+01 -0.24703474718E+00 -0.73311489609E-01  0.90007722299E+02  0.89999983433E+02 0.  0.
        -12    1    1    2    0    0  0.11518049798E+01  0.24703474718E+00  0.73311489609E-01  0.11802777014E+01  0.00000000000E+00 0.  1.
         11    1    3    3    0    0  0.62248065882E+01 -0.76853436994E+01 -0.74159983876E+00  0.99177969035E+01  0.51100000000E-03 0. -1.
        -11    1    3    3    0    0  0.28867137039E+01 -0.20336562624E+02  0.31331004722E+02  0.37463859285E+02  0.51100000000E-03 0.  1.
         12    1    3    3    0    0 -0.10263325272E+02  0.27774871576E+02 -0.30662716373E+02  0.42626066110E+02  0.00000000000E+00 0. -1.
</event>
<event>
 7    1  0.1716782E-015  0.9000770E+02  0.7816164E-02  0.1186339E+00
        -11   -1    0    0    0    0  0.00000000000E+00  0.00000000000E+00  0.45593999997E+02  0.45594000000E+02  0.51100000000E-03 0. -1.
         11   -1    0    0    0    0 -0.00000000000E+00 -0.00000000000E+00 -0.45593999997E+02  0.45594000000E+02  0.51100000000E-03 0.  1.
    9900012    2    1    2    0    0  0.68059336986E+00  0.92725513077E+00 -0.26475224116E+00  0.90007702088E+02  0.89999962955E+02 0.  0.
        -12    1    1    2    0    0 -0.68059336986E+00 -0.92725513077E+00  0.26475224116E+00  0.11802979123E+01  0.00000000000E+00 0.  1.
         11    1    3    3    0    0 -0.62243613998E+01 -0.15919954770E+01  0.38160273147E+02  0.38697332872E+02  0.51100000000E-03 0. -1.
        -11    1    3    3    0    0  0.57648394450E+01  0.76562050950E+01  0.26151196187E+01  0.99342690302E+01  0.51100000000E-03 0.  1.
        -12    1    3    3    0    0  0.11401153247E+01 -0.51369544872E+01 -0.41040145007E+02  0.41376100186E+02  0.00000000000E+00 0.  1.
</event>
<event>
 7    1  0.1716782E-015  0.9000764E+02  0.7816164E-02  0.1186339E+00
        -11   -1    0    0    0    0  0.00000000000E+00  0.00000000000E+00  0.45593999997E+02  0.45594000000E+02  0.51100000000E-03 0. -1.
         11   -1    0    0    0    0 -0.00000000000E+00 -0.00000000000E+00 -0.45593999997E+02  0.45594000000E+02  0.51100000000E-03 0.  1.
    9900012    2    1    2    0    0 -0.75225678045E+00 -0.69456682332E+00  0.58730723128E+00  0.90007642800E+02  0.89999902885E+02 0.  0.
        -12    1    1    2    0    0  0.75225678045E+00  0.69456682332E+00 -0.58730723128E+00  0.11803572000E+01  0.00000000000E+00 0.  1.
         11    1    3    3    0    0 -0.17757295797E+01  0.93662834920E+01  0.47744186758E+01  0.10661873942E+02  0.51100000000E-03 0. -1.
        -11    1    3    3    0    0 -0.20027686309E+02 -0.22646551020E+02 -0.30797676606E+02  0.43156359631E+02  0.51100000000E-03 0.  1.
         12    1    3    3    0    0  0.21051159108E+02  0.12585700705E+02  0.26610565161E+02  0.36189409228E+02  0.00000000000E+00 0. -1.
</event>
<event>
 7    1  0.1716782E-015  0.9000774E+02  0.7816164E-02  0.1186339E+00
        -11   -1    0    0    0    0  0.00000000000E+00  0.00000000000E+00  0.45593999997E+02  0.45594000000E+02  0.51100000000E-03 0.  1.
         11   -1    0    0    0    0 -0.00000000000E+00 -0.00000000000E+00 -0.45593999997E+02  0.45594000000E+02  0.51100000000E-03 0. -1.
    9900012    2    1    2    0    0 -0.10316478277E+01 -0.37284790979E+00  0.43554308213E+00  0.90007741308E+02  0.90000002693E+02 0.  0.
        -12    1    1    2    0    0  0.10316478277E+01  0.37284790979E+00 -0.43554308213E+00  0.11802586923E+01  0.00000000000E+00 0.  1.
         11    1    3    3    0    0  0.64740872297E+01 -0.33724684626E+02 -0.45012989445E+01  0.34634229471E+02  0.51100000000E-03 0. -1.
        -11    1    3    3    0    0  0.41026983889E+01 -0.65706431700E+01 -0.86710703641E+01  0.11627250202E+02  0.51100000000E-03 0.  1.
        -12    1    3    3    0    0 -0.11608433446E+02  0.39922479887E+02  0.13607912391E+02  0.43746261635E+02  0.00000000000E+00 0.  1.
</event>
<event>
 7    1  0.1716782E-015  0.9000783E+02  0.7816164E-02  0.1186339E+00
        -11   -1    0    0    0    0  0.00000000000E+00  0.00000000000E+00  0.45593999997E+02  0.45594000000E+02  0.51100000000E-03 0. -1.
         11   -1    0    0    0    0 -0.00000000000E+00 -0.00000000000E+00 -0.45593999997E+02  0.45594000000E+02  0.51100000000E-03 0.  1.
    9900012    2    1    2    0    0 -0.43278682560E+00 -0.10618572626E+01 -0.27920934362E+00  0.90007829190E+02  0.90000091736E+02 0.  0.
        -12    1    1    2    0    0  0.43278682560E+00  0.10618572626E+01  0.27920934362E+00  0.11801708097E+01  0.00000000000E+00 0.  1.
         11    1    3    3    0    0  0.15424242045E+02 -0.19039320663E+02  0.30346063047E+02  0.39003673117E+02  0.51100000000E-03 0. -1.
        -11    1    3    3    0    0 -0.92296431837E+01 -0.13252078515E+01  0.45206816302E+01  0.10362386396E+02  0.51100000000E-03 0.  1.
        -12    1    3    3    0    0 -0.66273856866E+01  0.19302671252E+02 -0.35145954020E+02  0.40641769677E+02  0.00000000000E+00 0.  1.
</event>
<event>
 7    1  0.1716782E-015  0.9000765E+02  0.7816164E-02  0.1186339E+00
        -11   -1    0    0    0    0  0.00000000000E+00  0.00000000000E+00  0.45593999997E+02  0.45594000000E+02  0.51100000000E-03 0. -1.
         11   -1    0    0    0    0 -0.00000000000E+00 -0.00000000000E+00 -0.45593999997E+02  0.45594000000E+02  0.51100000000E-03 0.  1.
    9900012    2    1    2    0    0 -0.11339672059E+01  0.30152559612E+00  0.12819238280E+00  0.90007647258E+02  0.89999907401E+02 0.  0.
        -12    1    1    2    0    0  0.11339672059E+01 -0.30152559612E+00 -0.12819238280E+00  0.11803527423E+01  0.00000000000E+00 0.  1.
         11    1    3    3    0    0 -0.36678003717E+02  0.50081012531E+01  0.51229906674E+01  0.37371139513E+02  0.51100000000E-03 0. -1.
        -11    1    3    3    0    0 -0.33455178929E+01 -0.75239236603E+01  0.80553103767E+01  0.11519112064E+02  0.51100000000E-03 0.  1.
        -12    1    3    3    0    0  0.38889554404E+02  0.28173480033E+01 -0.13050108661E+02  0.41117395681E+02  0.00000000000E+00 0.  1.
</event>
<event>
 7    1  0.1716782E-015  0.9000794E+02  0.7816164E-02  0.1186339E+00
        -11   -1    0    0    0    0  0.00000000000E+00  0.00000000000E+00  0.45593999997E+02  0.45594000000E+02  0.51100000000E-03 0.  1.
         11   -1    0    0    0    0 -0.00000000000E+00 -0.00000000000E+00 -0.45593999997E+02  0.45594000000E+02  0.51100000000E-03 0. -1.
    9900012    2    1    2    0    0 -0.42484640535E+00 -0.97795012571E+00 -0.50563041467E+00  0.90007939394E+02  0.90000203394E+02 0.  0.
        -12    1    1    2    0    0  0.42484640535E+00  0.97795012571E+00  0.50563041467E+00  0.11800606055E+01  0.00000000000E+00 0.  1.
         11    1    3    3    0    0  0.99965535987E+01 -0.77370030790E+01 -0.72884319138E+01  0.14591557166E+02  0.51100000000E-03 0. -1.
        -11    1    3    3    0    0 -0.16639508706E+02  0.36755596141E+02  0.16033804122E+02  0.43415780225E+02  0.51100000000E-03 0.  1.
         12    1    3    3    0    0  0.62181087024E+01 -0.29996543188E+02 -0.92510026230E+01  0.32000602004E+02  0.00000000000E+00 0. -1.
</event>
<event>
 7    1  0.1716782E-015  0.9000783E+02  0.7816164E-02  0.1186339E+00
        -11   -1    0    0    0    0  0.00000000000E+00  0.00000000000E+00  0.45593999997E+02  0.45594000000E+02  0.51100000000E-03 0.  1.
         11   -1    0    0    0    0 -0.00000000000E+00 -0.00000000000E+00 -0.45593999997E+02  0.45594000000E+02  0.51100000000E-03 0. -1.
    9900012    2    1    2    0    0  0.66054928276E+00 -0.93655452815E+00 -0.28166550640E+00  0.90007832556E+02  0.90000095145E+02 0.  0.
        -12    1    1    2    0    0 -0.66054928276E+00  0.93655452815E+00  0.28166550640E+00  0.11801674443E+01  0.00000000000E+00 0.  1.
         11    1    3    3    0    0  0.13719734115E+02  0.22533509741E+02 -0.11347041092E+02  0.28718382740E+02  0.51100000000E-03 0. -1.
        -11    1    3    3    0    0 -0.19555928509E+02  0.12200898850E+02 -0.10149011762E+01  0.23072197496E+02  0.51100000000E-03 0.  1.
        -12    1    3    3    0    0  0.64967436776E+01 -0.35670963119E+02  0.12080276762E+02  0.38217252320E+02  0.00000000000E+00 0.  1.
</event>
<event>
 7    1  0.1716782E-015  0.9000775E+02  0.7816164E-02  0.1186339E+00
        -11   -1    0    0    0    0  0.00000000000E+00  0.00000000000E+00  0.45593999997E+02  0.45594000000E+02  0.51100000000E-03 0.  1.
         11   -1    0    0    0    0 -0.00000000000E+00 -0.00000000000E+00 -0.45593999997E+02  0.45594000000E+02  0.51100000000E-03 0. -1.
    9900012    2    1    2    0    0  0.49102162335E+00  0.78416994992E+00  0.73278080317E+00  0.90007748988E+02  0.90000010475E+02 0.  0.
        -12    1    1    2    0    0 -0.49102162335E+00 -0.78416994992E+00 -0.73278080317E+00  0.11802510116E+01  0.00000000000E+00 0.  1.
         11    1    3    3    0    0  0.13729789255E+02 -0.21917799107E+01 -0.40666183757E+02  0.42977313944E+02  0.51100000000E-03 0. -1.
        -11    1    3    3    0    0 -0.92729546603E+01 -0.58763466615E+01  0.12970948988E+02  0.16993076711E+02  0.51100000000E-03 0.  1.
        -12    1    3    3    0    0 -0.39658129715E+01  0.88522965222E+01  0.28428015573E+02  0.30037358333E+02  0.00000000000E+00 0.  1.
</event>
<event>
 7    1  0.1716782E-015  0.9000783E+02  0.7816164E-02  0.1186339E+00
        -11   -1    0    0    0    0  0.00000000000E+00  0.00000000000E+00  0.45593999997E+02  0.45594000000E+02  0.51100000000E-03 0. -1.
         11   -1    0    0    0    0 -0.00000000000E+00 -0.00000000000E+00 -0.45593999997E+02  0.45594000000E+02  0.51100000000E-03 0.  1.
    9900012    2    1    2    0    0 -0.35134806046E+00  0.23513592860E+00  0.11018448760E+01  0.90007832005E+02  0.90000094588E+02 0.  0.
        -12    1    1    2    0    0  0.35134806046E+00 -0.23513592860E+00 -0.11018448760E+01  0.11801679946E+01  0.00000000000E+00 0.  1.
         11    1    3    3    0    0  0.11412220840E+01  0.92672512983E+01  0.18550166607E+01  0.95197385229E+01  0.51100000000E-03 0. -1.
        -11    1    3    3    0    0  0.37208136380E+02 -0.98851627309E+01 -0.11739877272E+02  0.40249056805E+02  0.51100000000E-03 0.  1.
         12    1    3    3    0    0 -0.38700706524E+02  0.85304736115E+00  0.10986705487E+02  0.40239036678E+02  0.00000000000E+00 0. -1.
</event>
<event>
 7    1  0.1716782E-015  0.9000805E+02  0.7816164E-02  0.1186338E+00
        -11   -1    0    0    0    0  0.00000000000E+00  0.00000000000E+00  0.45593999997E+02  0.45594000000E+02  0.51100000000E-03 0. -1.
         11   -1    0    0    0    0 -0.00000000000E+00 -0.00000000000E+00 -0.45593999997E+02  0.45594000000E+02  0.51100000000E-03 0.  1.
    9900012    2    1    2    0    0  0.11157743777E+01  0.32157844596E+00  0.20957803178E+00  0.90008047412E+02  0.90000312837E+02 0.  0.
        -12    1    1    2    0    0 -0.11157743777E+01 -0.32157844596E+00 -0.20957803178E+00  0.11799525882E+01  0.00000000000E+00 0.  1.
         11    1    3    3    0    0 -0.50453854410E+01 -0.74721261547E+01 -0.46425512121E+01  0.10141097847E+02  0.51100000000E-03 0. -1.
        -11    1    3    3    0    0 -0.15251326134E+02  0.30818004771E+02 -0.20009097306E+02  0.39783367657E+02  0.51100000000E-03 0.  1.
         12    1    3    3    0    0  0.21412485953E+02 -0.23024300170E+02  0.24861226550E+02  0.40083581908E+02  0.00000000000E+00 0. -1.
</event>
<event>
 7    1  0.1716782E-015  0.9000761E+02  0.7816164E-02  0.1186339E+00
        -11   -1    0    0    0    0  0.00000000000E+00  0.00000000000E+00  0.45593999997E+02  0.45594000000E+02  0.51100000000E-03 0.  1.
         11   -1    0    0    0    0 -0.00000000000E+00 -0.00000000000E+00 -0.45593999997E+02  0.45594000000E+02  0.51100000000E-03 0. -1.
    9900012    2    1    2    0    0 -0.61375439381E+00 -0.67692245029E+00 -0.74726985329E+00  0.90007605704E+02  0.89999865300E+02 0.  0.
        -12    1    1    2    0    0  0.61375439381E+00  0.67692245029E+00  0.74726985329E+00  0.11803942957E+01  0.00000000000E+00 0.  1.
         11    1    3    3    0    0  0.92949595245E+01  0.99793589674E+00  0.70339166435E+00  0.93748017958E+01  0.51100000000E-03 0. -1.
        -11    1    3    3    0    0 -0.23314425731E+02 -0.29458672327E+02  0.20475352112E+02  0.42785696989E+02  0.51100000000E-03 0.  1.
         12    1    3    3    0    0  0.13405711813E+02  0.27783813980E+02 -0.21926013630E+02  0.37847106920E+02  0.00000000000E+00 0. -1.
</event>
<event>
 7    1  0.1716782E-015  0.9000786E+02  0.7816164E-02  0.1186339E+00
        -11   -1    0    0    0    0  0.00000000000E+00  0.00000000000E+00  0.45593999997E+02  0.45594000000E+02  0.51100000000E-03 0.  1.
         11   -1    0    0    0    0 -0.00000000000E+00 -0.00000000000E+00 -0.45593999997E+02  0.45594000000E+02  0.51100000000E-03 0. -1.
    9900012    2    1    2    0    0 -0.17762124912E+00 -0.51275716408E-01 -0.11655716436E+01  0.90007857736E+02  0.90000120658E+02 0.  0.
        -12    1    1    2    0    0  0.17762124912E+00  0.51275716408E-01  0.11655716436E+01  0.11801422641E+01  0.00000000000E+00 0.  1.
         11    1    3    3    0    0  0.18540453360E+01  0.12260379641E+02  0.52716809570E+01  0.13473864087E+02  0.51100000000E-03 0. -1.
        -11    1    3    3    0    0  0.23151108466E+02 -0.28352178436E+02  0.15227404914E+02  0.39644592392E+02  0.51100000000E-03 0.  1.
         12    1    3    3    0    0 -0.25182775051E+02  0.16040523078E+02 -0.21664657515E+02  0.36889401257E+02  0.00000000000E+00 0. -1.
</event>
<event>
 7    1  0.1716782E-015  0.9000770E+02  0.7816164E-02  0.1186339E+00
        -11   -1    0    0    0    0  0.00000000000E+00  0.00000000000E+00  0.45593999997E+02  0.45594000000E+02  0.51100000000E-03 0.  1.
         11   -1    0    0    0    0 -0.00000000000E+00 -0.00000000000E+00 -0.45593999997E+02  0.45594000000E+02  0.51100000000E-03 0. -1.
    9900012    2    1    2    0    0  0.58990557117E+00  0.58709179546E+00 -0.83692859582E+00  0.90007697143E+02  0.89999957946E+02 0.  0.
        -12    1    1    2    0    0 -0.58990557117E+00 -0.58709179546E+00  0.83692859582E+00  0.11803028568E+01  0.00000000000E+00 0.  1.
         11    1    3    3    0    0  0.30229775654E+02 -0.20615414810E+02 -0.94286690196E+01  0.37785373673E+02  0.51100000000E-03 0. -1.
        -11    1    3    3    0    0  0.70753501559E+01  0.46546641751E+00  0.70924432388E+01  0.10028957581E+02  0.51100000000E-03 0.  1.
        -12    1    3    3    0    0 -0.36715220239E+02  0.20737040188E+02  0.14992971850E+01  0.42193365888E+02  0.00000000000E+00 0.  1.
</event>
<event>
 7    1  0.1716782E-015  0.9000776E+02  0.7816164E-02  0.1186339E+00
        -11   -1    0    0    0    0  0.00000000000E+00  0.00000000000E+00  0.45593999997E+02  0.45594000000E+02  0.51100000000E-03 0.  1.
         11   -1    0    0    0    0 -0.00000000000E+00 -0.00000000000E+00 -0.45593999997E+02  0.45594000000E+02  0.51100000000E-03 0. -1.
    9900012    2    1    2    0    0 -0.17095250282E+00  0.55438255448E+00 -0.10278084086E+01  0.90007764896E+02  0.90000026593E+02 0.  0.
        -12    1    1    2    0    0  0.17095250282E+00 -0.55438255448E+00  0.10278084086E+01  0.11802351036E+01  0.00000000000E+00 0.  1.
         11    1    3    3    0    0  0.26106094127E+02  0.24508065735E+02 -0.15039596261E+02  0.38837647876E+02  0.51100000000E-03 0. -1.
        -11    1    3    3    0    0  0.22837713473E+01  0.41054675458E+01 -0.49886112301E+01  0.68524971801E+01  0.51100000000E-03 0.  1.
        -12    1    3    3    0    0 -0.28560817977E+02 -0.28059150726E+02  0.19000399082E+02  0.44317619840E+02  0.00000000000E+00 0.  1.
</event>
<event>
 7    1  0.2243402E-015  0.9000776E+02  0.7816164E-02  0.1186339E+00
        -11   -1    0    0    0    0  0.00000000000E+00  0.00000000000E+00  0.45593999997E+02  0.45594000000E+02  0.51100000000E-03 0. -1.
         11   -1    0    0    0    0 -0.00000000000E+00 -0.00000000000E+00 -0.45593999997E+02  0.45594000000E+02  0.51100000000E-03 0.  1.
    9900012    2    1    2    0    0  0.67844746500E+00 -0.33039650733E+00  0.90747936324E+00  0.90007757817E+02  0.90000019421E+02 0.  0.
        -12    1    1    2    0    0 -0.67844746500E+00  0.33039650733E+00 -0.90747936324E+00  0.11802421826E+01  0.00000000000E+00 0.  1.
         11    1    3    3    0    0 -0.36270040154E+02  0.17045323390E+02  0.25852254655E+01  0.40158962303E+02  0.51100000000E-03 0. -1.
        -11    1    3    3    0    0  0.88344614299E+00  0.13850965872E+00 -0.90412561985E+01  0.90853715346E+01  0.51100000000E-03 0.  1.
        -12    1    3    3    0    0  0.36065041476E+02 -0.17514229556E+02  0.73635100962E+01  0.40763423980E+02  0.00000000000E+00 0.  1.
</event>
<event>
 7    1  0.1716782E-015  0.9000778E+02  0.7816164E-02  0.1186339E+00
        -11   -1    0    0    0    0  0.00000000000E+00  0.00000000000E+00  0.45593999997E+02  0.45594000000E+02  0.51100000000E-03 0.  1.
         11   -1    0    0    0    0 -0.00000000000E+00 -0.00000000000E+00 -0.45593999997E+02  0.45594000000E+02  0.51100000000E-03 0. -1.
    9900012    2    1    2    0    0  0.26916771604E+00  0.97655312070E+00 -0.60565789597E+00  0.90007775977E+02  0.90000037820E+02 0.  0.
        -12    1    1    2    0    0 -0.26916771604E+00 -0.97655312070E+00  0.60565789597E+00  0.11802240227E+01  0.00000000000E+00 0.  1.
         11    1    3    3    0    0 -0.35165061178E+01 -0.85848029487E+01 -0.66593052652E+01  0.11419763738E+02  0.51100000000E-03 0. -1.
        -11    1    3    3    0    0 -0.24711611678E+02  0.15066672496E+02  0.29462520846E+02  0.41300224052E+02  0.51100000000E-03 0.  1.
         12    1    3    3    0    0  0.28497285512E+02 -0.55053164266E+01 -0.23408873477E+02  0.37287788188E+02  0.00000000000E+00 0. -1.
</event>
<event>
 7    1  0.1716782E-015  0.9000712E+02  0.7816164E-02  0.1186340E+00
        -11   -1    0    0    0    0  0.00000000000E+00  0.00000000000E+00  0.45593999997E+02  0.45594000000E+02  0.51100000000E-03 0. -1.
         11   -1    0    0    0    0 -0.00000000000E+00 -0.00000000000E+00 -0.45593999997E+02  0.45594000000E+02  0.51100000000E-03 0.  1.
    9900012    2    1    2    0    0  0.11282135615E-01 -0.11678377749E+01  0.17464555905E+00  0.90007121756E+02  0.89999374961E+02 0.  0.
        -12    1    1    2    0    0 -0.11282135615E-01  0.11678377749E+01 -0.17464555905E+00  0.11808782437E+01  0.00000000000E+00 0.  1.
         11    1    3    3    0    0  0.28916206096E+02 -0.24567344932E+02  0.11791180914E+02  0.39733277735E+02  0.51100000000E-03 0. -1.
        -11    1    3    3    0    0  0.56890815294E+01  0.93924120846E+00 -0.65367883354E+01  0.87165030086E+01  0.51100000000E-03 0.  1.
        -12    1    3    3    0    0 -0.34594005489E+02  0.22460265948E+02 -0.50797470199E+01  0.41557341013E+02  0.00000000000E+00 0.  1.
</event>
<event>
 7    1  0.1716782E-015  0.9000774E+02  0.7816164E-02  0.1186339E+00
        -11   -1    0    0    0    0  0.00000000000E+00  0.00000000000E+00  0.45593999997E+02  0.45594000000E+02  0.51100000000E-03 0.  1.
         11   -1    0    0    0    0 -0.00000000000E+00 -0.00000000000E+00 -0.45593999997E+02  0.45594000000E+02  0.51100000000E-03 0. -1.
    9900012    2    1    2    0    0  0.10633655722E+01  0.27598690990E-02 -0.51211313995E+00  0.90007739933E+02  0.90000001300E+02 0.  0.
        -12    1    1    2    0    0 -0.10633655722E+01 -0.27598690990E-02  0.51211313995E+00  0.11802600667E+01  0.00000000000E+00 0.  1.
         11    1    3    3    0    0 -0.72726498728E+01 -0.11788851377E+01 -0.69753522276E+01  0.10145774751E+02  0.51100000000E-03 0. -1.
        -11    1    3    3    0    0 -0.42096638398E+01 -0.23514868779E+02  0.33505945364E+02  0.41149953808E+02  0.51100000000E-03 0.  1.
         12    1    3    3    0    0  0.12545679285E+02  0.24696513786E+02 -0.27042706276E+02  0.38712011375E+02  0.00000000000E+00 0. -1.
</event>
<event>
 7    1  0.1716782E-015  0.9000779E+02  0.7816164E-02  0.1186339E+00
        -11   -1    0    0    0    0  0.00000000000E+00  0.00000000000E+00  0.45593999997E+02  0.45594000000E+02  0.51100000000E-03 0.  1.
         11   -1    0    0    0    0 -0.00000000000E+00 -0.00000000000E+00 -0.45593999997E+02  0.45594000000E+02  0.51100000000E-03 0. -1.
    9900012    2    1    2    0    0  0.57501214394E-01 -0.88717016856E+00 -0.77622805130E+00  0.90007785068E+02  0.90000047031E+02 0.  0.
        -12    1    1    2    0    0 -0.57501214394E-01  0.88717016856E+00  0.77622805130E+00  0.11802149318E+01  0.00000000000E+00 0.  1.
         11    1    3    3    0    0 -0.84654107056E+01  0.28178449071E+01  0.20718533119E+01  0.91594762264E+01  0.51100000000E-03 0. -1.
        -11    1    3    3    0    0  0.17034201551E+02  0.10288150064E+02  0.34634030441E+02  0.39944037340E+02  0.51100000000E-03 0.  1.
         12    1    3    3    0    0 -0.85112896309E+01 -0.13993165139E+02 -0.37482111804E+02  0.40904271502E+02  0.00000000000E+00 0. -1.
</event>
<event>
 7    1  0.1716782E-015  0.9000774E+02  0.7816164E-02  0.1186339E+00
        -11   -1    0    0    0    0  0.00000000000E+00  0.00000000000E+00  0.45593999997E+02  0.45594000000E+02  0.51100000000E-03 0.  1.
         11   -1    0    0    0    0 -0.00000000000E+00 -0.00000000000E+00 -0.45593999997E+02  0.45594000000E+02  0.51100000000E-03 0. -1.
    9900012    2    1    2    0    0 -0.10100898059E+01  0.23653243822E+00 -0.56282815433E+00  0.90007743866E+02  0.90000005285E+02 0.  0.
        -12    1    1    2    0    0  0.10100898059E+01 -0.23653243822E+00  0.56282815433E+00  0.11802561339E+01  0.00000000000E+00 0.  1.
         11    1    3    3    0    0  0.10654923468E+02 -0.41150063492E+02  0.36240185799E+00  0.42508663292E+02  0.51100000000E-03 0. -1.
        -11    1    3    3    0    0 -0.86931375025E+01  0.36624017347E+01 -0.19997229563E+01  0.96427547032E+01  0.51100000000E-03 0.  1.
        -12    1    3    3    0    0 -0.29718757710E+01  0.37724194196E+02  0.10744929440E+01  0.37856325871E+02  0.00000000000E+00 0.  1.
</event>
<event>
 7    1  0.1716782E-015  0.9000766E+02  0.7816164E-02  0.1186339E+00
        -11   -1    0    0    0    0  0.00000000000E+00  0.00000000000E+00  0.45593999997E+02  0.45594000000E+02  0.51100000000E-03 0.  1.
         11   -1    0    0    0    0 -0.00000000000E+00 -0.00000000000E+00 -0.45593999997E+02  0.45594000000E+02  0.51100000000E-03 0. -1.
    9900012    2    1    2    0    0 -0.65941159630E-04  0.93542045245E-01 -0.11766260133E+01  0.90007661534E+02  0.89999921866E+02 0.  0.
        -12    1    1    2    0    0  0.65941159629E-04 -0.93542045245E-01  0.11766260133E+01  0.11803384658E+01  0.00000000000E+00 0.  1.
         11    1    3    3    0    0  0.31136376547E+01 -0.68582880236E+01  0.54764056324E+01  0.93124579446E+01  0.51100000000E-03 0. -1.
        -11    1    3    3    0    0  0.17308334815E+02  0.37827942694E+02  0.49677947151E+01  0.41895234659E+02  0.51100000000E-03 0.  1.
         12    1    3    3    0    0 -0.20422038411E+02 -0.30876112625E+02 -0.11620826361E+02  0.38799968931E+02  0.00000000000E+00 0. -1.
</event>
<event>
 7    1  0.1716782E-015  0.9000778E+02  0.7816164E-02  0.1186339E+00
        -11   -1    0    0    0    0  0.00000000000E+00  0.00000000000E+00  0.45593999997E+02  0.45594000000E+02  0.51100000000E-03 0. -1.
         11   -1    0    0    0    0 -0.00000000000E+00 -0.00000000000E+00 -0.45593999997E+02  0.45594000000E+02  0.51100000000E-03 0.  1.
    9900012    2    1    2    0    0 -0.11398120864E+01 -0.29757244834E+00  0.72097828135E-01  0.90007780084E+02  0.90000041981E+02 0.  0.
        -12    1    1    2    0    0  0.11398120864E+01  0.29757244834E+00 -0.72097828135E-01  0.11802199164E+01  0.00000000000E+00 0.  1.
         11    1    3    3    0    0  0.17987261900E+02 -0.30880827908E+02  0.15876101516E+01  0.35772721859E+02  0.51100000000E-03 0. -1.
        -11    1    3    3    0    0  0.43285066027E+01 -0.71395381572E+01  0.43746169751E+01  0.94258287937E+01  0.51100000000E-03 0.  1.
        -12    1    3    3    0    0 -0.23455580589E+02  0.37722793617E+02 -0.58901292986E+01  0.44809229431E+02  0.00000000000E+00 0.  1.
</event>
<event>
 7    1  0.1716782E-015  0.9000771E+02  0.7816164E-02  0.1186339E+00
        -11   -1    0    0    0    0  0.00000000000E+00  0.00000000000E+00  0.45593999997E+02  0.45594000000E+02  0.51100000000E-03 0. -1.
         11   -1    0    0    0    0 -0.00000000000E+00 -0.00000000000E+00 -0.45593999997E+02  0.45594000000E+02  0.51100000000E-03 0.  1.
    9900012    2    1    2    0    0  0.65402381909E+00 -0.47069360047E+00  0.86242317925E+00  0.90007714712E+02  0.89999975746E+02 0.  0.
        -12    1    1    2    0    0 -0.65402381909E+00  0.47069360047E+00 -0.86242317925E+00  0.11802852882E+01  0.00000000000E+00 0.  1.
         11    1    3    3    0    0  0.87639158328E+00  0.34917912726E+02  0.14194697256E+02  0.37703025367E+02  0.51100000000E-03 0. -1.
        -11    1    3    3    0    0  0.97572668765E+01 -0.73355023818E+01  0.89318952132E+01  0.15125891856E+02  0.51100000000E-03 0.  1.
        -12    1    3    3    0    0 -0.99796346407E+01 -0.28053103945E+02 -0.22264169290E+02  0.37178797488E+02  0.00000000000E+00 0.  1.
</event>
<event>
 7    1  0.1716782E-015  0.9000758E+02  0.7816164E-02  0.1186339E+00
        -11   -1    0    0    0    0  0.00000000000E+00  0.00000000000E+00  0.45593999997E+02  0.45594000000E+02  0.51100000000E-03 0.  1.
         11   -1    0    0    0    0 -0.00000000000E+00 -0.00000000000E+00 -0.45593999997E+02  0.45594000000E+02  0.51100000000E-03 0. -1.
    9900012    2    1    2    0    0 -0.66639860739E+00 -0.29285803734E+00 -0.92926397543E+00  0.90007582925E+02  0.89999842220E+02 0.  0.
        -12    1    1    2    0    0  0.66639860739E+00  0.29285803734E+00  0.92926397543E+00  0.11804170746E+01  0.00000000000E+00 0.  1.
         11    1    3    3    0    0 -0.96550308164E+01  0.40836300856E+02  0.80218463551E+01  0.42722044742E+02  0.51100000000E-03 0. -1.
        -11    1    3    3    0    0  0.64213726051E+00 -0.71382685536E+01  0.58817839327E+01  0.92716018409E+01  0.51100000000E-03 0.  1.
        -12    1    3    3    0    0  0.83464949485E+01 -0.33990890340E+02 -0.14832894263E+02  0.38013936343E+02  0.00000000000E+00 0.  1.
</event>
<event>
 7    1  0.1716782E-015  0.9000773E+02  0.7816164E-02  0.1186339E+00
        -11   -1    0    0    0    0  0.00000000000E+00  0.00000000000E+00  0.45593999997E+02  0.45594000000E+02  0.51100000000E-03 0.  1.
         11   -1    0    0    0    0 -0.00000000000E+00 -0.00000000000E+00 -0.45593999997E+02  0.45594000000E+02  0.51100000000E-03 0. -1.
    9900012    2    1    2    0    0 -0.35490289471E+00  0.10518842330E+01 -0.40077552152E+00  0.90007729894E+02  0.89999991129E+02 0.  0.
        -12    1    1    2    0    0  0.35490289471E+00 -0.10518842330E+01  0.40077552152E+00  0.11802701060E+01  0.00000000000E+00 0.  1.
         11    1    3    3    0    0 -0.77294804081E+01  0.34362035213E+02 -0.38134060694E+01  0.35426492876E+02  0.51100000000E-03 0. -1.
        -11    1    3    3    0    0  0.50258654034E+01  0.88295631453E+01 -0.53406942043E+01  0.11477958147E+02  0.51100000000E-03 0.  1.
        -12    1    3    3    0    0  0.23487121099E+01 -0.42139714126E+02  0.87533247522E+01  0.43103278870E+02  0.00000000000E+00 0.  1.
</event>
<event>
 7    1  0.1716782E-015  0.9000774E+02  0.7816164E-02  0.1186339E+00
        -11   -1    0    0    0    0  0.00000000000E+00  0.00000000000E+00  0.45593999997E+02  0.45594000000E+02  0.51100000000E-03 0. -1.
         11   -1    0    0    0    0 -0.00000000000E+00 -0.00000000000E+00 -0.45593999997E+02  0.45594000000E+02  0.51100000000E-03 0.  1.
    9900012    2    1    2    0    0 -0.11282331313E+00  0.11390429508E+01  0.28785731162E+00  0.90007741649E+02  0.90000003039E+02 0.  0.
        -12    1    1    2    0    0  0.11282331313E+00 -0.11390429508E+01 -0.28785731162E+00  0.11802583512E+01  0.00000000000E+00 0.  1.
         11    1    3    3    0    0  0.13172694705E+01  0.11750133664E+02 -0.67555609707E+01  0.13617578502E+02  0.51100000000E-03 0. -1.
        -11    1    3    3    0    0 -0.95274900951E+01  0.14478240018E+02 -0.27761485730E+02  0.32727550959E+02  0.51100000000E-03 0.  1.
         12    1    3    3    0    0  0.80973973115E+01 -0.25089330731E+02  0.34804904012E+02  0.43662612188E+02  0.00000000000E+00 0. -1.
</event>
<event>
 7    1  0.1716782E-015  0.9000771E+02  0.7816164E-02  0.1186339E+00
        -11   -1    0    0    0    0  0.00000000000E+00  0.00000000000E+00  0.45593999997E+02  0.45594000000E+02  0.51100000000E-03 0.  1.
         11   -1    0    0    0    0 -0.00000000000E+00 -0.00000000000E+00 -0.45593999997E+02  0.45594000000E+02  0.51100000000E-03 0. -1.
    9900012    2    1    2    0    0  0.10406383115E+01 -0.55186788616E+00 -0.74873194429E-01  0.90007706708E+02  0.89999967637E+02 0.  0.
        -12    1    1    2    0    0 -0.10406383115E+01  0.55186788616E+00  0.74873194429E-01  0.11802932917E+01  0.00000000000E+00 0.  1.
         11    1    3    3    0    0  0.29560100434E+01  0.72358184414E+00  0.88221792089E+01  0.93323315585E+01  0.51100000000E-03 0. -1.
        -11    1    3    3    0    0  0.11101583307E+02  0.76756540279E+01  0.33131936285E+02  0.35775494670E+02  0.51100000000E-03 0.  1.
         12    1    3    3    0    0 -0.13016955038E+02 -0.89511037583E+01 -0.42028988688E+02  0.44899880480E+02  0.00000000000E+00 0. -1.
</event>
<event>
 7    1  0.1716782E-015  0.9000812E+02  0.7816164E-02  0.1186338E+00
        -11   -1    0    0    0    0  0.00000000000E+00  0.00000000000E+00  0.45593999997E+02  0.45594000000E+02  0.51100000000E-03 0. -1.
         11   -1    0    0    0    0 -0.00000000000E+00 -0.00000000000E+00 -0.45593999997E+02  0.45594000000E+02  0.51100000000E-03 0.  1.
    9900012    2    1    2    0    0  0.10256949993E+01 -0.34652434662E+00  0.46904077565E+00  0.90008115004E+02  0.90000381321E+02 0.  0.
        -12    1    1    2    0    0 -0.10256949993E+01  0.34652434662E+00 -0.46904077565E+00  0.11798849959E+01  0.00000000000E+00 0.  1.
         11    1    3    3    0    0 -0.21062658823E+02 -0.34875400881E+02 -0.92733255695E+01  0.41784252425E+02  0.51100000000E-03 0. -1.
        -11    1    3    3    0    0  0.67468920794E+01 -0.16147162517E+01  0.52560139964E+01  0.87036512279E+01  0.51100000000E-03 0.  1.
        -12    1    3    3    0    0  0.15341461743E+02  0.36143592786E+02  0.44863523488E+01  0.39520211352E+02  0.00000000000E+00 0.  1.
</event>
<event>
 7    1  0.1716782E-015  0.9000759E+02  0.7816164E-02  0.1186339E+00
        -11   -1    0    0    0    0  0.00000000000E+00  0.00000000000E+00  0.45593999997E+02  0.45594000000E+02  0.51100000000E-03 0.  1.
         11   -1    0    0    0    0 -0.00000000000E+00 -0.00000000000E+00 -0.45593999997E+02  0.45594000000E+02  0.51100000000E-03 0. -1.
    9900012    2    1    2    0    0  0.90061180379E+00 -0.68539095953E+00 -0.33543286543E+00  0.90007585837E+02  0.89999845170E+02 0.  0.
        -12    1    1    2    0    0 -0.90061180379E+00  0.68539095953E+00  0.33543286543E+00  0.11804141628E+01  0.00000000000E+00 0.  1.
         11    1    3    3    0    0  0.88053234914E+01 -0.31835216688E+02 -0.80086829233E+01  0.33987552807E+02  0.51100000000E-03 0. -1.
        -11    1    3    3    0    0 -0.13101823780E+01 -0.50410711960E+01 -0.12871258695E+02  0.13885181934E+02  0.51100000000E-03 0.  1.
        -12    1    3    3    0    0 -0.65945293096E+01  0.36190896925E+02  0.20544508753E+02  0.42134851097E+02  0.00000000000E+00 0.  1.
</event>
<event>
 7    1  0.1716782E-015  0.9000784E+02  0.7816164E-02  0.1186339E+00
        -11   -1    0    0    0    0  0.00000000000E+00  0.00000000000E+00  0.45593999997E+02  0.45594000000E+02  0.51100000000E-03 0.  1.
         11   -1    0    0    0    0 -0.00000000000E+00 -0.00000000000E+00 -0.45593999997E+02  0.45594000000E+02  0.51100000000E-03 0. -1.
    9900012    2    1    2    0    0  0.50173417259E+00 -0.10672278641E+01 -0.45518965887E-01  0.90007837100E+02  0.90000099750E+02 0.  0.
        -12    1    1    2    0    0 -0.50173417259E+00  0.10672278641E+01  0.45518965887E-01  0.11801628998E+01  0.00000000000E+00 0.  1.
         11    1    3    3    0    0  0.18149653819E+02 -0.27185811108E+02 -0.85629059439E+01  0.33790555157E+02  0.51100000000E-03 0. -1.
        -11    1    3    3    0    0  0.40196297176E+00 -0.12727309120E+02  0.19145462666E+01  0.12876779851E+02  0.51100000000E-03 0.  1.
        -12    1    3    3    0    0 -0.18049882618E+02  0.38845892364E+02  0.66028407114E+01  0.43340502092E+02  0.00000000000E+00 0.  1.
</event>
<event>
 7    1  0.1716782E-015  0.9000772E+02  0.7816164E-02  0.1186339E+00
        -11   -1    0    0    0    0  0.00000000000E+00  0.00000000000E+00  0.45593999997E+02  0.45594000000E+02  0.51100000000E-03 0.  1.
         11   -1    0    0    0    0 -0.00000000000E+00 -0.00000000000E+00 -0.45593999997E+02  0.45594000000E+02  0.51100000000E-03 0. -1.
    9900012    2    1    2    0    0 -0.11141546595E+01  0.30845084357E+00 -0.23786502704E+00  0.90007719398E+02  0.89999980494E+02 0.  0.
        -12    1    1    2    0    0  0.11141546595E+01 -0.30845084357E+00  0.23786502704E+00  0.11802806019E+01  0.00000000000E+00 0.  1.
         11    1    3    3    0    0 -0.26224180258E+01 -0.56403242809E+01  0.61231552935E+01  0.87283082728E+01  0.51100000000E-03 0. -1.
        -11    1    3    3    0    0 -0.46497573408E+01 -0.74018481691E+01  0.35683428587E+02  0.36738463164E+02  0.51100000000E-03 0.  1.
         12    1    3    3    0    0  0.61580207071E+01  0.13350623294E+02 -0.42044448908E+02  0.44540947961E+02  0.00000000000E+00 0. -1.
</event>
<event>
 7    1  0.1716782E-015  0.9000874E+02  0.7816164E-02  0.1186337E+00
        -11   -1    0    0    0    0  0.00000000000E+00  0.00000000000E+00  0.45593999997E+02  0.45594000000E+02  0.51100000000E-03 0.  1.
         11   -1    0    0    0    0 -0.00000000000E+00 -0.00000000000E+00 -0.45593999997E+02  0.45594000000E+02  0.51100000000E-03 0. -1.
    9900012    2    1    2    0    0  0.10659349884E+00  0.80800481015E+00  0.85230205360E+00  0.90008740598E+02  0.90001015168E+02 0.  0.
        -12    1    1    2    0    0 -0.10659349884E+00 -0.80800481015E+00 -0.85230205360E+00  0.11792594022E+01  0.00000000000E+00 0.  1.
         11    1    3    3    0    0  0.80988371557E+01  0.25212756745E+01  0.12860457617E+01  0.85791554517E+01  0.51100000000E-03 0. -1.
        -11    1    3    3    0    0  0.32021637787E+02  0.14675192173E+02  0.10636327911E+02  0.36795081513E+02  0.51100000000E-03 0.  1.
         12    1    3    3    0    0 -0.40013881444E+02 -0.16388463037E+02 -0.11070071619E+02  0.44634503633E+02  0.00000000000E+00 0. -1.
</event>
<event>
 7    1  0.1716782E-015  0.9000768E+02  0.7816164E-02  0.1186339E+00
        -11   -1    0    0    0    0  0.00000000000E+00  0.00000000000E+00  0.45593999997E+02  0.45594000000E+02  0.51100000000E-03 0. -1.
         11   -1    0    0    0    0 -0.00000000000E+00 -0.00000000000E+00 -0.45593999997E+02  0.45594000000E+02  0.51100000000E-03 0.  1.
    9900012    2    1    2    0    0 -0.26552208675E-01  0.84995413943E+00  0.81855269644E+00  0.90007679884E+02  0.89999940459E+02 0.  0.
        -12    1    1    2    0    0  0.26552208675E-01 -0.84995413943E+00 -0.81855269644E+00  0.11803201158E+01  0.00000000000E+00 0.  1.
         11    1    3    3    0    0  0.24401474552E+02 -0.29389906987E+02 -0.77127462930E+01  0.38970309836E+02  0.51100000000E-03 0. -1.
        -11    1    3    3    0    0 -0.57847219537E+01  0.19295463971E+01 -0.10515065728E+02  0.12155359514E+02  0.51100000000E-03 0.  1.
        -12    1    3    3    0    0 -0.18643304807E+02  0.28310314730E+02  0.19046364718E+02  0.38882010534E+02  0.00000000000E+00 0.  1.
</event>
<event>
 7    1  0.1716782E-015  0.9000760E+02  0.7816164E-02  0.1186339E+00
        -11   -1    0    0    0    0  0.00000000000E+00  0.00000000000E+00  0.45593999997E+02  0.45594000000E+02  0.51100000000E-03 0. -1.
         11   -1    0    0    0    0 -0.00000000000E+00 -0.00000000000E+00 -0.45593999997E+02  0.45594000000E+02  0.51100000000E-03 0.  1.
    9900012    2    1    2    0    0 -0.89266769043E+00  0.34916872919E+00  0.68889056603E+00  0.90007599806E+02  0.89999859323E+02 0.  0.
        -12    1    1    2    0    0  0.89266769043E+00 -0.34916872919E+00 -0.68889056603E+00  0.11804001944E+01  0.00000000000E+00 0.  1.
         11    1    3    3    0    0 -0.54898069012E+01  0.39701712024E+01 -0.48044018551E+01  0.83055714214E+01  0.51100000000E-03 0. -1.
        -11    1    3    3    0    0  0.13527984780E+02 -0.54590803251E+00 -0.36358567211E+02  0.38797548862E+02  0.51100000000E-03 0.  1.
         12    1    3    3    0    0 -0.89308455689E+01 -0.30750944407E+01  0.41851859632E+02  0.42904479522E+02  0.00000000000E+00 0. -1.
</event>
<event>
 7    1  0.1716782E-015  0.9000775E+02  0.7816164E-02  0.1186339E+00
        -11   -1    0    0    0    0  0.00000000000E+00  0.00000000000E+00  0.45593999997E+02  0.45594000000E+02  0.51100000000E-03 0. -1.
         11   -1    0    0    0    0 -0.00000000000E+00 -0.00000000000E+00 -0.45593999997E+02  0.45594000000E+02  0.51100000000E-03 0.  1.
    9900012    2    1    2    0    0  0.62995850466E+00  0.97087068361E+00  0.23143491669E+00  0.90007745908E+02  0.90000007354E+02 0.  0.
        -12    1    1    2    0    0 -0.62995850466E+00 -0.97087068361E+00 -0.23143491669E+00  0.11802540924E+01  0.00000000000E+00 0.  1.
         11    1    3    3    0    0 -0.37168356741E+01 -0.31817338003E+01  0.77270812539E+01  0.91458232199E+01  0.51100000000E-03 0. -1.
        -11    1    3    3    0    0 -0.91030917361E+00  0.24948062134E+02  0.29163035770E+02  0.38389023465E+02  0.51100000000E-03 0.  1.
         12    1    3    3    0    0  0.52571033524E+01 -0.20795457650E+02 -0.36658682107E+02  0.42472899223E+02  0.00000000000E+00 0. -1.
</event>
<event>
 7    1  0.1716782E-015  0.9000772E+02  0.7816164E-02  0.1186339E+00
        -11   -1    0    0    0    0  0.00000000000E+00  0.00000000000E+00  0.45593999997E+02  0.45594000000E+02  0.51100000000E-03 0. -1.
         11   -1    0    0    0    0 -0.00000000000E+00 -0.00000000000E+00 -0.45593999997E+02  0.45594000000E+02  0.51100000000E-03 0.  1.
    9900012    2    1    2    0    0  0.11197788735E+01  0.60547130411E-01 -0.36809691150E+00  0.90007717823E+02  0.89999978898E+02 0.  0.
        -12    1    1    2    0    0 -0.11197788735E+01 -0.60547130411E-01  0.36809691150E+00  0.11802821768E+01  0.00000000000E+00 0.  1.
         11    1    3    3    0    0 -0.10110807842E+01  0.31987793826E+01 -0.84146125716E+01  0.90587073515E+01  0.51100000000E-03 0. -1.
        -11    1    3    3    0    0 -0.17276557287E+02 -0.91102712814E+01 -0.31172092295E+02  0.36785538093E+02  0.51100000000E-03 0.  1.
         12    1    3    3    0    0  0.19407416945E+02  0.59720390292E+01  0.39218607955E+02  0.44163472379E+02  0.00000000000E+00 0. -1.
</event>
<event>
 7    1  0.1716782E-015  0.9000774E+02  0.7816164E-02  0.1186339E+00
        -11   -1    0    0    0    0  0.00000000000E+00  0.00000000000E+00  0.45593999997E+02  0.45594000000E+02  0.51100000000E-03 0.  1.
         11   -1    0    0    0    0 -0.00000000000E+00 -0.00000000000E+00 -0.45593999997E+02  0.45594000000E+02  0.51100000000E-03 0. -1.
    9900012    2    1    2    0    0 -0.10816291700E+01  0.31622804138E+00 -0.35083308109E+00  0.90007743381E+02  0.90000004794E+02 0.  0.
        -12    1    1    2    0    0  0.10816291700E+01 -0.31622804138E+00  0.35083308109E+00  0.11802566188E+01  0.00000000000E+00 0.  1.
         11    1    3    3    0    0 -0.56155609913E+01  0.40733235894E+01  0.68198302582E+01  0.97281331880E+01  0.51100000000E-03 0. -1.
        -11    1    3    3    0    0 -0.28677534792E+02  0.76162573262E+01  0.20089876456E+02  0.35833106392E+02  0.51100000000E-03 0.  1.
         12    1    3    3    0    0  0.33211466614E+02 -0.11373352874E+02 -0.27260539795E+02  0.44446503801E+02  0.00000000000E+00 0. -1.
</event>
<event>
 7    1  0.1716782E-015  0.9000768E+02  0.7816164E-02  0.1186339E+00
        -11   -1    0    0    0    0  0.00000000000E+00  0.00000000000E+00  0.45593999997E+02  0.45594000000E+02  0.51100000000E-03 0. -1.
         11   -1    0    0    0    0 -0.00000000000E+00 -0.00000000000E+00 -0.45593999997E+02  0.45594000000E+02  0.51100000000E-03 0.  1.
    9900012    2    1    2    0    0 -0.77207722140E+00  0.55480705586E+00  0.69945594097E+00  0.90007681095E+02  0.89999941685E+02 0.  0.
        -12    1    1    2    0    0  0.77207722140E+00 -0.55480705586E+00 -0.69945594097E+00  0.11803189054E+01  0.00000000000E+00 0.  1.
         11    1    3    3    0    0  0.32134162604E+01 -0.63108078746E+01  0.73716924459E+01  0.10222239963E+02  0.51100000000E-03 0. -1.
        -11    1    3    3    0    0 -0.17295853942E+02 -0.41231454941E+01 -0.39154219478E+02  0.43002323141E+02  0.51100000000E-03 0.  1.
         12    1    3    3    0    0  0.13310360460E+02  0.10988760425E+02  0.32481982973E+02  0.36783117990E+02  0.00000000000E+00 0. -1.
</event>
<event>
 7    1  0.1716782E-015  0.9000769E+02  0.7816164E-02  0.1186339E+00
        -11   -1    0    0    0    0  0.00000000000E+00  0.00000000000E+00  0.45593999997E+02  0.45594000000E+02  0.51100000000E-03 0. -1.
         11   -1    0    0    0    0 -0.00000000000E+00 -0.00000000000E+00 -0.45593999997E+02  0.45594000000E+02  0.51100000000E-03 0.  1.
    9900012    2    1    2    0    0  0.98906456989E+00  0.54287775759E-01  0.64182236392E+00  0.90007689942E+02  0.89999950649E+02 0.  0.
        -12    1    1    2    0    0 -0.98906456989E+00 -0.54287775759E-01 -0.64182236392E+00  0.11803100579E+01  0.00000000000E+00 0.  1.
         11    1    3    3    0    0  0.79275675022E+01 -0.32319291953E+01  0.34108960375E+01  0.92155252083E+01  0.51100000000E-03 0. -1.
        -11    1    3    3    0    0  0.62605641892E+01 -0.32284913319E+02 -0.20667384381E+02  0.38841357719E+02  0.51100000000E-03 0.  1.
         12    1    3    3    0    0 -0.13199067122E+02  0.35571130290E+02  0.17898310708E+02  0.41950807015E+02  0.00000000000E+00 0. -1.
</event>
<event>
 7    1  0.1716782E-015  0.9000773E+02  0.7816164E-02  0.1186339E+00
        -11   -1    0    0    0    0  0.00000000000E+00  0.00000000000E+00  0.45593999997E+02  0.45594000000E+02  0.51100000000E-03 0.  1.
         11   -1    0    0    0    0 -0.00000000000E+00 -0.00000000000E+00 -0.45593999997E+02  0.45594000000E+02  0.51100000000E-03 0. -1.
    9900012    2    1    2    0    0 -0.11156787863E+01 -0.19192321622E+00  0.33385912100E+00  0.90007730714E+02  0.89999991959E+02 0.  0.
        -12    1    1    2    0    0  0.11156787863E+01  0.19192321622E+00 -0.33385912100E+00  0.11802692862E+01  0.00000000000E+00 0.  1.
         11    1    3    3    0    0 -0.58702006210E+00 -0.16736465190E+02  0.20225618267E+02  0.26258893620E+02  0.51100000000E-03 0. -1.
        -11    1    3    3    0    0 -0.13855023133E+02  0.90119206516E-01  0.16561088735E+02  0.21592578536E+02  0.51100000000E-03 0.  1.
        -12    1    3    3    0    0  0.13326364409E+02  0.16454422767E+02 -0.36452847881E+02  0.42156258558E+02  0.00000000000E+00 0.  1.
</event>
<event>
 7    1  0.1716782E-015  0.9000779E+02  0.7816164E-02  0.1186339E+00
        -11   -1    0    0    0    0  0.00000000000E+00  0.00000000000E+00  0.45593999997E+02  0.45594000000E+02  0.51100000000E-03 0.  1.
         11   -1    0    0    0    0 -0.00000000000E+00 -0.00000000000E+00 -0.45593999997E+02  0.45594000000E+02  0.51100000000E-03 0. -1.
    9900012    2    1    2    0    0  0.10403627270E+01 -0.27980393862E+00 -0.48191669183E+00  0.90007793007E+02  0.90000055075E+02 0.  0.
        -12    1    1    2    0    0 -0.10403627270E+01  0.27980393862E+00  0.48191669183E+00  0.11802069927E+01  0.00000000000E+00 0.  1.
         11    1    3    3    0    0 -0.73415459911E+01  0.13863150209E+01 -0.66038115465E+01  0.99714840460E+01  0.51100000000E-03 0. -1.
        -11    1    3    3    0    0  0.17568584399E+02 -0.37847686641E+02  0.86776664733E+01  0.42619296540E+02  0.51100000000E-03 0.  1.
         12    1    3    3    0    0 -0.91866756807E+01  0.36181567682E+02 -0.25557716186E+01  0.37417012421E+02  0.00000000000E+00 0. -1.
</event>
<event>
 7    1  0.1716782E-015  0.9000765E+02  0.7816164E-02  0.1186339E+00
        -11   -1    0    0    0    0  0.00000000000E+00  0.00000000000E+00  0.45593999997E+02  0.45594000000E+02  0.51100000000E-03 0. -1.
         11   -1    0    0    0    0 -0.00000000000E+00 -0.00000000000E+00 -0.45593999997E+02  0.45594000000E+02  0.51100000000E-03 0.  1.
    9900012    2    1    2    0    0 -0.41124858522E+00  0.73195857783E+00 -0.82966062543E+00  0.90007650259E+02  0.89999910442E+02 0.  0.
        -12    1    1    2    0    0  0.41124858522E+00 -0.73195857783E+00  0.82966062543E+00  0.11803497413E+01  0.00000000000E+00 0.  1.
         11    1    3    3    0    0 -0.40067784319E+02  0.16824390613E+02  0.71913559799E+00  0.43462680728E+02  0.51100000000E-03 0. -1.
        -11    1    3    3    0    0  0.11586709790E+02 -0.11458953441E+01 -0.79598050685E+01  0.14104021302E+02  0.51100000000E-03 0.  1.
        -12    1    3    3    0    0  0.28069825944E+02 -0.14946536692E+02  0.64110088451E+01  0.32440948229E+02  0.00000000000E+00 0.  1.
</event>
<event>
 7    1  0.1716782E-015  0.9000783E+02  0.7816164E-02  0.1186339E+00
        -11   -1    0    0    0    0  0.00000000000E+00  0.00000000000E+00  0.45593999997E+02  0.45594000000E+02  0.51100000000E-03 0.  1.
         11   -1    0    0    0    0 -0.00000000000E+00 -0.00000000000E+00 -0.45593999997E+02  0.45594000000E+02  0.51100000000E-03 0. -1.
    9900012    2    1    2    0    0  0.84355849295E+00 -0.77797559666E+00 -0.27561097749E+00  0.90007831211E+02  0.90000093783E+02 0.  0.
        -12    1    1    2    0    0 -0.84355849295E+00  0.77797559666E+00  0.27561097749E+00  0.11801687892E+01  0.00000000000E+00 0.  1.
         11    1    3    3    0    0  0.59412949304E+01 -0.30742016715E+01 -0.15473644196E+01  0.68661516350E+01  0.51100000000E-03 0. -1.
        -11    1    3    3    0    0 -0.12218271312E+02  0.22855353008E+02  0.34667450634E+02  0.43283778124E+02  0.51100000000E-03 0.  1.
         12    1    3    3    0    0  0.71205348744E+01 -0.20559126933E+02 -0.33395697192E+02  0.39857901451E+02  0.00000000000E+00 0. -1.
</event>
<event>
 7    1  0.1716782E-015  0.9000759E+02  0.7816164E-02  0.1186339E+00
        -11   -1    0    0    0    0  0.00000000000E+00  0.00000000000E+00  0.45593999997E+02  0.45594000000E+02  0.51100000000E-03 0. -1.
         11   -1    0    0    0    0 -0.00000000000E+00 -0.00000000000E+00 -0.45593999997E+02  0.45594000000E+02  0.51100000000E-03 0.  1.
    9900012    2    1    2    0    0 -0.41287235640E+00  0.75612418297E+00  0.80696148887E+00  0.90007587272E+02  0.89999846624E+02 0.  0.
        -12    1    1    2    0    0  0.41287235640E+00 -0.75612418297E+00 -0.80696148887E+00  0.11804127275E+01  0.00000000000E+00 0.  1.
         11    1    3    3    0    0  0.40040964060E+02 -0.26668474851E+01  0.10070455048E+02  0.41373964561E+02  0.51100000000E-03 0. -1.
        -11    1    3    3    0    0 -0.49757343870E+00 -0.88225123335E+00 -0.83752471689E+01  0.84362735830E+01  0.51100000000E-03 0.  1.
        -12    1    3    3    0    0 -0.39956262977E+02  0.43052229014E+01 -0.88824639051E+00  0.40197349129E+02  0.00000000000E+00 0.  1.
</event>
<event>
 7    1  0.1716782E-015  0.9000803E+02  0.7816164E-02  0.1186338E+00
        -11   -1    0    0    0    0  0.00000000000E+00  0.00000000000E+00  0.45593999997E+02  0.45594000000E+02  0.51100000000E-03 0.  1.
         11   -1    0    0    0    0 -0.00000000000E+00 -0.00000000000E+00 -0.45593999997E+02  0.45594000000E+02  0.51100000000E-03 0. -1.
    9900012    2    1    2    0    0 -0.39897481824E+00 -0.10351250656E+01 -0.40208936577E+00  0.90008025142E+02  0.90000290274E+02 0.  0.
        -12    1    1    2    0    0  0.39897481824E+00  0.10351250656E+01  0.40208936577E+00  0.11799748578E+01  0.00000000000E+00 0.  1.
         11    1    3    3    0    0  0.28542433266E+02 -0.17677272624E+01 -0.22406294634E+02  0.36329566415E+02  0.51100000000E-03 0. -1.
        -11    1    3    3    0    0  0.36511070616E+01 -0.11612249216E+02 -0.51584839235E+00  0.12183637161E+02  0.51100000000E-03 0.  1.
        -12    1    3    3    0    0 -0.32592515146E+02  0.12344851413E+02  0.22520053660E+02  0.41494821566E+02  0.00000000000E+00 0.  1.
</event>
<event>
 7    1  0.1716782E-015  0.9000793E+02  0.7816164E-02  0.1186339E+00
        -11   -1    0    0    0    0  0.00000000000E+00  0.00000000000E+00  0.45593999997E+02  0.45594000000E+02  0.51100000000E-03 0.  1.
         11   -1    0    0    0    0 -0.00000000000E+00 -0.00000000000E+00 -0.45593999997E+02  0.45594000000E+02  0.51100000000E-03 0. -1.
    9900012    2    1    2    0    0 -0.15323173547E+00  0.10423962564E+01 -0.53151345235E+00  0.90007925227E+02  0.90000189040E+02 0.  0.
        -12    1    1    2    0    0  0.15323173547E+00 -0.10423962564E+01  0.53151345235E+00  0.11800747731E+01  0.00000000000E+00 0.  1.
         11    1    3    3    0    0  0.31058704292E+01  0.17475972719E+02 -0.38070765930E+02  0.42005229108E+02  0.51100000000E-03 0. -1.
        -11    1    3    3    0    0 -0.98564957199E+01 -0.26418091516E+00  0.49581788245E+01  0.11036477561E+02  0.51100000000E-03 0.  1.
        -12    1    3    3    0    0  0.65973935552E+01 -0.16169395547E+02  0.32581073654E+02  0.36966218558E+02  0.00000000000E+00 0.  1.
</event>
<event>
 7    1  0.1716782E-015  0.9000776E+02  0.7816164E-02  0.1186339E+00
        -11   -1    0    0    0    0  0.00000000000E+00  0.00000000000E+00  0.45593999997E+02  0.45594000000E+02  0.51100000000E-03 0.  1.
         11   -1    0    0    0    0 -0.00000000000E+00 -0.00000000000E+00 -0.45593999997E+02  0.45594000000E+02  0.51100000000E-03 0. -1.
    9900012    2    1    2    0    0 -0.66426258691E+00  0.88902688459E+00 -0.40167413365E+00  0.90007764559E+02  0.90000026251E+02 0.  0.
        -12    1    1    2    0    0  0.66426258691E+00 -0.88902688459E+00  0.40167413365E+00  0.11802354407E+01  0.00000000000E+00 0.  1.
         11    1    3    3    0    0 -0.69681013711E+01 -0.58377305157E+01 -0.74567098847E+00  0.91208310902E+01  0.51100000000E-03 0. -1.
        -11    1    3    3    0    0  0.12158744495E+02 -0.35379703468E+02  0.63741362885E+01  0.37949810261E+02  0.51100000000E-03 0.  1.
         12    1    3    3    0    0 -0.58549057109E+01  0.42106460869E+02 -0.60301394337E+01  0.42937123208E+02  0.00000000000E+00 0. -1.
</event>
<event>
 7    1  0.1716782E-015  0.9000774E+02  0.7816164E-02  0.1186339E+00
        -11   -1    0    0    0    0  0.00000000000E+00  0.00000000000E+00  0.45593999997E+02  0.45594000000E+02  0.51100000000E-03 0. -1.
         11   -1    0    0    0    0 -0.00000000000E+00 -0.00000000000E+00 -0.45593999997E+02  0.45594000000E+02  0.51100000000E-03 0.  1.
    9900012    2    1    2    0    0 -0.10983532785E+01  0.32631902906E+00  0.28311801795E+00  0.90007737383E+02  0.89999998716E+02 0.  0.
        -12    1    1    2    0    0  0.10983532785E+01 -0.32631902906E+00 -0.28311801795E+00  0.11802626170E+01  0.00000000000E+00 0.  1.
         11    1    3    3    0    0  0.10581441530E+02 -0.81797918596E+01  0.32327073424E+02  0.34984504801E+02  0.51100000000E-03 0. -1.
        -11    1    3    3    0    0  0.36996152816E+01 -0.38712085917E+01  0.84325816357E+01  0.99890861692E+01  0.51100000000E-03 0.  1.
        -12    1    3    3    0    0 -0.15379410090E+02  0.12377319480E+02 -0.40476537042E+02  0.45034146413E+02  0.00000000000E+00 0.  1.
</event>
<event>
 7    1  0.1716782E-015  0.9000780E+02  0.7816164E-02  0.1186339E+00
        -11   -1    0    0    0    0  0.00000000000E+00  0.00000000000E+00  0.45593999997E+02  0.45594000000E+02  0.51100000000E-03 0.  1.
         11   -1    0    0    0    0 -0.00000000000E+00 -0.00000000000E+00 -0.45593999997E+02  0.45594000000E+02  0.51100000000E-03 0. -1.
    9900012    2    1    2    0    0  0.66105921590E+00 -0.76704406542E+00 -0.60622168600E+00  0.90007804839E+02  0.90000067063E+02 0.  0.
        -12    1    1    2    0    0 -0.66105921590E+00  0.76704406542E+00  0.60622168600E+00  0.11801951609E+01  0.00000000000E+00 0.  1.
         11    1    3    3    0    0 -0.79554486649E+01 -0.35898297814E+02  0.22411989478E+01  0.36837479859E+02  0.51100000000E-03 0. -1.
        -11    1    3    3    0    0 -0.10157810996E+02  0.18165669179E+01  0.84046990871E+01  0.13308644056E+02  0.51100000000E-03 0.  1.
        -12    1    3    3    0    0  0.18774318876E+02  0.33314686831E+02 -0.11252119721E+02  0.39861680924E+02  0.00000000000E+00 0.  1.
</event>
<event>
 7    1  0.1716782E-015  0.9000769E+02  0.7816164E-02  0.1186339E+00
        -11   -1    0    0    0    0  0.00000000000E+00  0.00000000000E+00  0.45593999997E+02  0.45594000000E+02  0.51100000000E-03 0.  1.
         11   -1    0    0    0    0 -0.00000000000E+00 -0.00000000000E+00 -0.45593999997E+02  0.45594000000E+02  0.51100000000E-03 0. -1.
    9900012    2    1    2    0    0  0.55049022616E+00 -0.23391161586E+00 -0.10175355285E+01  0.90007689581E+02  0.89999950284E+02 0.  0.
        -12    1    1    2    0    0 -0.55049022616E+00  0.23391161586E+00  0.10175355285E+01  0.11803104189E+01  0.00000000000E+00 0.  1.
         11    1    3    3    0    0 -0.11424965770E+02 -0.58718634361E+00 -0.99145379543E+00  0.11482926959E+02  0.51100000000E-03 0. -1.
        -11    1    3    3    0    0  0.31237434349E+02 -0.12691233325E+02  0.26760803103E+02  0.43046315649E+02  0.51100000000E-03 0.  1.
         12    1    3    3    0    0 -0.19261978352E+02  0.13044508052E+02 -0.26786884836E+02  0.35478446973E+02  0.00000000000E+00 0. -1.
</event>
<event>
 7    1  0.1716782E-015  0.9000725E+02  0.7816164E-02  0.1186340E+00
        -11   -1    0    0    0    0  0.00000000000E+00  0.00000000000E+00  0.45593999997E+02  0.45594000000E+02  0.51100000000E-03 0.  1.
         11   -1    0    0    0    0 -0.00000000000E+00 -0.00000000000E+00 -0.45593999997E+02  0.45594000000E+02  0.51100000000E-03 0. -1.
    9900012    2    1    2    0    0  0.93814284902E+00 -0.40679245647E+00 -0.59039630591E+00  0.90007254513E+02  0.89999509471E+02 0.  0.
        -12    1    1    2    0    0 -0.93814284902E+00  0.40679245647E+00  0.59039630591E+00  0.11807454873E+01  0.00000000000E+00 0.  1.
         11    1    3    3    0    0  0.27059915685E+00 -0.68483340829E+01  0.65607171549E+01  0.94876716565E+01  0.51100000000E-03 0. -1.
        -11    1    3    3    0    0  0.36960562730E+02  0.19228254377E+02 -0.21783617167E+01  0.41719949949E+02  0.51100000000E-03 0.  1.
         12    1    3    3    0    0 -0.36293019038E+02 -0.12786712751E+02 -0.49727517442E+01  0.38799632907E+02  0.00000000000E+00 0. -1.
</event>
<event>
 7    1  0.1716782E-015  0.9000773E+02  0.7816164E-02  0.1186339E+00
        -11   -1    0    0    0    0  0.00000000000E+00  0.00000000000E+00  0.45593999997E+02  0.45594000000E+02  0.51100000000E-03 0. -1.
         11   -1    0    0    0    0 -0.00000000000E+00 -0.00000000000E+00 -0.45593999997E+02  0.45594000000E+02  0.51100000000E-03 0.  1.
    9900012    2    1    2    0    0 -0.71439182169E+00  0.20809207685E+00 -0.91617628046E+00  0.90007730131E+02  0.89999991368E+02 0.  0.
        -12    1    1    2    0    0  0.71439182169E+00 -0.20809207685E+00  0.91617628046E+00  0.11802698692E+01  0.00000000000E+00 0.  1.
         11    1    3    3    0    0  0.70382085745E+01 -0.50711025159E+01 -0.29723289946E+01  0.91699073375E+01  0.51100000000E-03 0. -1.
        -11    1    3    3    0    0 -0.21040935992E+01 -0.21073504781E+01 -0.38811527214E+02  0.38925605722E+02  0.51100000000E-03 0.  1.
         12    1    3    3    0    0 -0.56485067971E+01  0.73865450708E+01  0.40867679928E+02  0.41912217071E+02  0.00000000000E+00 0. -1.
</event>
<event>
 7    1  0.1716782E-015  0.9000788E+02  0.7816164E-02  0.1186339E+00
        -11   -1    0    0    0    0  0.00000000000E+00  0.00000000000E+00  0.45593999997E+02  0.45594000000E+02  0.51100000000E-03 0. -1.
         11   -1    0    0    0    0 -0.00000000000E+00 -0.00000000000E+00 -0.45593999997E+02  0.45594000000E+02  0.51100000000E-03 0.  1.
    9900012    2    1    2    0    0  0.85509473681E+00  0.79184686327E+00 -0.18565494083E+00  0.90007882963E+02  0.90000146218E+02 0.  0.
        -12    1    1    2    0    0 -0.85509473681E+00 -0.79184686327E+00  0.18565494083E+00  0.11801170369E+01  0.00000000000E+00 0.  1.
         11    1    3    3    0    0 -0.22808094501E+01  0.43631959758E+01 -0.11803893286E+02  0.12789506161E+02  0.51100000000E-03 0. -1.
        -11    1    3    3    0    0  0.20687954184E+02  0.22813224952E+02  0.27931529371E+02  0.41576495935E+02  0.51100000000E-03 0.  1.
         12    1    3    3    0    0 -0.17552049997E+02 -0.26384574064E+02 -0.16313291025E+02  0.35641880867E+02  0.00000000000E+00 0. -1.
</event>
<event>
 7    1  0.1716782E-015  0.9000767E+02  0.7816164E-02  0.1186339E+00
        -11   -1    0    0    0    0  0.00000000000E+00  0.00000000000E+00  0.45593999997E+02  0.45594000000E+02  0.51100000000E-03 0. -1.
         11   -1    0    0    0    0 -0.00000000000E+00 -0.00000000000E+00 -0.45593999997E+02  0.45594000000E+02  0.51100000000E-03 0.  1.
    9900012    2    1    2    0    0  0.88413788459E+00 -0.66573276963E+00 -0.41021331885E+00  0.90007671704E+02  0.89999932170E+02 0.  0.
        -12    1    1    2    0    0 -0.88413788459E+00  0.66573276963E+00  0.41021331885E+00  0.11803282961E+01  0.00000000000E+00 0.  1.
         11    1    3    3    0    0  0.10877548561E+02  0.17908951958E+02  0.29942713606E+02  0.36546104050E+02  0.51100000000E-03 0. -1.
        -11    1    3    3    0    0  0.47208035838E+01  0.10152344811E+02 -0.43410490512E+01  0.12008363701E+02  0.51100000000E-03 0.  1.
        -12    1    3    3    0    0 -0.14714214260E+02 -0.28727029539E+02 -0.26011877873E+02  0.41453203953E+02  0.00000000000E+00 0.  1.
</event>
<event>
 7    1  0.1716782E-015  0.9000770E+02  0.7816164E-02  0.1186339E+00
        -11   -1    0    0    0    0  0.00000000000E+00  0.00000000000E+00  0.45593999997E+02  0.45594000000E+02  0.51100000000E-03 0.  1.
         11   -1    0    0    0    0 -0.00000000000E+00 -0.00000000000E+00 -0.45593999997E+02  0.45594000000E+02  0.51100000000E-03 0. -1.
    9900012    2    1    2    0    0  0.21282547388E+00 -0.89839794417E+00 -0.73531817718E+00  0.90007700729E+02  0.89999961578E+02 0.  0.
        -12    1    1    2    0    0 -0.21282547388E+00  0.89839794417E+00  0.73531817718E+00  0.11802992714E+01  0.00000000000E+00 0.  1.
         11    1    3    3    0    0 -0.79073974101E+01  0.90979201022E+01 -0.31721793755E+01  0.12464421617E+02  0.51100000000E-03 0. -1.
        -11    1    3    3    0    0  0.11370218069E+02  0.12678250924E+02  0.34303478936E+02  0.38298153647E+02  0.51100000000E-03 0.  1.
         12    1    3    3    0    0 -0.32499951853E+01 -0.22674568970E+02 -0.31866617738E+02  0.39245125464E+02  0.00000000000E+00 0. -1.
</event>
<event>
 7    1  0.1716782E-015  0.9000776E+02  0.7816164E-02  0.1186339E+00
        -11   -1    0    0    0    0  0.00000000000E+00  0.00000000000E+00  0.45593999997E+02  0.45594000000E+02  0.51100000000E-03 0. -1.
         11   -1    0    0    0    0 -0.00000000000E+00 -0.00000000000E+00 -0.45593999997E+02  0.45594000000E+02  0.51100000000E-03 0.  1.
    9900012    2    1    2    0    0 -0.37867190106E+00  0.67017987507E-01  0.11158343647E+01  0.90007758436E+02  0.90000020048E+02 0.  0.
        -12    1    1    2    0    0  0.37867190106E+00 -0.67017987507E-01 -0.11158343647E+01  0.11802415637E+01  0.00000000000E+00 0.  1.
         11    1    3    3    0    0  0.26409966318E+01  0.88601840445E+00  0.85007291706E+01  0.89455177891E+01  0.51100000000E-03 0. -1.
        -11    1    3    3    0    0  0.26111620947E+02 -0.23998019399E+02  0.14002179003E+02  0.38128502471E+02  0.51100000000E-03 0.  1.
         12    1    3    3    0    0 -0.29131289480E+02  0.23179018982E+02 -0.21387073809E+02  0.42933738177E+02  0.00000000000E+00 0. -1.
</event>
<event>
 7    1  0.1716782E-015  0.9000760E+02  0.7816164E-02  0.1186339E+00
        -11   -1    0    0    0    0  0.00000000000E+00  0.00000000000E+00  0.45593999997E+02  0.45594000000E+02  0.51100000000E-03 0.  1.
         11   -1    0    0    0    0 -0.00000000000E+00 -0.00000000000E+00 -0.45593999997E+02  0.45594000000E+02  0.51100000000E-03 0. -1.
    9900012    2    1    2    0    0 -0.90592311918E+00 -0.82160362658E-01 -0.75225846077E+00  0.90007601841E+02  0.89999861385E+02 0.  0.
        -12    1    1    2    0    0  0.90592311918E+00  0.82160362658E-01  0.75225846077E+00  0.11803981595E+01  0.00000000000E+00 0.  1.
         11    1    3    3    0    0 -0.23834048028E+02 -0.31772479254E+02  0.59252558755E+01  0.40157949908E+02  0.51100000000E-03 0. -1.
        -11    1    3    3    0    0  0.78493760891E+01 -0.49542164209E+01  0.14624961507E+01  0.93965877096E+01  0.51100000000E-03 0.  1.
        -12    1    3    3    0    0  0.15078748820E+02  0.36644535313E+02 -0.81400104870E+01  0.40453064223E+02  0.00000000000E+00 0.  1.
</event>
<event>
 7    1  0.1716782E-015  0.9000768E+02  0.7816164E-02  0.1186339E+00
        -11   -1    0    0    0    0  0.00000000000E+00  0.00000000000E+00  0.45593999997E+02  0.45594000000E+02  0.51100000000E-03 0. -1.
         11   -1    0    0    0    0 -0.00000000000E+00 -0.00000000000E+00 -0.45593999997E+02  0.45594000000E+02  0.51100000000E-03 0.  1.
    9900012    2    1    2    0    0 -0.66091258339E+00  0.94421530116E+00  0.25455541189E+00  0.90007683756E+02  0.89999944382E+02 0.  0.
        -12    1    1    2    0    0  0.66091258339E+00 -0.94421530116E+00 -0.25455541189E+00  0.11803162439E+01  0.00000000000E+00 0.  1.
         11    1    3    3    0    0  0.32712886845E+02 -0.95648712752E+01  0.19647536217E+02  0.39340124655E+02  0.51100000000E-03 0. -1.
        -11    1    3    3    0    0 -0.85939379293E+00 -0.88331335863E+01 -0.50233682307E+01  0.10197893669E+02  0.51100000000E-03 0.  1.
        -12    1    3    3    0    0 -0.32514405635E+02  0.19342220163E+02 -0.14369612575E+02  0.40469665432E+02  0.00000000000E+00 0.  1.
</event>
<event>
 7    1  0.1716782E-015  0.9000775E+02  0.7816164E-02  0.1186339E+00
        -11   -1    0    0    0    0  0.00000000000E+00  0.00000000000E+00  0.45593999997E+02  0.45594000000E+02  0.51100000000E-03 0.  1.
         11   -1    0    0    0    0 -0.00000000000E+00 -0.00000000000E+00 -0.45593999997E+02  0.45594000000E+02  0.51100000000E-03 0. -1.
    9900012    2    1    2    0    0 -0.75414874373E-01  0.11486334914E+01 -0.26067352876E+00  0.90007747065E+02  0.90000008527E+02 0.  0.
        -12    1    1    2    0    0  0.75414874373E-01 -0.11486334914E+01  0.26067352876E+00  0.11802529345E+01  0.00000000000E+00 0.  1.
         11    1    3    3    0    0  0.89048874795E+00  0.28224466379E+01 -0.95023185318E+01  0.99525490692E+01  0.51100000000E-03 0. -1.
        -11    1    3    3    0    0  0.35299497657E+02 -0.10459291739E+02  0.19078282222E+02  0.41466036359E+02  0.51100000000E-03 0.  1.
         12    1    3    3    0    0 -0.36265401279E+02  0.87854785928E+01 -0.98366372193E+01  0.38589161637E+02  0.00000000000E+00 0. -1.
</event>
<event>
 7    1  0.1716782E-015  0.9000775E+02  0.7816164E-02  0.1186339E+00
        -11   -1    0    0    0    0  0.00000000000E+00  0.00000000000E+00  0.45593999997E+02  0.45594000000E+02  0.51100000000E-03 0. -1.
         11   -1    0    0    0    0 -0.00000000000E+00 -0.00000000000E+00 -0.45593999997E+02  0.45594000000E+02  0.51100000000E-03 0.  1.
    9900012    2    1    2    0    0  0.94959304953E+00 -0.70053656655E+00  0.22776898032E-01  0.90007746964E+02  0.90000008424E+02 0.  0.
        -12    1    1    2    0    0 -0.94959304953E+00  0.70053656655E+00 -0.22776898032E-01  0.11802530355E+01  0.00000000000E+00 0.  1.
         11    1    3    3    0    0 -0.10431224849E+02  0.31021596070E+01 -0.18239497702E+02  0.21239423787E+02  0.51100000000E-03 0. -1.
        -11    1    3    3    0    0 -0.15875577676E+02  0.12133701939E+01 -0.17411854448E+02  0.23594043938E+02  0.51100000000E-03 0.  1.
         12    1    3    3    0    0  0.27256395575E+02 -0.50160663675E+01  0.35674129048E+02  0.45174279240E+02  0.00000000000E+00 0. -1.
</event>
<event>
 7    1  0.1716782E-015  0.9000880E+02  0.7816164E-02  0.1186337E+00
        -11   -1    0    0    0    0  0.00000000000E+00  0.00000000000E+00  0.45593999997E+02  0.45594000000E+02  0.51100000000E-03 0.  1.
         11   -1    0    0    0    0 -0.00000000000E+00 -0.00000000000E+00 -0.45593999997E+02  0.45594000000E+02  0.51100000000E-03 0. -1.
    9900012    2    1    2    0    0  0.10076772560E+01 -0.30077472301E+00 -0.53350876329E+00  0.90008800913E+02  0.90001076279E+02 0.  0.
        -12    1    1    2    0    0 -0.10076772560E+01  0.30077472301E+00  0.53350876329E+00  0.11791990870E+01  0.00000000000E+00 0.  1.
         11    1    3    3    0    0  0.32084609677E+02 -0.23985766393E+02  0.75119538005E+01  0.40757436349E+02  0.51100000000E-03 0. -1.
        -11    1    3    3    0    0 -0.65618748164E+01 -0.67023649498E+01 -0.31896692500E+01  0.99072643657E+01  0.51100000000E-03 0.  1.
        -12    1    3    3    0    0 -0.24515057605E+02  0.30387356619E+02 -0.48557933138E+01  0.39344100198E+02  0.00000000000E+00 0.  1.
</event>
<event>
 7    1  0.1716782E-015  0.9000774E+02  0.7816164E-02  0.1186339E+00
        -11   -1    0    0    0    0  0.00000000000E+00  0.00000000000E+00  0.45593999997E+02  0.45594000000E+02  0.51100000000E-03 0. -1.
         11   -1    0    0    0    0 -0.00000000000E+00 -0.00000000000E+00 -0.45593999997E+02  0.45594000000E+02  0.51100000000E-03 0.  1.
    9900012    2    1    2    0    0 -0.73726613958E+00 -0.33196849821E+00  0.85979737920E+00  0.90007739021E+02  0.90000000376E+02 0.  0.
        -12    1    1    2    0    0  0.73726613958E+00  0.33196849821E+00 -0.85979737920E+00  0.11802609786E+01  0.00000000000E+00 0.  1.
         11    1    3    3    0    0  0.59876573747E+01 -0.25385837275E+02  0.27492777335E+02  0.37896511460E+02  0.51100000000E-03 0. -1.
        -11    1    3    3    0    0 -0.41560427566E+01 -0.92501199356E+01 -0.38316528837E+01  0.10840616878E+02  0.51100000000E-03 0.  1.
        -12    1    3    3    0    0 -0.25688807577E+01  0.34303988712E+02 -0.22801327072E+02  0.41270610683E+02  0.00000000000E+00 0.  1.
</event>
<event>
 7    1  0.1716782E-015  0.9000773E+02  0.7816164E-02  0.1186339E+00
        -11   -1    0    0    0    0  0.00000000000E+00  0.00000000000E+00  0.45593999997E+02  0.45594000000E+02  0.51100000000E-03 0. -1.
         11   -1    0    0    0    0 -0.00000000000E+00 -0.00000000000E+00 -0.45593999997E+02  0.45594000000E+02  0.51100000000E-03 0.  1.
    9900012    2    1    2    0    0  0.59198476452E+00 -0.26943203256E+00 -0.98488618086E+00  0.90007728688E+02  0.89999989906E+02 0.  0.
        -12    1    1    2    0    0 -0.59198476452E+00  0.26943203256E+00  0.98488618086E+00  0.11802713124E+01  0.00000000000E+00 0.  1.
         11    1    3    3    0    0 -0.14152548492E+02  0.33185994562E+02  0.10796083067E+02  0.37658468818E+02  0.51100000000E-03 0. -1.
        -11    1    3    3    0    0 -0.39200037326E+01 -0.60931914771E+01  0.10262755014E+02  0.12562545617E+02  0.51100000000E-03 0.  1.
        -12    1    3    3    0    0  0.18664536989E+02 -0.27362235118E+02 -0.22043724262E+02  0.39786714252E+02  0.00000000000E+00 0.  1.
</event>
<event>
 7    1  0.1716782E-015  0.9000768E+02  0.7816164E-02  0.1186339E+00
        -11   -1    0    0    0    0  0.00000000000E+00  0.00000000000E+00  0.45593999997E+02  0.45594000000E+02  0.51100000000E-03 0. -1.
         11   -1    0    0    0    0 -0.00000000000E+00 -0.00000000000E+00 -0.45593999997E+02  0.45594000000E+02  0.51100000000E-03 0.  1.
    9900012    2    1    2    0    0 -0.10938258866E+01 -0.15417995988E+00 -0.41583337443E+00  0.90007684819E+02  0.89999945459E+02 0.  0.
        -12    1    1    2    0    0  0.10938258866E+01  0.15417995988E+00  0.41583337443E+00  0.11803151806E+01  0.00000000000E+00 0.  1.
         11    1    3    3    0    0 -0.10349100935E+01 -0.27315464511E+02  0.25001614652E+02  0.37044383863E+02  0.51100000000E-03 0. -1.
        -11    1    3    3    0    0  0.20933129560E+01 -0.94313511311E+01 -0.36243486290E+01  0.10318345145E+02  0.51100000000E-03 0.  1.
        -12    1    3    3    0    0 -0.21522287492E+01  0.36592635682E+02 -0.21793099397E+02  0.42644955811E+02  0.00000000000E+00 0.  1.
</event>
<event>
 7    1  0.1716782E-015  0.9000773E+02  0.7816164E-02  0.1186339E+00
        -11   -1    0    0    0    0  0.00000000000E+00  0.00000000000E+00  0.45593999997E+02  0.45594000000E+02  0.51100000000E-03 0. -1.
         11   -1    0    0    0    0 -0.00000000000E+00 -0.00000000000E+00 -0.45593999997E+02  0.45594000000E+02  0.51100000000E-03 0.  1.
    9900012    2    1    2    0    0 -0.49110535576E+00 -0.60637795165E+00  0.88553356010E+00  0.90007725296E+02  0.89999986470E+02 0.  0.
        -12    1    1    2    0    0  0.49110535576E+00  0.60637795165E+00 -0.88553356010E+00  0.11802747039E+01  0.00000000000E+00 0.  1.
         11    1    3    3    0    0  0.21643227203E+01 -0.58728743519E+01  0.57514685265E+01  0.85002550823E+01  0.51100000000E-03 0. -1.
        -11    1    3    3    0    0  0.27221933497E+02 -0.17789120317E+02  0.18212149107E+02  0.37271555379E+02  0.51100000000E-03 0.  1.
         12    1    3    3    0    0 -0.29877361573E+02  0.23055616718E+02 -0.23078084073E+02  0.44235914835E+02  0.00000000000E+00 0. -1.
</event>
<event>
 7    1  0.1716782E-015  0.9000770E+02  0.7816164E-02  0.1186339E+00
        -11   -1    0    0    0    0  0.00000000000E+00  0.00000000000E+00  0.45593999997E+02  0.45594000000E+02  0.51100000000E-03 0.  1.
         11   -1    0    0    0    0 -0.00000000000E+00 -0.00000000000E+00 -0.45593999997E+02  0.45594000000E+02  0.51100000000E-03 0. -1.
    9900012    2    1    2    0    0 -0.45045201256E+00 -0.10899267873E+01 -0.47563847906E-01  0.90007699302E+02  0.89999960133E+02 0.  0.
        -12    1    1    2    0    0  0.45045201256E+00  0.10899267873E+01  0.47563847906E-01  0.11803006976E+01  0.00000000000E+00 0.  1.
         11    1    3    3    0    0  0.22494234684E+02 -0.27115791557E+02  0.47658629492E+01  0.35552358511E+02  0.51100000000E-03 0. -1.
        -11    1    3    3    0    0 -0.91053778920E-01 -0.79558220149E+01  0.82587911226E+01  0.11467825678E+02  0.51100000000E-03 0.  1.
        -12    1    3    3    0    0 -0.22853632918E+02  0.33981686784E+02 -0.13072217920E+02  0.42987515113E+02  0.00000000000E+00 0.  1.
</event>
<event>
 7    1  0.1716782E-015  0.9000778E+02  0.7816164E-02  0.1186339E+00
        -11   -1    0    0    0    0  0.00000000000E+00  0.00000000000E+00  0.45593999997E+02  0.45594000000E+02  0.51100000000E-03 0.  1.
         11   -1    0    0    0    0 -0.00000000000E+00 -0.00000000000E+00 -0.45593999997E+02  0.45594000000E+02  0.51100000000E-03 0. -1.
    9900012    2    1    2    0    0  0.10999794492E+01 -0.41092116912E+00 -0.11880795633E+00  0.90007777001E+02  0.90000038858E+02 0.  0.
        -12    1    1    2    0    0 -0.10999794492E+01  0.41092116912E+00  0.11880795633E+00  0.11802229986E+01  0.00000000000E+00 0.  1.
         11    1    3    3    0    0 -0.69522383299E+01 -0.22321510394E+01  0.22652141243E+01  0.76450841296E+01  0.51100000000E-03 0. -1.
        -11    1    3    3    0    0  0.13340701383E+02  0.24068089864E+02  0.31283308061E+02  0.41664044770E+02  0.51100000000E-03 0.  1.
         12    1    3    3    0    0 -0.52884836042E+01 -0.22246859994E+02 -0.33667330142E+02  0.40698648102E+02  0.00000000000E+00 0. -1.
</event>
<event>
 7    1  0.1716782E-015  0.9000765E+02  0.7816164E-02  0.1186339E+00
        -11   -1    0    0    0    0  0.00000000000E+00  0.00000000000E+00  0.45593999997E+02  0.45594000000E+02  0.51100000000E-03 0. -1.
         11   -1    0    0    0    0 -0.00000000000E+00 -0.00000000000E+00 -0.45593999997E+02  0.45594000000E+02  0.51100000000E-03 0.  1.
    9900012    2    1    2    0    0  0.10147336893E+01  0.57862764556E+00 -0.16948059259E+00  0.90007653405E+02  0.89999913630E+02 0.  0.
        -12    1    1    2    0    0 -0.10147336893E+01 -0.57862764556E+00  0.16948059259E+00  0.11803465947E+01  0.00000000000E+00 0.  1.
         11    1    3    3    0    0 -0.32108455011E+02 -0.67931045436E+01  0.18999953204E+02  0.37922254344E+02  0.51100000000E-03 0. -1.
        -11    1    3    3    0    0  0.11830265867E+01 -0.93250436253E+01  0.28842477212E+01  0.98323382619E+01  0.51100000000E-03 0.  1.
        -12    1    3    3    0    0  0.31940162113E+02  0.16696775814E+02 -0.22053681518E+02  0.42253060799E+02  0.00000000000E+00 0.  1.
</event>
<event>
 7    1  0.1716782E-015  0.9000773E+02  0.7816164E-02  0.1186339E+00
        -11   -1    0    0    0    0  0.00000000000E+00  0.00000000000E+00  0.45593999997E+02  0.45594000000E+02  0.51100000000E-03 0.  1.
         11   -1    0    0    0    0 -0.00000000000E+00 -0.00000000000E+00 -0.45593999997E+02  0.45594000000E+02  0.51100000000E-03 0. -1.
    9900012    2    1    2    0    0  0.30793944757E+00  0.53743463422E-01 -0.11381187378E+01  0.90007733367E+02  0.89999994648E+02 0.  0.
        -12    1    1    2    0    0 -0.30793944757E+00 -0.53743463421E-01  0.11381187378E+01  0.11802666329E+01  0.00000000000E+00 0.  1.
         11    1    3    3    0    0 -0.59076606351E+01  0.32678493565E+02  0.11218077112E+02  0.35051813794E+02  0.51100000000E-03 0. -1.
        -11    1    3    3    0    0 -0.50693534930E+01  0.85335862730E+01  0.16014026384E+01  0.10054100168E+02  0.51100000000E-03 0.  1.
        -12    1    3    3    0    0  0.11284953576E+02 -0.41158336375E+02 -0.13957598488E+02  0.44901819405E+02  0.00000000000E+00 0.  1.
</event>
<event>
 7    1  0.1716782E-015  0.9000732E+02  0.7816164E-02  0.1186340E+00
        -11   -1    0    0    0    0  0.00000000000E+00  0.00000000000E+00  0.45593999997E+02  0.45594000000E+02  0.51100000000E-03 0. -1.
         11   -1    0    0    0    0 -0.00000000000E+00 -0.00000000000E+00 -0.45593999997E+02  0.45594000000E+02  0.51100000000E-03 0.  1.
    9900012    2    1    2    0    0  0.72893604453E+00 -0.32659340651E+00  0.86948573213E+00  0.90007315263E+02  0.89999571023E+02 0.  0.
        -12    1    1    2    0    0 -0.72893604453E+00  0.32659340651E+00 -0.86948573213E+00  0.11806847372E+01  0.00000000000E+00 0.  1.
         11    1    3    3    0    0  0.29511396041E+02  0.31510482413E+01  0.27774885906E+02  0.40648442635E+02  0.51100000000E-03 0. -1.
        -11    1    3    3    0    0  0.37121814903E+01  0.32069006640E+01 -0.12048764172E+02  0.13009120709E+02  0.51100000000E-03 0.  1.
        -12    1    3    3    0    0 -0.32494641486E+02 -0.66845423119E+01 -0.14856636002E+02  0.36349751919E+02  0.00000000000E+00 0.  1.
</event>
<event>
 7    1  0.1716782E-015  0.9000773E+02  0.7816164E-02  0.1186339E+00
        -11   -1    0    0    0    0  0.00000000000E+00  0.00000000000E+00  0.45593999997E+02  0.45594000000E+02  0.51100000000E-03 0. -1.
         11   -1    0    0    0    0 -0.00000000000E+00 -0.00000000000E+00 -0.45593999997E+02  0.45594000000E+02  0.51100000000E-03 0.  1.
    9900012    2    1    2    0    0  0.39516716783E+00 -0.10208367004E+01  0.44133658703E+00  0.90007727725E+02  0.89999988931E+02 0.  0.
        -12    1    1    2    0    0 -0.39516716783E+00  0.10208367004E+01 -0.44133658703E+00  0.11802722747E+01  0.00000000000E+00 0.  1.
         11    1    3    3    0    0 -0.20374870670E+02 -0.27178251004E+02 -0.67050984271E+01  0.34622984095E+02  0.51100000000E-03 0. -1.
        -11    1    3    3    0    0  0.92045673030E+00 -0.11828725689E+02  0.35012979969E+01  0.12370330632E+02  0.51100000000E-03 0.  1.
        -12    1    3    3    0    0  0.19849581108E+02  0.37986139993E+02  0.36451370172E+01  0.43014412998E+02  0.00000000000E+00 0.  1.
</event>
<event>
 7    1  0.1716782E-015  0.9000789E+02  0.7816164E-02  0.1186339E+00
        -11   -1    0    0    0    0  0.00000000000E+00  0.00000000000E+00  0.45593999997E+02  0.45594000000E+02  0.51100000000E-03 0. -1.
         11   -1    0    0    0    0 -0.00000000000E+00 -0.00000000000E+00 -0.45593999997E+02  0.45594000000E+02  0.51100000000E-03 0.  1.
    9900012    2    1    2    0    0  0.86914117692E+00  0.15183411808E+00 -0.78371359600E+00  0.90007886876E+02  0.90000150183E+02 0.  0.
        -12    1    1    2    0    0 -0.86914117692E+00 -0.15183411808E+00  0.78371359600E+00  0.11801131240E+01  0.00000000000E+00 0.  1.
         11    1    3    3    0    0 -0.31888651318E+02  0.35940766673E+01 -0.23524307729E+02  0.39789402161E+02  0.51100000000E-03 0. -1.
        -11    1    3    3    0    0 -0.32843239841E+01  0.36321457794E+01 -0.26490271355E+01  0.55674601051E+01  0.51100000000E-03 0.  1.
        -12    1    3    3    0    0  0.36042116479E+02 -0.70743883286E+01  0.25389621269E+02  0.44651024609E+02  0.00000000000E+00 0.  1.
</event>
<event>
 7    1  0.1716782E-015  0.9000773E+02  0.7816164E-02  0.1186339E+00
        -11   -1    0    0    0    0  0.00000000000E+00  0.00000000000E+00  0.45593999997E+02  0.45594000000E+02  0.51100000000E-03 0.  1.
         11   -1    0    0    0    0 -0.00000000000E+00 -0.00000000000E+00 -0.45593999997E+02  0.45594000000E+02  0.51100000000E-03 0. -1.
    9900012    2    1    2    0    0  0.90749839940E+00  0.38745941375E+00 -0.64757620883E+00  0.90007731773E+02  0.89999993032E+02 0.  0.
        -12    1    1    2    0    0 -0.90749839940E+00 -0.38745941375E+00  0.64757620883E+00  0.11802682273E+01  0.00000000000E+00 0.  1.
         11    1    3    3    0    0 -0.16124810118E+02 -0.23275367075E+02 -0.26512455522E+02  0.38789979529E+02  0.51100000000E-03 0. -1.
        -11    1    3    3    0    0  0.51295513156E+01 -0.38316780057E+01 -0.50594347829E+01  0.81603880803E+01  0.51100000000E-03 0.  1.
        -12    1    3    3    0    0  0.11902757201E+02  0.27494504494E+02  0.30924314096E+02  0.43057364163E+02  0.00000000000E+00 0.  1.
</event>
<event>
 7    1  0.1716782E-015  0.9000789E+02  0.7816164E-02  0.1186339E+00
        -11   -1    0    0    0    0  0.00000000000E+00  0.00000000000E+00  0.45593999997E+02  0.45594000000E+02  0.51100000000E-03 0. -1.
         11   -1    0    0    0    0 -0.00000000000E+00 -0.00000000000E+00 -0.45593999997E+02  0.45594000000E+02  0.51100000000E-03 0.  1.
    9900012    2    1    2    0    0 -0.12484655643E+00  0.61710502491E+00  0.99813035721E+00  0.90007885817E+02  0.90000149110E+02 0.  0.
        -12    1    1    2    0    0  0.12484655643E+00 -0.61710502491E+00 -0.99813035721E+00  0.11801141828E+01  0.00000000000E+00 0.  1.
         11    1    3    3    0    0  0.35616091933E+02 -0.58347652029E+01 -0.37301892522E+01  0.36283120065E+02  0.51100000000E-03 0. -1.
        -11    1    3    3    0    0  0.58099050321E+01  0.74986852900E+01 -0.54397250576E+01  0.10935075972E+02  0.51100000000E-03 0.  1.
        -12    1    3    3    0    0 -0.41550843521E+02 -0.10468150622E+01  0.10168044667E+02  0.42789689780E+02  0.00000000000E+00 0.  1.
</event>
<event>
 7    1  0.1716782E-015  0.9000774E+02  0.7816164E-02  0.1186339E+00
        -11   -1    0    0    0    0  0.00000000000E+00  0.00000000000E+00  0.45593999997E+02  0.45594000000E+02  0.51100000000E-03 0.  1.
         11   -1    0    0    0    0 -0.00000000000E+00 -0.00000000000E+00 -0.45593999997E+02  0.45594000000E+02  0.51100000000E-03 0. -1.
    9900012    2    1    2    0    0 -0.10290951167E+01  0.87823409218E-02 -0.57783484424E+00  0.90007742826E+02  0.90000004232E+02 0.  0.
        -12    1    1    2    0    0  0.10290951167E+01 -0.87823409218E-02  0.57783484424E+00  0.11802571736E+01  0.00000000000E+00 0.  1.
         11    1    3    3    0    0  0.85668869667E+01  0.42981125978E+01 -0.88124107385E+00  0.96250667683E+01  0.51100000000E-03 0. -1.
        -11    1    3    3    0    0 -0.17236732378E+02  0.25175038576E+02 -0.26051674356E+02  0.40119536979E+02  0.51100000000E-03 0.  1.
         12    1    3    3    0    0  0.76407502949E+01 -0.29464368833E+02  0.26355080586E+02  0.40263139079E+02  0.00000000000E+00 0. -1.
</event>
<event>
 7    1  0.1716782E-015  0.9000785E+02  0.7816164E-02  0.1186339E+00
        -11   -1    0    0    0    0  0.00000000000E+00  0.00000000000E+00  0.45593999997E+02  0.45594000000E+02  0.51100000000E-03 0.  1.
         11   -1    0    0    0    0 -0.00000000000E+00 -0.00000000000E+00 -0.45593999997E+02  0.45594000000E+02  0.51100000000E-03 0. -1.
    9900012    2    1    2    0    0  0.37411953834E+00  0.51368691120E+00 -0.99443725387E+00  0.90007853770E+02  0.90000116640E+02 0.  0.
        -12    1    1    2    0    0 -0.37411953834E+00 -0.51368691120E+00  0.99443725387E+00  0.11801462297E+01  0.00000000000E+00 0.  1.
         11    1    3    3    0    0 -0.16182532509E+01  0.77085901067E+01 -0.35996967811E+01  0.86601918104E+01  0.51100000000E-03 0. -1.
        -11    1    3    3    0    0 -0.14647498940E+02  0.29480873342E+02  0.18834797289E+02  0.37926517206E+02  0.51100000000E-03 0.  1.
         12    1    3    3    0    0  0.16639871729E+02 -0.36675776537E+02 -0.16229537762E+02  0.43421144754E+02  0.00000000000E+00 0. -1.
</event>
<event>
 7    1  0.1716782E-015  0.9000785E+02  0.7816164E-02  0.1186339E+00
        -11   -1    0    0    0    0  0.00000000000E+00  0.00000000000E+00  0.45593999997E+02  0.45594000000E+02  0.51100000000E-03 0. -1.
         11   -1    0    0    0    0 -0.00000000000E+00 -0.00000000000E+00 -0.45593999997E+02  0.45594000000E+02  0.51100000000E-03 0.  1.
    9900012    2    1    2    0    0  0.35244840703E+00 -0.10913243286E+01  0.27848732441E+00  0.90007845832E+02  0.90000108597E+02 0.  0.
        -12    1    1    2    0    0 -0.35244840703E+00  0.10913243286E+01 -0.27848732441E+00  0.11801541677E+01  0.00000000000E+00 0.  1.
         11    1    3    3    0    0  0.31580462489E+01  0.64585495422E+01  0.45758690625E+01  0.85220124523E+01  0.51100000000E-03 0. -1.
        -11    1    3    3    0    0 -0.29600190654E+02  0.11850181485E+02 -0.26655390455E+02  0.41558488044E+02  0.51100000000E-03 0.  1.
         12    1    3    3    0    0  0.26794592812E+02 -0.19400055355E+02  0.22358008717E+02  0.39927345336E+02  0.00000000000E+00 0. -1.
</event>
<event>
 7    1  0.1716782E-015  0.9000761E+02  0.7816164E-02  0.1186339E+00
        -11   -1    0    0    0    0  0.00000000000E+00  0.00000000000E+00  0.45593999997E+02  0.45594000000E+02  0.51100000000E-03 0. -1.
         11   -1    0    0    0    0 -0.00000000000E+00 -0.00000000000E+00 -0.45593999997E+02  0.45594000000E+02  0.51100000000E-03 0.  1.
    9900012    2    1    2    0    0  0.27534014708E+00  0.10003009444E+01  0.56294419939E+00  0.90007610087E+02  0.89999869740E+02 0.  0.
        -12    1    1    2    0    0 -0.27534014708E+00 -0.10003009444E+01 -0.56294419939E+00  0.11803899133E+01  0.00000000000E+00 0.  1.
         11    1    3    3    0    0 -0.65458568771E+01  0.65549140558E+01  0.40271705052E+00  0.92723956892E+01  0.51100000000E-03 0. -1.
        -11    1    3    3    0    0 -0.32360065798E+02  0.46075414918E+01  0.17060732423E+02  0.36871016912E+02  0.51100000000E-03 0.  1.
         12    1    3    3    0    0  0.39181262822E+02 -0.10162154603E+02 -0.16900505274E+02  0.43864197485E+02  0.00000000000E+00 0. -1.
</event>
<event>
 7    1  0.1716782E-015  0.9000742E+02  0.7816164E-02  0.1186340E+00
        -11   -1    0    0    0    0  0.00000000000E+00  0.00000000000E+00  0.45593999997E+02  0.45594000000E+02  0.51100000000E-03 0. -1.
         11   -1    0    0    0    0 -0.00000000000E+00 -0.00000000000E+00 -0.45593999997E+02  0.45594000000E+02  0.51100000000E-03 0.  1.
    9900012    2    1    2    0    0  0.10750470500E+01  0.37168984561E+00  0.31606307679E+00  0.90007417360E+02  0.89999674469E+02 0.  0.
        -12    1    1    2    0    0 -0.10750470500E+01 -0.37168984561E+00 -0.31606307679E+00  0.11805826398E+01  0.00000000000E+00 0.  1.
         11    1    3    3    0    0  0.29684751812E+01 -0.24668620785E+01  0.78282202735E+01  0.87280173194E+01  0.51100000000E-03 0. -1.
        -11    1    3    3    0    0 -0.33993021356E+02 -0.10537101877E+02  0.16288975864E+02  0.39139324877E+02  0.51100000000E-03 0.  1.
         12    1    3    3    0    0  0.32099593225E+02  0.13375653801E+02 -0.23801133061E+02  0.42140075164E+02  0.00000000000E+00 0. -1.
</event>
<event>
 7    1  0.1716782E-015  0.9000776E+02  0.7816164E-02  0.1186339E+00
        -11   -1    0    0    0    0  0.00000000000E+00  0.00000000000E+00  0.45593999997E+02  0.45594000000E+02  0.51100000000E-03 0.  1.
         11   -1    0    0    0    0 -0.00000000000E+00 -0.00000000000E+00 -0.45593999997E+02  0.45594000000E+02  0.51100000000E-03 0. -1.
    9900012    2    1    2    0    0  0.96683619820E-01  0.78387702997E+00 -0.87702072975E+00  0.90007755838E+02  0.90000017416E+02 0.  0.
        -12    1    1    2    0    0 -0.96683619820E-01 -0.78387702997E+00  0.87702072975E+00  0.11802441615E+01  0.00000000000E+00 0.  1.
         11    1    3    3    0    0 -0.11001096094E+02 -0.49940118804E+01 -0.36299357708E+02  0.38257125352E+02  0.51100000000E-03 0. -1.
        -11    1    3    3    0    0  0.12311717603E+02  0.68860384667E+01 -0.20390537305E+01  0.14253198114E+02  0.51100000000E-03 0.  1.
        -12    1    3    3    0    0 -0.12139378890E+01 -0.11081495563E+01  0.37461390709E+02  0.37497432372E+02  0.00000000000E+00 0.  1.
</event>
<event>
 7    1  0.1716782E-015  0.9000775E+02  0.7816164E-02  0.1186339E+00
        -11   -1    0    0    0    0  0.00000000000E+00  0.00000000000E+00  0.45593999997E+02  0.45594000000E+02  0.51100000000E-03 0.  1.
         11   -1    0    0    0    0 -0.00000000000E+00 -0.00000000000E+00 -0.45593999997E+02  0.45594000000E+02  0.51100000000E-03 0. -1.
    9900012    2    1    2    0    0 -0.11750656471E+01  0.36307382518E-01 -0.10440698001E+00  0.90007746502E+02  0.90000007956E+02 0.  0.
        -12    1    1    2    0    0  0.11750656471E+01 -0.36307382518E-01  0.10440698001E+00  0.11802534976E+01  0.00000000000E+00 0.  1.
         11    1    3    3    0    0 -0.15601957062E+02 -0.54989033578E+00 -0.28795768119E+02  0.32755453063E+02  0.51100000000E-03 0. -1.
        -11    1    3    3    0    0 -0.15165075147E+02  0.61624802574E+01  0.10932618868E+01  0.16405818753E+02  0.51100000000E-03 0.  1.
        -12    1    3    3    0    0  0.29591966563E+02 -0.55762825391E+01  0.27598099252E+02  0.40846474686E+02  0.00000000000E+00 0.  1.
</event>
<event>
 7    1  0.1716782E-015  0.9000769E+02  0.7816164E-02  0.1186339E+00
        -11   -1    0    0    0    0  0.00000000000E+00  0.00000000000E+00  0.45593999997E+02  0.45594000000E+02  0.51100000000E-03 0.  1.
         11   -1    0    0    0    0 -0.00000000000E+00 -0.00000000000E+00 -0.45593999997E+02  0.45594000000E+02  0.51100000000E-03 0. -1.
    9900012    2    1    2    0    0 -0.87661700858E+00  0.77344455542E+00  0.16268443167E+00  0.90007686447E+02  0.89999947108E+02 0.  0.
        -12    1    1    2    0    0  0.87661700858E+00 -0.77344455542E+00 -0.16268443167E+00  0.11803135534E+01  0.00000000000E+00 0.  1.
         11    1    3    3    0    0  0.24237882717E+02 -0.86943929781E+01 -0.33784504018E+02  0.42478937603E+02  0.51100000000E-03 0. -1.
        -11    1    3    3    0    0 -0.96765159288E+01  0.24085409066E+01  0.45725998301E+00  0.99822400678E+01  0.51100000000E-03 0.  1.
        -12    1    3    3    0    0 -0.15437983797E+02  0.70592966268E+01  0.33489928467E+02  0.37546508776E+02  0.00000000000E+00 0.  1.
</event>
<event>
 7    1  0.1716782E-015  0.9000776E+02  0.7816164E-02  0.1186339E+00
        -11   -1    0    0    0    0  0.00000000000E+00  0.00000000000E+00  0.45593999997E+02  0.45594000000E+02  0.51100000000E-03 0.  1.
         11   -1    0    0    0    0 -0.00000000000E+00 -0.00000000000E+00 -0.45593999997E+02  0.45594000000E+02  0.51100000000E-03 0. -1.
    9900012    2    1    2    0    0  0.33891459944E+00 -0.14312457365E+00 -0.11214386166E+01  0.90007757516E+02  0.90000019116E+02 0.  0.
        -12    1    1    2    0    0 -0.33891459944E+00  0.14312457365E+00  0.11214386166E+01  0.11802424836E+01  0.00000000000E+00 0.  1.
         11    1    3    3    0    0  0.43831369540E+01  0.37596708823E+02 -0.61531621408E+00  0.37856347132E+02  0.51100000000E-03 0. -1.
        -11    1    3    3    0    0 -0.19487766963E+01  0.70369350846E+01 -0.58961316009E+00  0.73255600425E+01  0.51100000000E-03 0.  1.
        -12    1    3    3    0    0 -0.20954456583E+01 -0.44776768481E+02  0.83490757590E-01  0.44825850342E+02  0.00000000000E+00 0.  1.
</event>
<event>
 7    1  0.1716782E-015  0.9000777E+02  0.7816164E-02  0.1186339E+00
        -11   -1    0    0    0    0  0.00000000000E+00  0.00000000000E+00  0.45593999997E+02  0.45594000000E+02  0.51100000000E-03 0.  1.
         11   -1    0    0    0    0 -0.00000000000E+00 -0.00000000000E+00 -0.45593999997E+02  0.45594000000E+02  0.51100000000E-03 0. -1.
    9900012    2    1    2    0    0 -0.10172637492E+01  0.59843677007E+00 -0.31316428483E-03  0.90007766040E+02  0.90000027751E+02 0.  0.
        -12    1    1    2    0    0  0.10172637492E+01 -0.59843677007E+00  0.31316428483E-03  0.11802339604E+01  0.00000000000E+00 0.  1.
         11    1    3    3    0    0 -0.57122691287E+01 -0.68543431361E+01  0.26630347820E+01  0.93114871496E+01  0.51100000000E-03 0. -1.
        -11    1    3    3    0    0  0.15872551028E+02 -0.23585838237E+02  0.24834584594E+02  0.37748989837E+02  0.51100000000E-03 0.  1.
         12    1    3    3    0    0 -0.11177545649E+02  0.31038618143E+02 -0.27497932541E+02  0.42947289053E+02  0.00000000000E+00 0. -1.
</event>
<event>
 7    1  0.1716782E-015  0.9000813E+02  0.7816164E-02  0.1186338E+00
        -11   -1    0    0    0    0  0.00000000000E+00  0.00000000000E+00  0.45593999997E+02  0.45594000000E+02  0.51100000000E-03 0. -1.
         11   -1    0    0    0    0 -0.00000000000E+00 -0.00000000000E+00 -0.45593999997E+02  0.45594000000E+02  0.51100000000E-03 0.  1.
    9900012    2    1    2    0    0 -0.17998711712E+00  0.47516351808E+00  0.10648547535E+01  0.90008130780E+02  0.90000397305E+02 0.  0.
        -12    1    1    2    0    0  0.17998711712E+00 -0.47516351808E+00 -0.10648547535E+01  0.11798692205E+01  0.00000000000E+00 0.  1.
         11    1    3    3    0    0  0.65478161973E+00  0.26656723487E+02  0.29478754245E+02  0.39749296826E+02  0.51100000000E-03 0. -1.
        -11    1    3    3    0    0 -0.90083295424E+01  0.39838114886E+01 -0.41320578183E+01  0.10681510062E+02  0.51100000000E-03 0.  1.
        -12    1    3    3    0    0  0.81735608055E+01 -0.30165371458E+02 -0.24281841673E+02  0.39577323892E+02  0.00000000000E+00 0.  1.
</event>
<event>
 7    1  0.1716782E-015  0.9000812E+02  0.7816164E-02  0.1186338E+00
        -11   -1    0    0    0    0  0.00000000000E+00  0.00000000000E+00  0.45593999997E+02  0.45594000000E+02  0.51100000000E-03 0. -1.
         11   -1    0    0    0    0 -0.00000000000E+00 -0.00000000000E+00 -0.45593999997E+02  0.45594000000E+02  0.51100000000E-03 0.  1.
    9900012    2    1    2    0    0 -0.31472116915E+00  0.88878346310E+00 -0.70930977868E+00  0.90008124659E+02  0.90000391103E+02 0.  0.
        -12    1    1    2    0    0  0.31472116915E+00 -0.88878346310E+00  0.70930977868E+00  0.11798753412E+01  0.00000000000E+00 0.  1.
         11    1    3    3    0    0 -0.36590577793E+01 -0.31517891366E+02  0.11049706012E+02  0.33598544361E+02  0.51100000000E-03 0. -1.
        -11    1    3    3    0    0  0.31585793414E+01 -0.88543927790E+01 -0.11877823510E+02  0.15147923506E+02  0.51100000000E-03 0.  1.
        -12    1    3    3    0    0  0.18575726877E+00  0.41261067608E+02  0.11880771906E+00  0.41261656792E+02  0.00000000000E+00 0.  1.
</event>
<event>
 7    1  0.1716782E-015  0.9000790E+02  0.7816164E-02  0.1186339E+00
        -11   -1    0    0    0    0  0.00000000000E+00  0.00000000000E+00  0.45593999997E+02  0.45594000000E+02  0.51100000000E-03 0.  1.
         11   -1    0    0    0    0 -0.00000000000E+00 -0.00000000000E+00 -0.45593999997E+02  0.45594000000E+02  0.51100000000E-03 0. -1.
    9900012    2    1    2    0    0  0.65699040790E-01  0.11581217521E+01 -0.21698015820E+00  0.90007897146E+02  0.90000160588E+02 0.  0.
        -12    1    1    2    0    0 -0.65699040790E-01 -0.11581217521E+01  0.21698015820E+00  0.11801028539E+01  0.00000000000E+00 0.  1.
         11    1    3    3    0    0 -0.19439648330E+02 -0.94174615696E+01  0.85730377976E+00  0.21617665916E+02  0.51100000000E-03 0. -1.
        -11    1    3    3    0    0  0.91414052974E+01 -0.19491333729E+02  0.20685348687E+02  0.29855670013E+02  0.51100000000E-03 0.  1.
         12    1    3    3    0    0  0.10363942073E+02  0.30066917051E+02 -0.21759632625E+02  0.38534561217E+02  0.00000000000E+00 0. -1.
</event>
<event>
 7    1  0.1716782E-015  0.9000772E+02  0.7816164E-02  0.1186339E+00
        -11   -1    0    0    0    0  0.00000000000E+00  0.00000000000E+00  0.45593999997E+02  0.45594000000E+02  0.51100000000E-03 0.  1.
         11   -1    0    0    0    0 -0.00000000000E+00 -0.00000000000E+00 -0.45593999997E+02  0.45594000000E+02  0.51100000000E-03 0. -1.
    9900012    2    1    2    0    0 -0.89756695262E+00 -0.50590520943E+00 -0.57575042908E+00  0.90007722460E+02  0.89999983596E+02 0.  0.
        -12    1    1    2    0    0  0.89756695262E+00  0.50590520943E+00  0.57575042908E+00  0.11802775402E+01  0.00000000000E+00 0.  1.
         11    1    3    3    0    0 -0.29041959305E+02 -0.31036071971E+02 -0.10133353621E+02  0.43696201431E+02  0.51100000000E-03 0. -1.
        -11    1    3    3    0    0  0.85910455987E+01 -0.81788556759E-01  0.43054811546E+01  0.96098866841E+01  0.51100000000E-03 0.  1.
        -12    1    3    3    0    0  0.19553346753E+02  0.30611955319E+02  0.52521220369E+01  0.36701634345E+02  0.00000000000E+00 0.  1.
</event>
<event>
 7    1  0.1716782E-015  0.9000774E+02  0.7816164E-02  0.1186339E+00
        -11   -1    0    0    0    0  0.00000000000E+00  0.00000000000E+00  0.45593999997E+02  0.45594000000E+02  0.51100000000E-03 0.  1.
         11   -1    0    0    0    0 -0.00000000000E+00 -0.00000000000E+00 -0.45593999997E+02  0.45594000000E+02  0.51100000000E-03 0. -1.
    9900012    2    1    2    0    0  0.87051804648E-01  0.55461900004E+00 -0.10381922380E+01  0.90007735888E+02  0.89999997201E+02 0.  0.
        -12    1    1    2    0    0 -0.87051804648E-01 -0.55461900004E+00  0.10381922380E+01  0.11802641123E+01  0.00000000000E+00 0.  1.
         11    1    3    3    0    0  0.24733822064E+01 -0.16830366566E+00 -0.10035453686E+02  0.10337130966E+02  0.51100000000E-03 0. -1.
        -11    1    3    3    0    0  0.32422250199E+02  0.20652494809E+02  0.93373802374E+01  0.39559000490E+02  0.51100000000E-03 0.  1.
         12    1    3    3    0    0 -0.34808580601E+02 -0.19929572143E+02 -0.34011878901E+00  0.40111604431E+02  0.00000000000E+00 0. -1.
</event>
<event>
 7    1  0.1716782E-015  0.9000781E+02  0.7816164E-02  0.1186339E+00
        -11   -1    0    0    0    0  0.00000000000E+00  0.00000000000E+00  0.45593999997E+02  0.45594000000E+02  0.51100000000E-03 0.  1.
         11   -1    0    0    0    0 -0.00000000000E+00 -0.00000000000E+00 -0.45593999997E+02  0.45594000000E+02  0.51100000000E-03 0. -1.
    9900012    2    1    2    0    0  0.83659760877E+00  0.14766481574E+00  0.81923350228E+00  0.90007811884E+02  0.90000074201E+02 0.  0.
        -12    1    1    2    0    0 -0.83659760877E+00 -0.14766481574E+00 -0.81923350228E+00  0.11801881155E+01  0.00000000000E+00 0.  1.
         11    1    3    3    0    0 -0.43693879208E+01  0.96441343036E+01  0.19649122442E+02  0.22320145391E+02  0.51100000000E-03 0.  1.
        -11    1    3    3    0    0  0.24895411628E+01  0.26630900849E+02 -0.16405187220E+02  0.31377266662E+02  0.51100000000E-03 0. -1.
        -12    1    3    3    0    0  0.27164443669E+01 -0.36127370337E+02 -0.24247017207E+01  0.36310399831E+02  0.00000000000E+00 0.  1.
</event>
<event>
 7    1  0.1716782E-015  0.9000768E+02  0.7816164E-02  0.1186339E+00
        -11   -1    0    0    0    0  0.00000000000E+00  0.00000000000E+00  0.45593999997E+02  0.45594000000E+02  0.51100000000E-03 0. -1.
         11   -1    0    0    0    0 -0.00000000000E+00 -0.00000000000E+00 -0.45593999997E+02  0.45594000000E+02  0.51100000000E-03 0.  1.
    9900012    2    1    2    0    0 -0.70504599097E-01  0.61786084552E+00  0.10032096412E+01  0.90007681184E+02  0.89999941776E+02 0.  0.
        -12    1    1    2    0    0  0.70504599097E-01 -0.61786084552E+00 -0.10032096412E+01  0.11803188159E+01  0.00000000000E+00 0.  1.
         11    1    3    3    0    0  0.34122773271E+02 -0.90279726358E+01  0.17244361388E+02  0.39284041869E+02  0.51100000000E-03 0. -1.
        -11    1    3    3    0    0 -0.67774183417E+01 -0.85806501498E+01  0.44878868854E+01  0.11819563669E+02  0.51100000000E-03 0.  1.
        -12    1    3    3    0    0 -0.27415859528E+02  0.18226483631E+02 -0.20729038632E+02  0.38904075646E+02  0.00000000000E+00 0.  1.
</event>
<event>
 7    1  0.1716782E-015  0.9000767E+02  0.7816164E-02  0.1186339E+00
        -11   -1    0    0    0    0  0.00000000000E+00  0.00000000000E+00  0.45593999997E+02  0.45594000000E+02  0.51100000000E-03 0.  1.
         11   -1    0    0    0    0 -0.00000000000E+00 -0.00000000000E+00 -0.45593999997E+02  0.45594000000E+02  0.51100000000E-03 0. -1.
    9900012    2    1    2    0    0  0.54343632208E+00 -0.10402658579E+01 -0.12530886035E+00  0.90007670215E+02  0.89999930662E+02 0.  0.
        -12    1    1    2    0    0 -0.54343632208E+00  0.10402658579E+01  0.12530886035E+00  0.11803297852E+01  0.00000000000E+00 0.  1.
         11    1    3    3    0    0 -0.31032784109E+01  0.22568060129E+02 -0.29461126318E+02  0.37241182031E+02  0.51100000000E-03 0. -1.
        -11    1    3    3    0    0  0.33263782766E+01 -0.12712340926E+01 -0.82822179092E+01  0.90153182037E+01  0.51100000000E-03 0.  1.
        -12    1    3    3    0    0  0.32033645645E+00 -0.22337091894E+02  0.37618035367E+02  0.43751169980E+02  0.00000000000E+00 0.  1.
</event>
<event>
 7    1  0.1716782E-015  0.9000776E+02  0.7816164E-02  0.1186339E+00
        -11   -1    0    0    0    0  0.00000000000E+00  0.00000000000E+00  0.45593999997E+02  0.45594000000E+02  0.51100000000E-03 0.  1.
         11   -1    0    0    0    0 -0.00000000000E+00 -0.00000000000E+00 -0.45593999997E+02  0.45594000000E+02  0.51100000000E-03 0. -1.
    9900012    2    1    2    0    0  0.77054972615E+00  0.78689716356E+00  0.42426952088E+00  0.90007763306E+02  0.90000024982E+02 0.  0.
        -12    1    1    2    0    0 -0.77054972615E+00 -0.78689716356E+00 -0.42426952088E+00  0.11802366936E+01  0.00000000000E+00 0.  1.
         11    1    3    3    0    0  0.39140493360E+01 -0.85694198260E+01  0.10148862430E+02  0.13847532171E+02  0.51100000000E-03 0. -1.
        -11    1    3    3    0    0 -0.15259871202E+02 -0.10274679622E+02  0.27071425048E+02  0.32730639542E+02  0.51100000000E-03 0.  1.
         12    1    3    3    0    0  0.12116371592E+02  0.19630996611E+02 -0.36796017956E+02  0.43429591593E+02  0.00000000000E+00 0. -1.
</event>
<event>
 7    1  0.1716782E-015  0.9000773E+02  0.7816164E-02  0.1186339E+00
        -11   -1    0    0    0    0  0.00000000000E+00  0.00000000000E+00  0.45593999997E+02  0.45594000000E+02  0.51100000000E-03 0.  1.
         11   -1    0    0    0    0 -0.00000000000E+00 -0.00000000000E+00 -0.45593999997E+02  0.45594000000E+02  0.51100000000E-03 0. -1.
    9900012    2    1    2    0    0  0.58300002536E+00  0.10192440351E+01 -0.11955605250E+00  0.90007728386E+02  0.89999989601E+02 0.  0.
        -12    1    1    2    0    0 -0.58300002536E+00 -0.10192440351E+01  0.11955605250E+00  0.11802716138E+01  0.00000000000E+00 0.  1.
         11    1    3    3    0    0  0.16427797613E+02  0.35385016008E+02 -0.13326872893E+02  0.41225931568E+02  0.51100000000E-03 0. -1.
        -11    1    3    3    0    0  0.72731990258E+01 -0.56079249042E+01 -0.10101527689E+01  0.92395159331E+01  0.51100000000E-03 0.  1.
        -12    1    3    3    0    0 -0.23117996613E+02 -0.28757847069E+02  0.14217469610E+02  0.39542280885E+02  0.00000000000E+00 0.  1.
</event>
<event>
 7    1  0.1716782E-015  0.9000777E+02  0.7816164E-02  0.1186339E+00
        -11   -1    0    0    0    0  0.00000000000E+00  0.00000000000E+00  0.45593999997E+02  0.45594000000E+02  0.51100000000E-03 0. -1.
         11   -1    0    0    0    0 -0.00000000000E+00 -0.00000000000E+00 -0.45593999997E+02  0.45594000000E+02  0.51100000000E-03 0.  1.
    9900012    2    1    2    0    0  0.10505703352E+01 -0.51701246866E+00  0.14810254471E+00  0.90007773629E+02  0.90000035441E+02 0.  0.
        -12    1    1    2    0    0 -0.10505703352E+01  0.51701246866E+00 -0.14810254471E+00  0.11802263705E+01  0.00000000000E+00 0.  1.
         11    1    3    3    0    0 -0.45221873863E+01 -0.62780426759E+01 -0.50768484485E+01  0.92541012004E+01  0.51100000000E-03 0. -1.
        -11    1    3    3    0    0  0.77537928579E+01  0.29751693530E+02 -0.26726880986E+02  0.40738320278E+02  0.51100000000E-03 0.  1.
         12    1    3    3    0    0 -0.21810351364E+01 -0.23990663323E+02  0.31951831979E+02  0.40015352151E+02  0.00000000000E+00 0. -1.
</event>
<event>
 7    1  0.1716782E-015  0.9000775E+02  0.7816164E-02  0.1186339E+00
        -11   -1    0    0    0    0  0.00000000000E+00  0.00000000000E+00  0.45593999997E+02  0.45594000000E+02  0.51100000000E-03 0.  1.
         11   -1    0    0    0    0 -0.00000000000E+00 -0.00000000000E+00 -0.45593999997E+02  0.45594000000E+02  0.51100000000E-03 0. -1.
    9900012    2    1    2    0    0 -0.33043156019E+00  0.76784466040E+00 -0.83319369795E+00  0.90007753341E+02  0.90000014885E+02 0.  0.
        -12    1    1    2    0    0  0.33043156019E+00 -0.76784466040E+00  0.83319369795E+00  0.11802466593E+01  0.00000000000E+00 0.  1.
         11    1    3    3    0    0  0.61053359524E+01  0.35734140373E+01 -0.63198556829E+01  0.94860419084E+01  0.51100000000E-03 0. -1.
        -11    1    3    3    0    0  0.16699243182E+02  0.26278038699E+02  0.23706166104E+02  0.39132880706E+02  0.51100000000E-03 0.  1.
         12    1    3    3    0    0 -0.23135010694E+02 -0.29083608076E+02 -0.18219504119E+02  0.41388830726E+02  0.00000000000E+00 0. -1.
</event>
<event>
 7    1  0.1716782E-015  0.9000774E+02  0.7816164E-02  0.1186339E+00
        -11   -1    0    0    0    0  0.00000000000E+00  0.00000000000E+00  0.45593999997E+02  0.45594000000E+02  0.51100000000E-03 0.  1.
         11   -1    0    0    0    0 -0.00000000000E+00 -0.00000000000E+00 -0.45593999997E+02  0.45594000000E+02  0.51100000000E-03 0. -1.
    9900012    2    1    2    0    0  0.11659246637E+01 -0.16258248064E+00 -0.84856378330E-01  0.90007739864E+02  0.90000001230E+02 0.  0.
        -12    1    1    2    0    0 -0.11659246637E+01  0.16258248064E+00  0.84856378330E-01  0.11802601363E+01  0.00000000000E+00 0.  1.
         11    1    3    3    0    0 -0.19507243071E+02  0.78776838316E+01 -0.26734453877E+02  0.34019427672E+02  0.51100000000E-03 0. -1.
        -11    1    3    3    0    0 -0.54473040426E+01  0.13475649490E+02  0.12992564034E+02  0.19495460265E+02  0.51100000000E-03 0.  1.
         12    1    3    3    0    0  0.26120471777E+02 -0.21515915802E+02  0.13657033465E+02  0.36492851926E+02  0.00000000000E+00 0. -1.
</event>
<event>
 7    1  0.1716782E-015  0.9000771E+02  0.7816164E-02  0.1186339E+00
        -11   -1    0    0    0    0  0.00000000000E+00  0.00000000000E+00  0.45593999997E+02  0.45594000000E+02  0.51100000000E-03 0.  1.
         11   -1    0    0    0    0 -0.00000000000E+00 -0.00000000000E+00 -0.45593999997E+02  0.45594000000E+02  0.51100000000E-03 0. -1.
    9900012    2    1    2    0    0 -0.75791438189E+00  0.89617465351E+00 -0.12462860619E+00  0.90007705329E+02  0.89999966240E+02 0.  0.
        -12    1    1    2    0    0  0.75791438189E+00 -0.89617465351E+00  0.12462860619E+00  0.11802946706E+01  0.00000000000E+00 0.  1.
         11    1    3    3    0    0  0.32937406236E+01 -0.88760213605E+01  0.18249594984E+01  0.96417301311E+01  0.51100000000E-03 0. -1.
        -11    1    3    3    0    0  0.29766839582E+02  0.21342999907E+02  0.16464863412E+02  0.40158188594E+02  0.51100000000E-03 0.  1.
         12    1    3    3    0    0 -0.33818494588E+02 -0.11570803893E+02 -0.18414451517E+02  0.40207786604E+02  0.00000000000E+00 0. -1.
</event>
<event>
 7    1  0.1716782E-015  0.9000774E+02  0.7816164E-02  0.1186339E+00
        -11   -1    0    0    0    0  0.00000000000E+00  0.00000000000E+00  0.45593999997E+02  0.45594000000E+02  0.51100000000E-03 0.  1.
         11   -1    0    0    0    0 -0.00000000000E+00 -0.00000000000E+00 -0.45593999997E+02  0.45594000000E+02  0.51100000000E-03 0. -1.
    9900012    2    1    2    0    0  0.80842115670E+00  0.73160167393E+00  0.45192180232E+00  0.90007737702E+02  0.89999999040E+02 0.  0.
        -12    1    1    2    0    0 -0.80842115670E+00 -0.73160167393E+00 -0.45192180232E+00  0.11802622977E+01  0.00000000000E+00 0.  1.
         11    1    3    3    0    0 -0.77507617264E+01 -0.36855690490E+01  0.23691126970E+01  0.89033938353E+01  0.51100000000E-03 0. -1.
        -11    1    3    3    0    0  0.32071710663E+02 -0.11748840006E+02  0.24646338115E+02  0.42119732301E+02  0.51100000000E-03 0.  1.
         12    1    3    3    0    0 -0.23512527780E+02  0.16166010729E+02 -0.26563529010E+02  0.38984611566E+02  0.00000000000E+00 0. -1.
</event>
<event>
 7    1  0.1716782E-015  0.9000779E+02  0.7816164E-02  0.1186339E+00
        -11   -1    0    0    0    0  0.00000000000E+00  0.00000000000E+00  0.45593999997E+02  0.45594000000E+02  0.51100000000E-03 0.  1.
         11   -1    0    0    0    0 -0.00000000000E+00 -0.00000000000E+00 -0.45593999997E+02  0.45594000000E+02  0.51100000000E-03 0. -1.
    9900012    2    1    2    0    0  0.48665685783E-01 -0.96904705248E+00 -0.67192082292E+00  0.90007788946E+02  0.90000050960E+02 0.  0.
        -12    1    1    2    0    0 -0.48665685783E-01  0.96904705248E+00  0.67192082292E+00  0.11802110536E+01  0.00000000000E+00 0.  1.
         11    1    3    3    0    0 -0.34774566729E+02  0.11403267864E+02  0.19379606213E+02  0.41411038944E+02  0.51100000000E-03 0. -1.
        -11    1    3    3    0    0  0.27087866160E+01 -0.69756418493E+01  0.36442206448E+01  0.83233075463E+01  0.51100000000E-03 0.  1.
        -12    1    3    3    0    0  0.32114445799E+02 -0.53966730676E+01 -0.23695747680E+02  0.40273442456E+02  0.00000000000E+00 0.  1.
</event>
<event>
 7    1  0.1716782E-015  0.9000770E+02  0.7816164E-02  0.1186339E+00
        -11   -1    0    0    0    0  0.00000000000E+00  0.00000000000E+00  0.45593999997E+02  0.45594000000E+02  0.51100000000E-03 0. -1.
         11   -1    0    0    0    0 -0.00000000000E+00 -0.00000000000E+00 -0.45593999997E+02  0.45594000000E+02  0.51100000000E-03 0.  1.
    9900012    2    1    2    0    0 -0.10938618136E+01 -0.43731716512E+00 -0.73002986168E-01  0.90007699442E+02  0.89999960275E+02 0.  0.
        -12    1    1    2    0    0  0.10938618136E+01  0.43731716512E+00  0.73002986168E-01  0.11803005575E+01  0.00000000000E+00 0.  1.
         11    1    3    3    0    0 -0.11322937093E+02  0.16995871625E+01  0.64734401825E+00  0.11468066772E+02  0.51100000000E-03 0. -1.
        -11    1    3    3    0    0 -0.22326082808E+01  0.22159543517E+02 -0.30739197524E+02  0.37959559709E+02  0.51100000000E-03 0.  1.
         12    1    3    3    0    0  0.12461683561E+02 -0.24296447845E+02  0.30018850520E+02  0.40580072962E+02  0.00000000000E+00 0. -1.
</event>
<event>
 7    1  0.1716782E-015  0.9000766E+02  0.7816164E-02  0.1186339E+00
        -11   -1    0    0    0    0  0.00000000000E+00  0.00000000000E+00  0.45593999997E+02  0.45594000000E+02  0.51100000000E-03 0. -1.
         11   -1    0    0    0    0 -0.00000000000E+00 -0.00000000000E+00 -0.45593999997E+02  0.45594000000E+02  0.51100000000E-03 0.  1.
    9900012    2    1    2    0    0  0.38986567162E+00 -0.81539995365E+00  0.75916751473E+00  0.90007657829E+02  0.89999918112E+02 0.  0.
        -12    1    1    2    0    0 -0.38986567162E+00  0.81539995365E+00 -0.75916751473E+00  0.11803421715E+01  0.00000000000E+00 0.  1.
         11    1    3    3    0    0  0.12572477531E+02  0.31672672842E+02  0.12319523916E+02  0.36235287580E+02  0.51100000000E-03 0. -1.
        -11    1    3    3    0    0  0.74749215617E+01  0.10504765654E+01  0.73556773405E+01  0.10539636747E+02  0.51100000000E-03 0.  1.
        -12    1    3    3    0    0 -0.19657533421E+02 -0.33538549361E+02 -0.18916033742E+02  0.43232733501E+02  0.00000000000E+00 0.  1.
</event>
<event>
 7    1  0.1716782E-015  0.9000779E+02  0.7816164E-02  0.1186339E+00
        -11   -1    0    0    0    0  0.00000000000E+00  0.00000000000E+00  0.45593999997E+02  0.45594000000E+02  0.51100000000E-03 0.  1.
         11   -1    0    0    0    0 -0.00000000000E+00 -0.00000000000E+00 -0.45593999997E+02  0.45594000000E+02  0.51100000000E-03 0. -1.
    9900012    2    1    2    0    0 -0.11256486902E+01  0.30756267903E+00 -0.17666656619E+00  0.90007792031E+02  0.90000054085E+02 0.  0.
        -12    1    1    2    0    0  0.11256486902E+01 -0.30756267903E+00  0.17666656619E+00  0.11802079693E+01  0.00000000000E+00 0.  1.
         11    1    3    3    0    0 -0.13791101576E+02 -0.33534534048E+02 -0.24509410492E+02  0.43766090292E+02  0.51100000000E-03 0. -1.
        -11    1    3    3    0    0  0.68300865742E+01  0.39943947822E+01  0.11388021599E+01  0.79938815921E+01  0.51100000000E-03 0.  1.
        -12    1    3    3    0    0  0.58353663115E+01  0.29847701945E+02  0.23193941766E+02  0.38247820147E+02  0.00000000000E+00 0.  1.
</event>
<event>
 7    1  0.1716782E-015  0.9000728E+02  0.7816164E-02  0.1186340E+00
        -11   -1    0    0    0    0  0.00000000000E+00  0.00000000000E+00  0.45593999997E+02  0.45594000000E+02  0.51100000000E-03 0. -1.
         11   -1    0    0    0    0 -0.00000000000E+00 -0.00000000000E+00 -0.45593999997E+02  0.45594000000E+02  0.51100000000E-03 0.  1.
    9900012    2    1    2    0    0 -0.26210498094E+00 -0.10981050408E-01 -0.11512043606E+01  0.90007283656E+02  0.89999538999E+02 0.  0.
        -12    1    1    2    0    0  0.26210498094E+00  0.10981050408E-01  0.11512043606E+01  0.11807163437E+01  0.00000000000E+00 0.  1.
         11    1    3    3    0    0 -0.16301970207E+02 -0.33155584347E+02  0.12905478577E+02  0.39135640835E+02  0.51100000000E-03 0. -1.
        -11    1    3    3    0    0 -0.95967374990E+01  0.73826441812E+01 -0.62256955483E+00  0.12123877220E+02  0.51100000000E-03 0.  1.
        -12    1    3    3    0    0  0.25636602725E+02  0.25761959115E+02 -0.13434113383E+02  0.38747765602E+02  0.00000000000E+00 0.  1.
</event>
<event>
 7    1  0.1716782E-015  0.9000782E+02  0.7816164E-02  0.1186339E+00
        -11   -1    0    0    0    0  0.00000000000E+00  0.00000000000E+00  0.45593999997E+02  0.45594000000E+02  0.51100000000E-03 0. -1.
         11   -1    0    0    0    0 -0.00000000000E+00 -0.00000000000E+00 -0.45593999997E+02  0.45594000000E+02  0.51100000000E-03 0.  1.
    9900012    2    1    2    0    0 -0.27357548337E+00  0.10025502593E+01  0.55936074236E+00  0.90007815689E+02  0.90000078056E+02 0.  0.
        -12    1    1    2    0    0  0.27357548337E+00 -0.10025502593E+01 -0.55936074236E+00  0.11801843109E+01  0.00000000000E+00 0.  1.
         11    1    3    3    0    0 -0.26969917310E+02  0.26318869011E+02 -0.31042535203E+01  0.37811317035E+02  0.51100000000E-03 0. -1.
        -11    1    3    3    0    0  0.69736755276E+00  0.80127771322E+01  0.57305424896E+01  0.98757296622E+01  0.51100000000E-03 0.  1.
        -12    1    3    3    0    0  0.25998974274E+02 -0.33329095884E+02 -0.20669282269E+01  0.42320768992E+02  0.00000000000E+00 0.  1.
</event>
<event>
 7    1  0.1716782E-015  0.9000773E+02  0.7816164E-02  0.1186339E+00
        -11   -1    0    0    0    0  0.00000000000E+00  0.00000000000E+00  0.45593999997E+02  0.45594000000E+02  0.51100000000E-03 0. -1.
         11   -1    0    0    0    0 -0.00000000000E+00 -0.00000000000E+00 -0.45593999997E+02  0.45594000000E+02  0.51100000000E-03 0.  1.
    9900012    2    1    2    0    0 -0.74527018993E+00 -0.77876743833E+00  0.48075900206E+00  0.90007730710E+02  0.89999991955E+02 0.  0.
        -12    1    1    2    0    0  0.74527018993E+00  0.77876743833E+00 -0.48075900206E+00  0.11802692901E+01  0.00000000000E+00 0.  1.
         11    1    3    3    0    0  0.94166197909E+01 -0.56912851615E+01  0.82337677422E+00  0.11033648746E+02  0.51100000000E-03 0. -1.
        -11    1    3    3    0    0 -0.19978716521E+02 -0.31148199751E+02 -0.13443762491E+02  0.39371235842E+02  0.51100000000E-03 0.  1.
         12    1    3    3    0    0  0.98168265399E+01  0.36060717474E+02  0.13101144718E+02  0.39602846122E+02  0.00000000000E+00 0. -1.
</event>
<event>
 7    1  0.1716782E-015  0.9000774E+02  0.7816164E-02  0.1186339E+00
        -11   -1    0    0    0    0  0.00000000000E+00  0.00000000000E+00  0.45593999997E+02  0.45594000000E+02  0.51100000000E-03 0.  1.
         11   -1    0    0    0    0 -0.00000000000E+00 -0.00000000000E+00 -0.45593999997E+02  0.45594000000E+02  0.51100000000E-03 0. -1.
    9900012    2    1    2    0    0 -0.10373628282E+01 -0.45074201603E+00 -0.33724283465E+00  0.90007736160E+02  0.89999997477E+02 0.  0.
        -12    1    1    2    0    0  0.10373628282E+01  0.45074201603E+00  0.33724283465E+00  0.11802638400E+01  0.00000000000E+00 0.  1.
         11    1    3    3    0    0  0.67989034302E+01  0.13268823558E+01  0.88328273273E+01  0.11225174542E+02  0.51100000000E-03 0. -1.
        -11    1    3    3    0    0 -0.37217017627E+01  0.81336600546E+01  0.33556886468E+02  0.34728549056E+02  0.51100000000E-03 0.  1.
         12    1    3    3    0    0 -0.41145644957E+01 -0.99112844265E+01 -0.42726956630E+02  0.44054012562E+02  0.00000000000E+00 0. -1.
</event>
<event>
 7    1  0.1716782E-015  0.9000826E+02  0.7816164E-02  0.1186338E+00
        -11   -1    0    0    0    0  0.00000000000E+00  0.00000000000E+00  0.45593999997E+02  0.45594000000E+02  0.51100000000E-03 0.  1.
         11   -1    0    0    0    0 -0.00000000000E+00 -0.00000000000E+00 -0.45593999997E+02  0.45594000000E+02  0.51100000000E-03 0. -1.
    9900012    2    1    2    0    0 -0.11454101895E+01 -0.26043580130E+00 -0.10949299800E+00  0.90008262730E+02  0.90000530997E+02 0.  0.
        -12    1    1    2    0    0  0.11454101895E+01  0.26043580130E+00  0.10949299800E+00  0.11797372697E+01  0.00000000000E+00 0.  1.
         11    1    3    3    0    0 -0.46196300883E+01 -0.80481380583E+01  0.32080643312E+01  0.98186142287E+01  0.51100000000E-03 0. -1.
        -11    1    3    3    0    0 -0.16728550663E+02 -0.22760547522E+02 -0.24920608296E+02  0.37668602959E+02  0.51100000000E-03 0.  1.
         12    1    3    3    0    0  0.20202770561E+02  0.30548249779E+02  0.21603050967E+02  0.42521045542E+02  0.00000000000E+00 0. -1.
</event>
<event>
 7    1  0.1716782E-015  0.9000751E+02  0.7816164E-02  0.1186340E+00
        -11   -1    0    0    0    0  0.00000000000E+00  0.00000000000E+00  0.45593999997E+02  0.45594000000E+02  0.51100000000E-03 0.  1.
         11   -1    0    0    0    0 -0.00000000000E+00 -0.00000000000E+00 -0.45593999997E+02  0.45594000000E+02  0.51100000000E-03 0. -1.
    9900012    2    1    2    0    0  0.70860718662E+00 -0.93990095867E+00  0.89571593782E-01  0.90007508142E+02  0.89999766449E+02 0.  0.
        -12    1    1    2    0    0 -0.70860718662E+00  0.93990095867E+00 -0.89571593782E-01  0.11804918583E+01  0.00000000000E+00 0.  1.
         11    1    3    3    0    0  0.20247273902E+01 -0.97549539681E+01  0.43952099201E+01  0.10889284569E+02  0.51100000000E-03 0. -1.
        -11    1    3    3    0    0  0.12496090366E+02 -0.29328181765E+02  0.13745340083E+02  0.34716406702E+02  0.51100000000E-03 0.  1.
         12    1    3    3    0    0 -0.13812210569E+02  0.38143234774E+02 -0.18050978409E+02  0.44401816870E+02  0.00000000000E+00 0. -1.
</event>
<event>
 7    1  0.1716782E-015  0.9000777E+02  0.7816164E-02  0.1186339E+00
        -11   -1    0    0    0    0  0.00000000000E+00  0.00000000000E+00  0.45593999997E+02  0.45594000000E+02  0.51100000000E-03 0.  1.
         11   -1    0    0    0    0 -0.00000000000E+00 -0.00000000000E+00 -0.45593999997E+02  0.45594000000E+02  0.51100000000E-03 0. -1.
    9900012    2    1    2    0    0  0.18328644474E+00 -0.11333639780E+01  0.27357149934E+00  0.90007767314E+02  0.90000029043E+02 0.  0.
        -12    1    1    2    0    0 -0.18328644474E+00  0.11333639780E+01 -0.27357149934E+00  0.11802326858E+01  0.00000000000E+00 0.  1.
         11    1    3    3    0    0  0.40549267650E+02  0.87992251598E+01  0.52268202867E+01  0.41820917266E+02  0.51100000000E-03 0. -1.
        -11    1    3    3    0    0 -0.37581631196E+01 -0.25589670067E+00  0.74448900996E+01  0.83436000630E+01  0.51100000000E-03 0.  1.
        -12    1    3    3    0    0 -0.36607818086E+02 -0.96766924371E+01 -0.12398138887E+02  0.39843249985E+02  0.00000000000E+00 0.  1.
</event>
<event>
 7    1  0.1716782E-015  0.9000810E+02  0.7816164E-02  0.1186338E+00
        -11   -1    0    0    0    0  0.00000000000E+00  0.00000000000E+00  0.45593999997E+02  0.45594000000E+02  0.51100000000E-03 0. -1.
         11   -1    0    0    0    0 -0.00000000000E+00 -0.00000000000E+00 -0.45593999997E+02  0.45594000000E+02  0.51100000000E-03 0.  1.
    9900012    2    1    2    0    0  0.10031420936E+01 -0.39508539248E+00  0.47934460614E+00  0.90008102641E+02  0.90000368795E+02 0.  0.
        -12    1    1    2    0    0 -0.10031420936E+01  0.39508539248E+00 -0.47934460614E+00  0.11798973594E+01  0.00000000000E+00 0.  1.
         11    1    3    3    0    0 -0.57159103876E+01  0.30045740939E+02 -0.24191637156E+02  0.38995557295E+02  0.51100000000E-03 0. -1.
        -11    1    3    3    0    0 -0.44690698787E+01  0.34184726347E+01 -0.25234495252E+01  0.61665499675E+01  0.51100000000E-03 0.  1.
        -12    1    3    3    0    0  0.11188122360E+02 -0.33859298967E+02  0.27194431287E+02  0.44845995379E+02  0.00000000000E+00 0.  1.
</event>
<event>
 7    1  0.1716782E-015  0.9000773E+02  0.7816164E-02  0.1186339E+00
        -11   -1    0    0    0    0  0.00000000000E+00  0.00000000000E+00  0.45593999997E+02  0.45594000000E+02  0.51100000000E-03 0.  1.
         11   -1    0    0    0    0 -0.00000000000E+00 -0.00000000000E+00 -0.45593999997E+02  0.45594000000E+02  0.51100000000E-03 0. -1.
    9900012    2    1    2    0    0  0.79392050135E-01 -0.89484296361E+00 -0.76549779725E+00  0.90007731427E+02  0.89999992682E+02 0.  0.
        -12    1    1    2    0    0 -0.79392050135E-01  0.89484296361E+00  0.76549779725E+00  0.11802685731E+01  0.00000000000E+00 0.  1.
         11    1    3    3    0    0  0.23169662239E+02 -0.29590608916E+02 -0.35781725871E+01  0.37752360239E+02  0.51100000000E-03 0. -1.
        -11    1    3    3    0    0  0.62587023919E+01 -0.41934400477E+01 -0.23067165349E+01  0.78789108700E+01  0.51100000000E-03 0.  1.
        -12    1    3    3    0    0 -0.29348972581E+02  0.32889206000E+02  0.51193913247E+01  0.44376460318E+02  0.00000000000E+00 0.  1.
</event>
<event>
 7    1  0.1716782E-015  0.9000790E+02  0.7816164E-02  0.1186339E+00
        -11   -1    0    0    0    0  0.00000000000E+00  0.00000000000E+00  0.45593999997E+02  0.45594000000E+02  0.51100000000E-03 0.  1.
         11   -1    0    0    0    0 -0.00000000000E+00 -0.00000000000E+00 -0.45593999997E+02  0.45594000000E+02  0.51100000000E-03 0. -1.
    9900012    2    1    2    0    0  0.92567700666E-01  0.11266279820E+01 -0.33878311720E+00  0.90007901110E+02  0.90000164605E+02 0.  0.
        -12    1    1    2    0    0 -0.92567700666E-01 -0.11266279820E+01  0.33878311720E+00  0.11800988898E+01  0.00000000000E+00 0.  1.
         11    1    3    3    0    0 -0.57984575557E+01  0.28970303234E+01  0.71600651026E+01  0.96582310624E+01  0.51100000000E-03 0. -1.
        -11    1    3    3    0    0 -0.16099836659E+02 -0.49036078109E+01  0.31359604629E+02  0.35590376688E+02  0.51100000000E-03 0.  1.
         12    1    3    3    0    0  0.21990861916E+02  0.31332054696E+01 -0.38858452849E+02  0.44759293360E+02  0.00000000000E+00 0. -1.
</event>
<event>
 7    1  0.1716782E-015  0.9000779E+02  0.7816164E-02  0.1186339E+00
        -11   -1    0    0    0    0  0.00000000000E+00  0.00000000000E+00  0.45593999997E+02  0.45594000000E+02  0.51100000000E-03 0.  1.
         11   -1    0    0    0    0 -0.00000000000E+00 -0.00000000000E+00 -0.45593999997E+02  0.45594000000E+02  0.51100000000E-03 0. -1.
    9900012    2    1    2    0    0  0.44050002977E-01 -0.97363932972E+00 -0.66557139308E+00  0.90007788482E+02  0.90000050490E+02 0.  0.
        -12    1    1    2    0    0 -0.44050002977E-01  0.97363932972E+00  0.66557139308E+00  0.11802115177E+01  0.00000000000E+00 0.  1.
         11    1    3    3    0    0  0.33097319535E+01  0.29207616697E+02 -0.20449663090E+02  0.35808210224E+02  0.51100000000E-03 0. -1.
        -11    1    3    3    0    0  0.15384154876E+01  0.91830975507E+01 -0.11074972706E+01  0.93767026882E+01  0.51100000000E-03 0.  1.
        -12    1    3    3    0    0 -0.48040974381E+01 -0.39364353578E+02  0.20891588967E+02  0.44822875570E+02  0.00000000000E+00 0.  1.
</event>
<event>
 7    1  0.1853919E-015  0.9000781E+02  0.7816164E-02  0.1186339E+00
        -11   -1    0    0    0    0  0.00000000000E+00  0.00000000000E+00  0.45593999997E+02  0.45594000000E+02  0.51100000000E-03 0.  1.
         11   -1    0    0    0    0 -0.00000000000E+00 -0.00000000000E+00 -0.45593999997E+02  0.45594000000E+02  0.51100000000E-03 0. -1.
    9900012    2    1    2    0    0  0.40891853844E+00  0.70611499046E+00 -0.85266715090E+00  0.90007807634E+02  0.90000069895E+02 0.  0.
        -12    1    1    2    0    0 -0.40891853844E+00 -0.70611499046E+00  0.85266715090E+00  0.11801923661E+01  0.00000000000E+00 0.  1.
         11    1    3    3    0    0 -0.22353926974E+02 -0.17752772878E+02 -0.24575179606E+02  0.37666941062E+02  0.51100000000E-03 0. -1.
        -11    1    3    3    0    0  0.14999517599E+01 -0.87313888359E+01 -0.22537530634E+01  0.91414664807E+01  0.51100000000E-03 0.  1.
        -12    1    3    3    0    0  0.21262893753E+02  0.27190276704E+02  0.25976265519E+02  0.43199400092E+02  0.00000000000E+00 0.  1.
</event>
<event>
 7    1  0.1716782E-015  0.9000825E+02  0.7816164E-02  0.1186338E+00
        -11   -1    0    0    0    0  0.00000000000E+00  0.00000000000E+00  0.45593999997E+02  0.45594000000E+02  0.51100000000E-03 0.  1.
         11   -1    0    0    0    0 -0.00000000000E+00 -0.00000000000E+00 -0.45593999997E+02  0.45594000000E+02  0.51100000000E-03 0. -1.
    9900012    2    1    2    0    0 -0.76867818630E+00  0.88461610827E+00 -0.13565941371E+00  0.90008247785E+02  0.90000515854E+02 0.  0.
        -12    1    1    2    0    0  0.76867818630E+00 -0.88461610827E+00  0.13565941371E+00  0.11797522154E+01  0.00000000000E+00 0.  1.
         11    1    3    3    0    0  0.47038613892E+01 -0.29642768710E+02  0.17924291970E+02  0.34958551052E+02  0.51100000000E-03 0. -1.
        -11    1    3    3    0    0  0.50287384435E+01 -0.80148580481E+01  0.29543416381E+01  0.99123304343E+01  0.51100000000E-03 0.  1.
        -12    1    3    3    0    0 -0.10501278019E+02  0.38542242866E+02 -0.21014293021E+02  0.45137366299E+02  0.00000000000E+00 0.  1.
</event>
<event>
 7    1  0.1716782E-015  0.9000770E+02  0.7816164E-02  0.1186339E+00
        -11   -1    0    0    0    0  0.00000000000E+00  0.00000000000E+00  0.45593999997E+02  0.45594000000E+02  0.51100000000E-03 0.  1.
         11   -1    0    0    0    0 -0.00000000000E+00 -0.00000000000E+00 -0.45593999997E+02  0.45594000000E+02  0.51100000000E-03 0. -1.
    9900012    2    1    2    0    0 -0.31770476706E+00 -0.78376140296E+00  0.82334334372E+00  0.90007698124E+02  0.89999958940E+02 0.  0.
        -12    1    1    2    0    0  0.31770476706E+00  0.78376140296E+00 -0.82334334372E+00  0.11803018756E+01  0.00000000000E+00 0.  1.
         11    1    3    3    0    0 -0.29423896508E+02 -0.20742460902E+02  0.51015262084E+00  0.36003827934E+02  0.51100000000E-03 0. -1.
        -11    1    3    3    0    0 -0.79016189405E+01 -0.48675322066E+01 -0.15117259099E+01  0.94028595199E+01  0.51100000000E-03 0.  1.
        -12    1    3    3    0    0  0.37007810681E+02  0.24826231705E+02  0.18249166328E+01  0.44601010670E+02  0.00000000000E+00 0.  1.
</event>
<event>
 7    1  0.1716782E-015  0.9000776E+02  0.7816164E-02  0.1186339E+00
        -11   -1    0    0    0    0  0.00000000000E+00  0.00000000000E+00  0.45593999997E+02  0.45594000000E+02  0.51100000000E-03 0. -1.
         11   -1    0    0    0    0 -0.00000000000E+00 -0.00000000000E+00 -0.45593999997E+02  0.45594000000E+02  0.51100000000E-03 0.  1.
    9900012    2    1    2    0    0 -0.27711746124E+00  0.30448238013E-01  0.11468463718E+01  0.90007755202E+02  0.90000016771E+02 0.  0.
        -12    1    1    2    0    0  0.27711746124E+00 -0.30448238013E-01 -0.11468463718E+01  0.11802447979E+01  0.00000000000E+00 0.  1.
         11    1    3    3    0    0 -0.77211005052E+01 -0.41425144015E+01 -0.49253247300E+01  0.10051599004E+02  0.51100000000E-03 0. -1.
        -11    1    3    3    0    0  0.34736345084E+02  0.68814798418E+01 -0.21204825353E+02  0.41274847705E+02  0.51100000000E-03 0.  1.
         12    1    3    3    0    0 -0.27292362040E+02 -0.27085172023E+01  0.27276996455E+02  0.38681308493E+02  0.00000000000E+00 0. -1.
</event>
<event>
 7    1  0.1716782E-015  0.9000774E+02  0.7816164E-02  0.1186339E+00
        -11   -1    0    0    0    0  0.00000000000E+00  0.00000000000E+00  0.45593999997E+02  0.45594000000E+02  0.51100000000E-03 0.  1.
         11   -1    0    0    0    0 -0.00000000000E+00 -0.00000000000E+00 -0.45593999997E+02  0.45594000000E+02  0.51100000000E-03 0. -1.
    9900012    2    1    2    0    0  0.10166932065E+01 -0.10749972538E+00  0.58974718323E+00  0.90007736043E+02  0.89999997359E+02 0.  0.
        -12    1    1    2    0    0 -0.10166932065E+01  0.10749972538E+00 -0.58974718323E+00  0.11802639566E+01  0.00000000000E+00 0.  1.
         11    1    3    3    0    0  0.28969895361E+02  0.23550313331E+02 -0.13786502278E+02  0.39798740439E+02  0.51100000000E-03 0. -1.
        -11    1    3    3    0    0 -0.25061590040E+01  0.61486766973E+01  0.81719458148E+01  0.10529375895E+02  0.51100000000E-03 0.  1.
        -12    1    3    3    0    0 -0.25447043151E+02 -0.29806489754E+02  0.62043036463E+01  0.39679619709E+02  0.00000000000E+00 0.  1.
</event>
<event>
 7    1  0.1716782E-015  0.9000769E+02  0.7816164E-02  0.1186339E+00
        -11   -1    0    0    0    0  0.00000000000E+00  0.00000000000E+00  0.45593999997E+02  0.45594000000E+02  0.51100000000E-03 0. -1.
         11   -1    0    0    0    0 -0.00000000000E+00 -0.00000000000E+00 -0.45593999997E+02  0.45594000000E+02  0.51100000000E-03 0.  1.
    9900012    2    1    2    0    0  0.45113624386E+00 -0.89955150239E+00 -0.61677141535E+00  0.90007693347E+02  0.89999954099E+02 0.  0.
        -12    1    1    2    0    0 -0.45113624386E+00  0.89955150239E+00  0.61677141535E+00  0.11803066529E+01  0.00000000000E+00 0.  1.
         11    1    3    3    0    0  0.24569218515E+02  0.65238761673E+01  0.20914219125E+02  0.32918262720E+02  0.51100000000E-03 0. -1.
        -11    1    3    3    0    0  0.30031197314E+01  0.14997248255E+02  0.96340096689E+00  0.15325283848E+02  0.51100000000E-03 0.  1.
        -12    1    3    3    0    0 -0.27121202002E+02 -0.22420675924E+02 -0.22494391507E+02  0.41764146779E+02  0.00000000000E+00 0.  1.
</event>
<event>
 7    1  0.1716782E-015  0.9000776E+02  0.7816164E-02  0.1186339E+00
        -11   -1    0    0    0    0  0.00000000000E+00  0.00000000000E+00  0.45593999997E+02  0.45594000000E+02  0.51100000000E-03 0. -1.
         11   -1    0    0    0    0 -0.00000000000E+00 -0.00000000000E+00 -0.45593999997E+02  0.45594000000E+02  0.51100000000E-03 0.  1.
    9900012    2    1    2    0    0 -0.78912672786E+00  0.66732425901E+00 -0.57001667317E+00  0.90007762030E+02  0.90000023688E+02 0.  0.
        -12    1    1    2    0    0  0.78912672786E+00 -0.66732425901E+00  0.57001667317E+00  0.11802379705E+01  0.00000000000E+00 0.  1.
         11    1    3    3    0    0 -0.88544134466E+01 -0.20111688270E+01  0.24714260248E+01  0.94102807818E+01  0.51100000000E-03 0. -1.
        -11    1    3    3    0    0 -0.33177476198E+01  0.28875385476E+02  0.26624113842E+02  0.39416224753E+02  0.51100000000E-03 0.  1.
         12    1    3    3    0    0  0.11383034339E+02 -0.26196892390E+02 -0.29665556540E+02  0.41181256495E+02  0.00000000000E+00 0. -1.
</event>
<event>
 7    1  0.1716782E-015  0.9000780E+02  0.7816164E-02  0.1186339E+00
        -11   -1    0    0    0    0  0.00000000000E+00  0.00000000000E+00  0.45593999997E+02  0.45594000000E+02  0.51100000000E-03 0.  1.
         11   -1    0    0    0    0 -0.00000000000E+00 -0.00000000000E+00 -0.45593999997E+02  0.45594000000E+02  0.51100000000E-03 0. -1.
    9900012    2    1    2    0    0 -0.33083303185E+00 -0.37853506191E+00 -0.10677654066E+01  0.90007804147E+02  0.90000066362E+02 0.  0.
        -12    1    1    2    0    0  0.33083303185E+00  0.37853506191E+00  0.10677654066E+01  0.11801958531E+01  0.00000000000E+00 0.  1.
         11    1    3    3    0    0 -0.53309145865E+01 -0.69654483632E+01  0.16562079340E+01  0.89263176176E+01  0.51100000000E-03 0. -1.
        -11    1    3    3    0    0  0.13469585792E+02  0.10219402689E+02  0.36799538373E+02  0.40497801884E+02  0.51100000000E-03 0.  1.
         12    1    3    3    0    0 -0.84695042376E+01 -0.36324893879E+01 -0.39523511714E+02  0.40583684645E+02  0.00000000000E+00 0. -1.
</event>
<event>
 7    1  0.1716782E-015  0.9000778E+02  0.7816164E-02  0.1186339E+00
        -11   -1    0    0    0    0  0.00000000000E+00  0.00000000000E+00  0.45593999997E+02  0.45594000000E+02  0.51100000000E-03 0. -1.
         11   -1    0    0    0    0 -0.00000000000E+00 -0.00000000000E+00 -0.45593999997E+02  0.45594000000E+02  0.51100000000E-03 0.  1.
    9900012    2    1    2    0    0  0.47237829411E+00  0.14217699914E+00  0.10721756855E+01  0.90007781269E+02  0.90000043182E+02 0.  0.
        -12    1    1    2    0    0 -0.47237829411E+00 -0.14217699914E+00 -0.10721756855E+01  0.11802187308E+01  0.00000000000E+00 0.  1.
         11    1    3    3    0    0 -0.34355163270E+01  0.44795403816E+01  0.77276899525E+01  0.95700703616E+01  0.51100000000E-03 0. -1.
        -11    1    3    3    0    0 -0.21675458980E+01 -0.38432069227E+02  0.12984988286E+02  0.40624279949E+02  0.51100000000E-03 0.  1.
         12    1    3    3    0    0  0.60754405191E+01  0.34094705845E+02 -0.19640502553E+02  0.39813430959E+02  0.00000000000E+00 0. -1.
</event>
<event>
 7    1  0.1716782E-015  0.9000755E+02  0.7816164E-02  0.1186339E+00
        -11   -1    0    0    0    0  0.00000000000E+00  0.00000000000E+00  0.45593999997E+02  0.45594000000E+02  0.51100000000E-03 0.  1.
         11   -1    0    0    0    0 -0.00000000000E+00 -0.00000000000E+00 -0.45593999997E+02  0.45594000000E+02  0.51100000000E-03 0. -1.
    9900012    2    1    2    0    0  0.42468154159E+00 -0.10964258326E+01 -0.10468942209E+00  0.90007549284E+02  0.89999808134E+02 0.  0.
        -12    1    1    2    0    0 -0.42468154159E+00  0.10964258326E+01  0.10468942209E+00  0.11804507161E+01  0.00000000000E+00 0.  1.
         11    1    3    3    0    0  0.54963312947E+01  0.17628729481E+02 -0.29605118686E+02  0.34891901833E+02  0.51100000000E-03 0. -1.
        -11    1    3    3    0    0 -0.14312379113E+02 -0.48866658574E+00 -0.48686694416E+01  0.15125704390E+02  0.51100000000E-03 0.  1.
        -12    1    3    3    0    0  0.92407293596E+01 -0.18236488728E+02  0.34369098706E+02  0.39989943061E+02  0.00000000000E+00 0.  1.
</event>
<event>
 7    1  0.1716782E-015  0.9000787E+02  0.7816164E-02  0.1186339E+00
        -11   -1    0    0    0    0  0.00000000000E+00  0.00000000000E+00  0.45593999997E+02  0.45594000000E+02  0.51100000000E-03 0. -1.
         11   -1    0    0    0    0 -0.00000000000E+00 -0.00000000000E+00 -0.45593999997E+02  0.45594000000E+02  0.51100000000E-03 0.  1.
    9900012    2    1    2    0    0  0.60907124292E+00 -0.55673392713E+00  0.84367045067E+00  0.90007872772E+02  0.90000135893E+02 0.  0.
        -12    1    1    2    0    0 -0.60907124292E+00  0.55673392713E+00 -0.84367045067E+00  0.11801272278E+01  0.00000000000E+00 0.  1.
         11    1    3    3    0    0 -0.96246710983E+01 -0.15503391475E+02 -0.30364194550E+02  0.35425608702E+02  0.51100000000E-03 0. -1.
        -11    1    3    3    0    0 -0.67213792238E+01 -0.11525136543E+02  0.90376629337E+01  0.16114746743E+02  0.51100000000E-03 0.  1.
        -12    1    3    3    0    0  0.16955121565E+02  0.26471794091E+02  0.22170202067E+02  0.38467517328E+02  0.00000000000E+00 0.  1.
</event>
<event>
 7    1  0.1716782E-015  0.9000772E+02  0.7816164E-02  0.1186339E+00
        -11   -1    0    0    0    0  0.00000000000E+00  0.00000000000E+00  0.45593999997E+02  0.45594000000E+02  0.51100000000E-03 0. -1.
         11   -1    0    0    0    0 -0.00000000000E+00 -0.00000000000E+00 -0.45593999997E+02  0.45594000000E+02  0.51100000000E-03 0.  1.
    9900012    2    1    2    0    0  0.12841175306E+00 -0.63146620962E+00 -0.98884581509E+00  0.90007722406E+02  0.89999983542E+02 0.  0.
        -12    1    1    2    0    0 -0.12841175306E+00  0.63146620962E+00  0.98884581509E+00  0.11802775937E+01  0.00000000000E+00 0.  1.
         11    1    3    3    0    0 -0.52748160670E+01  0.76855190705E+01 -0.48647798079E+01  0.10514607494E+02  0.51100000000E-03 0. -1.
        -11    1    3    3    0    0  0.41211639382E+02 -0.94856863597E+01 -0.49965675102E+01  0.42583367098E+02  0.51100000000E-03 0.  1.
         12    1    3    3    0    0 -0.35808411562E+02  0.11687010796E+01  0.88725015030E+01  0.36909747814E+02  0.00000000000E+00 0. -1.
</event>
<event>
 7    1  0.1716782E-015  0.9000776E+02  0.7816164E-02  0.1186339E+00
        -11   -1    0    0    0    0  0.00000000000E+00  0.00000000000E+00  0.45593999997E+02  0.45594000000E+02  0.51100000000E-03 0.  1.
         11   -1    0    0    0    0 -0.00000000000E+00 -0.00000000000E+00 -0.45593999997E+02  0.45594000000E+02  0.51100000000E-03 0. -1.
    9900012    2    1    2    0    0  0.24440467176E+00 -0.11346006879E+01  0.21429278804E+00  0.90007756905E+02  0.90000018496E+02 0.  0.
        -12    1    1    2    0    0 -0.24440467176E+00  0.11346006879E+01 -0.21429278804E+00  0.11802430951E+01  0.00000000000E+00 0.  1.
         11    1    3    3    0    0  0.96575269033E+01 -0.34251280133E+02  0.11793124494E+02  0.37489942681E+02  0.51100000000E-03 0. -1.
        -11    1    3    3    0    0 -0.73155284588E+00  0.87373032348E+00  0.11736773302E+02  0.11791964300E+02  0.51100000000E-03 0.  1.
        -12    1    3    3    0    0 -0.86815693857E+01  0.32242949122E+02 -0.23315605009E+02  0.40725849923E+02  0.00000000000E+00 0.  1.
</event>
<event>
 7    1  0.1716782E-015  0.9000774E+02  0.7816164E-02  0.1186339E+00
        -11   -1    0    0    0    0  0.00000000000E+00  0.00000000000E+00  0.45593999997E+02  0.45594000000E+02  0.51100000000E-03 0.  1.
         11   -1    0    0    0    0 -0.00000000000E+00 -0.00000000000E+00 -0.45593999997E+02  0.45594000000E+02  0.51100000000E-03 0. -1.
    9900012    2    1    2    0    0  0.69001164504E+00 -0.22884127537E+00 -0.92979891171E+00  0.90007741378E+02  0.90000002764E+02 0.  0.
        -12    1    1    2    0    0 -0.69001164504E+00  0.22884127537E+00  0.92979891171E+00  0.11802586224E+01  0.00000000000E+00 0.  1.
         11    1    3    3    0    0 -0.31188743825E+02  0.22445078418E+02  0.77487361324E+01  0.39199007621E+02  0.51100000000E-03 0. -1.
        -11    1    3    3    0    0 -0.51385312182E+01 -0.62171768239E+01  0.30678558820E+01  0.86295730319E+01  0.51100000000E-03 0.  1.
        -12    1    3    3    0    0  0.37017286688E+02 -0.16456742869E+02 -0.11746390926E+02  0.42179160724E+02  0.00000000000E+00 0.  1.
</event>
<event>
 7    1  0.1716782E-015  0.9000773E+02  0.7816164E-02  0.1186339E+00
        -11   -1    0    0    0    0  0.00000000000E+00  0.00000000000E+00  0.45593999997E+02  0.45594000000E+02  0.51100000000E-03 0.  1.
         11   -1    0    0    0    0 -0.00000000000E+00 -0.00000000000E+00 -0.45593999997E+02  0.45594000000E+02  0.51100000000E-03 0. -1.
    9900012    2    1    2    0    0 -0.68484488844E+00 -0.15628298760E-02 -0.96126158270E+00  0.90007729356E+02  0.89999990583E+02 0.  0.
        -12    1    1    2    0    0  0.68484488844E+00  0.15628298760E-02  0.96126158270E+00  0.11802706444E+01  0.00000000000E+00 0.  1.
         11    1    3    3    0    0  0.63453470582E+01  0.38648605826E+02 -0.15008760886E+02  0.41943307752E+02  0.51100000000E-03 0. -1.
        -11    1    3    3    0    0  0.46102173764E+00  0.10647372459E+01  0.69309541900E+01  0.70273987143E+01  0.51100000000E-03 0.  1.
        -12    1    3    3    0    0 -0.74912136842E+01 -0.39714905902E+02  0.71165451129E+01  0.41037022889E+02  0.00000000000E+00 0.  1.
</event>
<event>
 7    1  0.1716782E-015  0.9000780E+02  0.7816164E-02  0.1186339E+00
        -11   -1    0    0    0    0  0.00000000000E+00  0.00000000000E+00  0.45593999997E+02  0.45594000000E+02  0.51100000000E-03 0.  1.
         11   -1    0    0    0    0 -0.00000000000E+00 -0.00000000000E+00 -0.45593999997E+02  0.45594000000E+02  0.51100000000E-03 0. -1.
    9900012    2    1    2    0    0  0.77956617805E+00  0.85875927432E+00 -0.21837169964E+00  0.90007797849E+02  0.90000059981E+02 0.  0.
        -12    1    1    2    0    0 -0.77956617805E+00 -0.85875927432E+00  0.21837169964E+00  0.11802021506E+01  0.00000000000E+00 0.  1.
         11    1    3    3    0    0  0.30331233238E+02 -0.89439999945E+01  0.29734023949E+02  0.43406117381E+02  0.51100000000E-03 0. -1.
        -11    1    3    3    0    0 -0.13411347906E+02  0.94053767243E+01 -0.54600277014E+01  0.17266651868E+02  0.51100000000E-03 0.  1.
        -12    1    3    3    0    0 -0.16140319154E+02  0.39738254452E+00 -0.24492367947E+02  0.29335028600E+02  0.00000000000E+00 0.  1.
</event>
<event>
 7    1  0.1716782E-015  0.9000776E+02  0.7816164E-02  0.1186339E+00
        -11   -1    0    0    0    0  0.00000000000E+00  0.00000000000E+00  0.45593999997E+02  0.45594000000E+02  0.51100000000E-03 0. -1.
         11   -1    0    0    0    0 -0.00000000000E+00 -0.00000000000E+00 -0.45593999997E+02  0.45594000000E+02  0.51100000000E-03 0.  1.
    9900012    2    1    2    0    0 -0.51351693706E+00 -0.85171750646E+00  0.63549112228E+00  0.90007757939E+02  0.90000019544E+02 0.  0.
        -12    1    1    2    0    0  0.51351693706E+00  0.85171750646E+00 -0.63549112228E+00  0.11802420608E+01  0.00000000000E+00 0.  1.
         11    1    3    3    0    0  0.75191580528E+01 -0.10762815476E+02 -0.24985863133E+01  0.13364837022E+02  0.51100000000E-03 0. -1.
        -11    1    3    3    0    0  0.43926635755E+01 -0.29178675798E+02  0.16114498045E+02  0.33620940827E+02  0.51100000000E-03 0.  1.
         12    1    3    3    0    0 -0.12425338565E+02  0.39089773768E+02 -0.12980420609E+02  0.43021980090E+02  0.00000000000E+00 0. -1.
</event>
<event>
 7    1  0.1716782E-015  0.9000779E+02  0.7816164E-02  0.1186339E+00
        -11   -1    0    0    0    0  0.00000000000E+00  0.00000000000E+00  0.45593999997E+02  0.45594000000E+02  0.51100000000E-03 0.  1.
         11   -1    0    0    0    0 -0.00000000000E+00 -0.00000000000E+00 -0.45593999997E+02  0.45594000000E+02  0.51100000000E-03 0. -1.
    9900012    2    1    2    0    0  0.13235111391E-01  0.49579503647E+00 -0.10709396440E+01  0.90007788321E+02  0.90000050327E+02 0.  0.
        -12    1    1    2    0    0 -0.13235111391E-01 -0.49579503647E+00  0.10709396440E+01  0.11802116791E+01  0.00000000000E+00 0.  1.
         11    1    3    3    0    0  0.30657577926E+02 -0.11464002447E+02 -0.24759239050E+02  0.41040593989E+02  0.51100000000E-03 0. -1.
        -11    1    3    3    0    0 -0.91992746979E+01 -0.11712569142E+01 -0.52287397591E+01  0.10646042338E+02  0.51100000000E-03 0.  1.
        -12    1    3    3    0    0 -0.21445068116E+02  0.13131054398E+02  0.28917039165E+02  0.38321151994E+02  0.00000000000E+00 0.  1.
</event>
<event>
 7    1  0.1716782E-015  0.9000772E+02  0.7816164E-02  0.1186339E+00
        -11   -1    0    0    0    0  0.00000000000E+00  0.00000000000E+00  0.45593999997E+02  0.45594000000E+02  0.51100000000E-03 0. -1.
         11   -1    0    0    0    0 -0.00000000000E+00 -0.00000000000E+00 -0.45593999997E+02  0.45594000000E+02  0.51100000000E-03 0.  1.
    9900012    2    1    2    0    0 -0.12664465233E+00 -0.53451110770E+00  0.10446597034E+01  0.90007722538E+02  0.89999983675E+02 0.  0.
        -12    1    1    2    0    0  0.12664465233E+00  0.53451110770E+00 -0.10446597034E+01  0.11802774623E+01  0.00000000000E+00 0.  1.
         11    1    3    3    0    0 -0.39079481299E+02 -0.29888981835E+01 -0.28411210082E+01  0.39296454545E+02  0.51100000000E-03 0. -1.
        -11    1    3    3    0    0 -0.11209446565E+01 -0.72022351351E+01 -0.46094396343E+01  0.86241313689E+01  0.51100000000E-03 0.  1.
        -12    1    3    3    0    0  0.40073781303E+02  0.96566222109E+01  0.84952203459E+01  0.42087136624E+02  0.00000000000E+00 0.  1.
</event>
<event>
 7    1  0.1716782E-015  0.9000777E+02  0.7816164E-02  0.1186339E+00
        -11   -1    0    0    0    0  0.00000000000E+00  0.00000000000E+00  0.45593999997E+02  0.45594000000E+02  0.51100000000E-03 0. -1.
         11   -1    0    0    0    0 -0.00000000000E+00 -0.00000000000E+00 -0.45593999997E+02  0.45594000000E+02  0.51100000000E-03 0.  1.
    9900012    2    1    2    0    0 -0.10060624525E+01  0.72117524444E-01  0.61284469343E+00  0.90007770694E+02  0.90000032468E+02 0.  0.
        -12    1    1    2    0    0  0.10060624525E+01 -0.72117524444E-01 -0.61284469343E+00  0.11802293056E+01  0.00000000000E+00 0.  1.
         11    1    3    3    0    0  0.32310099861E+01 -0.35182745282E+02 -0.11577514000E+02  0.37179346710E+02  0.51100000000E-03 0. -1.
        -11    1    3    3    0    0  0.76236190401E+01 -0.31334919368E+01 -0.44184480418E+01  0.93520597916E+01  0.51100000000E-03 0.  1.
        -12    1    3    3    0    0 -0.11860691479E+02  0.38388354743E+02  0.16608806736E+02  0.43476364193E+02  0.00000000000E+00 0.  1.
</event>
<event>
 7    1  0.1716782E-015  0.9000783E+02  0.7816164E-02  0.1186339E+00
        -11   -1    0    0    0    0  0.00000000000E+00  0.00000000000E+00  0.45593999997E+02  0.45594000000E+02  0.51100000000E-03 0. -1.
         11   -1    0    0    0    0 -0.00000000000E+00 -0.00000000000E+00 -0.45593999997E+02  0.45594000000E+02  0.51100000000E-03 0.  1.
    9900012    2    1    2    0    0 -0.11627220803E+01 -0.48040631388E-01 -0.19639994473E+00  0.90007829048E+02  0.90000091591E+02 0.  0.
        -12    1    1    2    0    0  0.11627220803E+01  0.48040631388E-01  0.19639994473E+00  0.11801709522E+01  0.00000000000E+00 0.  1.
         11    1    3    3    0    0 -0.71829449312E+01 -0.25773605904E+01 -0.91179924279E+01  0.11890133375E+02  0.51100000000E-03 0. -1.
        -11    1    3    3    0    0 -0.24325103017E+02  0.15153630581E+02 -0.19502122281E+02  0.34665197681E+02  0.51100000000E-03 0.  1.
         12    1    3    3    0    0  0.30345325868E+02 -0.12624310622E+02  0.28423714764E+02  0.43452497991E+02  0.00000000000E+00 0. -1.
</event>
<event>
 7    1  0.1716782E-015  0.9000770E+02  0.7816164E-02  0.1186339E+00
        -11   -1    0    0    0    0  0.00000000000E+00  0.00000000000E+00  0.45593999997E+02  0.45594000000E+02  0.51100000000E-03 0. -1.
         11   -1    0    0    0    0 -0.00000000000E+00 -0.00000000000E+00 -0.45593999997E+02  0.45594000000E+02  0.51100000000E-03 0.  1.
    9900012    2    1    2    0    0  0.52951574709E+00  0.79420594597E-01  0.10518572627E+01  0.90007704165E+02  0.89999965060E+02 0.  0.
        -12    1    1    2    0    0 -0.52951574709E+00 -0.79420594597E-01 -0.10518572627E+01  0.11802958351E+01  0.00000000000E+00 0.  1.
         11    1    3    3    0    0 -0.13735568485E+02 -0.16159293266E+02 -0.13044274200E-01  0.21208224133E+02  0.51100000000E-03 0. -1.
        -11    1    3    3    0    0  0.29650022953E+02 -0.14524639312E+02 -0.63294402144E+01  0.33617715895E+02  0.51100000000E-03 0.  1.
         12    1    3    3    0    0 -0.15384938721E+02  0.30763353172E+02  0.73943417513E+01  0.35181764137E+02  0.00000000000E+00 0. -1.
</event>
<event>
 7    1  0.1716782E-015  0.9000774E+02  0.7816164E-02  0.1186339E+00
        -11   -1    0    0    0    0  0.00000000000E+00  0.00000000000E+00  0.45593999997E+02  0.45594000000E+02  0.51100000000E-03 0.  1.
         11   -1    0    0    0    0 -0.00000000000E+00 -0.00000000000E+00 -0.45593999997E+02  0.45594000000E+02  0.51100000000E-03 0. -1.
    9900012    2    1    2    0    0  0.79339365010E-02  0.11795483046E+01  0.40205310397E-01  0.90007740021E+02  0.90000001390E+02 0.  0.
        -12    1    1    2    0    0 -0.79339365010E-02 -0.11795483046E+01 -0.40205310397E-01  0.11802599786E+01  0.00000000000E+00 0.  1.
         11    1    3    3    0    0  0.88186305342E+01 -0.60162544251E+01 -0.26848585848E+01  0.11007816663E+02  0.51100000000E-03 0. -1.
        -11    1    3    3    0    0 -0.15600235620E+02 -0.25055152249E+02  0.25445660168E+02  0.38969342146E+02  0.51100000000E-03 0.  1.
         12    1    3    3    0    0  0.67895390222E+01  0.32250954979E+02 -0.22720596273E+02  0.40030581212E+02  0.00000000000E+00 0. -1.
</event>
<event>
 7    1  0.1716782E-015  0.9000790E+02  0.7816164E-02  0.1186339E+00
        -11   -1    0    0    0    0  0.00000000000E+00  0.00000000000E+00  0.45593999997E+02  0.45594000000E+02  0.51100000000E-03 0.  1.
         11   -1    0    0    0    0 -0.00000000000E+00 -0.00000000000E+00 -0.45593999997E+02  0.45594000000E+02  0.51100000000E-03 0. -1.
    9900012    2    1    2    0    0 -0.71313999533E+00  0.81092973414E+00 -0.47588891515E+00  0.90007895790E+02  0.90000159214E+02 0.  0.
        -12    1    1    2    0    0  0.71313999533E+00 -0.81092973414E+00  0.47588891515E+00  0.11801042099E+01  0.00000000000E+00 0.  1.
         11    1    3    3    0    0 -0.12164965465E+02  0.75571833283E+01 -0.10142356669E+02  0.17548925998E+02  0.51100000000E-03 0. -1.
        -11    1    3    3    0    0 -0.54733651343E+01  0.27238494926E+02  0.18627566019E+02  0.33449656916E+02  0.51100000000E-03 0.  1.
         12    1    3    3    0    0  0.16925190604E+02 -0.33984748520E+02 -0.89610982654E+01  0.39009312876E+02  0.00000000000E+00 0. -1.
</event>
<event>
 7    1  0.1716782E-015  0.9000776E+02  0.7816164E-02  0.1186339E+00
        -11   -1    0    0    0    0  0.00000000000E+00  0.00000000000E+00  0.45593999997E+02  0.45594000000E+02  0.51100000000E-03 0.  1.
         11   -1    0    0    0    0 -0.00000000000E+00 -0.00000000000E+00 -0.45593999997E+02  0.45594000000E+02  0.51100000000E-03 0. -1.
    9900012    2    1    2    0    0 -0.89237621113E+00  0.23382012780E+00 -0.73618575693E+00  0.90007755693E+02  0.90000017269E+02 0.  0.
        -12    1    1    2    0    0  0.89237621113E+00 -0.23382012780E+00  0.73618575693E+00  0.11802443065E+01  0.00000000000E+00 0.  1.
         11    1    3    3    0    0  0.15944236652E+02 -0.47087710446E+00 -0.30170719590E+02  0.34127887841E+02  0.51100000000E-03 0. -1.
        -11    1    3    3    0    0  0.65088338358E+01  0.34313654185E+00 -0.88778814144E+01  0.11013602465E+02  0.51100000000E-03 0.  1.
        -12    1    3    3    0    0 -0.23345446699E+02  0.36156069040E+00  0.38312415248E+02  0.44866265387E+02  0.00000000000E+00 0.  1.
</event>
<event>
 7    1  0.1716782E-015  0.9000777E+02  0.7816164E-02  0.1186339E+00
        -11   -1    0    0    0    0  0.00000000000E+00  0.00000000000E+00  0.45593999997E+02  0.45594000000E+02  0.51100000000E-03 0.  1.
         11   -1    0    0    0    0 -0.00000000000E+00 -0.00000000000E+00 -0.45593999997E+02  0.45594000000E+02  0.51100000000E-03 0. -1.
    9900012    2    1    2    0    0 -0.39829180730E+00  0.42194269493E+00 -0.10277450842E+01  0.90007774615E+02  0.90000036440E+02 0.  0.
        -12    1    1    2    0    0  0.39829180730E+00 -0.42194269493E+00  0.10277450842E+01  0.11802253851E+01  0.00000000000E+00 0.  1.
         11    1    3    3    0    0  0.22038587152E+02  0.20832470617E+02 -0.16354136835E+02  0.34455027899E+02  0.51100000000E-03 0. -1.
        -11    1    3    3    0    0  0.98993319924E+01 -0.17603946688E+02  0.10420674433E+02  0.22726332057E+02  0.51100000000E-03 0.  1.
        -12    1    3    3    0    0 -0.32336210951E+02 -0.28065812338E+01  0.49057173184E+01  0.32826414658E+02  0.00000000000E+00 0.  1.
</event>
<event>
 7    1  0.1716782E-015  0.9000770E+02  0.7816164E-02  0.1186339E+00
        -11   -1    0    0    0    0  0.00000000000E+00  0.00000000000E+00  0.45593999997E+02  0.45594000000E+02  0.51100000000E-03 0.  1.
         11   -1    0    0    0    0 -0.00000000000E+00 -0.00000000000E+00 -0.45593999997E+02  0.45594000000E+02  0.51100000000E-03 0. -1.
    9900012    2    1    2    0    0  0.10047576014E+01 -0.52179683487E+00  0.33360210524E+00  0.90007703368E+02  0.89999964253E+02 0.  0.
        -12    1    1    2    0    0 -0.10047576014E+01  0.52179683487E+00 -0.33360210524E+00  0.11802966318E+01  0.00000000000E+00 0.  1.
         11    1    3    3    0    0 -0.35433899167E+01 -0.24765437387E+02 -0.27822779972E+02  0.37416434714E+02  0.51100000000E-03 0. -1.
        -11    1    3    3    0    0 -0.90059009005E+01 -0.34922059038E+01 -0.15101716743E+01  0.97766237450E+01  0.51100000000E-03 0.  1.
        -12    1    3    3    0    0  0.13554048419E+02  0.27735846456E+02  0.29666553752E+02  0.42814644909E+02  0.00000000000E+00 0.  1.
</event>
<event>
 7    1  0.1716782E-015  0.9000772E+02  0.7816164E-02  0.1186339E+00
        -11   -1    0    0    0    0  0.00000000000E+00  0.00000000000E+00  0.45593999997E+02  0.45594000000E+02  0.51100000000E-03 0. -1.
         11   -1    0    0    0    0 -0.00000000000E+00 -0.00000000000E+00 -0.45593999997E+02  0.45594000000E+02  0.51100000000E-03 0.  1.
    9900012    2    1    2    0    0  0.66658648314E+00 -0.64816548030E+00  0.72704886889E+00  0.90007722030E+02  0.89999983161E+02 0.  0.
        -12    1    1    2    0    0 -0.66658648314E+00  0.64816548030E+00 -0.72704886889E+00  0.11802779703E+01  0.00000000000E+00 0.  1.
         11    1    3    3    0    0  0.73582062563E+01  0.26878065572E+02  0.24395403550E+02  0.37036594374E+02  0.51100000000E-03 0. -1.
        -11    1    3    3    0    0  0.10203245408E+01  0.94397995766E+01 -0.63844512132E+01  0.11441682384E+02  0.51100000000E-03 0.  1.
        -12    1    3    3    0    0 -0.77119443139E+01 -0.36966030629E+02 -0.17283903468E+02  0.41529445272E+02  0.00000000000E+00 0.  1.
</event>
<event>
 7    1  0.1716782E-015  0.9000793E+02  0.7816164E-02  0.1186339E+00
        -11   -1    0    0    0    0  0.00000000000E+00  0.00000000000E+00  0.45593999997E+02  0.45594000000E+02  0.51100000000E-03 0.  1.
         11   -1    0    0    0    0 -0.00000000000E+00 -0.00000000000E+00 -0.45593999997E+02  0.45594000000E+02  0.51100000000E-03 0. -1.
    9900012    2    1    2    0    0 -0.96165748099E+00  0.68811872977E-01 -0.68047223324E+00  0.90007931085E+02  0.90000194975E+02 0.  0.
        -12    1    1    2    0    0  0.96165748099E+00 -0.68811872977E-01  0.68047223324E+00  0.11800689153E+01  0.00000000000E+00 0.  1.
         11    1    3    3    0    0  0.74838044090E+01 -0.28154028067E+01  0.52654000519E+01  0.95738320104E+01  0.51100000000E-03 0. -1.
        -11    1    3    3    0    0 -0.86020178268E+00  0.36933274346E+02  0.14856555928E+02  0.39818638291E+02  0.51100000000E-03 0.  1.
         12    1    3    3    0    0 -0.75852601073E+01 -0.34049059667E+02 -0.20802428213E+02  0.40615460783E+02  0.00000000000E+00 0. -1.
</event>
<event>
 7    1  0.1716782E-015  0.9000770E+02  0.7816164E-02  0.1186339E+00
        -11   -1    0    0    0    0  0.00000000000E+00  0.00000000000E+00  0.45593999997E+02  0.45594000000E+02  0.51100000000E-03 0.  1.
         11   -1    0    0    0    0 -0.00000000000E+00 -0.00000000000E+00 -0.45593999997E+02  0.45594000000E+02  0.51100000000E-03 0. -1.
    9900012    2    1    2    0    0 -0.93306404024E+00 -0.32063645797E+00 -0.64783565058E+00  0.90007700347E+02  0.89999961191E+02 0.  0.
        -12    1    1    2    0    0  0.93306404024E+00  0.32063645797E+00  0.64783565058E+00  0.11802996533E+01  0.00000000000E+00 0.  1.
         11    1    3    3    0    0 -0.40333981391E+02 -0.10755986424E+02 -0.95938901916E+01  0.42831810936E+02  0.51100000000E-03 0. -1.
        -11    1    3    3    0    0  0.48037058502E+01 -0.49012815549E+01  0.61724562652E+01  0.92302420002E+01  0.51100000000E-03 0.  1.
        -12    1    3    3    0    0  0.34597211500E+02  0.15336631521E+02  0.27735982758E+01  0.37945647411E+02  0.00000000000E+00 0.  1.
</event>
<event>
 7    1  0.1716782E-015  0.9000770E+02  0.7816164E-02  0.1186339E+00
        -11   -1    0    0    0    0  0.00000000000E+00  0.00000000000E+00  0.45593999997E+02  0.45594000000E+02  0.51100000000E-03 0. -1.
         11   -1    0    0    0    0 -0.00000000000E+00 -0.00000000000E+00 -0.45593999997E+02  0.45594000000E+02  0.51100000000E-03 0.  1.
    9900012    2    1    2    0    0  0.64079769318E+00 -0.87444225185E+00 -0.46673376506E+00  0.90007698622E+02  0.89999959444E+02 0.  0.
        -12    1    1    2    0    0 -0.64079769318E+00  0.87444225185E+00  0.46673376506E+00  0.11803013780E+01  0.00000000000E+00 0.  1.
         11    1    3    3    0    0 -0.21605163523E+02  0.12888614962E+02  0.10848979748E+02  0.27397077368E+02  0.51100000000E-03 0. -1.
        -11    1    3    3    0    0 -0.63914185071E+01 -0.11498620968E+02  0.17518934742E+02  0.21908482135E+02  0.51100000000E-03 0.  1.
        -12    1    3    3    0    0  0.28637379723E+02 -0.22644362458E+01 -0.28834648255E+02  0.40702139119E+02  0.00000000000E+00 0.  1.
</event>
<event>
 7    1  0.1716782E-015  0.9000761E+02  0.7816164E-02  0.1186339E+00
        -11   -1    0    0    0    0  0.00000000000E+00  0.00000000000E+00  0.45593999997E+02  0.45594000000E+02  0.51100000000E-03 0.  1.
         11   -1    0    0    0    0 -0.00000000000E+00 -0.00000000000E+00 -0.45593999997E+02  0.45594000000E+02  0.51100000000E-03 0. -1.
    9900012    2    1    2    0    0 -0.76356391809E+00 -0.89235861893E+00  0.11828101267E+00  0.90007608472E+02  0.89999868104E+02 0.  0.
        -12    1    1    2    0    0  0.76356391809E+00  0.89235861893E+00 -0.11828101267E+00  0.11803915282E+01  0.00000000000E+00 0.  1.
         11    1    3    3    0    0 -0.82485310820E+01  0.24232999410E+01 -0.41259687662E+01  0.95359460011E+01  0.51100000000E-03 0. -1.
        -11    1    3    3    0    0 -0.23021145303E+02  0.27877727959E+02  0.67075178013E+01  0.36771342681E+02  0.51100000000E-03 0.  1.
         12    1    3    3    0    0  0.30506112467E+02 -0.31193386519E+02 -0.24632680224E+01  0.43700319790E+02  0.00000000000E+00 0. -1.
</event>
<event>
 7    1  0.1716782E-015  0.9000770E+02  0.7816164E-02  0.1186339E+00
        -11   -1    0    0    0    0  0.00000000000E+00  0.00000000000E+00  0.45593999997E+02  0.45594000000E+02  0.51100000000E-03 0.  1.
         11   -1    0    0    0    0 -0.00000000000E+00 -0.00000000000E+00 -0.45593999997E+02  0.45594000000E+02  0.51100000000E-03 0. -1.
    9900012    2    1    2    0    0 -0.11257054084E+01 -0.13085618092E+00 -0.32979301752E+00  0.90007703664E+02  0.89999964552E+02 0.  0.
        -12    1    1    2    0    0  0.11257054084E+01  0.13085618092E+00  0.32979301752E+00  0.11802963360E+01  0.00000000000E+00 0.  1.
         11    1    3    3    0    0 -0.23927633766E+01  0.10381961044E+02  0.34227261318E+01  0.11190419390E+02  0.51100000000E-03 0. -1.
        -11    1    3    3    0    0 -0.19055460058E+02  0.25527735874E+02  0.12695864509E+02  0.34292285324E+02  0.51100000000E-03 0.  1.
         12    1    3    3    0    0  0.20322518026E+02 -0.36040553098E+02 -0.16448383658E+02  0.44524998950E+02  0.00000000000E+00 0. -1.
</event>
<event>
 7    1  0.1716782E-015  0.9000778E+02  0.7816164E-02  0.1186339E+00
        -11   -1    0    0    0    0  0.00000000000E+00  0.00000000000E+00  0.45593999997E+02  0.45594000000E+02  0.51100000000E-03 0.  1.
         11   -1    0    0    0    0 -0.00000000000E+00 -0.00000000000E+00 -0.45593999997E+02  0.45594000000E+02  0.51100000000E-03 0. -1.
    9900012    2    1    2    0    0  0.84510996671E+00 -0.82347291976E+00 -0.24472846182E-01  0.90007780772E+02  0.90000042678E+02 0.  0.
        -12    1    1    2    0    0 -0.84510996671E+00  0.82347291976E+00  0.24472846182E-01  0.11802192278E+01  0.00000000000E+00 0.  1.
         11    1    3    3    0    0 -0.16457102653E+01 -0.72834096870E+01  0.58930359235E+01  0.95123231443E+01  0.51100000000E-03 0. -1.
        -11    1    3    3    0    0  0.17966354186E+02  0.16432153559E+02  0.30895129249E+02  0.39335919525E+02  0.51100000000E-03 0.  1.
         12    1    3    3    0    0 -0.15475533954E+02 -0.99722167915E+01 -0.36812638019E+02  0.41159538103E+02  0.00000000000E+00 0. -1.
</event>
<event>
 7    1  0.1716782E-015  0.9000782E+02  0.7816164E-02  0.1186339E+00
        -11   -1    0    0    0    0  0.00000000000E+00  0.00000000000E+00  0.45593999997E+02  0.45594000000E+02  0.51100000000E-03 0.  1.
         11   -1    0    0    0    0 -0.00000000000E+00 -0.00000000000E+00 -0.45593999997E+02  0.45594000000E+02  0.51100000000E-03 0. -1.
    9900012    2    1    2    0    0 -0.58476847149E+00  0.57786680830E+00 -0.84672603839E+00  0.90007818151E+02  0.90000080550E+02 0.  0.
        -12    1    1    2    0    0  0.58476847149E+00 -0.57786680830E+00  0.84672603839E+00  0.11801818493E+01  0.00000000000E+00 0.  1.
         11    1    3    3    0    0  0.82934615244E+01  0.62511083294E+01 -0.69766110486E+00  0.10408870769E+02  0.51100000000E-03 0. -1.
        -11    1    3    3    0    0 -0.13090437892E+01 -0.41628257254E+02  0.68120709587E+01  0.42202247673E+02  0.51100000000E-03 0.  1.
         12    1    3    3    0    0 -0.75691862068E+01  0.35955015733E+02 -0.69611358922E+01  0.37396699709E+02  0.00000000000E+00 0. -1.
</event>
<event>
 7    1  0.1716782E-015  0.9000874E+02  0.7816164E-02  0.1186337E+00
        -11   -1    0    0    0    0  0.00000000000E+00  0.00000000000E+00  0.45593999997E+02  0.45594000000E+02  0.51100000000E-03 0.  1.
         11   -1    0    0    0    0 -0.00000000000E+00 -0.00000000000E+00 -0.45593999997E+02  0.45594000000E+02  0.51100000000E-03 0. -1.
    9900012    2    1    2    0    0  0.91491493183E+00 -0.63380849307E+00 -0.38970815322E+00  0.90008739646E+02  0.90001014203E+02 0.  0.
        -12    1    1    2    0    0 -0.91491493183E+00  0.63380849307E+00  0.38970815322E+00  0.11792603542E+01  0.00000000000E+00 0.  1.
         11    1    3    3    0    0 -0.68242005991E+01  0.35247409220E+01 -0.43032639468E+01  0.88040668580E+01  0.51100000000E-03 0. -1.
        -11    1    3    3    0    0 -0.17396353916E+02  0.31502181207E+02  0.95009489857E+01  0.37219465099E+02  0.51100000000E-03 0.  1.
         12    1    3    3    0    0  0.25135469447E+02 -0.35660730622E+02 -0.55873931921E+01  0.43985207689E+02  0.00000000000E+00 0. -1.
</event>
<event>
 7    1  0.1716782E-015  0.9000803E+02  0.7816164E-02  0.1186338E+00
        -11   -1    0    0    0    0  0.00000000000E+00  0.00000000000E+00  0.45593999997E+02  0.45594000000E+02  0.51100000000E-03 0. -1.
         11   -1    0    0    0    0 -0.00000000000E+00 -0.00000000000E+00 -0.45593999997E+02  0.45594000000E+02  0.51100000000E-03 0.  1.
    9900012    2    1    2    0    0 -0.90645411171E+00  0.74213022584E+00  0.14111664352E+00  0.90008029561E+02  0.90000294751E+02 0.  0.
        -12    1    1    2    0    0  0.90645411171E+00 -0.74213022584E+00 -0.14111664352E+00  0.11799704385E+01  0.00000000000E+00 0.  1.
         11    1    3    3    0    0 -0.42135673090E+02 -0.12946279059E+02  0.39160477016E+01  0.44253322113E+02  0.51100000000E-03 0. -1.
        -11    1    3    3    0    0  0.77846028611E+01  0.27740420860E+00  0.41996755154E+01  0.88495349875E+01  0.51100000000E-03 0.  1.
        -12    1    3    3    0    0  0.33444616117E+02  0.13411005076E+02 -0.79746065735E+01  0.36905172461E+02  0.00000000000E+00 0.  1.
</event>
<event>
 7    1  0.1716782E-015  0.9000775E+02  0.7816164E-02  0.1186339E+00
        -11   -1    0    0    0    0  0.00000000000E+00  0.00000000000E+00  0.45593999997E+02  0.45594000000E+02  0.51100000000E-03 0. -1.
         11   -1    0    0    0    0 -0.00000000000E+00 -0.00000000000E+00 -0.45593999997E+02  0.45594000000E+02  0.51100000000E-03 0.  1.
    9900012    2    1    2    0    0  0.23083578903E+00 -0.64193481412E-01  0.11556781350E+01  0.90007746673E+02  0.90000008129E+02 0.  0.
        -12    1    1    2    0    0 -0.23083578903E+00  0.64193481412E-01 -0.11556781350E+01  0.11802533271E+01  0.00000000000E+00 0.  1.
         11    1    3    3    0    0  0.19083766131E+02 -0.26114994989E+02 -0.11352402513E+02  0.34279150166E+02  0.51100000000E-03 0. -1.
        -11    1    3    3    0    0  0.14254860501E+02  0.10640466377E+02  0.41017578485E+01  0.18254999051E+02  0.51100000000E-03 0.  1.
        -12    1    3    3    0    0 -0.33107790843E+02  0.15410335130E+02  0.84063227998E+01  0.37473597457E+02  0.00000000000E+00 0.  1.
</event>
<event>
 7    1  0.1716782E-015  0.9000773E+02  0.7816164E-02  0.1186339E+00
        -11   -1    0    0    0    0  0.00000000000E+00  0.00000000000E+00  0.45593999997E+02  0.45594000000E+02  0.51100000000E-03 0.  1.
         11   -1    0    0    0    0 -0.00000000000E+00 -0.00000000000E+00 -0.45593999997E+02  0.45594000000E+02  0.51100000000E-03 0. -1.
    9900012    2    1    2    0    0 -0.97841700872E+00  0.63414327448E+00  0.18330102040E+00  0.90007730201E+02  0.89999991439E+02 0.  0.
        -12    1    1    2    0    0  0.97841700872E+00 -0.63414327448E+00 -0.18330102040E+00  0.11802697995E+01  0.00000000000E+00 0.  1.
         11    1    3    3    0    0  0.24508298031E+01 -0.43464965739E+01  0.89674904904E+01  0.10262284597E+02  0.51100000000E-03 0. -1.
        -11    1    3    3    0    0 -0.41202778310E+02  0.12643770324E+01 -0.27601503613E+01  0.41314477124E+02  0.51100000000E-03 0.  1.
         12    1    3    3    0    0  0.37773531498E+02  0.37162628160E+01 -0.60240391087E+01  0.38430968480E+02  0.00000000000E+00 0. -1.
</event>
<event>
 7    1  0.1716782E-015  0.9000772E+02  0.7816164E-02  0.1186339E+00
        -11   -1    0    0    0    0  0.00000000000E+00  0.00000000000E+00  0.45593999997E+02  0.45594000000E+02  0.51100000000E-03 0.  1.
         11   -1    0    0    0    0 -0.00000000000E+00 -0.00000000000E+00 -0.45593999997E+02  0.45594000000E+02  0.51100000000E-03 0. -1.
    9900012    2    1    2    0    0 -0.46858395164E-02 -0.89157075626E+00  0.77338858209E+00  0.90007724494E+02  0.89999985658E+02 0.  0.
        -12    1    1    2    0    0  0.46858395164E-02  0.89157075626E+00 -0.77338858209E+00  0.11802755057E+01  0.00000000000E+00 0.  1.
         11    1    3    3    0    0 -0.36047413155E+01 -0.25441220870E+02 -0.11758180921E+02  0.28257825432E+02  0.51100000000E-03 0. -1.
        -11    1    3    3    0    0 -0.80119693859E+01  0.35814268560E+01 -0.19709693280E+02  0.21575223782E+02  0.51100000000E-03 0.  1.
        -12    1    3    3    0    0  0.11612024862E+02  0.20968223258E+02  0.32241262784E+02  0.40174675280E+02  0.00000000000E+00 0.  1.
</event>
<event>
 7    1  0.1716782E-015  0.9000774E+02  0.7816164E-02  0.1186339E+00
        -11   -1    0    0    0    0  0.00000000000E+00  0.00000000000E+00  0.45593999997E+02  0.45594000000E+02  0.51100000000E-03 0.  1.
         11   -1    0    0    0    0 -0.00000000000E+00 -0.00000000000E+00 -0.45593999997E+02  0.45594000000E+02  0.51100000000E-03 0. -1.
    9900012    2    1    2    0    0 -0.11542499132E+01 -0.87837423067E-01 -0.23021232821E+00  0.90007743252E+02  0.90000004663E+02 0.  0.
        -12    1    1    2    0    0  0.11542499132E+01  0.87837423067E-01  0.23021232821E+00  0.11802567479E+01  0.00000000000E+00 0.  1.
         11    1    3    3    0    0 -0.28750689720E+02  0.16424772439E+02 -0.95633729794E+01  0.34464959191E+02  0.51100000000E-03 0. -1.
        -11    1    3    3    0    0  0.30168594736E+01  0.41721734490E+01 -0.14600939245E+02  0.15482115471E+02  0.51100000000E-03 0.  1.
        -12    1    3    3    0    0  0.24579580333E+02 -0.20684783311E+02  0.23934099896E+02  0.40060668589E+02  0.00000000000E+00 0.  1.
</event>
<event>
 7    1  0.1716782E-015  0.9000772E+02  0.7816164E-02  0.1186339E+00
        -11   -1    0    0    0    0  0.00000000000E+00  0.00000000000E+00  0.45593999997E+02  0.45594000000E+02  0.51100000000E-03 0.  1.
         11   -1    0    0    0    0 -0.00000000000E+00 -0.00000000000E+00 -0.45593999997E+02  0.45594000000E+02  0.51100000000E-03 0. -1.
    9900012    2    1    2    0    0 -0.99051031115E+00 -0.88736168833E-02 -0.64177818265E+00  0.90007716706E+02  0.89999977767E+02 0.  0.
        -12    1    1    2    0    0  0.99051031115E+00  0.88736168833E-02  0.64177818265E+00  0.11802832937E+01  0.00000000000E+00 0.  1.
         11    1    3    3    0    0  0.11585635264E+02 -0.44374942612E+00 -0.77481093344E+01  0.13944785998E+02  0.51100000000E-03 0. -1.
        -11    1    3    3    0    0  0.28166319185E+01 -0.36029046377E+02  0.27287319395E+01  0.36241848414E+02  0.51100000000E-03 0.  1.
         12    1    3    3    0    0 -0.15392777494E+02  0.36463922186E+02  0.43775992122E+01  0.39821082294E+02  0.00000000000E+00 0. -1.
</event>
<event>
 7    1  0.1716782E-015  0.9000782E+02  0.7816164E-02  0.1186339E+00
        -11   -1    0    0    0    0  0.00000000000E+00  0.00000000000E+00  0.45593999997E+02  0.45594000000E+02  0.51100000000E-03 0.  1.
         11   -1    0    0    0    0 -0.00000000000E+00 -0.00000000000E+00 -0.45593999997E+02  0.45594000000E+02  0.51100000000E-03 0. -1.
    9900012    2    1    2    0    0 -0.18981421513E+00  0.11355629128E+01  0.25942769956E+00  0.90007815567E+02  0.90000077932E+02 0.  0.
        -12    1    1    2    0    0  0.18981421513E+00 -0.11355629128E+01 -0.25942769956E+00  0.11801844333E+01  0.00000000000E+00 0.  1.
         11    1    3    3    0    0  0.64276645598E+01  0.42196824811E+01  0.56769453532E+01  0.95576304982E+01  0.51100000000E-03 0. -1.
        -11    1    3    3    0    0  0.23379969486E+02  0.24743221588E+02 -0.16824884958E+02  0.37972710488E+02  0.51100000000E-03 0.  1.
         12    1    3    3    0    0 -0.29997448261E+02 -0.27827341156E+02  0.11407367304E+02  0.42477474581E+02  0.00000000000E+00 0. -1.
</event>
<event>
 7    1  0.1716782E-015  0.9000772E+02  0.7816164E-02  0.1186339E+00
        -11   -1    0    0    0    0  0.00000000000E+00  0.00000000000E+00  0.45593999997E+02  0.45594000000E+02  0.51100000000E-03 0. -1.
         11   -1    0    0    0    0 -0.00000000000E+00 -0.00000000000E+00 -0.45593999997E+02  0.45594000000E+02  0.51100000000E-03 0.  1.
    9900012    2    1    2    0    0  0.23003032912E+00  0.11552091190E+01 -0.75165319760E-01  0.90007715337E+02  0.89999976379E+02 0.  0.
        -12    1    1    2    0    0 -0.23003032912E+00 -0.11552091190E+01  0.75165319760E-01  0.11802846632E+01  0.00000000000E+00 0.  1.
         11    1    3    3    0    0 -0.44536805076E+01 -0.83532531995E+01  0.88805049230E+00  0.95079305328E+01  0.51100000000E-03 0. -1.
        -11    1    3    3    0    0  0.13011096893E+02 -0.33341259878E+02 -0.68920001653E+01  0.36447605122E+02  0.51100000000E-03 0.  1.
         12    1    3    3    0    0 -0.83273860558E+01  0.42849722196E+02  0.59287843532E+01  0.44052179682E+02  0.00000000000E+00 0. -1.
</event>
<event>
 7    1  0.1796862E-015  0.9000772E+02  0.7816164E-02  0.1186339E+00
        -11   -1    0    0    0    0  0.00000000000E+00  0.00000000000E+00  0.45593999997E+02  0.45594000000E+02  0.51100000000E-03 0. -1.
         11   -1    0    0    0    0 -0.00000000000E+00 -0.00000000000E+00 -0.45593999997E+02  0.45594000000E+02  0.51100000000E-03 0.  1.
    9900012    2    1    2    0    0  0.16239281434E+00  0.60690592235E+00  0.99917896060E+00  0.90007718330E+02  0.89999979412E+02 0.  0.
        -12    1    1    2    0    0 -0.16239281434E+00 -0.60690592235E+00 -0.99917896060E+00  0.11802816698E+01  0.00000000000E+00 0.  1.
         11    1    3    3    0    0 -0.35053729473E+02 -0.18423428895E+02  0.15777974029E+02  0.42627821278E+02  0.51100000000E-03 0. -1.
        -11    1    3    3    0    0  0.20773078591E+01  0.32702507993E+01 -0.95599087738E+01  0.10315115329E+02  0.51100000000E-03 0.  1.
        -12    1    3    3    0    0  0.33138814429E+02  0.15760084018E+02 -0.52188862941E+01  0.37064781723E+02  0.00000000000E+00 0.  1.
</event>
<event>
 7    1  0.1716782E-015  0.9000774E+02  0.7816164E-02  0.1186339E+00
        -11   -1    0    0    0    0  0.00000000000E+00  0.00000000000E+00  0.45593999997E+02  0.45594000000E+02  0.51100000000E-03 0. -1.
         11   -1    0    0    0    0 -0.00000000000E+00 -0.00000000000E+00 -0.45593999997E+02  0.45594000000E+02  0.51100000000E-03 0.  1.
    9900012    2    1    2    0    0  0.82972184492E-01 -0.28366560440E+00  0.11426586893E+01  0.90007737555E+02  0.89999998891E+02 0.  0.
        -12    1    1    2    0    0 -0.82972184492E-01  0.28366560440E+00 -0.11426586893E+01  0.11802624449E+01  0.00000000000E+00 0.  1.
         11    1    3    3    0    0  0.38651567699E+01 -0.82718237214E+01  0.84200881966E+00  0.91690503133E+01  0.51100000000E-03 0. -1.
        -11    1    3    3    0    0 -0.36019157819E+02  0.15123919608E+01 -0.20942539085E+02  0.41692409417E+02  0.51100000000E-03 0.  1.
         12    1    3    3    0    0  0.32236973234E+02  0.64757661562E+01  0.21243188954E+02  0.39146277825E+02  0.00000000000E+00 0. -1.
</event>
<event>
 7    1  0.1716782E-015  0.9000775E+02  0.7816164E-02  0.1186339E+00
        -11   -1    0    0    0    0  0.00000000000E+00  0.00000000000E+00  0.45593999997E+02  0.45594000000E+02  0.51100000000E-03 0. -1.
         11   -1    0    0    0    0 -0.00000000000E+00 -0.00000000000E+00 -0.45593999997E+02  0.45594000000E+02  0.51100000000E-03 0.  1.
    9900012    2    1    2    0    0 -0.43718731890E+00  0.95848903828E+00  0.53212530070E+00  0.90007749466E+02  0.90000010959E+02 0.  0.
        -12    1    1    2    0    0  0.43718731890E+00 -0.95848903828E+00 -0.53212530070E+00  0.11802505344E+01  0.00000000000E+00 0.  1.
         11    1    3    3    0    0 -0.96184819286E+01 -0.12402550141E+02  0.36996329451E+02  0.40187894168E+02  0.51100000000E-03 0. -1.
        -11    1    3    3    0    0 -0.55196597589E+00 -0.83150268022E+01 -0.31688937319E+01  0.89155047476E+01  0.51100000000E-03 0.  1.
        -12    1    3    3    0    0  0.97332605856E+01  0.21676065981E+02 -0.33295310418E+02  0.40904350550E+02  0.00000000000E+00 0.  1.
</event>
<event>
 7    1  0.1716782E-015  0.9000790E+02  0.7816164E-02  0.1186339E+00
        -11   -1    0    0    0    0  0.00000000000E+00  0.00000000000E+00  0.45593999997E+02  0.45594000000E+02  0.51100000000E-03 0. -1.
         11   -1    0    0    0    0 -0.00000000000E+00 -0.00000000000E+00 -0.45593999997E+02  0.45594000000E+02  0.51100000000E-03 0.  1.
    9900012    2    1    2    0    0  0.11397055530E+01  0.16753711100E+00  0.25621151184E+00  0.90007897560E+02  0.90000161007E+02 0.  0.
        -12    1    1    2    0    0 -0.11397055530E+01 -0.16753711100E+00 -0.25621151184E+00  0.11801024404E+01  0.00000000000E+00 0.  1.
         11    1    3    3    0    0 -0.39006897959E+01 -0.75896508615E+01  0.70341538716E+01  0.11058820101E+02  0.51100000000E-03 0. -1.
        -11    1    3    3    0    0 -0.31500917980E+02  0.31792741127E+01  0.16176404708E+02  0.35554067095E+02  0.51100000000E-03 0.  1.
         12    1    3    3    0    0  0.36541313329E+02  0.45779138597E+01 -0.22954347067E+02  0.43395010363E+02  0.00000000000E+00 0. -1.
</event>
<event>
 7    1  0.1716782E-015  0.9000769E+02  0.7816164E-02  0.1186339E+00
        -11   -1    0    0    0    0  0.00000000000E+00  0.00000000000E+00  0.45593999997E+02  0.45594000000E+02  0.51100000000E-03 0. -1.
         11   -1    0    0    0    0 -0.00000000000E+00 -0.00000000000E+00 -0.45593999997E+02  0.45594000000E+02  0.51100000000E-03 0.  1.
    9900012    2    1    2    0    0  0.10612314559E+01  0.32477342268E+00  0.40180557423E+00  0.90007687457E+02  0.89999948132E+02 0.  0.
        -12    1    1    2    0    0 -0.10612314559E+01 -0.32477342268E+00 -0.40180557423E+00  0.11803125428E+01  0.00000000000E+00 0.  1.
         11    1    3    3    0    0  0.30017024936E+01 -0.34150365573E+01 -0.72341787346E+01  0.85443568964E+01  0.51100000000E-03 0. -1.
        -11    1    3    3    0    0  0.30060800957E+02 -0.22426530254E+02 -0.59010632628E+01  0.37966084355E+02  0.51100000000E-03 0.  1.
         12    1    3    3    0    0 -0.32001271995E+02  0.26166340234E+02  0.13537047572E+02  0.43497246205E+02  0.00000000000E+00 0. -1.
</event>
<event>
 7    1  0.1716782E-015  0.9000772E+02  0.7816164E-02  0.1186339E+00
        -11   -1    0    0    0    0  0.00000000000E+00  0.00000000000E+00  0.45593999997E+02  0.45594000000E+02  0.51100000000E-03 0.  1.
         11   -1    0    0    0    0 -0.00000000000E+00 -0.00000000000E+00 -0.45593999997E+02  0.45594000000E+02  0.51100000000E-03 0. -1.
    9900012    2    1    2    0    0 -0.48021225035E+00 -0.74218054042E+00 -0.78205931123E+00  0.90007723538E+02  0.89999984689E+02 0.  0.
        -12    1    1    2    0    0  0.48021225035E+00  0.74218054042E+00  0.78205931123E+00  0.11802764618E+01  0.00000000000E+00 0.  1.
         11    1    3    3    0    0 -0.22905556576E+02  0.27691094246E+02 -0.97158474796E+01  0.37227126066E+02  0.51100000000E-03 0. -1.
        -11    1    3    3    0    0 -0.30822455529E+01 -0.72482042814E+00 -0.10098433057E+02  0.10583191993E+02  0.51100000000E-03 0.  1.
        -12    1    3    3    0    0  0.25507589879E+02 -0.27708454359E+02  0.19032221225E+02  0.42197405479E+02  0.00000000000E+00 0.  1.
</event>
<event>
 7    1  0.1716782E-015  0.9000780E+02  0.7816164E-02  0.1186339E+00
        -11   -1    0    0    0    0  0.00000000000E+00  0.00000000000E+00  0.45593999997E+02  0.45594000000E+02  0.51100000000E-03 0.  1.
         11   -1    0    0    0    0 -0.00000000000E+00 -0.00000000000E+00 -0.45593999997E+02  0.45594000000E+02  0.51100000000E-03 0. -1.
    9900012    2    1    2    0    0 -0.71206105696E+00  0.65387342644E+00 -0.67697507738E+00  0.90007798042E+02  0.90000060176E+02 0.  0.
        -12    1    1    2    0    0  0.71206105696E+00 -0.65387342644E+00  0.67697507738E+00  0.11802019582E+01  0.00000000000E+00 0.  1.
         11    1    3    3    0    0 -0.50067171883E+01  0.11164968070E+01 -0.84517471406E+01  0.98866481738E+01  0.51100000000E-03 0. -1.
        -11    1    3    3    0    0 -0.14345760931E+02  0.78654750269E+01  0.39295989981E+02  0.42565730147E+02  0.51100000000E-03 0.  1.
         12    1    3    3    0    0  0.18640417063E+02 -0.83280984075E+01 -0.31521217918E+02  0.37555419721E+02  0.00000000000E+00 0. -1.
</event>
<event>
 7    1  0.1716782E-015  0.9000777E+02  0.7816164E-02  0.1186339E+00
        -11   -1    0    0    0    0  0.00000000000E+00  0.00000000000E+00  0.45593999997E+02  0.45594000000E+02  0.51100000000E-03 0.  1.
         11   -1    0    0    0    0 -0.00000000000E+00 -0.00000000000E+00 -0.45593999997E+02  0.45594000000E+02  0.51100000000E-03 0. -1.
    9900012    2    1    2    0    0 -0.25661555851E+00 -0.70121721250E+00  0.91398897002E+00  0.90007774191E+02  0.90000036010E+02 0.  0.
        -12    1    1    2    0    0  0.25661555851E+00  0.70121721250E+00 -0.91398897002E+00  0.11802258095E+01  0.00000000000E+00 0.  1.
         11    1    3    3    0    0 -0.18978835860E+02 -0.16665507518E+02  0.29385952491E+02  0.38748800697E+02  0.51100000000E-03 0. -1.
        -11    1    3    3    0    0 -0.41769380567E+01  0.43828242678E+01  0.58404013737E+01  0.84122677417E+01  0.51100000000E-03 0.  1.
        -12    1    3    3    0    0  0.22899158359E+02  0.11581466037E+02 -0.34312364894E+02  0.42846705751E+02  0.00000000000E+00 0.  1.
</event>
<event>
 7    1  0.1716782E-015  0.9000714E+02  0.7816164E-02  0.1186340E+00
        -11   -1    0    0    0    0  0.00000000000E+00  0.00000000000E+00  0.45593999997E+02  0.45594000000E+02  0.51100000000E-03 0.  1.
         11   -1    0    0    0    0 -0.00000000000E+00 -0.00000000000E+00 -0.45593999997E+02  0.45594000000E+02  0.51100000000E-03 0. -1.
    9900012    2    1    2    0    0 -0.17016360741E+00 -0.82032736389E+00 -0.83218881308E+00  0.90007139781E+02  0.89999393224E+02 0.  0.
        -12    1    1    2    0    0  0.17016360741E+00  0.82032736389E+00  0.83218881308E+00  0.11808602194E+01  0.00000000000E+00 0.  1.
         11    1    3    3    0    0  0.69280695176E+01  0.87473776093E+01  0.17502930550E+01  0.11295055924E+02  0.51100000000E-03 0. -1.
        -11    1    3    3    0    0 -0.20827981889E+02 -0.73111052102E+01  0.33455402865E+02  0.40081430489E+02  0.51100000000E-03 0.  1.
         12    1    3    3    0    0  0.13729748764E+02 -0.22565997630E+01 -0.36037884733E+02  0.38630653368E+02  0.00000000000E+00 0. -1.
</event>
<event>
 7    1  0.1716782E-015  0.9000842E+02  0.7816164E-02  0.1186338E+00
        -11   -1    0    0    0    0  0.00000000000E+00  0.00000000000E+00  0.45593999997E+02  0.45594000000E+02  0.51100000000E-03 0.  1.
         11   -1    0    0    0    0 -0.00000000000E+00 -0.00000000000E+00 -0.45593999997E+02  0.45594000000E+02  0.51100000000E-03 0. -1.
    9900012    2    1    2    0    0 -0.88260877003E+00  0.45541753668E+00 -0.63639913592E+00  0.90008420739E+02  0.90000691090E+02 0.  0.
        -12    1    1    2    0    0  0.88260877003E+00 -0.45541753668E+00  0.63639913592E+00  0.11795792614E+01  0.00000000000E+00 0.  1.
         11    1    3    3    0    0 -0.32796019244E+02 -0.22687580744E+02  0.36059543305E+01  0.40041329962E+02  0.51100000000E-03 0. -1.
        -11    1    3    3    0    0  0.10759750629E+02  0.43669345998E+01  0.12530073930E+02  0.17083474598E+02  0.51100000000E-03 0.  1.
        -12    1    3    3    0    0  0.21153659845E+02  0.18776063681E+02 -0.16772427396E+02  0.32883616178E+02  0.00000000000E+00 0.  1.
</event>
<event>
 7    1  0.1716782E-015  0.9000773E+02  0.7816164E-02  0.1186339E+00
        -11   -1    0    0    0    0  0.00000000000E+00  0.00000000000E+00  0.45593999997E+02  0.45594000000E+02  0.51100000000E-03 0.  1.
         11   -1    0    0    0    0 -0.00000000000E+00 -0.00000000000E+00 -0.45593999997E+02  0.45594000000E+02  0.51100000000E-03 0. -1.
    9900012    2    1    2    0    0  0.10179653391E+01  0.52521252648E+00  0.28448030538E+00  0.90007732796E+02  0.89999994069E+02 0.  0.
        -12    1    1    2    0    0 -0.10179653391E+01 -0.52521252648E+00 -0.28448030538E+00  0.11802672044E+01  0.00000000000E+00 0.  1.
         11    1    3    3    0    0 -0.24388588916E+02 -0.13287624167E+02 -0.28583511670E+02  0.39854502443E+02  0.51100000000E-03 0. -1.
        -11    1    3    3    0    0 -0.96568663041E+00  0.84299791240E+01 -0.24754256363E+01  0.88388252071E+01  0.51100000000E-03 0.  1.
        -12    1    3    3    0    0  0.26372240886E+02  0.53828575695E+01  0.31343417612E+02  0.41314405146E+02  0.00000000000E+00 0.  1.
</event>
<event>
 7    1  0.1716782E-015  0.9000764E+02  0.7816164E-02  0.1186339E+00
        -11   -1    0    0    0    0  0.00000000000E+00  0.00000000000E+00  0.45593999997E+02  0.45594000000E+02  0.51100000000E-03 0.  1.
         11   -1    0    0    0    0 -0.00000000000E+00 -0.00000000000E+00 -0.45593999997E+02  0.45594000000E+02  0.51100000000E-03 0. -1.
    9900012    2    1    2    0    0  0.10225892033E+01 -0.43126467028E+00 -0.40194703043E+00  0.90007644414E+02  0.89999904520E+02 0.  0.
        -12    1    1    2    0    0 -0.10225892033E+01  0.43126467028E+00  0.40194703043E+00  0.11803555862E+01  0.00000000000E+00 0.  1.
         11    1    3    3    0    0 -0.82921542560E+01  0.62900001228E+01 -0.19030538387E+01  0.10580431840E+02  0.51100000000E-03 0. -1.
        -11    1    3    3    0    0 -0.16389397703E+02  0.26110221604E+02 -0.15369724779E+02  0.34446835404E+02  0.51100000000E-03 0.  1.
         12    1    3    3    0    0  0.25704141162E+02 -0.32831486397E+02  0.16870831588E+02  0.44980377170E+02  0.00000000000E+00 0. -1.
</event>
<event>
 7    1  0.1716782E-015  0.9000776E+02  0.7816164E-02  0.1186339E+00
        -11   -1    0    0    0    0  0.00000000000E+00  0.00000000000E+00  0.45593999997E+02  0.45594000000E+02  0.51100000000E-03 0.  1.
         11   -1    0    0    0    0 -0.00000000000E+00 -0.00000000000E+00 -0.45593999997E+02  0.45594000000E+02  0.51100000000E-03 0. -1.
    9900012    2    1    2    0    0 -0.95542735472E-02  0.61087750043E+00 -0.10098035428E+01  0.90007760279E+02  0.90000021914E+02 0.  0.
        -12    1    1    2    0    0  0.95542735472E-02 -0.61087750043E+00  0.10098035428E+01  0.11802397213E+01  0.00000000000E+00 0.  1.
         11    1    3    3    0    0 -0.75031898096E+01 -0.37719409959E+01 -0.69842050169E+01  0.10922660673E+02  0.51100000000E-03 0. -1.
        -11    1    3    3    0    0  0.18158241763E+02  0.37842568435E+02  0.11534162367E+02  0.43529514487E+02  0.51100000000E-03 0.  1.
         12    1    3    3    0    0 -0.10664606227E+02 -0.33459749939E+02 -0.55597608927E+01  0.35555585119E+02  0.00000000000E+00 0. -1.
</event>
<event>
 7    1  0.1716782E-015  0.9000779E+02  0.7816164E-02  0.1186339E+00
        -11   -1    0    0    0    0  0.00000000000E+00  0.00000000000E+00  0.45593999997E+02  0.45594000000E+02  0.51100000000E-03 0. -1.
         11   -1    0    0    0    0 -0.00000000000E+00 -0.00000000000E+00 -0.45593999997E+02  0.45594000000E+02  0.51100000000E-03 0.  1.
    9900012    2    1    2    0    0 -0.78308754159E+00 -0.77516554649E+00  0.42282025397E+00  0.90007794641E+02  0.90000056730E+02 0.  0.
        -12    1    1    2    0    0  0.78308754159E+00  0.77516554649E+00 -0.42282025397E+00  0.11802053590E+01  0.00000000000E+00 0.  1.
         11    1    3    3    0    0 -0.61733938749E+01 -0.73789744283E+01 -0.44590797169E+01  0.10603935483E+02  0.51100000000E-03 0. -1.
        -11    1    3    3    0    0  0.14954890315E+02  0.29748141189E+02 -0.24099093384E+02  0.41101909332E+02  0.51100000000E-03 0.  1.
         12    1    3    3    0    0 -0.95645839815E+01 -0.23144332307E+02  0.28980993354E+02  0.38301949826E+02  0.00000000000E+00 0. -1.
</event>
<event>
 7    1  0.1970246E-015  0.9000773E+02  0.7816164E-02  0.1186339E+00
        -11   -1    0    0    0    0  0.00000000000E+00  0.00000000000E+00  0.45593999997E+02  0.45594000000E+02  0.51100000000E-03 0. -1.
         11   -1    0    0    0    0 -0.00000000000E+00 -0.00000000000E+00 -0.45593999997E+02  0.45594000000E+02  0.51100000000E-03 0.  1.
    9900012    2    1    2    0    0 -0.11353837916E+01  0.28965100831E+00  0.14153916550E+00  0.90007734184E+02  0.89999995475E+02 0.  0.
        -12    1    1    2    0    0  0.11353837916E+01 -0.28965100831E+00 -0.14153916550E+00  0.11802658159E+01  0.00000000000E+00 0.  1.
         11    1    3    3    0    0 -0.25013455999E+02  0.51919284455E+00  0.33522247095E+02  0.41829219366E+02  0.51100000000E-03 0. -1.
        -11    1    3    3    0    0  0.17141329335E+01  0.92013280026E+01 -0.39796202093E+01  0.10170548953E+02  0.51100000000E-03 0.  1.
        -12    1    3    3    0    0  0.22163939274E+02 -0.94308698389E+01 -0.29401087720E+02  0.38007965865E+02  0.00000000000E+00 0.  1.
</event>
<event>
 7    1  0.1716782E-015  0.9000772E+02  0.7816164E-02  0.1186339E+00
        -11   -1    0    0    0    0  0.00000000000E+00  0.00000000000E+00  0.45593999997E+02  0.45594000000E+02  0.51100000000E-03 0. -1.
         11   -1    0    0    0    0 -0.00000000000E+00 -0.00000000000E+00 -0.45593999997E+02  0.45594000000E+02  0.51100000000E-03 0.  1.
    9900012    2    1    2    0    0  0.43056641265E+00 -0.44205975514E+00  0.10061105649E+01  0.90007719215E+02  0.89999980309E+02 0.  0.
        -12    1    1    2    0    0 -0.43056641265E+00  0.44205975514E+00 -0.10061105649E+01  0.11802807850E+01  0.00000000000E+00 0.  1.
         11    1    3    3    0    0 -0.85671894587E+01  0.53642594273E+01 -0.84402125333E+00  0.10143194101E+02  0.51100000000E-03 0. -1.
        -11    1    3    3    0    0  0.24037000332E+02 -0.15541819353E+02 -0.31156660836E+02  0.42309136702E+02  0.51100000000E-03 0.  1.
         12    1    3    3    0    0 -0.15039244461E+02  0.97355001708E+01  0.33006792654E+02  0.37555388412E+02  0.00000000000E+00 0. -1.
</event>
<event>
 7    1  0.1716782E-015  0.9000796E+02  0.7816164E-02  0.1186339E+00
        -11   -1    0    0    0    0  0.00000000000E+00  0.00000000000E+00  0.45593999997E+02  0.45594000000E+02  0.51100000000E-03 0.  1.
         11   -1    0    0    0    0 -0.00000000000E+00 -0.00000000000E+00 -0.45593999997E+02  0.45594000000E+02  0.51100000000E-03 0. -1.
    9900012    2    1    2    0    0 -0.54571992632E+00 -0.70523502576E+00  0.77287654277E+00  0.90007955581E+02  0.90000219795E+02 0.  0.
        -12    1    1    2    0    0  0.54571992632E+00  0.70523502576E+00 -0.77287654277E+00  0.11800444186E+01  0.00000000000E+00 0.  1.
         11    1    3    3    0    0  0.22474094119E+00  0.63662563336E+01 -0.64661203997E+01  0.90769180607E+01  0.51100000000E-03 0. -1.
        -11    1    3    3    0    0 -0.59803263774E+01  0.36229299240E+02 -0.10350628329E-01  0.36719566098E+02  0.51100000000E-03 0.  1.
         12    1    3    3    0    0  0.52098655099E+01 -0.43300790600E+02  0.72493475708E+01  0.44211471423E+02  0.00000000000E+00 0. -1.
</event>
<event>
 7    1  0.1716782E-015  0.9000775E+02  0.7816164E-02  0.1186339E+00
        -11   -1    0    0    0    0  0.00000000000E+00  0.00000000000E+00  0.45593999997E+02  0.45594000000E+02  0.51100000000E-03 0.  1.
         11   -1    0    0    0    0 -0.00000000000E+00 -0.00000000000E+00 -0.45593999997E+02  0.45594000000E+02  0.51100000000E-03 0. -1.
    9900012    2    1    2    0    0  0.47309648328E+00  0.38459756307E+00 -0.10105673636E+01  0.90007753431E+02  0.90000014976E+02 0.  0.
        -12    1    1    2    0    0 -0.47309648328E+00 -0.38459756307E+00  0.10105673636E+01  0.11802465693E+01  0.00000000000E+00 0.  1.
         11    1    3    3    0    0 -0.22952055520E+02 -0.15942991701E+02  0.30965453000E+01  0.28116977612E+02  0.51100000000E-03 0. -1.
        -11    1    3    3    0    0 -0.10363172875E+02 -0.12497677687E+02  0.40538948016E+01  0.16733838858E+02  0.51100000000E-03 0.  1.
        -12    1    3    3    0    0  0.33788324878E+02  0.28825266951E+02 -0.81610074653E+01  0.45156936961E+02  0.00000000000E+00 0.  1.
</event>
<event>
 7    1  0.1716782E-015  0.9000775E+02  0.7816164E-02  0.1186339E+00
        -11   -1    0    0    0    0  0.00000000000E+00  0.00000000000E+00  0.45593999997E+02  0.45594000000E+02  0.51100000000E-03 0. -1.
         11   -1    0    0    0    0 -0.00000000000E+00 -0.00000000000E+00 -0.45593999997E+02  0.45594000000E+02  0.51100000000E-03 0.  1.
    9900012    2    1    2    0    0  0.68750810140E+00  0.57784770726E+00 -0.76578172162E+00  0.90007747058E+02  0.90000008519E+02 0.  0.
        -12    1    1    2    0    0 -0.68750810140E+00 -0.57784770726E+00  0.76578172162E+00  0.11802529421E+01  0.00000000000E+00 0.  1.
         11    1    3    3    0    0 -0.78140616728E+00 -0.60288140483E+01 -0.93682876389E+01  0.11167900786E+02  0.51100000000E-03 0. -1.
        -11    1    3    3    0    0  0.96411180151E+01  0.34467374749E+02 -0.17461425699E+02  0.39822763168E+02  0.51100000000E-03 0.  1.
         12    1    3    3    0    0 -0.81722037464E+01 -0.27860712993E+02  0.26063931616E+02  0.39017083103E+02  0.00000000000E+00 0. -1.
</event>
<event>
 7    1  0.1996406E-015  0.9000776E+02  0.7816164E-02  0.1186339E+00
        -11   -1    0    0    0    0  0.00000000000E+00  0.00000000000E+00  0.45593999997E+02  0.45594000000E+02  0.51100000000E-03 0.  1.
         11   -1    0    0    0    0 -0.00000000000E+00 -0.00000000000E+00 -0.45593999997E+02  0.45594000000E+02  0.51100000000E-03 0. -1.
    9900012    2    1    2    0    0 -0.76531509341E+00  0.89582291458E+00  0.69073076489E-01  0.90007755544E+02  0.90000017117E+02 0.  0.
        -12    1    1    2    0    0  0.76531509341E+00 -0.89582291458E+00 -0.69073076489E-01  0.11802444562E+01  0.00000000000E+00 0.  1.
         11    1    3    3    0    0 -0.12503376792E+02 -0.36507034361E+02  0.11727238355E+02  0.40331453094E+02  0.51100000000E-03 0. -1.
        -11    1    3    3    0    0 -0.53264425592E+01  0.16116490973E+01 -0.81522380617E+01  0.98705313345E+01  0.51100000000E-03 0.  1.
        -12    1    3    3    0    0  0.17064504257E+02  0.35791208178E+02 -0.35059272167E+01  0.39805771115E+02  0.00000000000E+00 0.  1.
</event>
<event>
 7    1  0.1819099E-015  0.9000778E+02  0.7816164E-02  0.1186339E+00
        -11   -1    0    0    0    0  0.00000000000E+00  0.00000000000E+00  0.45593999997E+02  0.45594000000E+02  0.51100000000E-03 0.  1.
         11   -1    0    0    0    0 -0.00000000000E+00 -0.00000000000E+00 -0.45593999997E+02  0.45594000000E+02  0.51100000000E-03 0. -1.
    9900012    2    1    2    0    0 -0.22132057825E+00  0.98836434138E+00 -0.60586003282E+00  0.90007782542E+02  0.90000044471E+02 0.  0.
        -12    1    1    2    0    0  0.22132057825E+00 -0.98836434138E+00  0.60586003282E+00  0.11802174584E+01  0.00000000000E+00 0.  1.
         11    1    3    3    0    0 -0.39515262139E+02  0.11998355768E+02 -0.10776524060E+01  0.41310747004E+02  0.51100000000E-03 0. -1.
        -11    1    3    3    0    0  0.26461136766E+01  0.19619784724E-01  0.90897883787E+01  0.94671302704E+01  0.51100000000E-03 0.  1.
        -12    1    3    3    0    0  0.36647827884E+02 -0.11029611211E+02 -0.86179960055E+01  0.39229905267E+02  0.00000000000E+00 0.  1.
</event>
<event>
 7    1  0.1716782E-015  0.9000802E+02  0.7816164E-02  0.1186338E+00
        -11   -1    0    0    0    0  0.00000000000E+00  0.00000000000E+00  0.45593999997E+02  0.45594000000E+02  0.51100000000E-03 0. -1.
         11   -1    0    0    0    0 -0.00000000000E+00 -0.00000000000E+00 -0.45593999997E+02  0.45594000000E+02  0.51100000000E-03 0.  1.
    9900012    2    1    2    0    0 -0.50719562874E+00 -0.51866411321E-01  0.10641465552E+01  0.90008023127E+02  0.90000288232E+02 0.  0.
        -12    1    1    2    0    0  0.50719562874E+00  0.51866411321E-01 -0.10641465552E+01  0.11799768732E+01  0.00000000000E+00 0.  1.
         11    1    3    3    0    0 -0.20612211622E+01 -0.69095201624E+01 -0.16839657837E+02  0.18318410899E+02  0.51100000000E-03 0. -1.
        -11    1    3    3    0    0  0.72071119396E+01 -0.29236683984E+02 -0.18279393193E+01  0.30167325292E+02  0.51100000000E-03 0.  1.
         12    1    3    3    0    0 -0.56530864061E+01  0.36094337735E+02  0.19731743711E+02  0.41522286935E+02  0.00000000000E+00 0. -1.
</event>
<event>
 7    1  0.1716782E-015  0.9000778E+02  0.7816164E-02  0.1186339E+00
        -11   -1    0    0    0    0  0.00000000000E+00  0.00000000000E+00  0.45593999997E+02  0.45594000000E+02  0.51100000000E-03 0.  1.
         11   -1    0    0    0    0 -0.00000000000E+00 -0.00000000000E+00 -0.45593999997E+02  0.45594000000E+02  0.51100000000E-03 0. -1.
    9900012    2    1    2    0    0 -0.15752991294E+00 -0.10686861333E+01 -0.47540048131E+00  0.90007783349E+02  0.90000045290E+02 0.  0.
        -12    1    1    2    0    0  0.15752991294E+00  0.10686861333E+01  0.47540048131E+00  0.11802166507E+01  0.00000000000E+00 0.  1.
         11    1    3    3    0    0  0.50603620296E+01  0.49800964307E+01  0.68223670140E+01  0.98464875090E+01  0.51100000000E-03 0. -1.
        -11    1    3    3    0    0 -0.17304660849E+02  0.13145735032E+00  0.33205141292E+02  0.37443957812E+02  0.51100000000E-03 0.  1.
         12    1    3    3    0    0  0.12086768907E+02 -0.61802399142E+01 -0.40502908787E+02  0.42717338028E+02  0.00000000000E+00 0. -1.
</event>
<event>
 7    1  0.1716782E-015  0.9000776E+02  0.7816164E-02  0.1186339E+00
        -11   -1    0    0    0    0  0.00000000000E+00  0.00000000000E+00  0.45593999997E+02  0.45594000000E+02  0.51100000000E-03 0. -1.
         11   -1    0    0    0    0 -0.00000000000E+00 -0.00000000000E+00 -0.45593999997E+02  0.45594000000E+02  0.51100000000E-03 0.  1.
    9900012    2    1    2    0    0 -0.10554829049E+01  0.42619250401E+00  0.31191853430E+00  0.90007755371E+02  0.90000016942E+02 0.  0.
        -12    1    1    2    0    0  0.10554829049E+01 -0.42619250401E+00 -0.31191853430E+00  0.11802446293E+01  0.00000000000E+00 0.  1.
         11    1    3    3    0    0  0.30070143720E+02 -0.18997558692E+02  0.35052265129E+01  0.35740836487E+02  0.51100000000E-03 0. -1.
        -11    1    3    3    0    0  0.25264793787E+01 -0.93426096321E+01 -0.24746560528E+01  0.99895633353E+01  0.51100000000E-03 0.  1.
        -12    1    3    3    0    0 -0.33652106004E+02  0.28766360828E+02 -0.71865192583E+00  0.44277355549E+02  0.00000000000E+00 0.  1.
</event>
<event>
 7    1  0.1716782E-015  0.9000780E+02  0.7816164E-02  0.1186339E+00
        -11   -1    0    0    0    0  0.00000000000E+00  0.00000000000E+00  0.45593999997E+02  0.45594000000E+02  0.51100000000E-03 0.  1.
         11   -1    0    0    0    0 -0.00000000000E+00 -0.00000000000E+00 -0.45593999997E+02  0.45594000000E+02  0.51100000000E-03 0. -1.
    9900012    2    1    2    0    0 -0.12548928013E+00 -0.11554872787E+01 -0.20488527479E+00  0.90007798159E+02  0.90000060294E+02 0.  0.
        -12    1    1    2    0    0  0.12548928013E+00  0.11554872787E+01  0.20488527479E+00  0.11802018414E+01  0.00000000000E+00 0.  1.
         11    1    3    3    0    0 -0.75538049312E+01 -0.47482541848E+01  0.18315467825E+01  0.91082627663E+01  0.51100000000E-03 0. -1.
        -11    1    3    3    0    0 -0.35043123103E+01 -0.13078595648E+02  0.35721520485E+02  0.38201530008E+02  0.51100000000E-03 0.  1.
         12    1    3    3    0    0  0.10932627961E+02  0.16671362554E+02 -0.37757952543E+02  0.42698005384E+02  0.00000000000E+00 0. -1.
</event>
<event>
 7    1  0.1716782E-015  0.9000783E+02  0.7816164E-02  0.1186339E+00
        -11   -1    0    0    0    0  0.00000000000E+00  0.00000000000E+00  0.45593999997E+02  0.45594000000E+02  0.51100000000E-03 0. -1.
         11   -1    0    0    0    0 -0.00000000000E+00 -0.00000000000E+00 -0.45593999997E+02  0.45594000000E+02  0.51100000000E-03 0.  1.
    9900012    2    1    2    0    0  0.10597062051E+01  0.64966006945E-01  0.51536451581E+00  0.90007831195E+02  0.90000093767E+02 0.  0.
        -12    1    1    2    0    0 -0.10597062051E+01 -0.64966006945E-01 -0.51536451581E+00  0.11801688046E+01  0.00000000000E+00 0.  1.
         11    1    3    3    0    0 -0.24101498034E+01  0.28001609469E+01 -0.82726944623E+01  0.90601985261E+01  0.51100000000E-03 0. -1.
        -11    1    3    3    0    0 -0.12562770028E+02 -0.19953724232E+02 -0.28418405337E+02  0.36926684980E+02  0.51100000000E-03 0.  1.
         12    1    3    3    0    0  0.16032626037E+02  0.17218529292E+02  0.37206464315E+02  0.44020947689E+02  0.00000000000E+00 0. -1.
</event>
<event>
 7    1  0.1716782E-015  0.9000798E+02  0.7816164E-02  0.1186339E+00
        -11   -1    0    0    0    0  0.00000000000E+00  0.00000000000E+00  0.45593999997E+02  0.45594000000E+02  0.51100000000E-03 0.  1.
         11   -1    0    0    0    0 -0.00000000000E+00 -0.00000000000E+00 -0.45593999997E+02  0.45594000000E+02  0.51100000000E-03 0. -1.
    9900012    2    1    2    0    0 -0.55309893477E+00 -0.85360362342E+00 -0.59823810096E+00  0.90007980338E+02  0.90000244878E+02 0.  0.
        -12    1    1    2    0    0  0.55309893477E+00  0.85360362342E+00  0.59823810096E+00  0.11800196621E+01  0.00000000000E+00 0.  1.
         11    1    3    3    0    0 -0.72410561255E+01  0.97690138026E+01 -0.35711947116E+00  0.12165280887E+02  0.51100000000E-03 0. -1.
        -11    1    3    3    0    0 -0.18739229180E+02  0.20862271863E+02  0.18135187020E+02  0.33395779764E+02  0.51100000000E-03 0.  1.
         12    1    3    3    0    0  0.25427186371E+02 -0.31484889289E+02 -0.18376305650E+02  0.44446919686E+02  0.00000000000E+00 0. -1.
</event>
<event>
 7    1  0.1716782E-015  0.9000764E+02  0.7816164E-02  0.1186339E+00
        -11   -1    0    0    0    0  0.00000000000E+00  0.00000000000E+00  0.45593999997E+02  0.45594000000E+02  0.51100000000E-03 0. -1.
         11   -1    0    0    0    0 -0.00000000000E+00 -0.00000000000E+00 -0.45593999997E+02  0.45594000000E+02  0.51100000000E-03 0.  1.
    9900012    2    1    2    0    0 -0.11496403013E+01 -0.13831225351E+00  0.22901880790E+00  0.90007638735E+02  0.89999898766E+02 0.  0.
        -12    1    1    2    0    0  0.11496403013E+01  0.13831225351E+00 -0.22901880790E+00  0.11803612652E+01  0.00000000000E+00 0.  1.
         11    1    3    3    0    0 -0.17310163331E+02 -0.35534333787E+02 -0.94784811507E+01  0.40646921623E+02  0.51100000000E-03 0. -1.
        -11    1    3    3    0    0 -0.78954497075E+01  0.43100561108E+01  0.61700188915E+00  0.90163962509E+01  0.51100000000E-03 0.  1.
        -12    1    3    3    0    0  0.24055972737E+02  0.31085965423E+02  0.90904980694E+01  0.40344320861E+02  0.00000000000E+00 0.  1.
</event>
<event>
 7    1  0.1716782E-015  0.9000777E+02  0.7816164E-02  0.1186339E+00
        -11   -1    0    0    0    0  0.00000000000E+00  0.00000000000E+00  0.45593999997E+02  0.45594000000E+02  0.51100000000E-03 0.  1.
         11   -1    0    0    0    0 -0.00000000000E+00 -0.00000000000E+00 -0.45593999997E+02  0.45594000000E+02  0.51100000000E-03 0. -1.
    9900012    2    1    2    0    0 -0.14963316943E+00  0.87149604339E-01 -0.11674537389E+01  0.90007774017E+02  0.90000035834E+02 0.  0.
        -12    1    1    2    0    0  0.14963316943E+00 -0.87149604339E-01  0.11674537389E+01  0.11802259831E+01  0.00000000000E+00 0.  1.
         11    1    3    3    0    0  0.74774256298E+01 -0.37750568161E+01 -0.64858092781E+01  0.10593803390E+02  0.51100000000E-03 0. -1.
        -11    1    3    3    0    0  0.31674117381E+02  0.64231780983E+01  0.19274347681E+02  0.37629873871E+02  0.51100000000E-03 0.  1.
         12    1    3    3    0    0 -0.39301176180E+02 -0.25609716779E+01 -0.13955992142E+02  0.41784096756E+02  0.00000000000E+00 0. -1.
</event>
<event>
 7    1  0.1716782E-015  0.9000768E+02  0.7816164E-02  0.1186339E+00
        -11   -1    0    0    0    0  0.00000000000E+00  0.00000000000E+00  0.45593999997E+02  0.45594000000E+02  0.51100000000E-03 0. -1.
         11   -1    0    0    0    0 -0.00000000000E+00 -0.00000000000E+00 -0.45593999997E+02  0.45594000000E+02  0.51100000000E-03 0.  1.
    9900012    2    1    2    0    0  0.25047332467E+00 -0.46773883681E+00  0.10543413162E+01  0.90007681349E+02  0.89999941943E+02 0.  0.
        -12    1    1    2    0    0 -0.25047332467E+00  0.46773883681E+00 -0.10543413162E+01  0.11803186505E+01  0.00000000000E+00 0.  1.
         11    1    3    3    0    0 -0.26869557641E+02  0.26577398936E+02 -0.14004786420E+02  0.40304656120E+02  0.51100000000E-03 0. -1.
        -11    1    3    3    0    0  0.34814013313E+01  0.41772502839E+01 -0.33957034332E+01  0.64109575908E+01  0.51100000000E-03 0.  1.
        -12    1    3    3    0    0  0.23638629634E+02 -0.31222388056E+02  0.18454831170E+02  0.43292067639E+02  0.00000000000E+00 0.  1.
</event>
<event>
 7    1  0.1716782E-015  0.9000774E+02  0.7816164E-02  0.1186339E+00
        -11   -1    0    0    0    0  0.00000000000E+00  0.00000000000E+00  0.45593999997E+02  0.45594000000E+02  0.51100000000E-03 0.  1.
         11   -1    0    0    0    0 -0.00000000000E+00 -0.00000000000E+00 -0.45593999997E+02  0.45594000000E+02  0.51100000000E-03 0. -1.
    9900012    2    1    2    0    0  0.47670228792E+00  0.94508976220E+00 -0.52209276054E+00  0.90007737071E+02  0.89999998401E+02 0.  0.
        -12    1    1    2    0    0 -0.47670228792E+00 -0.94508976220E+00  0.52209276054E+00  0.11802629286E+01  0.00000000000E+00 0.  1.
         11    1    3    3    0    0  0.79373108976E+01  0.47372260420E+01 -0.16719496334E+01  0.93934887393E+01  0.51100000000E-03 0. -1.
        -11    1    3    3    0    0  0.28112797123E+02 -0.23866639515E+02 -0.10120999730E+02  0.38241083662E+02  0.51100000000E-03 0.  1.
         12    1    3    3    0    0 -0.35573405733E+02  0.20074503236E+02  0.11270856603E+02  0.42373164670E+02  0.00000000000E+00 0. -1.
</event>
<event>
 7    1  0.1716782E-015  0.9000771E+02  0.7816164E-02  0.1186339E+00
        -11   -1    0    0    0    0  0.00000000000E+00  0.00000000000E+00  0.45593999997E+02  0.45594000000E+02  0.51100000000E-03 0.  1.
         11   -1    0    0    0    0 -0.00000000000E+00 -0.00000000000E+00 -0.45593999997E+02  0.45594000000E+02  0.51100000000E-03 0. -1.
    9900012    2    1    2    0    0 -0.94024510338E+00 -0.12644102628E+00 -0.70217193886E+00  0.90007706130E+02  0.89999967051E+02 0.  0.
        -12    1    1    2    0    0  0.94024510338E+00  0.12644102628E+00  0.70217193886E+00  0.11802938699E+01  0.00000000000E+00 0.  1.
         11    1    3    3    0    0  0.21697140841E+02  0.23161423085E+02 -0.22833269500E+02  0.39097002907E+02  0.51100000000E-03 0. -1.
        -11    1    3    3    0    0  0.53807944722E+01 -0.63838329820E+01 -0.37865557448E+01  0.91675665999E+01  0.51100000000E-03 0.  1.
        -12    1    3    3    0    0 -0.28018180417E+02 -0.16904031129E+02  0.25917653306E+02  0.41743136623E+02  0.00000000000E+00 0.  1.
</event>
<event>
 7    1  0.1716782E-015  0.9000768E+02  0.7816164E-02  0.1186339E+00
        -11   -1    0    0    0    0  0.00000000000E+00  0.00000000000E+00  0.45593999997E+02  0.45594000000E+02  0.51100000000E-03 0.  1.
         11   -1    0    0    0    0 -0.00000000000E+00 -0.00000000000E+00 -0.45593999997E+02  0.45594000000E+02  0.51100000000E-03 0. -1.
    9900012    2    1    2    0    0  0.52552766257E+00 -0.10281764262E+01  0.24460525967E+00  0.90007678933E+02  0.89999939495E+02 0.  0.
        -12    1    1    2    0    0 -0.52552766257E+00  0.10281764262E+01 -0.24460525967E+00  0.11803210667E+01  0.00000000000E+00 0.  1.
         11    1    3    3    0    0  0.28884583906E+02 -0.19269430078E+02  0.19697742063E+02  0.39920310189E+02  0.51100000000E-03 0. -1.
        -11    1    3    3    0    0  0.42738556465E+01  0.82939634068E+01  0.23220663716E+01  0.96149708047E+01  0.51100000000E-03 0.  1.
        -12    1    3    3    0    0 -0.32632911890E+02  0.99472902451E+01 -0.21775203175E+02  0.40472397939E+02  0.00000000000E+00 0.  1.
</event>
<event>
 7    1  0.1716782E-015  0.9000805E+02  0.7816164E-02  0.1186338E+00
        -11   -1    0    0    0    0  0.00000000000E+00  0.00000000000E+00  0.45593999997E+02  0.45594000000E+02  0.51100000000E-03 0. -1.
         11   -1    0    0    0    0 -0.00000000000E+00 -0.00000000000E+00 -0.45593999997E+02  0.45594000000E+02  0.51100000000E-03 0.  1.
    9900012    2    1    2    0    0 -0.73663737220E+00  0.84672930583E+00  0.36427035532E+00  0.90008051685E+02  0.90000317166E+02 0.  0.
        -12    1    1    2    0    0  0.73663737220E+00 -0.84672930583E+00 -0.36427035532E+00  0.11799483155E+01  0.00000000000E+00 0.  1.
         11    1    3    3    0    0  0.33429808824E+02  0.13438860093E+02  0.14294778706E+02  0.38762040415E+02  0.51100000000E-03 0. -1.
        -11    1    3    3    0    0  0.31581516944E+01  0.18203294329E+01  0.56322969159E+01  0.67089708733E+01  0.51100000000E-03 0.  1.
        -12    1    3    3    0    0 -0.37324597891E+02 -0.14412460220E+02 -0.19562805267E+02  0.44537040396E+02  0.00000000000E+00 0.  1.
</event>
<event>
 7    1  0.1716782E-015  0.9000763E+02  0.7816164E-02  0.1186339E+00
        -11   -1    0    0    0    0  0.00000000000E+00  0.00000000000E+00  0.45593999997E+02  0.45594000000E+02  0.51100000000E-03 0. -1.
         11   -1    0    0    0    0 -0.00000000000E+00 -0.00000000000E+00 -0.45593999997E+02  0.45594000000E+02  0.51100000000E-03 0.  1.
    9900012    2    1    2    0    0  0.17982841827E+00  0.71604950578E+00  0.92097832259E+00  0.90007633012E+02  0.89999892968E+02 0.  0.
        -12    1    1    2    0    0 -0.17982841827E+00 -0.71604950578E+00 -0.92097832259E+00  0.11803669876E+01  0.00000000000E+00 0.  1.
         11    1    3    3    0    0 -0.15753758954E+02  0.59286558389E+01 -0.17705084590E+02  0.24429488366E+02  0.51100000000E-03 0. -1.
        -11    1    3    3    0    0 -0.81810532628E+01 -0.23274038457E+02 -0.74095739061E+01  0.25758732196E+02  0.51100000000E-03 0.  1.
         12    1    3    3    0    0  0.24114640635E+02  0.18061432124E+02  0.26035636819E+02  0.39819412450E+02  0.00000000000E+00 0. -1.
</event>
<event>
 7    1  0.1716782E-015  0.9000791E+02  0.7816164E-02  0.1186339E+00
        -11   -1    0    0    0    0  0.00000000000E+00  0.00000000000E+00  0.45593999997E+02  0.45594000000E+02  0.51100000000E-03 0. -1.
         11   -1    0    0    0    0 -0.00000000000E+00 -0.00000000000E+00 -0.45593999997E+02  0.45594000000E+02  0.51100000000E-03 0.  1.
    9900012    2    1    2    0    0 -0.49908396031E+00 -0.48444712731E+00  0.95332760376E+00  0.90007912148E+02  0.90000175788E+02 0.  0.
        -12    1    1    2    0    0  0.49908396031E+00  0.48444712731E+00 -0.95332760376E+00  0.11800878521E+01  0.00000000000E+00 0.  1.
         11    1    3    3    0    0  0.12926928909E+01  0.77305442891E+01 -0.32922921671E+01  0.85012680167E+01  0.51100000000E-03 0. -1.
        -11    1    3    3    0    0  0.28161204862E+02  0.18129607951E+01 -0.25562126911E+02  0.38075748431E+02  0.51100000000E-03 0.  1.
         12    1    3    3    0    0 -0.29952981713E+02 -0.10027952212E+02  0.29807746681E+02  0.43430895700E+02  0.00000000000E+00 0. -1.
</event>
<event>
 7    1  0.1716782E-015  0.9000774E+02  0.7816164E-02  0.1186339E+00
        -11   -1    0    0    0    0  0.00000000000E+00  0.00000000000E+00  0.45593999997E+02  0.45594000000E+02  0.51100000000E-03 0. -1.
         11   -1    0    0    0    0 -0.00000000000E+00 -0.00000000000E+00 -0.45593999997E+02  0.45594000000E+02  0.51100000000E-03 0.  1.
    9900012    2    1    2    0    0  0.31973857405E+00 -0.99535997257E+00  0.54775225212E+00  0.90007742926E+02  0.90000004333E+02 0.  0.
        -12    1    1    2    0    0 -0.31973857405E+00  0.99535997257E+00 -0.54775225212E+00  0.11802570739E+01  0.00000000000E+00 0.  1.
         11    1    3    3    0    0 -0.92390846725E+01  0.27185209722E-01 -0.29596697795E+01  0.97016014187E+01  0.51100000000E-03 0. -1.
        -11    1    3    3    0    0 -0.31420513651E+02  0.88113358245E+01 -0.12889359252E+02  0.35085950169E+02  0.51100000000E-03 0.  1.
         12    1    3    3    0    0  0.40979336897E+02 -0.98338810068E+01  0.16396781284E+02  0.45220191338E+02  0.00000000000E+00 0. -1.
</event>
<event>
 7    1  0.1716782E-015  0.9000783E+02  0.7816164E-02  0.1186339E+00
        -11   -1    0    0    0    0  0.00000000000E+00  0.00000000000E+00  0.45593999997E+02  0.45594000000E+02  0.51100000000E-03 0. -1.
         11   -1    0    0    0    0 -0.00000000000E+00 -0.00000000000E+00 -0.45593999997E+02  0.45594000000E+02  0.51100000000E-03 0.  1.
    9900012    2    1    2    0    0 -0.31253239584E-01  0.56403919539E+00  0.10361916702E+01  0.90007826218E+02  0.90000088724E+02 0.  0.
        -12    1    1    2    0    0  0.31253239584E-01 -0.56403919539E+00 -0.10361916702E+01  0.11801737822E+01  0.00000000000E+00 0.  1.
         11    1    3    3    0    0 -0.61048634407E+01  0.19685032632E+02  0.29394443690E+02  0.35899905117E+02  0.51100000000E-03 0. -1.
        -11    1    3    3    0    0  0.39848491056E+01 -0.41017703507E+01  0.10742463169E+02  0.12169801051E+02  0.51100000000E-03 0.  1.
        -12    1    3    3    0    0  0.20887610956E+01 -0.15019223086E+02 -0.39100715189E+02  0.41938120050E+02  0.00000000000E+00 0.  1.
</event>
<event>
 7    1  0.2388808E-015  0.9000779E+02  0.7816164E-02  0.1186339E+00
        -11   -1    0    0    0    0  0.00000000000E+00  0.00000000000E+00  0.45593999997E+02  0.45594000000E+02  0.51100000000E-03 0. -1.
         11   -1    0    0    0    0 -0.00000000000E+00 -0.00000000000E+00 -0.45593999997E+02  0.45594000000E+02  0.51100000000E-03 0.  1.
    9900012    2    1    2    0    0 -0.89231803564E+00  0.97399945930E-01  0.76628092607E+00  0.90007786170E+02  0.90000048148E+02 0.  0.
        -12    1    1    2    0    0  0.89231803564E+00 -0.97399945930E-01 -0.76628092607E+00  0.11802138297E+01  0.00000000000E+00 0.  1.
         11    1    3    3    0    0 -0.19069393932E+02  0.27183465492E+02  0.18497662344E+02  0.38009815753E+02  0.51100000000E-03 0. -1.
        -11    1    3    3    0    0 -0.74601370345E+00  0.84763488899E+01 -0.43024115686E+01  0.95349762724E+01  0.51100000000E-03 0.  1.
        -12    1    3    3    0    0  0.18923089600E+02 -0.35562414436E+02 -0.13428969849E+02  0.42462994145E+02  0.00000000000E+00 0.  1.
</event>
<event>
 7    1  0.1716782E-015  0.9000780E+02  0.7816164E-02  0.1186339E+00
        -11   -1    0    0    0    0  0.00000000000E+00  0.00000000000E+00  0.45593999997E+02  0.45594000000E+02  0.51100000000E-03 0.  1.
         11   -1    0    0    0    0 -0.00000000000E+00 -0.00000000000E+00 -0.45593999997E+02  0.45594000000E+02  0.51100000000E-03 0. -1.
    9900012    2    1    2    0    0 -0.62708394677E+00  0.99918199135E+00 -0.35696193134E-01  0.90007799531E+02  0.90000061685E+02 0.  0.
        -12    1    1    2    0    0  0.62708394677E+00 -0.99918199135E+00  0.35696193134E-01  0.11802004687E+01  0.00000000000E+00 0.  1.
         11    1    3    3    0    0  0.27956179913E+01 -0.84337361686E+01  0.14901040342E+01  0.90090951825E+01  0.51100000000E-03 0. -1.
        -11    1    3    3    0    0  0.17208281966E+02 -0.30803903474E+02 -0.50486486404E+01  0.35643993755E+02  0.51100000000E-03 0.  1.
         12    1    3    3    0    0 -0.20630983904E+02  0.40236821634E+02  0.35228484131E+01  0.45354710593E+02  0.00000000000E+00 0. -1.
</event>
<event>
 7    1  0.1716782E-015  0.9000791E+02  0.7816164E-02  0.1186339E+00
        -11   -1    0    0    0    0  0.00000000000E+00  0.00000000000E+00  0.45593999997E+02  0.45594000000E+02  0.51100000000E-03 0. -1.
         11   -1    0    0    0    0 -0.00000000000E+00 -0.00000000000E+00 -0.45593999997E+02  0.45594000000E+02  0.51100000000E-03 0.  1.
    9900012    2    1    2    0    0  0.79219074435E+00 -0.16439213331E+00  0.85907613563E+00  0.90007914090E+02  0.90000177755E+02 0.  0.
        -12    1    1    2    0    0 -0.79219074435E+00  0.16439213331E+00 -0.85907613563E+00  0.11800859103E+01  0.00000000000E+00 0.  1.
         11    1    3    3    0    0  0.77862523285E+01  0.46497388147E+01 -0.55363979754E+01  0.10625323485E+02  0.51100000000E-03 0. -1.
        -11    1    3    3    0    0 -0.21038757766E+02  0.15892436728E+02 -0.26944207621E+02  0.37698663081E+02  0.51100000000E-03 0.  1.
         12    1    3    3    0    0  0.14044696182E+02 -0.20706567676E+02  0.33339681732E+02  0.41683927523E+02  0.00000000000E+00 0. -1.
</event>
<event>
 7    1  0.1716782E-015  0.9000779E+02  0.7816164E-02  0.1186339E+00
        -11   -1    0    0    0    0  0.00000000000E+00  0.00000000000E+00  0.45593999997E+02  0.45594000000E+02  0.51100000000E-03 0.  1.
         11   -1    0    0    0    0 -0.00000000000E+00 -0.00000000000E+00 -0.45593999997E+02  0.45594000000E+02  0.51100000000E-03 0. -1.
    9900012    2    1    2    0    0 -0.11286402880E+01 -0.33635458310E+00 -0.77097995495E-01  0.90007785017E+02  0.90000046979E+02 0.  0.
        -12    1    1    2    0    0  0.11286402880E+01  0.33635458310E+00  0.77097995495E-01  0.11802149831E+01  0.00000000000E+00 0.  1.
         11    1    3    3    0    0  0.44922335808E+01 -0.78009703890E+01  0.32379823265E+01  0.95665997806E+01  0.51100000000E-03 0. -1.
        -11    1    3    3    0    0 -0.87197356806E+01 -0.20459231855E+02  0.29690954491E+02  0.37096721382E+02  0.51100000000E-03 0.  1.
         12    1    3    3    0    0  0.30988618118E+01  0.27923847661E+02 -0.33006034813E+02  0.43344463854E+02  0.00000000000E+00 0. -1.
</event>
<event>
 7    1  0.1716782E-015  0.9000709E+02  0.7816164E-02  0.1186340E+00
        -11   -1    0    0    0    0  0.00000000000E+00  0.00000000000E+00  0.45593999997E+02  0.45594000000E+02  0.51100000000E-03 0.  1.
         11   -1    0    0    0    0 -0.00000000000E+00 -0.00000000000E+00 -0.45593999997E+02  0.45594000000E+02  0.51100000000E-03 0. -1.
    9900012    2    1    2    0    0 -0.10788556912E+01 -0.31584993872E+00 -0.36175414960E+00  0.90007086434E+02  0.89999339172E+02 0.  0.
        -12    1    1    2    0    0  0.10788556912E+01  0.31584993872E+00  0.36175414960E+00  0.11809135663E+01  0.00000000000E+00 0.  1.
         11    1    3    3    0    0  0.54836020502E+01 -0.65247759295E+01  0.40453511512E+01  0.94343764273E+01  0.51100000000E-03 0. -1.
        -11    1    3    3    0    0  0.98926003027E+01  0.40871432983E+02 -0.11969090343E+01  0.42068636374E+02  0.51100000000E-03 0.  1.
         12    1    3    3    0    0 -0.16455058044E+02 -0.34662506992E+02 -0.32101962665E+01  0.38504073633E+02  0.00000000000E+00 0. -1.
</event>
<event>
 7    1  0.1716782E-015  0.9000771E+02  0.7816164E-02  0.1186339E+00
        -11   -1    0    0    0    0  0.00000000000E+00  0.00000000000E+00  0.45593999997E+02  0.45594000000E+02  0.51100000000E-03 0. -1.
         11   -1    0    0    0    0 -0.00000000000E+00 -0.00000000000E+00 -0.45593999997E+02  0.45594000000E+02  0.51100000000E-03 0.  1.
    9900012    2    1    2    0    0  0.10563063981E+01 -0.48010793208E+00  0.21632336323E+00  0.90007710785E+02  0.89999971768E+02 0.  0.
        -12    1    1    2    0    0 -0.10563063981E+01  0.48010793208E+00 -0.21632336323E+00  0.11802892148E+01  0.00000000000E+00 0.  1.
         11    1    3    3    0    0  0.24361893066E+02 -0.26553047346E+02 -0.11528077568E+02  0.37834676288E+02  0.51100000000E-03 0. -1.
        -11    1    3    3    0    0 -0.23895312334E+01 -0.93513430072E+01  0.13875337314E+01  0.97510371587E+01  0.51100000000E-03 0.  1.
        -12    1    3    3    0    0 -0.20916055435E+02  0.35424282421E+02  0.10356867200E+02  0.42421997339E+02  0.00000000000E+00 0.  1.
</event>
<event>
 7    1  0.1716782E-015  0.9000764E+02  0.7816164E-02  0.1186339E+00
        -11   -1    0    0    0    0  0.00000000000E+00  0.00000000000E+00  0.45593999997E+02  0.45594000000E+02  0.51100000000E-03 0. -1.
         11   -1    0    0    0    0 -0.00000000000E+00 -0.00000000000E+00 -0.45593999997E+02  0.45594000000E+02  0.51100000000E-03 0.  1.
    9900012    2    1    2    0    0  0.34418250770E+00  0.37724632986E+00  0.10641722068E+01  0.90007644597E+02  0.89999904706E+02 0.  0.
        -12    1    1    2    0    0 -0.34418250770E+00 -0.37724632986E+00 -0.10641722068E+01  0.11803554031E+01  0.00000000000E+00 0.  1.
         11    1    3    3    0    0 -0.14664829536E+00  0.61967801327E+00 -0.94959713699E+01  0.95172989384E+01  0.51100000000E-03 0. -1.
        -11    1    3    3    0    0  0.61162297614E+00 -0.21662703439E+02 -0.28582829652E+02  0.35869554697E+02  0.51100000000E-03 0.  1.
         12    1    3    3    0    0 -0.12079217308E+00  0.21420271756E+02  0.39142973229E+02  0.44620790962E+02  0.00000000000E+00 0. -1.
</event>
<event>
 7    1  0.1716782E-015  0.9000775E+02  0.7816164E-02  0.1186339E+00
        -11   -1    0    0    0    0  0.00000000000E+00  0.00000000000E+00  0.45593999997E+02  0.45594000000E+02  0.51100000000E-03 0.  1.
         11   -1    0    0    0    0 -0.00000000000E+00 -0.00000000000E+00 -0.45593999997E+02  0.45594000000E+02  0.51100000000E-03 0. -1.
    9900012    2    1    2    0    0  0.51358750393E+00  0.22804965365E-01 -0.10623970231E+01  0.90007754422E+02  0.90000015980E+02 0.  0.
        -12    1    1    2    0    0 -0.51358750393E+00 -0.22804965365E-01  0.10623970231E+01  0.11802455784E+01  0.00000000000E+00 0.  1.
         11    1    3    3    0    0 -0.32415991050E+02 -0.13502978329E+01 -0.18014862372E+02  0.37110039700E+02  0.51100000000E-03 0. -1.
        -11    1    3    3    0    0 -0.19750420158E+01 -0.18560927566E+00 -0.91005257519E+01  0.93142262690E+01  0.51100000000E-03 0.  1.
        -12    1    3    3    0    0  0.34904620569E+02  0.15587120739E+01  0.26052991101E+02  0.43583488453E+02  0.00000000000E+00 0.  1.
</event>
<event>
 7    1  0.1716782E-015  0.9000781E+02  0.7816164E-02  0.1186339E+00
        -11   -1    0    0    0    0  0.00000000000E+00  0.00000000000E+00  0.45593999997E+02  0.45594000000E+02  0.51100000000E-03 0.  1.
         11   -1    0    0    0    0 -0.00000000000E+00 -0.00000000000E+00 -0.45593999997E+02  0.45594000000E+02  0.51100000000E-03 0. -1.
    9900012    2    1    2    0    0  0.10998197892E+01 -0.23959032735E+00 -0.35473375473E+00  0.90007812248E+02  0.90000074569E+02 0.  0.
        -12    1    1    2    0    0 -0.10998197892E+01  0.23959032735E+00  0.35473375473E+00  0.11801877522E+01  0.00000000000E+00 0.  1.
         11    1    3    3    0    0 -0.12050424115E+01 -0.41214006549E+01  0.79419399617E+01  0.90284262853E+01  0.51100000000E-03 0. -1.
        -11    1    3    3    0    0  0.19920161119E+02 -0.91861512411E+01  0.29810041091E+02  0.37011305621E+02  0.51100000000E-03 0.  1.
         12    1    3    3    0    0 -0.17615298918E+02  0.13067961569E+02 -0.38106714808E+02  0.43968080342E+02  0.00000000000E+00 0. -1.
</event>
<event>
 7    1  0.1716782E-015  0.9000775E+02  0.7816164E-02  0.1186339E+00
        -11   -1    0    0    0    0  0.00000000000E+00  0.00000000000E+00  0.45593999997E+02  0.45594000000E+02  0.51100000000E-03 0. -1.
         11   -1    0    0    0    0 -0.00000000000E+00 -0.00000000000E+00 -0.45593999997E+02  0.45594000000E+02  0.51100000000E-03 0.  1.
    9900012    2    1    2    0    0  0.73337361486E+00  0.33704558834E+00 -0.86113782788E+00  0.90007747931E+02  0.90000009404E+02 0.  0.
        -12    1    1    2    0    0 -0.73337361486E+00 -0.33704558834E+00  0.86113782788E+00  0.11802520689E+01  0.00000000000E+00 0.  1.
         11    1    3    3    0    0  0.16637731660E+00 -0.87555735305E+01 -0.23614745551E+01  0.90699675631E+01  0.51100000000E-03 0. -1.
        -11    1    3    3    0    0 -0.29579498300E+02  0.55680528130E+01 -0.26155748310E+02  0.39875720705E+02  0.51100000000E-03 0.  1.
         12    1    3    3    0    0  0.30146494598E+02  0.35245663059E+01  0.27656085037E+02  0.41062059663E+02  0.00000000000E+00 0. -1.
</event>
<event>
 7    1  0.1716782E-015  0.9000770E+02  0.7816164E-02  0.1186339E+00
        -11   -1    0    0    0    0  0.00000000000E+00  0.00000000000E+00  0.45593999997E+02  0.45594000000E+02  0.51100000000E-03 0.  1.
         11   -1    0    0    0    0 -0.00000000000E+00 -0.00000000000E+00 -0.45593999997E+02  0.45594000000E+02  0.51100000000E-03 0. -1.
    9900012    2    1    2    0    0 -0.91024392769E+00  0.47840919062E+00 -0.57939446102E+00  0.90007696097E+02  0.89999956886E+02 0.  0.
        -12    1    1    2    0    0  0.91024392769E+00 -0.47840919062E+00  0.57939446102E+00  0.11803039028E+01  0.00000000000E+00 0.  1.
         11    1    3    3    0    0 -0.37651120264E+02  0.42200934415E+01 -0.16707851612E+01  0.37923707217E+02  0.51100000000E-03 0. -1.
        -11    1    3    3    0    0 -0.31129544415E+01  0.60806823294E+01 -0.75035886595E+01  0.10147365470E+02  0.51100000000E-03 0.  1.
        -12    1    3    3    0    0  0.39853830777E+02 -0.98223665803E+01  0.85949793597E+01  0.41936623410E+02  0.00000000000E+00 0.  1.
</event>
<event>
 7    1  0.1716782E-015  0.9000803E+02  0.7816164E-02  0.1186338E+00
        -11   -1    0    0    0    0  0.00000000000E+00  0.00000000000E+00  0.45593999997E+02  0.45594000000E+02  0.51100000000E-03 0.  1.
         11   -1    0    0    0    0 -0.00000000000E+00 -0.00000000000E+00 -0.45593999997E+02  0.45594000000E+02  0.51100000000E-03 0. -1.
    9900012    2    1    2    0    0 -0.55697060489E+00 -0.10340142073E+01  0.11365608412E+00  0.90008034178E+02  0.90000299429E+02 0.  0.
        -12    1    1    2    0    0  0.55697060489E+00  0.10340142073E+01 -0.11365608412E+00  0.11799658220E+01  0.00000000000E+00 0.  1.
         11    1    3    3    0    0 -0.52665461287E+01 -0.50262561206E+01  0.58401676016E+01  0.93331300533E+01  0.51100000000E-03 0. -1.
        -11    1    3    3    0    0  0.21327975448E+02  0.26981210879E+02  0.22146126754E+02  0.40906224559E+02  0.51100000000E-03 0.  1.
         12    1    3    3    0    0 -0.16618399924E+02 -0.22988968966E+02 -0.27872638272E+02  0.39768679565E+02  0.00000000000E+00 0. -1.
</event>
<event>
 7    1  0.1716782E-015  0.9000775E+02  0.7816164E-02  0.1186339E+00
        -11   -1    0    0    0    0  0.00000000000E+00  0.00000000000E+00  0.45593999997E+02  0.45594000000E+02  0.51100000000E-03 0. -1.
         11   -1    0    0    0    0 -0.00000000000E+00 -0.00000000000E+00 -0.45593999997E+02  0.45594000000E+02  0.51100000000E-03 0.  1.
    9900012    2    1    2    0    0 -0.44379334102E+00 -0.69156831075E+00  0.84721212177E+00  0.90007751027E+02  0.90000012541E+02 0.  0.
        -12    1    1    2    0    0  0.44379334102E+00  0.69156831075E+00 -0.84721212177E+00  0.11802489726E+01  0.00000000000E+00 0.  1.
         11    1    3    3    0    0  0.30542566142E+02 -0.10895444593E+02  0.21752564127E+02  0.39047831000E+02  0.51100000000E-03 0. -1.
        -11    1    3    3    0    0  0.11659444420E+01  0.33024578797E+01  0.70024019219E+01  0.78293861462E+01  0.51100000000E-03 0.  1.
        -12    1    3    3    0    0 -0.32152303925E+02  0.69014184021E+01 -0.27907753928E+02  0.43130533882E+02  0.00000000000E+00 0.  1.
</event>
<event>
 7    1  0.1716782E-015  0.9000776E+02  0.7816164E-02  0.1186339E+00
        -11   -1    0    0    0    0  0.00000000000E+00  0.00000000000E+00  0.45593999997E+02  0.45594000000E+02  0.51100000000E-03 0. -1.
         11   -1    0    0    0    0 -0.00000000000E+00 -0.00000000000E+00 -0.45593999997E+02  0.45594000000E+02  0.51100000000E-03 0.  1.
    9900012    2    1    2    0    0 -0.81509199189E+00  0.46207871691E+00  0.71768125978E+00  0.90007763546E+02  0.90000025225E+02 0.  0.
        -12    1    1    2    0    0  0.81509199189E+00 -0.46207871691E+00 -0.71768125978E+00  0.11802364536E+01  0.00000000000E+00 0.  1.
         11    1    3    3    0    0 -0.12032933317E+02  0.18418047333E+02  0.23798088580E+02  0.32409334645E+02  0.51100000000E-03 0. -1.
        -11    1    3    3    0    0 -0.53209394244E+01  0.19546307004E+01  0.12426670165E+02  0.13658517825E+02  0.51100000000E-03 0.  1.
        -12    1    3    3    0    0  0.16538780750E+02 -0.19910599317E+02 -0.35507077485E+02  0.43939911076E+02  0.00000000000E+00 0.  1.
</event>
<event>
 7    1  0.1716782E-015  0.9000772E+02  0.7816164E-02  0.1186339E+00
        -11   -1    0    0    0    0  0.00000000000E+00  0.00000000000E+00  0.45593999997E+02  0.45594000000E+02  0.51100000000E-03 0.  1.
         11   -1    0    0    0    0 -0.00000000000E+00 -0.00000000000E+00 -0.45593999997E+02  0.45594000000E+02  0.51100000000E-03 0. -1.
    9900012    2    1    2    0    0 -0.67645283037E+00 -0.57795013655E+00 -0.77552832586E+00  0.90007720806E+02  0.89999981920E+02 0.  0.
        -12    1    1    2    0    0  0.67645283037E+00  0.57795013655E+00  0.77552832586E+00  0.11802791942E+01  0.00000000000E+00 0.  1.
         11    1    3    3    0    0 -0.31347175973E+02 -0.58223852674E+01  0.20076744815E+02  0.37677862125E+02  0.51100000000E-03 0. -1.
        -11    1    3    3    0    0  0.27392710252E+01 -0.12707386701E+02  0.22628419706E+00  0.13001249452E+02  0.51100000000E-03 0.  1.
        -12    1    3    3    0    0  0.27931452117E+02  0.17951821832E+02 -0.21078557338E+02  0.39328609229E+02  0.00000000000E+00 0.  1.
</event>
<event>
 7    1  0.1716782E-015  0.9000775E+02  0.7816164E-02  0.1186339E+00
        -11   -1    0    0    0    0  0.00000000000E+00  0.00000000000E+00  0.45593999997E+02  0.45594000000E+02  0.51100000000E-03 0. -1.
         11   -1    0    0    0    0 -0.00000000000E+00 -0.00000000000E+00 -0.45593999997E+02  0.45594000000E+02  0.51100000000E-03 0.  1.
    9900012    2    1    2    0    0 -0.62244670700E+00  0.27621478508E-01  0.10023883758E+01  0.90007752015E+02  0.90000013542E+02 0.  0.
        -12    1    1    2    0    0  0.62244670700E+00 -0.27621478508E-01 -0.10023883758E+01  0.11802479846E+01  0.00000000000E+00 0.  1.
         11    1    3    3    0    0 -0.16048098291E+01  0.28555870957E+02  0.66884246289E+01  0.29372575730E+02  0.51100000000E-03 0. -1.
        -11    1    3    3    0    0  0.21947934175E+02  0.79223108362E+00 -0.10369449343E+02  0.24287134961E+02  0.51100000000E-03 0.  1.
         12    1    3    3    0    0 -0.20965571053E+02 -0.29320480562E+02  0.46834130900E+01  0.36348041325E+02  0.00000000000E+00 0. -1.
</event>
<event>
 7    1  0.1716782E-015  0.9000775E+02  0.7816164E-02  0.1186339E+00
        -11   -1    0    0    0    0  0.00000000000E+00  0.00000000000E+00  0.45593999997E+02  0.45594000000E+02  0.51100000000E-03 0.  1.
         11   -1    0    0    0    0 -0.00000000000E+00 -0.00000000000E+00 -0.45593999997E+02  0.45594000000E+02  0.51100000000E-03 0. -1.
    9900012    2    1    2    0    0 -0.11577286571E+01 -0.22945628918E+00 -0.21344474732E-02  0.90007749862E+02  0.90000011360E+02 0.  0.
        -12    1    1    2    0    0  0.11577286571E+01  0.22945628918E+00  0.21344474732E-02  0.11802501379E+01  0.00000000000E+00 0.  1.
         11    1    3    3    0    0 -0.34641344820E+02 -0.95579131471E+01 -0.19262687962E+02  0.40772878516E+02  0.51100000000E-03 0. -1.
        -11    1    3    3    0    0 -0.48581485740E+01 -0.12814363168E+01  0.46744869495E+01  0.68625443608E+01  0.51100000000E-03 0.  1.
        -12    1    3    3    0    0  0.38341764737E+02  0.10609893175E+02  0.14586066565E+02  0.42372326986E+02  0.00000000000E+00 0.  1.
</event>
<event>
 8    1  0.1716782E-015  0.9000778E+02  0.7816164E-02  0.1186339E+00
        -11   -1    0    0    0    0  0.00000000000E+00  0.00000000000E+00  0.45593999997E+02  0.45594000000E+02  0.51100000000E-03 0. -1.
         11   -1    0    0    0    0 -0.00000000000E+00 -0.00000000000E+00 -0.45593999997E+02  0.45594000000E+02  0.51100000000E-03 0.  1.
    9900012    2    1    2    0    0 -0.71086795857E+00  0.56818244153E+00  0.75149966981E+00  0.90007781251E+02  0.90000043164E+02 0.  0.
         23    2    3    3    0    0  0.16254172047E+02  0.14381583556E+02  0.15112653900E+02  0.63837848436E+02  0.58102069933E+02 0.  0.
        -12    1    1    2    0    0  0.71086795857E+00 -0.56818244153E+00 -0.75149966981E+00  0.11802187488E+01  0.00000000000E+00 0.  1.
         11    1    4    4    0    0  0.33222622824E+02 -0.76048808819E+01  0.10661291412E+02  0.35710502872E+02  0.51100000000E-03 0. -1.
        -11    1    4    4    0    0 -0.16968450776E+02  0.21986464438E+02  0.44513624877E+01  0.28127345564E+02  0.51100000000E-03 0.  1.
        -12    1    3    3    0    0 -0.16965040006E+02 -0.13813401114E+02 -0.14361154230E+02  0.26169932815E+02  0.00000000000E+00 0.  1.
</event>
<event>
 7    1  0.1716782E-015  0.9000785E+02  0.7816164E-02  0.1186339E+00
        -11   -1    0    0    0    0  0.00000000000E+00  0.00000000000E+00  0.45593999997E+02  0.45594000000E+02  0.51100000000E-03 0. -1.
         11   -1    0    0    0    0 -0.00000000000E+00 -0.00000000000E+00 -0.45593999997E+02  0.45594000000E+02  0.51100000000E-03 0.  1.
    9900012    2    1    2    0    0  0.32735994906E+00  0.79087084145E+00  0.81246905923E+00  0.90007852892E+02  0.90000115750E+02 0.  0.
        -12    1    1    2    0    0 -0.32735994906E+00 -0.79087084145E+00 -0.81246905923E+00  0.11801471079E+01  0.00000000000E+00 0.  1.
         11    1    3    3    0    0 -0.14242698197E+02 -0.29748863452E+02 -0.12665992922E+02  0.35330959591E+02  0.51100000000E-03 0. -1.
        -11    1    3    3    0    0 -0.68699455830E+01 -0.69556712939E+01  0.18961080382E+01  0.99585511706E+01  0.51100000000E-03 0.  1.
        -12    1    3    3    0    0  0.21440003729E+02  0.37495405588E+02  0.11582353943E+02  0.44718342131E+02  0.00000000000E+00 0.  1.
</event>
<event>
 7    1  0.1716782E-015  0.9000756E+02  0.7816164E-02  0.1186339E+00
        -11   -1    0    0    0    0  0.00000000000E+00  0.00000000000E+00  0.45593999997E+02  0.45594000000E+02  0.51100000000E-03 0.  1.
         11   -1    0    0    0    0 -0.00000000000E+00 -0.00000000000E+00 -0.45593999997E+02  0.45594000000E+02  0.51100000000E-03 0. -1.
    9900012    2    1    2    0    0 -0.75783854974E+00 -0.78319210729E+00 -0.45357073319E+00  0.90007561287E+02  0.89999820296E+02 0.  0.
        -12    1    1    2    0    0  0.75783854974E+00  0.78319210729E+00  0.45357073319E+00  0.11804387127E+01  0.00000000000E+00 0.  1.
         11    1    3    3    0    0 -0.56012079879E+01 -0.81582560600E+01 -0.56029145829E+01  0.11372041371E+02  0.51100000000E-03 0. -1.
        -11    1    3    3    0    0  0.36165935454E+02  0.22876535545E+02 -0.24738237910E+01  0.42865260646E+02  0.51100000000E-03 0.  1.
         12    1    3    3    0    0 -0.31322566016E+02 -0.15501471592E+02  0.76231676407E+01  0.35770259270E+02  0.00000000000E+00 0. -1.
</event>
<event>
 7    1  0.1748012E-015  0.9000799E+02  0.7816164E-02  0.1186339E+00
        -11   -1    0    0    0    0  0.00000000000E+00  0.00000000000E+00  0.45593999997E+02  0.45594000000E+02  0.51100000000E-03 0. -1.
         11   -1    0    0    0    0 -0.00000000000E+00 -0.00000000000E+00 -0.45593999997E+02  0.45594000000E+02  0.51100000000E-03 0.  1.
    9900012    2    1    2    0    0  0.14497470898E+00  0.75811749914E+00  0.89256599730E+00  0.90007985649E+02  0.90000250259E+02 0.  0.
        -12    1    1    2    0    0 -0.14497470898E+00 -0.75811749914E+00 -0.89256599730E+00  0.11800143509E+01  0.00000000000E+00 0.  1.
         11    1    3    3    0    0 -0.37263970074E+02 -0.83122294322E+00  0.10487154083E+02  0.38720470016E+02  0.51100000000E-03 0. -1.
        -11    1    3    3    0    0 -0.18056300116E+01 -0.92517079925E+01  0.24359969995E+00  0.94294083373E+01  0.51100000000E-03 0.  1.
        -12    1    3    3    0    0  0.39214574794E+02  0.10841048435E+02 -0.98381877859E+01  0.41858107296E+02  0.00000000000E+00 0.  1.
</event>
<event>
 7    1  0.1716782E-015  0.9000770E+02  0.7816164E-02  0.1186339E+00
        -11   -1    0    0    0    0  0.00000000000E+00  0.00000000000E+00  0.45593999997E+02  0.45594000000E+02  0.51100000000E-03 0. -1.
         11   -1    0    0    0    0 -0.00000000000E+00 -0.00000000000E+00 -0.45593999997E+02  0.45594000000E+02  0.51100000000E-03 0.  1.
    9900012    2    1    2    0    0 -0.96319492452E+00  0.48573519006E+00  0.47897280363E+00  0.90007704239E+02  0.89999965135E+02 0.  0.
        -12    1    1    2    0    0  0.96319492452E+00 -0.48573519006E+00 -0.47897280363E+00  0.11802957613E+01  0.00000000000E+00 0.  1.
         11    1    3    3    0    0 -0.26842072744E+02 -0.89563056912E+01  0.29859473309E+02  0.41137579260E+02  0.51100000000E-03 0. -1.
        -11    1    3    3    0    0  0.24266629473E+01 -0.44795431511E+01  0.34773261988E+01  0.61682086262E+01  0.51100000000E-03 0.  1.
        -12    1    3    3    0    0  0.23452214872E+02  0.13921584032E+02 -0.32857826705E+02  0.42701916352E+02  0.00000000000E+00 0.  1.
</event>
<event>
 7    1  0.1716782E-015  0.9000775E+02  0.7816164E-02  0.1186339E+00
        -11   -1    0    0    0    0  0.00000000000E+00  0.00000000000E+00  0.45593999997E+02  0.45594000000E+02  0.51100000000E-03 0.  1.
         11   -1    0    0    0    0 -0.00000000000E+00 -0.00000000000E+00 -0.45593999997E+02  0.45594000000E+02  0.51100000000E-03 0. -1.
    9900012    2    1    2    0    0  0.42009906774E+00 -0.21742801413E+00 -0.10813116189E+01  0.90007748762E+02  0.90000010246E+02 0.  0.
        -12    1    1    2    0    0 -0.42009906774E+00  0.21742801413E+00  0.10813116189E+01  0.11802512381E+01  0.00000000000E+00 0.  1.
         11    1    3    3    0    0 -0.30921116207E+02  0.22047815572E+02 -0.19018933162E+02  0.42472831527E+02  0.51100000000E-03 0. -1.
        -11    1    3    3    0    0  0.12762086297E+02 -0.16957184950E+01 -0.24770592532E+01  0.13110382553E+02  0.51100000000E-03 0.  1.
        -12    1    3    3    0    0  0.18579128978E+02 -0.20569525091E+02  0.20414680797E+02  0.34424534682E+02  0.00000000000E+00 0.  1.
</event>
<event>
 7    1  0.1716782E-015  0.9000761E+02  0.7816164E-02  0.1186339E+00
        -11   -1    0    0    0    0  0.00000000000E+00  0.00000000000E+00  0.45593999997E+02  0.45594000000E+02  0.51100000000E-03 0. -1.
         11   -1    0    0    0    0 -0.00000000000E+00 -0.00000000000E+00 -0.45593999997E+02  0.45594000000E+02  0.51100000000E-03 0.  1.
    9900012    2    1    2    0    0  0.66504317277E+00 -0.97520688238E+00 -0.31892573901E-02  0.90007609786E+02  0.89999869435E+02 0.  0.
        -12    1    1    2    0    0 -0.66504317277E+00  0.97520688238E+00  0.31892573901E-02  0.11803902136E+01  0.00000000000E+00 0.  1.
         11    1    3    3    0    0 -0.44531433636E+01 -0.23798077661E+01  0.33442305519E+02  0.33821321226E+02  0.51100000000E-03 0. -1.
        -11    1    3    3    0    0 -0.59133451693E+01  0.28572121427E+01  0.96526654736E+01  0.11674984511E+02  0.51100000000E-03 0.  1.
        -12    1    3    3    0    0  0.11031531706E+02 -0.14526112590E+01 -0.43098160250E+02  0.44511304049E+02  0.00000000000E+00 0.  1.
</event>
<event>
 7    1  0.1716782E-015  0.9000775E+02  0.7816164E-02  0.1186339E+00
        -11   -1    0    0    0    0  0.00000000000E+00  0.00000000000E+00  0.45593999997E+02  0.45594000000E+02  0.51100000000E-03 0. -1.
         11   -1    0    0    0    0 -0.00000000000E+00 -0.00000000000E+00 -0.45593999997E+02  0.45594000000E+02  0.51100000000E-03 0.  1.
    9900012    2    1    2    0    0  0.11707095394E+01  0.85135205603E-01  0.12317589334E+00  0.90007753784E+02  0.90000015334E+02 0.  0.
        -12    1    1    2    0    0 -0.11707095394E+01 -0.85135205603E-01 -0.12317589334E+00  0.11802462156E+01  0.00000000000E+00 0.  1.
         11    1    3    3    0    0  0.28262985797E+00  0.74649229846E+01 -0.58652479254E+01  0.94976885762E+01  0.51100000000E-03 0. -1.
        -11    1    3    3    0    0 -0.66478409840E+01 -0.31965985310E+01 -0.36458327972E+02  0.37197065888E+02  0.51100000000E-03 0.  1.
         12    1    3    3    0    0  0.75359206654E+01 -0.41831892480E+01  0.42446751790E+02  0.43312999320E+02  0.00000000000E+00 0. -1.
</event>
<event>
 7    1  0.1716782E-015  0.9000771E+02  0.7816164E-02  0.1186339E+00
        -11   -1    0    0    0    0  0.00000000000E+00  0.00000000000E+00  0.45593999997E+02  0.45594000000E+02  0.51100000000E-03 0. -1.
         11   -1    0    0    0    0 -0.00000000000E+00 -0.00000000000E+00 -0.45593999997E+02  0.45594000000E+02  0.51100000000E-03 0.  1.
    9900012    2    1    2    0    0 -0.13151960426E+00  0.10030258736E+01  0.60805340845E+00  0.90007708825E+02  0.89999969782E+02 0.  0.
        -12    1    1    2    0    0  0.13151960426E+00 -0.10030258736E+01 -0.60805340845E+00  0.11802911747E+01  0.00000000000E+00 0.  1.
         11    1    3    3    0    0 -0.10668918036E+02 -0.15464813171E+02 -0.26873120701E+02  0.32789493362E+02  0.51100000000E-03 0. -1.
        -11    1    3    3    0    0  0.52571110888E+01  0.11107833211E+02 -0.11910881210E+02  0.17114037136E+02  0.51100000000E-03 0.  1.
        -12    1    3    3    0    0  0.52802873433E+01  0.53600058333E+01  0.39392055319E+02  0.40104178327E+02  0.00000000000E+00 0.  1.
</event>
<event>
 7    1  0.1716782E-015  0.9000772E+02  0.7816164E-02  0.1186339E+00
        -11   -1    0    0    0    0  0.00000000000E+00  0.00000000000E+00  0.45593999997E+02  0.45594000000E+02  0.51100000000E-03 0. -1.
         11   -1    0    0    0    0 -0.00000000000E+00 -0.00000000000E+00 -0.45593999997E+02  0.45594000000E+02  0.51100000000E-03 0.  1.
    9900012    2    1    2    0    0  0.88625369499E+00  0.60143021264E+00  0.49587232665E+00  0.90007723220E+02  0.89999984367E+02 0.  0.
        -12    1    1    2    0    0 -0.88625369499E+00 -0.60143021264E+00 -0.49587232665E+00  0.11802767798E+01  0.00000000000E+00 0.  1.
         11    1    3    3    0    0  0.19689632551E+02  0.23974027097E+02  0.12241915312E+02  0.33351163338E+02  0.51100000000E-03 0. -1.
        -11    1    3    3    0    0  0.24473393877E+01  0.12154281726E+02  0.29208883505E+01  0.12737645911E+02  0.51100000000E-03 0.  1.
        -12    1    3    3    0    0 -0.21250718243E+02 -0.35526878610E+02 -0.14666931336E+02  0.43918913971E+02  0.00000000000E+00 0.  1.
</event>
<event>
 7    1  0.1716782E-015  0.9000775E+02  0.7816164E-02  0.1186339E+00
        -11   -1    0    0    0    0  0.00000000000E+00  0.00000000000E+00  0.45593999997E+02  0.45594000000E+02  0.51100000000E-03 0.  1.
         11   -1    0    0    0    0 -0.00000000000E+00 -0.00000000000E+00 -0.45593999997E+02  0.45594000000E+02  0.51100000000E-03 0. -1.
    9900012    2    1    2    0    0 -0.35683034687E+00 -0.10983017201E+01 -0.24370278469E+00  0.90007751885E+02  0.90000013410E+02 0.  0.
        -12    1    1    2    0    0  0.35683034687E+00  0.10983017201E+01  0.24370278469E+00  0.11802481146E+01  0.00000000000E+00 0.  1.
         11    1    3    3    0    0  0.64203045369E+01  0.55478377758E+01 -0.42992010713E+01  0.95121997690E+01  0.51100000000E-03 0. -1.
        -11    1    3    3    0    0  0.23283835821E+02  0.20606153339E+02  0.19923068257E+02  0.36928027500E+02  0.51100000000E-03 0.  1.
         12    1    3    3    0    0 -0.30060970705E+02 -0.27252292835E+02 -0.15867569971E+02  0.43567524617E+02  0.00000000000E+00 0. -1.
</event>
<event>
 7    1  0.1716782E-015  0.9000779E+02  0.7816164E-02  0.1186339E+00
        -11   -1    0    0    0    0  0.00000000000E+00  0.00000000000E+00  0.45593999997E+02  0.45594000000E+02  0.51100000000E-03 0.  1.
         11   -1    0    0    0    0 -0.00000000000E+00 -0.00000000000E+00 -0.45593999997E+02  0.45594000000E+02  0.51100000000E-03 0. -1.
    9900012    2    1    2    0    0 -0.16307936249E+00 -0.54317546119E+00 -0.10350133754E+01  0.90007793600E+02  0.90000055675E+02 0.  0.
        -12    1    1    2    0    0  0.16307936249E+00  0.54317546119E+00  0.10350133754E+01  0.11802064004E+01  0.00000000000E+00 0.  1.
         11    1    3    3    0    0  0.81055479230E+01 -0.13623699967E+01  0.40348757564E+01  0.91562100113E+01  0.51100000000E-03 0. -1.
        -11    1    3    3    0    0  0.15819715732E+02 -0.25352437564E+02  0.21194241202E+02  0.36636120928E+02  0.51100000000E-03 0.  1.
         12    1    3    3    0    0 -0.24088343018E+02  0.26171632099E+02 -0.26264130333E+02  0.44215462660E+02  0.00000000000E+00 0. -1.
</event>
<event>
 7    1  0.1716782E-015  0.9000781E+02  0.7816164E-02  0.1186339E+00
        -11   -1    0    0    0    0  0.00000000000E+00  0.00000000000E+00  0.45593999997E+02  0.45594000000E+02  0.51100000000E-03 0. -1.
         11   -1    0    0    0    0 -0.00000000000E+00 -0.00000000000E+00 -0.45593999997E+02  0.45594000000E+02  0.51100000000E-03 0.  1.
    9900012    2    1    2    0    0  0.25036822456E+00 -0.56202796252E+00  0.10071185752E+01  0.90007810395E+02  0.90000072692E+02 0.  0.
        -12    1    1    2    0    0 -0.25036822456E+00  0.56202796252E+00 -0.10071185752E+01  0.11801896047E+01  0.00000000000E+00 0.  1.
         11    1    3    3    0    0 -0.93167778849E+01  0.35229574957E+02  0.12647748769E+02  0.38573188240E+02  0.51100000000E-03 0. -1.
        -11    1    3    3    0    0 -0.93843440666E+01 -0.63255530178E+00 -0.58477498972E+01  0.11075297689E+02  0.51100000000E-03 0.  1.
        -12    1    3    3    0    0  0.18951490176E+02 -0.35159047618E+02 -0.57928802968E+01  0.40359324467E+02  0.00000000000E+00 0.  1.
</event>
<event>
 7    1  0.1716782E-015  0.9000785E+02  0.7816164E-02  0.1186339E+00
        -11   -1    0    0    0    0  0.00000000000E+00  0.00000000000E+00  0.45593999997E+02  0.45594000000E+02  0.51100000000E-03 0.  1.
         11   -1    0    0    0    0 -0.00000000000E+00 -0.00000000000E+00 -0.45593999997E+02  0.45594000000E+02  0.51100000000E-03 0. -1.
    9900012    2    1    2    0    0  0.48341660244E+00 -0.10652699687E+01  0.15576090211E+00  0.90007850359E+02  0.90000113183E+02 0.  0.
        -12    1    1    2    0    0 -0.48341660244E+00  0.10652699687E+01 -0.15576090211E+00  0.11801496415E+01  0.00000000000E+00 0.  1.
         11    1    3    3    0    0  0.10432774368E+02  0.20289780224E+02 -0.27914672931E+02  0.36052003102E+02  0.51100000000E-03 0. -1.
        -11    1    3    3    0    0  0.48650972255E+00  0.11544929200E+02  0.74919531469E+01  0.13771399499E+02  0.51100000000E-03 0.  1.
        -12    1    3    3    0    0 -0.10435867488E+02 -0.32899979393E+02  0.20578480686E+02  0.40184447758E+02  0.00000000000E+00 0.  1.
</event>
<event>
 7    1  0.1716782E-015  0.9000766E+02  0.7816164E-02  0.1186339E+00
        -11   -1    0    0    0    0  0.00000000000E+00  0.00000000000E+00  0.45593999997E+02  0.45594000000E+02  0.51100000000E-03 0.  1.
         11   -1    0    0    0    0 -0.00000000000E+00 -0.00000000000E+00 -0.45593999997E+02  0.45594000000E+02  0.51100000000E-03 0. -1.
    9900012    2    1    2    0    0 -0.61828542729E+00 -0.90189186432E+00  0.44443612593E+00  0.90007657137E+02  0.89999917411E+02 0.  0.
        -12    1    1    2    0    0  0.61828542729E+00  0.90189186432E+00 -0.44443612593E+00  0.11803428631E+01  0.00000000000E+00 0.  1.
         11    1    3    3    0    0  0.29830374465E+01  0.70096870254E+01 -0.53064736165E+01  0.92840124465E+01  0.51100000000E-03 0. -1.
        -11    1    3    3    0    0 -0.65206194397E+01  0.58718791990E+01  0.41437550738E+02  0.42356440533E+02  0.51100000000E-03 0.  1.
         12    1    3    3    0    0  0.29192965659E+01 -0.13783458089E+02 -0.35686640995E+02  0.38367204157E+02  0.00000000000E+00 0. -1.
</event>
<event>
 7    1  0.1716782E-015  0.9000783E+02  0.7816164E-02  0.1186339E+00
        -11   -1    0    0    0    0  0.00000000000E+00  0.00000000000E+00  0.45593999997E+02  0.45594000000E+02  0.51100000000E-03 0. -1.
         11   -1    0    0    0    0 -0.00000000000E+00 -0.00000000000E+00 -0.45593999997E+02  0.45594000000E+02  0.51100000000E-03 0.  1.
    9900012    2    1    2    0    0 -0.69569373751E+00  0.10601272811E+00  0.94740297572E+00  0.90007830151E+02  0.90000092709E+02 0.  0.
        -12    1    1    2    0    0  0.69569373751E+00 -0.10601272811E+00 -0.94740297572E+00  0.11801698494E+01  0.00000000000E+00 0.  1.
         11    1    3    3    0    0  0.19640421431E+02 -0.24860579310E+02  0.18598187872E+02  0.36738088546E+02  0.51100000000E-03 0. -1.
        -11    1    3    3    0    0  0.78819795490E+01  0.35921513256E+01  0.61409796024E+01  0.10617946294E+02  0.51100000000E-03 0.  1.
        -12    1    3    3    0    0 -0.28218094718E+02  0.21374440713E+02 -0.23791764499E+02  0.42651795311E+02  0.00000000000E+00 0.  1.
</event>
<event>
 7    1  0.1716782E-015  0.9000774E+02  0.7816164E-02  0.1186339E+00
        -11   -1    0    0    0    0  0.00000000000E+00  0.00000000000E+00  0.45593999997E+02  0.45594000000E+02  0.51100000000E-03 0. -1.
         11   -1    0    0    0    0 -0.00000000000E+00 -0.00000000000E+00 -0.45593999997E+02  0.45594000000E+02  0.51100000000E-03 0.  1.
    9900012    2    1    2    0    0 -0.51151770957E-01 -0.11490516854E+01 -0.26472602859E+00  0.90007738949E+02  0.90000000303E+02 0.  0.
        -12    1    1    2    0    0  0.51151770957E-01  0.11490516854E+01  0.26472602859E+00  0.11802610515E+01  0.00000000000E+00 0.  1.
         11    1    3    3    0    0  0.37936261804E+02  0.16338693260E+02 -0.43582240460E+00  0.41307418202E+02  0.51100000000E-03 0. -1.
        -11    1    3    3    0    0  0.78505766555E+00 -0.67834189411E+01  0.46010815730E+01  0.82341386903E+01  0.51100000000E-03 0.  1.
        -12    1    3    3    0    0 -0.38772471241E+02 -0.10704326004E+02 -0.44299851970E+01  0.40466182056E+02  0.00000000000E+00 0.  1.
</event>
<event>
 7    1  0.1716782E-015  0.9000780E+02  0.7816164E-02  0.1186339E+00
        -11   -1    0    0    0    0  0.00000000000E+00  0.00000000000E+00  0.45593999997E+02  0.45594000000E+02  0.51100000000E-03 0.  1.
         11   -1    0    0    0    0 -0.00000000000E+00 -0.00000000000E+00 -0.45593999997E+02  0.45594000000E+02  0.51100000000E-03 0. -1.
    9900012    2    1    2    0    0 -0.82452582391E-01 -0.32416868345E+00 -0.11318091061E+01  0.90007798485E+02  0.90000060625E+02 0.  0.
        -12    1    1    2    0    0  0.82452582391E-01  0.32416868345E+00  0.11318091061E+01  0.11802015151E+01  0.00000000000E+00 0.  1.
         11    1    3    3    0    0  0.22718470008E+02 -0.21304197744E+02 -0.17847161864E+02  0.35895945563E+02  0.51100000000E-03 0. -1.
        -11    1    3    3    0    0  0.79373053267E+01 -0.34533647995E+01 -0.42017500063E+01  0.96219149686E+01  0.51100000000E-03 0.  1.
        -12    1    3    3    0    0 -0.30738227917E+02  0.24433393860E+02  0.20917102764E+02  0.44489937953E+02  0.00000000000E+00 0.  1.
</event>
<event>
 7    1  0.1716782E-015  0.9000779E+02  0.7816164E-02  0.1186339E+00
        -11   -1    0    0    0    0  0.00000000000E+00  0.00000000000E+00  0.45593999997E+02  0.45594000000E+02  0.51100000000E-03 0.  1.
         11   -1    0    0    0    0 -0.00000000000E+00 -0.00000000000E+00 -0.45593999997E+02  0.45594000000E+02  0.51100000000E-03 0. -1.
    9900012    2    1    2    0    0  0.23889543351E+00 -0.49373127346E+00 -0.10450147235E+01  0.90007789268E+02  0.90000051287E+02 0.  0.
        -12    1    1    2    0    0 -0.23889543351E+00  0.49373127346E+00  0.10450147235E+01  0.11802107316E+01  0.00000000000E+00 0.  1.
         11    1    3    3    0    0  0.80905739669E+01 -0.34030212500E+02 -0.99635889374E+01  0.36370123105E+02  0.51100000000E-03 0. -1.
        -11    1    3    3    0    0  0.10293235035E+01 -0.87670433733E+01 -0.20071032111E+01  0.90525697979E+01  0.51100000000E-03 0.  1.
        -12    1    3    3    0    0 -0.88810020369E+01  0.42303524600E+02  0.10925677425E+02  0.44585096366E+02  0.00000000000E+00 0.  1.
</event>
<event>
 7    1  0.1716782E-015  0.9000776E+02  0.7816164E-02  0.1186339E+00
        -11   -1    0    0    0    0  0.00000000000E+00  0.00000000000E+00  0.45593999997E+02  0.45594000000E+02  0.51100000000E-03 0.  1.
         11   -1    0    0    0    0 -0.00000000000E+00 -0.00000000000E+00 -0.45593999997E+02  0.45594000000E+02  0.51100000000E-03 0. -1.
    9900012    2    1    2    0    0 -0.48196315042E+00  0.53222017904E+00 -0.93670957402E+00  0.90007757812E+02  0.90000019415E+02 0.  0.
        -12    1    1    2    0    0  0.48196315042E+00 -0.53222017904E+00  0.93670957402E+00  0.11802421885E+01  0.00000000000E+00 0.  1.
         11    1    3    3    0    0 -0.18963768558E+02  0.29826806194E+02  0.73013688048E+01  0.36091174439E+02  0.51100000000E-03 0. -1.
        -11    1    3    3    0    0 -0.11640475715E+02 -0.56924777578E+00 -0.21327691813E+01  0.11847929040E+02  0.51100000000E-03 0.  1.
        -12    1    3    3    0    0  0.30122281123E+02 -0.28725338239E+02 -0.61053091976E+01  0.42068654333E+02  0.00000000000E+00 0.  1.
</event>
<event>
 7    1  0.1716782E-015  0.9000780E+02  0.7816164E-02  0.1186339E+00
        -11   -1    0    0    0    0  0.00000000000E+00  0.00000000000E+00  0.45593999997E+02  0.45594000000E+02  0.51100000000E-03 0.  1.
         11   -1    0    0    0    0 -0.00000000000E+00 -0.00000000000E+00 -0.45593999997E+02  0.45594000000E+02  0.51100000000E-03 0. -1.
    9900012    2    1    2    0    0 -0.88147691121E+00 -0.27160621800E+00 -0.73627121771E+00  0.90007802225E+02  0.90000064414E+02 0.  0.
        -12    1    1    2    0    0  0.88147691121E+00  0.27160621800E+00  0.73627121771E+00  0.11801977752E+01  0.00000000000E+00 0.  1.
         11    1    3    3    0    0  0.33886571861E+01 -0.90734689380E+01 -0.13739087695E+02  0.16809918710E+02  0.51100000000E-03 0. -1.
        -11    1    3    3    0    0  0.23905348363E+02 -0.24051199415E+01  0.30001117049E+02  0.38435885664E+02  0.51100000000E-03 0.  1.
         12    1    3    3    0    0 -0.28175482461E+02  0.11206982662E+02 -0.16998300572E+02  0.34761997851E+02  0.00000000000E+00 0. -1.
</event>
<event>
 7    1  0.2250644E-015  0.9000770E+02  0.7816164E-02  0.1186339E+00
        -11   -1    0    0    0    0  0.00000000000E+00  0.00000000000E+00  0.45593999997E+02  0.45594000000E+02  0.51100000000E-03 0. -1.
         11   -1    0    0    0    0 -0.00000000000E+00 -0.00000000000E+00 -0.45593999997E+02  0.45594000000E+02  0.51100000000E-03 0.  1.
    9900012    2    1    2    0    0 -0.11752415981E+01  0.43073203097E-01 -0.10029923421E+00  0.90007700016E+02  0.89999960857E+02 0.  0.
        -12    1    1    2    0    0  0.11752415981E+01 -0.43073203097E-01  0.10029923421E+00  0.11802999835E+01  0.00000000000E+00 0.  1.
         11    1    3    3    0    0  0.34115717749E+02 -0.20546384354E+01  0.20506890862E+02  0.39857700758E+02  0.51100000000E-03 0. -1.
        -11    1    3    3    0    0  0.32893229827E+01 -0.31954258099E+00 -0.93068573402E+01  0.98762010388E+01  0.51100000000E-03 0.  1.
        -12    1    3    3    0    0 -0.38580282330E+02  0.24172542194E+01 -0.11300332756E+02  0.40273798219E+02  0.00000000000E+00 0.  1.
</event>
<event>
 7    1  0.1716782E-015  0.9000772E+02  0.7816164E-02  0.1186339E+00
        -11   -1    0    0    0    0  0.00000000000E+00  0.00000000000E+00  0.45593999997E+02  0.45594000000E+02  0.51100000000E-03 0.  1.
         11   -1    0    0    0    0 -0.00000000000E+00 -0.00000000000E+00 -0.45593999997E+02  0.45594000000E+02  0.51100000000E-03 0. -1.
    9900012    2    1    2    0    0 -0.11226187694E+01  0.70552764323E-01 -0.35749706865E+00  0.90007722597E+02  0.89999983735E+02 0.  0.
        -12    1    1    2    0    0  0.11226187694E+01 -0.70552764323E-01  0.35749706865E+00  0.11802774030E+01  0.00000000000E+00 0.  1.
         11    1    3    3    0    0  0.25753657149E+02  0.18163429967E+02 -0.29708643882E+01  0.31654179506E+02  0.51100000000E-03 0. -1.
        -11    1    3    3    0    0  0.12159088280E+02  0.46398544432E+01  0.20706369400E+01  0.13177982192E+02  0.51100000000E-03 0.  1.
        -12    1    3    3    0    0 -0.39035364199E+02 -0.22732731646E+02  0.54273037960E+00  0.45175560899E+02  0.00000000000E+00 0.  1.
</event>
<event>
 7    1  0.1716782E-015  0.9000753E+02  0.7816164E-02  0.1186339E+00
        -11   -1    0    0    0    0  0.00000000000E+00  0.00000000000E+00  0.45593999997E+02  0.45594000000E+02  0.51100000000E-03 0.  1.
         11   -1    0    0    0    0 -0.00000000000E+00 -0.00000000000E+00 -0.45593999997E+02  0.45594000000E+02  0.51100000000E-03 0. -1.
    9900012    2    1    2    0    0 -0.86648256750E+00 -0.39466026176E+00 -0.69782949540E+00  0.90007527736E+02  0.89999786302E+02 0.  0.
        -12    1    1    2    0    0  0.86648256750E+00  0.39466026176E+00  0.69782949540E+00  0.11804722642E+01  0.00000000000E+00 0.  1.
         11    1    3    3    0    0  0.17476906581E+02 -0.34070179928E+01  0.20676773434E+02  0.27286974825E+02  0.51100000000E-03 0. -1.
        -11    1    3    3    0    0  0.96347457323E+01 -0.18820821608E+02  0.28233267056E+00  0.21145480920E+02  0.51100000000E-03 0.  1.
        -12    1    3    3    0    0 -0.27978134881E+02  0.21833179339E+02 -0.21656935600E+02  0.41575071991E+02  0.00000000000E+00 0.  1.
</event>
<event>
 7    1  0.1716782E-015  0.9000767E+02  0.7816164E-02  0.1186339E+00
        -11   -1    0    0    0    0  0.00000000000E+00  0.00000000000E+00  0.45593999997E+02  0.45594000000E+02  0.51100000000E-03 0.  1.
         11   -1    0    0    0    0 -0.00000000000E+00 -0.00000000000E+00 -0.45593999997E+02  0.45594000000E+02  0.51100000000E-03 0. -1.
    9900012    2    1    2    0    0  0.63680475220E+00  0.84067629501E+00  0.53002286816E+00  0.90007669044E+02  0.89999929475E+02 0.  0.
        -12    1    1    2    0    0 -0.63680475220E+00 -0.84067629501E+00 -0.53002286816E+00  0.11803309562E+01  0.00000000000E+00 0.  1.
         11    1    3    3    0    0 -0.54060825890E+01  0.10217906013E+02  0.28832436417E+01  0.11914043244E+02  0.51100000000E-03 0. -1.
        -11    1    3    3    0    0  0.20935187757E+02  0.30171223965E+01  0.32172637243E+02  0.38502775243E+02  0.51100000000E-03 0.  1.
         12    1    3    3    0    0 -0.14892300416E+02 -0.12394352115E+02 -0.34525858017E+02  0.39590850557E+02  0.00000000000E+00 0. -1.
</event>
<event>
 7    1  0.1716782E-015  0.9000775E+02  0.7816164E-02  0.1186339E+00
        -11   -1    0    0    0    0  0.00000000000E+00  0.00000000000E+00  0.45593999997E+02  0.45594000000E+02  0.51100000000E-03 0. -1.
         11   -1    0    0    0    0 -0.00000000000E+00 -0.00000000000E+00 -0.45593999997E+02  0.45594000000E+02  0.51100000000E-03 0.  1.
    9900012    2    1    2    0    0  0.71244973452E+00  0.79774815718E+00  0.49899866828E+00  0.90007751544E+02  0.90000013065E+02 0.  0.
        -12    1    1    2    0    0 -0.71244973452E+00 -0.79774815718E+00 -0.49899866828E+00  0.11802484558E+01  0.00000000000E+00 0.  1.
         11    1    3    3    0    0  0.14730376586E+02 -0.76293137777E+00  0.22214721579E+02  0.26665706699E+02  0.51100000000E-03 0. -1.
        -11    1    3    3    0    0 -0.61128808547E+01 -0.82833823859E+01  0.18510747026E+02  0.21180875615E+02  0.51100000000E-03 0.  1.
        -12    1    3    3    0    0 -0.79050459966E+01  0.98440619209E+01 -0.40226469937E+02  0.42161169230E+02  0.00000000000E+00 0.  1.
</event>
<event>
 7    1  0.1716782E-015  0.9000796E+02  0.7816164E-02  0.1186339E+00
        -11   -1    0    0    0    0  0.00000000000E+00  0.00000000000E+00  0.45593999997E+02  0.45594000000E+02  0.51100000000E-03 0. -1.
         11   -1    0    0    0    0 -0.00000000000E+00 -0.00000000000E+00 -0.45593999997E+02  0.45594000000E+02  0.51100000000E-03 0.  1.
    9900012    2    1    2    0    0  0.25589125752E+00 -0.10645744999E+01 -0.44009960130E+00  0.90007963195E+02  0.90000227509E+02 0.  0.
        -12    1    1    2    0    0 -0.25589125752E+00  0.10645744999E+01  0.44009960130E+00  0.11800368048E+01  0.00000000000E+00 0.  1.
         11    1    3    3    0    0 -0.11366606251E+02 -0.30143054736E+02  0.13953062909E+02  0.35106857611E+02  0.51100000000E-03 0. -1.
        -11    1    3    3    0    0 -0.48283278957E-01 -0.10762038553E+02  0.55685156477E+00  0.10776543463E+02  0.51100000000E-03 0.  1.
        -12    1    3    3    0    0  0.11670780787E+02  0.39840518789E+02 -0.14950014075E+02  0.44124562121E+02  0.00000000000E+00 0.  1.
</event>
<event>
 7    1  0.1716782E-015  0.9000779E+02  0.7816164E-02  0.1186339E+00
        -11   -1    0    0    0    0  0.00000000000E+00  0.00000000000E+00  0.45593999997E+02  0.45594000000E+02  0.51100000000E-03 0.  1.
         11   -1    0    0    0    0 -0.00000000000E+00 -0.00000000000E+00 -0.45593999997E+02  0.45594000000E+02  0.51100000000E-03 0. -1.
    9900012    2    1    2    0    0  0.11237424808E+00  0.63540143550E+00 -0.98819501555E+00  0.90007791398E+02  0.90000053444E+02 0.  0.
        -12    1    1    2    0    0 -0.11237424808E+00 -0.63540143550E+00  0.98819501555E+00  0.11802086022E+01  0.00000000000E+00 0.  1.
         11    1    3    3    0    0  0.15098872396E+01 -0.66772404332E+01 -0.62761246682E+01  0.92873591721E+01  0.51100000000E-03 0. -1.
        -11    1    3    3    0    0  0.16556396467E+02  0.19759486754E+02 -0.29790243328E+02  0.39395560392E+02  0.51100000000E-03 0.  1.
         12    1    3    3    0    0 -0.17953909458E+02 -0.12446844885E+02  0.35078172981E+02  0.41324871834E+02  0.00000000000E+00 0. -1.
</event>
<event>
 7    1  0.1716782E-015  0.9000775E+02  0.7816164E-02  0.1186339E+00
        -11   -1    0    0    0    0  0.00000000000E+00  0.00000000000E+00  0.45593999997E+02  0.45594000000E+02  0.51100000000E-03 0.  1.
         11   -1    0    0    0    0 -0.00000000000E+00 -0.00000000000E+00 -0.45593999997E+02  0.45594000000E+02  0.51100000000E-03 0. -1.
    9900012    2    1    2    0    0  0.17272025641E+00 -0.10938744289E+01 -0.40815419917E+00  0.90007752821E+02  0.90000014358E+02 0.  0.
        -12    1    1    2    0    0 -0.17272025641E+00  0.10938744289E+01  0.40815419917E+00  0.11802471790E+01  0.00000000000E+00 0.  1.
         11    1    3    3    0    0  0.89472062767E+01 -0.11575329058E+01  0.40503948884E+01  0.98892912586E+01  0.51100000000E-03 0. -1.
        -11    1    3    3    0    0  0.51130825257E+01 -0.35176401310E+02  0.13722976878E+02  0.38103056527E+02  0.51100000000E-03 0.  1.
         12    1    3    3    0    0 -0.13887568546E+02  0.35240059787E+02 -0.18181525965E+02  0.42015405036E+02  0.00000000000E+00 0. -1.
</event>
<event>
 7    1  0.1716782E-015  0.9000777E+02  0.7816164E-02  0.1186339E+00
        -11   -1    0    0    0    0  0.00000000000E+00  0.00000000000E+00  0.45593999997E+02  0.45594000000E+02  0.51100000000E-03 0.  1.
         11   -1    0    0    0    0 -0.00000000000E+00 -0.00000000000E+00 -0.45593999997E+02  0.45594000000E+02  0.51100000000E-03 0. -1.
    9900012    2    1    2    0    0  0.13778028532E+00 -0.21946956875E+00 -0.11514306617E+01  0.90007769994E+02  0.90000031758E+02 0.  0.
        -12    1    1    2    0    0 -0.13778028532E+00  0.21946956875E+00  0.11514306617E+01  0.11802300061E+01  0.00000000000E+00 0.  1.
         11    1    3    3    0    0  0.87793321876E+01  0.78780003187E+01  0.78734062927E+01  0.14182034043E+02  0.51100000000E-03 0. -1.
        -11    1    3    3    0    0  0.22740796726E+02 -0.29391070508E+02 -0.72331722403E+01  0.37858917606E+02  0.51100000000E-03 0.  1.
         12    1    3    3    0    0 -0.31382348629E+02  0.21293600620E+02 -0.17916647141E+01  0.37966818346E+02  0.00000000000E+00 0. -1.
</event>
<event>
 7    1  0.1716782E-015  0.9000747E+02  0.7816164E-02  0.1186340E+00
        -11   -1    0    0    0    0  0.00000000000E+00  0.00000000000E+00  0.45593999997E+02  0.45594000000E+02  0.51100000000E-03 0. -1.
         11   -1    0    0    0    0 -0.00000000000E+00 -0.00000000000E+00 -0.45593999997E+02  0.45594000000E+02  0.51100000000E-03 0.  1.
    9900012    2    1    2    0    0  0.11770073943E+00  0.58945597116E+00  0.10160405363E+01  0.90007470383E+02  0.89999728191E+02 0.  0.
        -12    1    1    2    0    0 -0.11770073943E+00 -0.58945597116E+00 -0.10160405363E+01  0.11805296173E+01  0.00000000000E+00 0.  1.
         11    1    3    3    0    0 -0.32579556518E+02 -0.10701915811E+02  0.10715770799E+02  0.35927513816E+02  0.51100000000E-03 0. -1.
        -11    1    3    3    0    0 -0.94254808129E+01  0.17704902090E+01  0.84012179376E+00  0.96270519384E+01  0.51100000000E-03 0.  1.
        -12    1    3    3    0    0  0.42122738071E+02  0.95208815730E+01 -0.10539852056E+02  0.44452904628E+02  0.00000000000E+00 0.  1.
</event>
<event>
 7    1  0.1716782E-015  0.9000786E+02  0.7816164E-02  0.1186339E+00
        -11   -1    0    0    0    0  0.00000000000E+00  0.00000000000E+00  0.45593999997E+02  0.45594000000E+02  0.51100000000E-03 0.  1.
         11   -1    0    0    0    0 -0.00000000000E+00 -0.00000000000E+00 -0.45593999997E+02  0.45594000000E+02  0.51100000000E-03 0. -1.
    9900012    2    1    2    0    0  0.58878419576E+00  0.90811924249E+00 -0.47050959205E+00  0.90007861591E+02  0.90000124564E+02 0.  0.
        -12    1    1    2    0    0 -0.58878419576E+00 -0.90811924249E+00  0.47050959205E+00  0.11801384088E+01  0.00000000000E+00 0.  1.
         11    1    3    3    0    0  0.32779892623E+01  0.25753976378E+02 -0.22132523532E+02  0.34115408704E+02  0.51100000000E-03 0. -1.
        -11    1    3    3    0    0  0.50136523008E+01 -0.71073783665E+01 -0.13327330240E+02  0.15914435843E+02  0.51100000000E-03 0.  1.
        -12    1    3    3    0    0 -0.77028573673E+01 -0.17738478769E+02  0.34989344179E+02  0.39978017044E+02  0.00000000000E+00 0.  1.
</event>
<event>
 7    1  0.1716782E-015  0.9000785E+02  0.7816164E-02  0.1186339E+00
        -11   -1    0    0    0    0  0.00000000000E+00  0.00000000000E+00  0.45593999997E+02  0.45594000000E+02  0.51100000000E-03 0.  1.
         11   -1    0    0    0    0 -0.00000000000E+00 -0.00000000000E+00 -0.45593999997E+02  0.45594000000E+02  0.51100000000E-03 0. -1.
    9900012    2    1    2    0    0 -0.11283032574E+01 -0.34482751923E+00  0.27787263082E-01  0.90007853233E+02  0.90000116096E+02 0.  0.
        -12    1    1    2    0    0  0.11283032574E+01  0.34482751923E+00 -0.27787263082E-01  0.11801467666E+01  0.00000000000E+00 0.  1.
         11    1    3    3    0    0 -0.32391420175E+02 -0.25762981549E+02 -0.67351917832E+01  0.41932065629E+02  0.51100000000E-03 0. -1.
        -11    1    3    3    0    0  0.65361356822E+01 -0.51030588073E+01  0.17699385589E+01  0.84790896687E+01  0.51100000000E-03 0.  1.
        -12    1    3    3    0    0  0.24726981236E+02  0.30521212838E+02  0.49930404874E+01  0.39596697936E+02  0.00000000000E+00 0.  1.
</event>
<event>
 7    1  0.1716782E-015  0.9000775E+02  0.7816164E-02  0.1186339E+00
        -11   -1    0    0    0    0  0.00000000000E+00  0.00000000000E+00  0.45593999997E+02  0.45594000000E+02  0.51100000000E-03 0. -1.
         11   -1    0    0    0    0 -0.00000000000E+00 -0.00000000000E+00 -0.45593999997E+02  0.45594000000E+02  0.51100000000E-03 0.  1.
    9900012    2    1    2    0    0  0.54571474441E+00  0.10045353059E+01  0.29342829201E+00  0.90007747516E+02  0.90000008983E+02 0.  0.
        -12    1    1    2    0    0 -0.54571474441E+00 -0.10045353059E+01 -0.29342829201E+00  0.11802524838E+01  0.00000000000E+00 0.  1.
         11    1    3    3    0    0 -0.13479242044E+02  0.33229406597E+00  0.52890609196E+01  0.14483595931E+02  0.51100000000E-03 0. -1.
        -11    1    3    3    0    0  0.18860454719E+00  0.20069997321E+02 -0.33080880453E+02  0.38693475108E+02  0.51100000000E-03 0.  1.
         12    1    3    3    0    0  0.13836352241E+02 -0.19397756081E+02  0.28085247825E+02  0.36830676477E+02  0.00000000000E+00 0. -1.
</event>
<event>
 7    1  0.1716782E-015  0.9000776E+02  0.7816164E-02  0.1186339E+00
        -11   -1    0    0    0    0  0.00000000000E+00  0.00000000000E+00  0.45593999997E+02  0.45594000000E+02  0.51100000000E-03 0.  1.
         11   -1    0    0    0    0 -0.00000000000E+00 -0.00000000000E+00 -0.45593999997E+02  0.45594000000E+02  0.51100000000E-03 0. -1.
    9900012    2    1    2    0    0  0.70836363656E+00 -0.32186598215E+00 -0.88746072035E+00  0.90007761345E+02  0.90000022995E+02 0.  0.
        -12    1    1    2    0    0 -0.70836363656E+00  0.32186598215E+00  0.88746072035E+00  0.11802386548E+01  0.00000000000E+00 0.  1.
         11    1    3    3    0    0  0.29194819554E+02  0.87290993250E+01  0.27954550713E+02  0.41352044322E+02  0.51100000000E-03 0. -1.
        -11    1    3    3    0    0 -0.72483235140E+01  0.75027532398E+01 -0.19752522266E+01  0.10617491303E+02  0.51100000000E-03 0.  1.
        -12    1    3    3    0    0 -0.21238132403E+02 -0.16553718547E+02 -0.26866759206E+02  0.38038225721E+02  0.00000000000E+00 0.  1.
</event>
<event>
 7    1  0.1716782E-015  0.9000780E+02  0.7816164E-02  0.1186339E+00
        -11   -1    0    0    0    0  0.00000000000E+00  0.00000000000E+00  0.45593999997E+02  0.45594000000E+02  0.51100000000E-03 0.  1.
         11   -1    0    0    0    0 -0.00000000000E+00 -0.00000000000E+00 -0.45593999997E+02  0.45594000000E+02  0.51100000000E-03 0. -1.
    9900012    2    1    2    0    0 -0.18635980357E+00  0.11577174335E+01 -0.13352350679E+00  0.90007801644E+02  0.90000063826E+02 0.  0.
        -12    1    1    2    0    0  0.18635980357E+00 -0.11577174335E+01  0.13352350679E+00  0.11801983558E+01  0.00000000000E+00 0.  1.
         11    1    3    3    0    0 -0.37604213591E+01  0.37778382177E+00  0.83624127773E+01  0.91767879529E+01  0.51100000000E-03 0. -1.
        -11    1    3    3    0    0  0.17598822616E+02 -0.36503216004E+02 -0.32679766060E+01  0.40655663904E+02  0.51100000000E-03 0.  1.
         12    1    3    3    0    0 -0.14024761061E+02  0.37283149616E+02 -0.52279596781E+01  0.40175349787E+02  0.00000000000E+00 0. -1.
</event>
<event>
 7    1  0.1716782E-015  0.9000775E+02  0.7816164E-02  0.1186339E+00
        -11   -1    0    0    0    0  0.00000000000E+00  0.00000000000E+00  0.45593999997E+02  0.45594000000E+02  0.51100000000E-03 0.  1.
         11   -1    0    0    0    0 -0.00000000000E+00 -0.00000000000E+00 -0.45593999997E+02  0.45594000000E+02  0.51100000000E-03 0. -1.
    9900012    2    1    2    0    0 -0.91721110964E-01  0.10461646692E+01  0.53861925355E+00  0.90007752578E+02  0.90000014112E+02 0.  0.
        -12    1    1    2    0    0  0.91721110964E-01 -0.10461646692E+01 -0.53861925355E+00  0.11802474222E+01  0.00000000000E+00 0.  1.
         11    1    3    3    0    0  0.62212214109E+01 -0.84481304717E+01 -0.38660570933E+02  0.40058884776E+02  0.51100000000E-03 0. -1.
        -11    1    3    3    0    0  0.95316424006E+01 -0.23153614798E+01  0.65828614270E+01  0.11813008527E+02  0.51100000000E-03 0.  1.
        -12    1    3    3    0    0 -0.15844584922E+02  0.11809656621E+02  0.32616328760E+02  0.38135859275E+02  0.00000000000E+00 0.  1.
</event>
<event>
 7    1  0.1716782E-015  0.9000781E+02  0.7816164E-02  0.1186339E+00
        -11   -1    0    0    0    0  0.00000000000E+00  0.00000000000E+00  0.45593999997E+02  0.45594000000E+02  0.51100000000E-03 0. -1.
         11   -1    0    0    0    0 -0.00000000000E+00 -0.00000000000E+00 -0.45593999997E+02  0.45594000000E+02  0.51100000000E-03 0.  1.
    9900012    2    1    2    0    0  0.30902787190E+00 -0.67970923491E-01  0.11369824475E+01  0.90007810457E+02  0.90000072755E+02 0.  0.
        -12    1    1    2    0    0 -0.30902787190E+00  0.67970923491E-01 -0.11369824475E+01  0.11801895432E+01  0.00000000000E+00 0.  1.
         11    1    3    3    0    0 -0.88649554785E+00  0.24661110079E+00 -0.73596193081E+01  0.74169190378E+01  0.51100000000E-03 0. -1.
        -11    1    3    3    0    0  0.92340681506E+01  0.65404647409E+01 -0.35543544429E+02  0.37301330331E+02  0.51100000000E-03 0.  1.
         12    1    3    3    0    0 -0.80385447309E+01 -0.68550467652E+01  0.44040146185E+02  0.45289561088E+02  0.00000000000E+00 0. -1.
</event>
<event>
 7    1  0.1716782E-015  0.9000774E+02  0.7816164E-02  0.1186339E+00
        -11   -1    0    0    0    0  0.00000000000E+00  0.00000000000E+00  0.45593999997E+02  0.45594000000E+02  0.51100000000E-03 0. -1.
         11   -1    0    0    0    0 -0.00000000000E+00 -0.00000000000E+00 -0.45593999997E+02  0.45594000000E+02  0.51100000000E-03 0.  1.
    9900012    2    1    2    0    0  0.82441537922E+00 -0.69811008102E+00 -0.47537829756E+00  0.90007744549E+02  0.90000005978E+02 0.  0.
        -12    1    1    2    0    0 -0.82441537922E+00  0.69811008102E+00  0.47537829756E+00  0.11802554505E+01  0.00000000000E+00 0.  1.
         11    1    3    3    0    0  0.13665110075E+01 -0.10378109342E+02 -0.30067886139E+01  0.10890972586E+02  0.51100000000E-03 0. -1.
        -11    1    3    3    0    0 -0.37633559175E+02 -0.43301277707E+01 -0.65420676942E+01  0.38442599192E+02  0.51100000000E-03 0.  1.
         12    1    3    3    0    0  0.37091463546E+02  0.14010127031E+02  0.90734780105E+01  0.40674172772E+02  0.00000000000E+00 0. -1.
</event>
<event>
 7    1  0.1716782E-015  0.9000772E+02  0.7816164E-02  0.1186339E+00
        -11   -1    0    0    0    0  0.00000000000E+00  0.00000000000E+00  0.45593999997E+02  0.45594000000E+02  0.51100000000E-03 0.  1.
         11   -1    0    0    0    0 -0.00000000000E+00 -0.00000000000E+00 -0.45593999997E+02  0.45594000000E+02  0.51100000000E-03 0. -1.
    9900012    2    1    2    0    0  0.88878619760E+00 -0.70450554218E+00  0.32680427044E+00  0.90007716138E+02  0.89999977191E+02 0.  0.
        -12    1    1    2    0    0 -0.88878619760E+00  0.70450554218E+00 -0.32680427044E+00  0.11802838621E+01  0.00000000000E+00 0.  1.
         11    1    3    3    0    0 -0.33878599520E+01 -0.88778574442E+01  0.17000224225E+01  0.96531872639E+01  0.51100000000E-03 0. -1.
        -11    1    3    3    0    0  0.20038850103E+01 -0.18487403603E+02  0.32344965398E+02  0.37309468423E+02  0.51100000000E-03 0.  1.
         12    1    3    3    0    0  0.22727611392E+01  0.26660755505E+02 -0.33718183550E+02  0.43045060451E+02  0.00000000000E+00 0. -1.
</event>
<event>
 7    1  0.1716782E-015  0.9000769E+02  0.7816164E-02  0.1186339E+00
        -11   -1    0    0    0    0  0.00000000000E+00  0.00000000000E+00  0.45593999997E+02  0.45594000000E+02  0.51100000000E-03 0.  1.
         11   -1    0    0    0    0 -0.00000000000E+00 -0.00000000000E+00 -0.45593999997E+02  0.45594000000E+02  0.51100000000E-03 0. -1.
    9900012    2    1    2    0    0  0.56984256069E+00  0.81247215282E+00 -0.63898889955E+00  0.90007687178E+02  0.89999947849E+02 0.  0.
        -12    1    1    2    0    0 -0.56984256069E+00 -0.81247215282E+00  0.63898889955E+00  0.11803128216E+01  0.00000000000E+00 0.  1.
         11    1    3    3    0    0  0.32381011698E+01  0.80124930496E+01  0.37690820322E+01  0.94282195394E+01  0.51100000000E-03 0. -1.
        -11    1    3    3    0    0  0.15411290152E+02  0.19227449168E+02  0.26422353676E+02  0.36129536943E+02  0.51100000000E-03 0.  1.
         12    1    3    3    0    0 -0.18079548761E+02 -0.26427470064E+02 -0.30830424608E+02  0.44449930696E+02  0.00000000000E+00 0. -1.
</event>
<event>
 7    1  0.1716782E-015  0.9000774E+02  0.7816164E-02  0.1186339E+00
        -11   -1    0    0    0    0  0.00000000000E+00  0.00000000000E+00  0.45593999997E+02  0.45594000000E+02  0.51100000000E-03 0. -1.
         11   -1    0    0    0    0 -0.00000000000E+00 -0.00000000000E+00 -0.45593999997E+02  0.45594000000E+02  0.51100000000E-03 0.  1.
    9900012    2    1    2    0    0  0.43975876367E+00 -0.10742342044E+01  0.21362549645E+00  0.90007744626E+02  0.90000006055E+02 0.  0.
        -12    1    1    2    0    0 -0.43975876367E+00  0.10742342044E+01 -0.21362549645E+00  0.11802553744E+01  0.00000000000E+00 0.  1.
         11    1    3    3    0    0  0.27374139919E+01  0.61621541801E+01 -0.52502135346E+01  0.85457780173E+01  0.51100000000E-03 0. -1.
        -11    1    3    3    0    0  0.94983545825E+01 -0.11698148473E+01 -0.36353074480E+02  0.37591664381E+02  0.51100000000E-03 0.  1.
         12    1    3    3    0    0 -0.11796009811E+02 -0.60665735371E+01  0.41816913511E+02  0.43870302227E+02  0.00000000000E+00 0. -1.
</event>
<event>
 7    1  0.1716782E-015  0.9000770E+02  0.7816164E-02  0.1186339E+00
        -11   -1    0    0    0    0  0.00000000000E+00  0.00000000000E+00  0.45593999997E+02  0.45594000000E+02  0.51100000000E-03 0. -1.
         11   -1    0    0    0    0 -0.00000000000E+00 -0.00000000000E+00 -0.45593999997E+02  0.45594000000E+02  0.51100000000E-03 0.  1.
    9900012    2    1    2    0    0  0.44065971343E+00 -0.58952049479E+00  0.92271403880E+00  0.90007696397E+02  0.89999957190E+02 0.  0.
        -12    1    1    2    0    0 -0.44065971343E+00  0.58952049479E+00 -0.92271403880E+00  0.11803036026E+01  0.00000000000E+00 0.  1.
         11    1    3    3    0    0  0.39912206925E+01  0.15698023034E+01 -0.79341695276E+01  0.90191556280E+01  0.51100000000E-03 0. -1.
        -11    1    3    3    0    0  0.32046391189E+02 -0.97640689692E+01 -0.15783325562E+02  0.37032709827E+02  0.51100000000E-03 0.  1.
         12    1    3    3    0    0 -0.35596952168E+02  0.76047461710E+01  0.24640209129E+02  0.43955830943E+02  0.00000000000E+00 0. -1.
</event>
<event>
 7    1  0.1716782E-015  0.9000778E+02  0.7816164E-02  0.1186339E+00
        -11   -1    0    0    0    0  0.00000000000E+00  0.00000000000E+00  0.45593999997E+02  0.45594000000E+02  0.51100000000E-03 0. -1.
         11   -1    0    0    0    0 -0.00000000000E+00 -0.00000000000E+00 -0.45593999997E+02  0.45594000000E+02  0.51100000000E-03 0.  1.
    9900012    2    1    2    0    0 -0.18402599173E-01 -0.81315521888E+00  0.85519875625E+00  0.90007777573E+02  0.90000039436E+02 0.  0.
        -12    1    1    2    0    0  0.18402599173E-01  0.81315521888E+00 -0.85519875625E+00  0.11802224275E+01  0.00000000000E+00 0.  1.
         11    1    3    3    0    0  0.46941803461E+01 -0.32006120328E+02  0.12512417148E+02  0.34684112367E+02  0.51100000000E-03 0. -1.
        -11    1    3    3    0    0 -0.57304248947E+01 -0.10486120252E+02  0.29281678764E+00  0.11953335491E+02  0.51100000000E-03 0.  1.
        -12    1    3    3    0    0  0.10178419494E+01  0.41679085361E+02 -0.11950035179E+02  0.43370329715E+02  0.00000000000E+00 0.  1.
</event>
<event>
 7    1  0.1716782E-015  0.9000775E+02  0.7816164E-02  0.1186339E+00
        -11   -1    0    0    0    0  0.00000000000E+00  0.00000000000E+00  0.45593999997E+02  0.45594000000E+02  0.51100000000E-03 0.  1.
         11   -1    0    0    0    0 -0.00000000000E+00 -0.00000000000E+00 -0.45593999997E+02  0.45594000000E+02  0.51100000000E-03 0. -1.
    9900012    2    1    2    0    0  0.70090756012E+00  0.76456417379E+00 -0.56316562555E+00  0.90007752015E+02  0.90000013542E+02 0.  0.
        -12    1    1    2    0    0 -0.70090756012E+00 -0.76456417379E+00  0.56316562555E+00  0.11802479847E+01  0.00000000000E+00 0.  1.
         11    1    3    3    0    0  0.30462107398E+02 -0.18139976421E+02 -0.12758943652E+02  0.37680092556E+02  0.51100000000E-03 0. -1.
        -11    1    3    3    0    0  0.22973003662E+01 -0.67371628214E+01  0.85340895901E+01  0.11112949080E+02  0.51100000000E-03 0.  1.
        -12    1    3    3    0    0 -0.32058500204E+02  0.25641703416E+02  0.36616884365E+01  0.41214710379E+02  0.00000000000E+00 0.  1.
</event>
<event>
 7    1  0.1716782E-015  0.9000811E+02  0.7816164E-02  0.1186338E+00
        -11   -1    0    0    0    0  0.00000000000E+00  0.00000000000E+00  0.45593999997E+02  0.45594000000E+02  0.51100000000E-03 0.  1.
         11   -1    0    0    0    0 -0.00000000000E+00 -0.00000000000E+00 -0.45593999997E+02  0.45594000000E+02  0.51100000000E-03 0. -1.
    9900012    2    1    2    0    0 -0.31890596169E+00  0.11444513856E+00 -0.11301926342E+01  0.90008112678E+02  0.90000378965E+02 0.  0.
        -12    1    1    2    0    0  0.31890596169E+00 -0.11444513856E+00  0.11301926342E+01  0.11798873219E+01  0.00000000000E+00 0.  1.
         11    1    3    3    0    0 -0.47547166279E+01 -0.19976991429E+01  0.70901556429E+01  0.87674648205E+01  0.51100000000E-03 0. -1.
        -11    1    3    3    0    0 -0.16481564099E+02 -0.14913744224E+02  0.28208984084E+02  0.35913904066E+02  0.51100000000E-03 0.  1.
         12    1    3    3    0    0  0.20917374765E+02  0.17025888506E+02 -0.36429332361E+02  0.45326743792E+02  0.00000000000E+00 0. -1.
</event>
<event>
 7    1  0.1716782E-015  0.9000778E+02  0.7816164E-02  0.1186339E+00
        -11   -1    0    0    0    0  0.00000000000E+00  0.00000000000E+00  0.45593999997E+02  0.45594000000E+02  0.51100000000E-03 0.  1.
         11   -1    0    0    0    0 -0.00000000000E+00 -0.00000000000E+00 -0.45593999997E+02  0.45594000000E+02  0.51100000000E-03 0. -1.
    9900012    2    1    2    0    0  0.97495774109E+00  0.49899353941E+00  0.43974030326E+00  0.90007784476E+02  0.90000046431E+02 0.  0.
        -12    1    1    2    0    0 -0.97495774109E+00 -0.49899353941E+00 -0.43974030326E+00  0.11802155242E+01  0.00000000000E+00 0.  1.
         11    1    3    3    0    0 -0.56682794805E+01  0.16765995084E+01  0.10237426967E+02  0.11821391176E+02  0.51100000000E-03 0. -1.
        -11    1    3    3    0    0 -0.13052260457E+02  0.33652062438E+02  0.28902880763E+01  0.36210172256E+02  0.51100000000E-03 0.  1.
         12    1    3    3    0    0  0.19695497678E+02 -0.34829668407E+02 -0.12687974740E+02  0.41976221044E+02  0.00000000000E+00 0. -1.
</event>
<event>
 7    1  0.1716782E-015  0.9000768E+02  0.7816164E-02  0.1186339E+00
        -11   -1    0    0    0    0  0.00000000000E+00  0.00000000000E+00  0.45593999997E+02  0.45594000000E+02  0.51100000000E-03 0.  1.
         11   -1    0    0    0    0 -0.00000000000E+00 -0.00000000000E+00 -0.45593999997E+02  0.45594000000E+02  0.51100000000E-03 0. -1.
    9900012    2    1    2    0    0  0.95421031110E+00 -0.19356888813E+00 -0.66720754065E+00  0.90007681342E+02  0.89999941936E+02 0.  0.
        -12    1    1    2    0    0 -0.95421031110E+00  0.19356888813E+00  0.66720754065E+00  0.11803186581E+01  0.00000000000E+00 0.  1.
         11    1    3    3    0    0 -0.11938608581E+02  0.22448323828E+02 -0.26213610074E+02  0.36518638678E+02  0.51100000000E-03 0. -1.
        -11    1    3    3    0    0  0.19466123079E+01 -0.53018198224E+01 -0.10554538370E+02  0.11970667207E+02  0.51100000000E-03 0.  1.
        -12    1    3    3    0    0  0.10946206584E+02 -0.17340072894E+02  0.36100940903E+02  0.41518375457E+02  0.00000000000E+00 0.  1.
</event>
<event>
 7    1  0.1716782E-015  0.9000776E+02  0.7816164E-02  0.1186339E+00
        -11   -1    0    0    0    0  0.00000000000E+00  0.00000000000E+00  0.45593999997E+02  0.45594000000E+02  0.51100000000E-03 0. -1.
         11   -1    0    0    0    0 -0.00000000000E+00 -0.00000000000E+00 -0.45593999997E+02  0.45594000000E+02  0.51100000000E-03 0.  1.
    9900012    2    1    2    0    0 -0.10396895635E+01 -0.18940875676E+00  0.52548826437E+00  0.90007759354E+02  0.90000020978E+02 0.  0.
        -12    1    1    2    0    0  0.10396895635E+01  0.18940875676E+00 -0.52548826437E+00  0.11802406456E+01  0.00000000000E+00 0.  1.
         11    1    3    3    0    0 -0.26105122663E+02  0.33968788173E+02 -0.78218529868E+01  0.43549252389E+02  0.51100000000E-03 0. -1.
        -11    1    3    3    0    0  0.14830985189E+02 -0.65801404441E+01  0.41233144047E+01  0.16740910724E+02  0.51100000000E-03 0.  1.
        -12    1    3    3    0    0  0.10234447911E+02 -0.27578056486E+02  0.42240268465E+01  0.29717596242E+02  0.00000000000E+00 0.  1.
</event>
<event>
 7    1  0.1716782E-015  0.9000781E+02  0.7816164E-02  0.1186339E+00
        -11   -1    0    0    0    0  0.00000000000E+00  0.00000000000E+00  0.45593999997E+02  0.45594000000E+02  0.51100000000E-03 0.  1.
         11   -1    0    0    0    0 -0.00000000000E+00 -0.00000000000E+00 -0.45593999997E+02  0.45594000000E+02  0.51100000000E-03 0. -1.
    9900012    2    1    2    0    0 -0.24880039785E+00  0.77816319739E+00 -0.85171231083E+00  0.90007807872E+02  0.90000070135E+02 0.  0.
        -12    1    1    2    0    0  0.24880039785E+00 -0.77816319739E+00  0.85171231083E+00  0.11801921285E+01  0.00000000000E+00 0.  1.
         11    1    3    3    0    0  0.19982310619E+02 -0.34597127591E+02 -0.58681076277E+01  0.40381786274E+02  0.51100000000E-03 0. -1.
        -11    1    3    3    0    0  0.52437775904E+01  0.67727554524E+01 -0.51537158455E+01  0.99964097112E+01  0.51100000000E-03 0.  1.
        -12    1    3    3    0    0 -0.25474888607E+02  0.28602535336E+02  0.10170111162E+02  0.39629611887E+02  0.00000000000E+00 0.  1.
</event>
<event>
 7    1  0.1716782E-015  0.9000725E+02  0.7816164E-02  0.1186340E+00
        -11   -1    0    0    0    0  0.00000000000E+00  0.00000000000E+00  0.45593999997E+02  0.45594000000E+02  0.51100000000E-03 0. -1.
         11   -1    0    0    0    0 -0.00000000000E+00 -0.00000000000E+00 -0.45593999997E+02  0.45594000000E+02  0.51100000000E-03 0.  1.
    9900012    2    1    2    0    0  0.47750601288E+00 -0.51122483596E+00  0.95121833455E+00  0.90007246366E+02  0.89999501216E+02 0.  0.
        -12    1    1    2    0    0 -0.47750601288E+00  0.51122483596E+00 -0.95121833455E+00  0.11807536344E+01  0.00000000000E+00 0.  1.
         11    1    3    3    0    0 -0.83345936782E+01 -0.60192816773E+01 -0.73320214444E+00  0.10307026212E+02  0.51100000000E-03 0. -1.
        -11    1    3    3    0    0 -0.25729613461E+02 -0.23174694414E+02  0.32109424400E+01  0.34776279583E+02  0.51100000000E-03 0.  1.
         12    1    3    3    0    0  0.34541713152E+02  0.28682751255E+02 -0.15265219610E+01  0.44923940570E+02  0.00000000000E+00 0. -1.
</event>
<event>
 7    1  0.1716782E-015  0.9000832E+02  0.7816164E-02  0.1186338E+00
        -11   -1    0    0    0    0  0.00000000000E+00  0.00000000000E+00  0.45593999997E+02  0.45594000000E+02  0.51100000000E-03 0.  1.
         11   -1    0    0    0    0 -0.00000000000E+00 -0.00000000000E+00 -0.45593999997E+02  0.45594000000E+02  0.51100000000E-03 0. -1.
    9900012    2    1    2    0    0 -0.29138748069E+00 -0.11320311357E+01 -0.15886764955E+00  0.90008322041E+02  0.90000591090E+02 0.  0.
        -12    1    1    2    0    0  0.29138748069E+00  0.11320311357E+01  0.15886764955E+00  0.11796779587E+01  0.00000000000E+00 0.  1.
         11    1    3    3    0    0  0.54446972544E+00 -0.69012290715E+01 -0.97029421073E+01  0.11919332858E+02  0.51100000000E-03 0. -1.
        -11    1    3    3    0    0 -0.13885650932E+02 -0.25654440116E+02 -0.18029755369E+02  0.34293347437E+02  0.51100000000E-03 0.  1.
         12    1    3    3    0    0  0.13049793726E+02  0.31423638052E+02  0.27573829827E+02  0.43795641747E+02  0.00000000000E+00 0. -1.
</event>
<event>
 7    1  0.2931948E-015  0.9000760E+02  0.7816164E-02  0.1186339E+00
        -11   -1    0    0    0    0  0.00000000000E+00  0.00000000000E+00  0.45593999997E+02  0.45594000000E+02  0.51100000000E-03 0. -1.
         11   -1    0    0    0    0 -0.00000000000E+00 -0.00000000000E+00 -0.45593999997E+02  0.45594000000E+02  0.51100000000E-03 0.  1.
    9900012    2    1    2    0    0 -0.51288906657E+00 -0.86623096087E+00 -0.61638321361E+00  0.90007601958E+02  0.89999861503E+02 0.  0.
        -12    1    1    2    0    0  0.51288906657E+00  0.86623096087E+00  0.61638321361E+00  0.11803980423E+01  0.00000000000E+00 0.  1.
         11    1    3    3    0    0 -0.24022505334E+02 -0.28110918700E+02 -0.13100243525E+02  0.39229082240E+02  0.51100000000E-03 0. -1.
        -11    1    3    3    0    0  0.61615179758E+01 -0.53245427717E+01 -0.54007637000E+01  0.97715560838E+01  0.51100000000E-03 0.  1.
        -12    1    3    3    0    0  0.17348098292E+02  0.32569230511E+02  0.17884624012E+02  0.41006963634E+02  0.00000000000E+00 0.  1.
</event>
<event>
 7    1  0.1716782E-015  0.9000778E+02  0.7816164E-02  0.1186339E+00
        -11   -1    0    0    0    0  0.00000000000E+00  0.00000000000E+00  0.45593999997E+02  0.45594000000E+02  0.51100000000E-03 0. -1.
         11   -1    0    0    0    0 -0.00000000000E+00 -0.00000000000E+00 -0.45593999997E+02  0.45594000000E+02  0.51100000000E-03 0.  1.
    9900012    2    1    2    0    0  0.63033982315E+00 -0.96332888300E+00  0.25998254599E+00  0.90007778939E+02  0.90000040821E+02 0.  0.
        -12    1    1    2    0    0 -0.63033982315E+00  0.96332888300E+00 -0.25998254599E+00  0.11802210614E+01  0.00000000000E+00 0.  1.
         11    1    3    3    0    0 -0.57232066806E+00 -0.73574873720E+01 -0.45834662032E+01  0.86872512381E+01  0.51100000000E-03 0. -1.
        -11    1    3    3    0    0 -0.76759089896E+01  0.18057252473E+02 -0.34303942926E+02  0.39518912513E+02  0.51100000000E-03 0.  1.
         12    1    3    3    0    0  0.88785694808E+01 -0.11663093984E+02  0.39147391675E+02  0.41801615187E+02  0.00000000000E+00 0. -1.
</event>
<event>
 7    1  0.1716782E-015  0.9000778E+02  0.7816164E-02  0.1186339E+00
        -11   -1    0    0    0    0  0.00000000000E+00  0.00000000000E+00  0.45593999997E+02  0.45594000000E+02  0.51100000000E-03 0.  1.
         11   -1    0    0    0    0 -0.00000000000E+00 -0.00000000000E+00 -0.45593999997E+02  0.45594000000E+02  0.51100000000E-03 0. -1.
    9900012    2    1    2    0    0 -0.42356856067E+00 -0.10992592238E+01  0.71751034109E-01  0.90007775709E+02  0.90000037548E+02 0.  0.
        -12    1    1    2    0    0  0.42356856067E+00  0.10992592238E+01 -0.71751034109E-01  0.11802242912E+01  0.00000000000E+00 0.  1.
         11    1    3    3    0    0  0.29574502224E+02  0.32292067453E+01 -0.28416261740E+02  0.41140769190E+02  0.51100000000E-03 0. -1.
        -11    1    3    3    0    0 -0.98536524293E+01  0.31522212620E+01 -0.29761467953E+01  0.10765148169E+02  0.51100000000E-03 0.  1.
        -12    1    3    3    0    0 -0.20144418356E+02 -0.74806872310E+01  0.31464159569E+02  0.38101858350E+02  0.00000000000E+00 0.  1.
</event>
<event>
 7    1  0.1716782E-015  0.9000776E+02  0.7816164E-02  0.1186339E+00
        -11   -1    0    0    0    0  0.00000000000E+00  0.00000000000E+00  0.45593999997E+02  0.45594000000E+02  0.51100000000E-03 0.  1.
         11   -1    0    0    0    0 -0.00000000000E+00 -0.00000000000E+00 -0.45593999997E+02  0.45594000000E+02  0.51100000000E-03 0. -1.
    9900012    2    1    2    0    0  0.10280481021E+01  0.42781620674E+00 -0.39121570624E+00  0.90007763017E+02  0.90000024689E+02 0.  0.
        -12    1    1    2    0    0 -0.10280481021E+01 -0.42781620674E+00  0.39121570624E+00  0.11802369829E+01  0.00000000000E+00 0.  1.
         11    1    3    3    0    0  0.12234824117E+02 -0.30247168114E+02 -0.22118294031E+02  0.39418282956E+02  0.51100000000E-03 0. -1.
        -11    1    3    3    0    0 -0.47266604609E+01 -0.63499119262E+01  0.55538303156E+01  0.96699396077E+01  0.51100000000E-03 0.  1.
        -12    1    3    3    0    0 -0.64801155541E+01  0.37024896247E+02  0.16173248010E+02  0.40919540453E+02  0.00000000000E+00 0.  1.
</event>
<event>
 7    1  0.1716782E-015  0.9000789E+02  0.7816164E-02  0.1186339E+00
        -11   -1    0    0    0    0  0.00000000000E+00  0.00000000000E+00  0.45593999997E+02  0.45594000000E+02  0.51100000000E-03 0.  1.
         11   -1    0    0    0    0 -0.00000000000E+00 -0.00000000000E+00 -0.45593999997E+02  0.45594000000E+02  0.51100000000E-03 0. -1.
    9900012    2    1    2    0    0  0.53730101850E+00 -0.19799031779E+00 -0.10318736547E+01  0.90007891620E+02  0.90000154989E+02 0.  0.
        -12    1    1    2    0    0 -0.53730101850E+00  0.19799031779E+00  0.10318736547E+01  0.11801083804E+01  0.00000000000E+00 0.  1.
         11    1    3    3    0    0  0.99137499610E+01  0.32139146266E+02 -0.17028022332E+00  0.33633854323E+02  0.51100000000E-03 0. -1.
        -11    1    3    3    0    0 -0.43292247513E+00  0.88293130786E+01 -0.99170239207E+01  0.13285012421E+02  0.51100000000E-03 0.  1.
        -12    1    3    3    0    0 -0.89435264674E+01 -0.41166449662E+02  0.90554304894E+01  0.43089024876E+02  0.00000000000E+00 0.  1.
</event>
<event>
 7    1  0.1716782E-015  0.9000773E+02  0.7816164E-02  0.1186339E+00
        -11   -1    0    0    0    0  0.00000000000E+00  0.00000000000E+00  0.45593999997E+02  0.45594000000E+02  0.51100000000E-03 0. -1.
         11   -1    0    0    0    0 -0.00000000000E+00 -0.00000000000E+00 -0.45593999997E+02  0.45594000000E+02  0.51100000000E-03 0.  1.
    9900012    2    1    2    0    0 -0.70317100444E+00  0.46666736454E+00  0.82511858254E+00  0.90007725216E+02  0.89999986389E+02 0.  0.
        -12    1    1    2    0    0  0.70317100444E+00 -0.46666736454E+00 -0.82511858254E+00  0.11802747840E+01  0.00000000000E+00 0.  1.
         11    1    3    3    0    0 -0.19057071411E+02 -0.28738632514E+02 -0.18544642792E+02  0.39153349105E+02  0.51100000000E-03 0. -1.
        -11    1    3    3    0    0 -0.68374556814E+01  0.19362519472E+01 -0.27729368257E+01  0.76281747947E+01  0.51100000000E-03 0.  1.
        -12    1    3    3    0    0  0.25191356088E+02  0.27269047932E+02  0.22142698201E+02  0.43226201317E+02  0.00000000000E+00 0.  1.
</event>
<event>
 7    1  0.1716782E-015  0.9000884E+02  0.7816164E-02  0.1186337E+00
        -11   -1    0    0    0    0  0.00000000000E+00  0.00000000000E+00  0.45593999997E+02  0.45594000000E+02  0.51100000000E-03 0. -1.
         11   -1    0    0    0    0 -0.00000000000E+00 -0.00000000000E+00 -0.45593999997E+02  0.45594000000E+02  0.51100000000E-03 0.  1.
    9900012    2    1    2    0    0 -0.22695363826E+00 -0.77976631559E+00  0.85490543895E+00  0.90008844891E+02  0.90001120837E+02 0.  0.
        -12    1    1    2    0    0  0.22695363826E+00  0.77976631559E+00 -0.85490543895E+00  0.11791551087E+01  0.00000000000E+00 0.  1.
         11    1    3    3    0    0  0.36367206924E+01 -0.49183450586E+01  0.37641254207E+02  0.38135021621E+02  0.51100000000E-03 0. -1.
        -11    1    3    3    0    0  0.10324543432E+02  0.79736388996E-01  0.18731895153E+01  0.10493397647E+02  0.51100000000E-03 0.  1.
        -12    1    3    3    0    0 -0.14188217762E+02  0.40588423540E+01 -0.38659538283E+02  0.41380425623E+02  0.00000000000E+00 0.  1.
</event>
<event>
 7    1  0.1716782E-015  0.9000777E+02  0.7816164E-02  0.1186339E+00
        -11   -1    0    0    0    0  0.00000000000E+00  0.00000000000E+00  0.45593999997E+02  0.45594000000E+02  0.51100000000E-03 0.  1.
         11   -1    0    0    0    0 -0.00000000000E+00 -0.00000000000E+00 -0.45593999997E+02  0.45594000000E+02  0.51100000000E-03 0. -1.
    9900012    2    1    2    0    0  0.89369013787E+00 -0.42204117141E+00  0.64508348530E+00  0.90007773956E+02  0.90000035772E+02 0.  0.
        -12    1    1    2    0    0 -0.89369013787E+00  0.42204117141E+00 -0.64508348530E+00  0.11802260444E+01  0.00000000000E+00 0.  1.
         11    1    3    3    0    0 -0.14037317792E+02  0.24287358764E+02  0.15724971465E+02  0.32158930553E+02  0.51100000000E-03 0. -1.
        -11    1    3    3    0    0 -0.83566805181E+01  0.89234816882E+01  0.37882168719E+01  0.12798953944E+02  0.51100000000E-03 0.  1.
        -12    1    3    3    0    0  0.23287688448E+02 -0.33632881623E+02 -0.18868104852E+02  0.45049889458E+02  0.00000000000E+00 0.  1.
</event>
<event>
 7    1  0.1716782E-015  0.9000774E+02  0.7816164E-02  0.1186339E+00
        -11   -1    0    0    0    0  0.00000000000E+00  0.00000000000E+00  0.45593999997E+02  0.45594000000E+02  0.51100000000E-03 0.  1.
         11   -1    0    0    0    0 -0.00000000000E+00 -0.00000000000E+00 -0.45593999997E+02  0.45594000000E+02  0.51100000000E-03 0. -1.
    9900012    2    1    2    0    0  0.98962689352E+00 -0.53564853480E-01 -0.64093156352E+00  0.90007735686E+02  0.89999996997E+02 0.  0.
        -12    1    1    2    0    0 -0.98962689352E+00  0.53564853480E-01  0.64093156352E+00  0.11802643141E+01  0.00000000000E+00 0.  1.
         11    1    3    3    0    0  0.17332607159E+01  0.32282125243E+02  0.18424823909E+02  0.37210400955E+02  0.51100000000E-03 0. -1.
        -11    1    3    3    0    0 -0.87257084671E+01  0.56138004438E+01 -0.28190745878E+01  0.10751740579E+02  0.51100000000E-03 0.  1.
        -12    1    3    3    0    0  0.79820746447E+01 -0.37949490540E+02 -0.16246680884E+02  0.42045594153E+02  0.00000000000E+00 0.  1.
</event>
<event>
 7    1  0.1716782E-015  0.9000779E+02  0.7816164E-02  0.1186339E+00
        -11   -1    0    0    0    0  0.00000000000E+00  0.00000000000E+00  0.45593999997E+02  0.45594000000E+02  0.51100000000E-03 0.  1.
         11   -1    0    0    0    0 -0.00000000000E+00 -0.00000000000E+00 -0.45593999997E+02  0.45594000000E+02  0.51100000000E-03 0. -1.
    9900012    2    1    2    0    0 -0.58502053007E+00  0.86993366739E+00 -0.54209290777E+00  0.90007788863E+02  0.90000050876E+02 0.  0.
        -12    1    1    2    0    0  0.58502053007E+00 -0.86993366739E+00  0.54209290777E+00  0.11802111366E+01  0.00000000000E+00 0.  1.
         11    1    3    3    0    0 -0.10324154720E+02  0.18705852365E+00  0.27993134821E+01  0.10698566156E+02  0.51100000000E-03 0. -1.
        -11    1    3    3    0    0  0.37565880070E+02  0.70886655973E+01  0.19340171929E+02  0.42842581340E+02  0.51100000000E-03 0.  1.
         12    1    3    3    0    0 -0.27826745880E+02 -0.64057904536E+01 -0.22681578318E+02  0.36466641368E+02  0.00000000000E+00 0. -1.
</event>
<event>
 7    1  0.1716782E-015  0.9000784E+02  0.7816164E-02  0.1186339E+00
        -11   -1    0    0    0    0  0.00000000000E+00  0.00000000000E+00  0.45593999997E+02  0.45594000000E+02  0.51100000000E-03 0.  1.
         11   -1    0    0    0    0 -0.00000000000E+00 -0.00000000000E+00 -0.45593999997E+02  0.45594000000E+02  0.51100000000E-03 0. -1.
    9900012    2    1    2    0    0 -0.11509465108E+01 -0.12790579573E+00 -0.22746065099E+00  0.90007840642E+02  0.90000103338E+02 0.  0.
        -12    1    1    2    0    0  0.11509465108E+01  0.12790579573E+00  0.22746065099E+00  0.11801593584E+01  0.00000000000E+00 0.  1.
         11    1    3    3    0    0 -0.47711126647E+01  0.58642212667E+01  0.18838647461E+01  0.77911201869E+01  0.51100000000E-03 0. -1.
        -11    1    3    3    0    0  0.18834480965E+02  0.26010817998E+02  0.22378648206E+02  0.39142102932E+02  0.51100000000E-03 0.  1.
         12    1    3    3    0    0 -0.15214314812E+02 -0.32002945060E+02 -0.24489973603E+02  0.43074617523E+02  0.00000000000E+00 0. -1.
</event>
<event>
 7    1  0.1716782E-015  0.9000774E+02  0.7816164E-02  0.1186339E+00
        -11   -1    0    0    0    0  0.00000000000E+00  0.00000000000E+00  0.45593999997E+02  0.45594000000E+02  0.51100000000E-03 0. -1.
         11   -1    0    0    0    0 -0.00000000000E+00 -0.00000000000E+00 -0.45593999997E+02  0.45594000000E+02  0.51100000000E-03 0.  1.
    9900012    2    1    2    0    0  0.15381823198E+00  0.13991698010E+00  0.11618026339E+01  0.90007736398E+02  0.89999997719E+02 0.  0.
        -12    1    1    2    0    0 -0.15381823198E+00 -0.13991698010E+00 -0.11618026339E+01  0.11802636019E+01  0.00000000000E+00 0.  1.
         11    1    3    3    0    0  0.33727163378E+02  0.12189754715E+01  0.12353512531E+02  0.35939069588E+02  0.51100000000E-03 0. -1.
        -11    1    3    3    0    0  0.77500164069E+01 -0.99795774305E+00  0.54428605546E+01  0.95227834818E+01  0.51100000000E-03 0.  1.
        -12    1    3    3    0    0 -0.41323361553E+02 -0.81100748344E-01 -0.16634570451E+02  0.44545883328E+02  0.00000000000E+00 0.  1.
</event>
<event>
 7    1  0.1716782E-015  0.9000781E+02  0.7816164E-02  0.1186339E+00
        -11   -1    0    0    0    0  0.00000000000E+00  0.00000000000E+00  0.45593999997E+02  0.45594000000E+02  0.51100000000E-03 0. -1.
         11   -1    0    0    0    0 -0.00000000000E+00 -0.00000000000E+00 -0.45593999997E+02  0.45594000000E+02  0.51100000000E-03 0.  1.
    9900012    2    1    2    0    0 -0.38447082995E+00 -0.10264687273E+01  0.43749064659E+00  0.90007807671E+02  0.90000069932E+02 0.  0.
        -12    1    1    2    0    0  0.38447082995E+00  0.10264687273E+01 -0.43749064659E+00  0.11801923288E+01  0.00000000000E+00 0.  1.
         11    1    3    3    0    0 -0.21642322762E+02 -0.23136090585E+02  0.11171362228E+02  0.33592680101E+02  0.51100000000E-03 0. -1.
        -11    1    3    3    0    0 -0.99550996842E+01 -0.62062240299E+01  0.29675849987E+01  0.12100734995E+02  0.51100000000E-03 0.  1.
        -12    1    3    3    0    0  0.31212951616E+02  0.28315845888E+02 -0.13701456580E+02  0.44314392575E+02  0.00000000000E+00 0.  1.
</event>
<event>
 7    1  0.1716782E-015  0.9000774E+02  0.7816164E-02  0.1186339E+00
        -11   -1    0    0    0    0  0.00000000000E+00  0.00000000000E+00  0.45593999997E+02  0.45594000000E+02  0.51100000000E-03 0.  1.
         11   -1    0    0    0    0 -0.00000000000E+00 -0.00000000000E+00 -0.45593999997E+02  0.45594000000E+02  0.51100000000E-03 0. -1.
    9900012    2    1    2    0    0 -0.22087709290E+00 -0.89012994798E+00 -0.74289098600E+00  0.90007743659E+02  0.90000005075E+02 0.  0.
        -12    1    1    2    0    0  0.22087709290E+00  0.89012994798E+00  0.74289098600E+00  0.11802563414E+01  0.00000000000E+00 0.  1.
         11    1    3    3    0    0 -0.11370475606E+01  0.30829361991E+01  0.94073646895E+01  0.99647319796E+01  0.51100000000E-03 0. -1.
        -11    1    3    3    0    0  0.37345881858E+02 -0.13265313940E+02  0.40856405114E+01  0.39841886305E+02  0.51100000000E-03 0.  1.
         12    1    3    3    0    0 -0.36429711391E+02  0.92922477931E+01 -0.14235896187E+02  0.40201125374E+02  0.00000000000E+00 0. -1.
</event>
<event>
 7    1  0.1716782E-015  0.9000774E+02  0.7816164E-02  0.1186339E+00
        -11   -1    0    0    0    0  0.00000000000E+00  0.00000000000E+00  0.45593999997E+02  0.45594000000E+02  0.51100000000E-03 0.  1.
         11   -1    0    0    0    0 -0.00000000000E+00 -0.00000000000E+00 -0.45593999997E+02  0.45594000000E+02  0.51100000000E-03 0. -1.
    9900012    2    1    2    0    0 -0.90718687558E-01 -0.79743743803E+00 -0.86538203594E+00  0.90007736294E+02  0.89999997613E+02 0.  0.
        -12    1    1    2    0    0  0.90718687558E-01  0.79743743803E+00  0.86538203594E+00  0.11802637061E+01  0.00000000000E+00 0.  1.
         11    1    3    3    0    0 -0.42353677290E+01  0.73227385168E+01  0.40357496893E+01  0.93727325258E+01  0.51100000000E-03 0. -1.
        -11    1    3    3    0    0 -0.24734665149E+02 -0.30801876819E+02  0.10404928149E+02  0.40851215473E+02  0.51100000000E-03 0.  1.
         12    1    3    3    0    0  0.28879314191E+02  0.22681700864E+02 -0.15306059874E+02  0.39783788295E+02  0.00000000000E+00 0. -1.
</event>
<event>
 7    1  0.1716782E-015  0.9000772E+02  0.7816164E-02  0.1186339E+00
        -11   -1    0    0    0    0  0.00000000000E+00  0.00000000000E+00  0.45593999997E+02  0.45594000000E+02  0.51100000000E-03 0. -1.
         11   -1    0    0    0    0 -0.00000000000E+00 -0.00000000000E+00 -0.45593999997E+02  0.45594000000E+02  0.51100000000E-03 0.  1.
    9900012    2    1    2    0    0  0.11283296953E+01  0.33518720674E+00  0.87121087621E-01  0.90007716793E+02  0.89999977855E+02 0.  0.
        -12    1    1    2    0    0 -0.11283296953E+01 -0.33518720674E+00 -0.87121087621E-01  0.11802832070E+01  0.00000000000E+00 0.  1.
         11    1    3    3    0    0 -0.28469409109E+01  0.34955620709E+02  0.13736696641E+02  0.37665598715E+02  0.51100000000E-03 0. -1.
        -11    1    3    3    0    0 -0.73293126760E+01  0.34454773735E+01  0.38268721940E+01  0.89574041822E+01  0.51100000000E-03 0.  1.
        -12    1    3    3    0    0  0.11304583282E+02 -0.38065910876E+02 -0.17476447747E+02  0.43384713896E+02  0.00000000000E+00 0.  1.
</event>
<event>
 7    1  0.1716782E-015  0.9000774E+02  0.7816164E-02  0.1186339E+00
        -11   -1    0    0    0    0  0.00000000000E+00  0.00000000000E+00  0.45593999997E+02  0.45594000000E+02  0.51100000000E-03 0.  1.
         11   -1    0    0    0    0 -0.00000000000E+00 -0.00000000000E+00 -0.45593999997E+02  0.45594000000E+02  0.51100000000E-03 0. -1.
    9900012    2    1    2    0    0  0.89349929469E+00 -0.14295084502E+00 -0.75778000977E+00  0.90007743046E+02  0.90000004454E+02 0.  0.
        -12    1    1    2    0    0 -0.89349929469E+00  0.14295084502E+00  0.75778000977E+00  0.11802569538E+01  0.00000000000E+00 0.  1.
         11    1    3    3    0    0  0.49493721820E+01 -0.27480444465E+02 -0.16473236714E+02  0.32419726111E+02  0.51100000000E-03 0. -1.
        -11    1    3    3    0    0  0.11449900095E+02 -0.97389354681E+01  0.22210306198E+01  0.15194737692E+02  0.51100000000E-03 0.  1.
        -12    1    3    3    0    0 -0.15505772982E+02  0.37076429088E+02  0.13494426084E+02  0.42393279244E+02  0.00000000000E+00 0.  1.
</event>
<event>
 7    1  0.1716782E-015  0.9000774E+02  0.7816164E-02  0.1186339E+00
        -11   -1    0    0    0    0  0.00000000000E+00  0.00000000000E+00  0.45593999997E+02  0.45594000000E+02  0.51100000000E-03 0. -1.
         11   -1    0    0    0    0 -0.00000000000E+00 -0.00000000000E+00 -0.45593999997E+02  0.45594000000E+02  0.51100000000E-03 0.  1.
    9900012    2    1    2    0    0 -0.12071211066E-01  0.11758246952E+01  0.10154500794E+00  0.90007736971E+02  0.89999998299E+02 0.  0.
        -12    1    1    2    0    0  0.12071211066E-01 -0.11758246952E+01 -0.10154500794E+00  0.11802630286E+01  0.00000000000E+00 0.  1.
         11    1    3    3    0    0  0.35889267664E+02 -0.45336396915E+01  0.12335877256E+02  0.38219985482E+02  0.51100000000E-03 0. -1.
        -11    1    3    3    0    0 -0.13080699889E+02  0.94000750935E+01  0.10609375721E+02  0.19287948953E+02  0.51100000000E-03 0.  1.
        -12    1    3    3    0    0 -0.22820638986E+02 -0.36906107068E+01 -0.22843707970E+02  0.32499802537E+02  0.00000000000E+00 0.  1.
</event>
<event>
 7    1  0.1716782E-015  0.9000779E+02  0.7816164E-02  0.1186339E+00
        -11   -1    0    0    0    0  0.00000000000E+00  0.00000000000E+00  0.45593999997E+02  0.45594000000E+02  0.51100000000E-03 0. -1.
         11   -1    0    0    0    0 -0.00000000000E+00 -0.00000000000E+00 -0.45593999997E+02  0.45594000000E+02  0.51100000000E-03 0.  1.
    9900012    2    1    2    0    0 -0.63571320732E+00 -0.23260137421E+00  0.96677842590E+00  0.90007790186E+02  0.90000052216E+02 0.  0.
        -12    1    1    2    0    0  0.63571320732E+00  0.23260137421E+00 -0.96677842590E+00  0.11802098144E+01  0.00000000000E+00 0.  1.
         11    1    3    3    0    0 -0.77154816508E+01  0.45722688448E+01  0.74890286134E+01  0.11684170887E+02  0.51100000000E-03 0. -1.
        -11    1    3    3    0    0 -0.30558099576E+02 -0.14860008068E+02 -0.16980746012E+02  0.37986353140E+02  0.51100000000E-03 0.  1.
         12    1    3    3    0    0  0.37637868019E+02  0.10055137849E+02  0.10458495825E+02  0.40337266158E+02  0.00000000000E+00 0. -1.
</event>
<event>
 7    1  0.1716782E-015  0.9000783E+02  0.7816164E-02  0.1186339E+00
        -11   -1    0    0    0    0  0.00000000000E+00  0.00000000000E+00  0.45593999997E+02  0.45594000000E+02  0.51100000000E-03 0.  1.
         11   -1    0    0    0    0 -0.00000000000E+00 -0.00000000000E+00 -0.45593999997E+02  0.45594000000E+02  0.51100000000E-03 0. -1.
    9900012    2    1    2    0    0 -0.68183712259E+00 -0.65792130475E+00 -0.70358165290E+00  0.90007834992E+02  0.90000097613E+02 0.  0.
        -12    1    1    2    0    0  0.68183712259E+00  0.65792130475E+00  0.70358165290E+00  0.11801650085E+01  0.00000000000E+00 0.  1.
         11    1    3    3    0    0 -0.32381468380E+01  0.52598738431E+01  0.91108867734E+01  0.11007276041E+02  0.51100000000E-03 0. -1.
        -11    1    3    3    0    0  0.28895507046E+02  0.23150809739E+02 -0.13927812714E+02  0.39558744751E+02  0.51100000000E-03 0.  1.
         12    1    3    3    0    0 -0.26339197331E+02 -0.29068604887E+02  0.41133442875E+01  0.39441814199E+02  0.00000000000E+00 0. -1.
</event>
<event>
 7    1  0.1716782E-015  0.9000789E+02  0.7816164E-02  0.1186339E+00
        -11   -1    0    0    0    0  0.00000000000E+00  0.00000000000E+00  0.45593999997E+02  0.45594000000E+02  0.51100000000E-03 0.  1.
         11   -1    0    0    0    0 -0.00000000000E+00 -0.00000000000E+00 -0.45593999997E+02  0.45594000000E+02  0.51100000000E-03 0. -1.
    9900012    2    1    2    0    0 -0.26661837960E+00  0.76943692409E+00 -0.85413439458E+00  0.90007888097E+02  0.90000151419E+02 0.  0.
        -12    1    1    2    0    0  0.26661837960E+00 -0.76943692409E+00  0.85413439458E+00  0.11801119034E+01  0.00000000000E+00 0.  1.
         11    1    3    3    0    0 -0.18240151474E+02 -0.15392945304E+02 -0.33117499427E+02  0.40821742484E+02  0.51100000000E-03 0. -1.
        -11    1    3    3    0    0 -0.32704075474E+01  0.86539076787E+01 -0.67798411038E+00  0.92760630848E+01  0.51100000000E-03 0.  1.
        -12    1    3    3    0    0  0.21243940641E+02  0.75084745491E+01  0.32941349143E+02  0.39910082528E+02  0.00000000000E+00 0.  1.
</event>
<event>
 7    1  0.1716782E-015  0.9000733E+02  0.7816164E-02  0.1186340E+00
        -11   -1    0    0    0    0  0.00000000000E+00  0.00000000000E+00  0.45593999997E+02  0.45594000000E+02  0.51100000000E-03 0.  1.
         11   -1    0    0    0    0 -0.00000000000E+00 -0.00000000000E+00 -0.45593999997E+02  0.45594000000E+02  0.51100000000E-03 0. -1.
    9900012    2    1    2    0    0 -0.10842079997E+01 -0.21091497541E+00 -0.41710962482E+00  0.90007333852E+02  0.89999589858E+02 0.  0.
        -12    1    1    2    0    0  0.10842079997E+01  0.21091497541E+00  0.41710962482E+00  0.11806661478E+01  0.00000000000E+00 0.  1.
         11    1    3    3    0    0  0.14976468166E+01 -0.90174158703E+01  0.18824832373E+01  0.93327637045E+01  0.51100000000E-03 0. -1.
        -11    1    3    3    0    0 -0.38127968863E+02 -0.11337329886E+02 -0.16609944807E+01  0.39812510113E+02  0.51100000000E-03 0.  1.
         12    1    3    3    0    0  0.35546114047E+02  0.20143830781E+02 -0.63859838141E+00  0.40862060035E+02  0.00000000000E+00 0. -1.
</event>
<event>
 7    1  0.1716782E-015  0.9000773E+02  0.7816164E-02  0.1186339E+00
        -11   -1    0    0    0    0  0.00000000000E+00  0.00000000000E+00  0.45593999997E+02  0.45594000000E+02  0.51100000000E-03 0. -1.
         11   -1    0    0    0    0 -0.00000000000E+00 -0.00000000000E+00 -0.45593999997E+02  0.45594000000E+02  0.51100000000E-03 0.  1.
    9900012    2    1    2    0    0 -0.76779782429E+00  0.28409459237E+00  0.85019131826E+00  0.90007725238E+02  0.89999986411E+02 0.  0.
        -12    1    1    2    0    0  0.76779782429E+00 -0.28409459237E+00 -0.85019131826E+00  0.11802747621E+01  0.00000000000E+00 0.  1.
         11    1    3    3    0    0 -0.10039963492E+02  0.17327909195E+02  0.30230312465E+02  0.36261951078E+02  0.51100000000E-03 0. -1.
        -11    1    3    3    0    0 -0.28713011381E+01  0.61434439912E+01  0.64596739171E+01  0.93655572005E+01  0.51100000000E-03 0.  1.
        -12    1    3    3    0    0  0.12143466805E+02 -0.23187258594E+02 -0.35839795064E+02  0.44380216959E+02  0.00000000000E+00 0.  1.
</event>
<event>
 7    1  0.1716782E-015  0.9000775E+02  0.7816164E-02  0.1186339E+00
        -11   -1    0    0    0    0  0.00000000000E+00  0.00000000000E+00  0.45593999997E+02  0.45594000000E+02  0.51100000000E-03 0.  1.
         11   -1    0    0    0    0 -0.00000000000E+00 -0.00000000000E+00 -0.45593999997E+02  0.45594000000E+02  0.51100000000E-03 0. -1.
    9900012    2    1    2    0    0  0.85728567857E+00  0.68054910644E+00 -0.44148050904E+00  0.90007749662E+02  0.90000011157E+02 0.  0.
        -12    1    1    2    0    0 -0.85728567857E+00 -0.68054910644E+00  0.44148050904E+00  0.11802503382E+01  0.00000000000E+00 0.  1.
         11    1    3    3    0    0 -0.10767130611E+02 -0.24329545178E+01 -0.28378170623E+02  0.30449481728E+02  0.51100000000E-03 0. -1.
        -11    1    3    3    0    0  0.95273200462E+01  0.54561098338E+01 -0.13838604198E+02  0.17664821771E+02  0.51100000000E-03 0.  1.
        -12    1    3    3    0    0  0.20970962438E+01 -0.23426062095E+01  0.41775294313E+02  0.41893446163E+02  0.00000000000E+00 0.  1.
</event>
<event>
 7    1  0.1716782E-015  0.9000783E+02  0.7816164E-02  0.1186339E+00
        -11   -1    0    0    0    0  0.00000000000E+00  0.00000000000E+00  0.45593999997E+02  0.45594000000E+02  0.51100000000E-03 0.  1.
         11   -1    0    0    0    0 -0.00000000000E+00 -0.00000000000E+00 -0.45593999997E+02  0.45594000000E+02  0.51100000000E-03 0. -1.
    9900012    2    1    2    0    0  0.31069705089E+00  0.10501389164E+01 -0.43987146951E+00  0.90007825729E+02  0.90000088228E+02 0.  0.
        -12    1    1    2    0    0 -0.31069705089E+00 -0.10501389164E+01  0.43987146951E+00  0.11801742714E+01  0.00000000000E+00 0.  1.
         11    1    3    3    0    0 -0.65344741486E+01 -0.10111406492E+02 -0.29527585369E+02  0.31887586795E+02  0.51100000000E-03 0. -1.
        -11    1    3    3    0    0 -0.51917199137E+01 -0.11624134463E+02 -0.64111609137E+01  0.14254032489E+02  0.51100000000E-03 0.  1.
        -12    1    3    3    0    0  0.12036891113E+02  0.22785679871E+02  0.35498874813E+02  0.43866206445E+02  0.00000000000E+00 0.  1.
</event>
<event>
 7    1  0.1716782E-015  0.9000772E+02  0.7816164E-02  0.1186339E+00
        -11   -1    0    0    0    0  0.00000000000E+00  0.00000000000E+00  0.45593999997E+02  0.45594000000E+02  0.51100000000E-03 0.  1.
         11   -1    0    0    0    0 -0.00000000000E+00 -0.00000000000E+00 -0.45593999997E+02  0.45594000000E+02  0.51100000000E-03 0. -1.
    9900012    2    1    2    0    0 -0.29823364515E+00 -0.42067027450E+00 -0.10616748337E+01  0.90007720271E+02  0.89999981378E+02 0.  0.
        -12    1    1    2    0    0  0.29823364515E+00  0.42067027450E+00  0.10616748337E+01  0.11802797293E+01  0.00000000000E+00 0.  1.
         11    1    3    3    0    0 -0.21811443014E+02 -0.47668747574E+01 -0.36803003436E+02  0.43045594472E+02  0.51100000000E-03 0. -1.
        -11    1    3    3    0    0  0.77122557198E+01  0.25532233247E+01 -0.50127556210E+00  0.81393559379E+01  0.51100000000E-03 0.  1.
        -12    1    3    3    0    0  0.13800953649E+02  0.17929811581E+01  0.36242604164E+02  0.38822769861E+02  0.00000000000E+00 0.  1.
</event>
<event>
 7    1  0.1716782E-015  0.9000772E+02  0.7816164E-02  0.1186339E+00
        -11   -1    0    0    0    0  0.00000000000E+00  0.00000000000E+00  0.45593999997E+02  0.45594000000E+02  0.51100000000E-03 0.  1.
         11   -1    0    0    0    0 -0.00000000000E+00 -0.00000000000E+00 -0.45593999997E+02  0.45594000000E+02  0.51100000000E-03 0. -1.
    9900012    2    1    2    0    0 -0.10094763262E+01  0.49706156721E+00 -0.35630998186E+00  0.90007716365E+02  0.89999977421E+02 0.  0.
        -12    1    1    2    0    0  0.10094763262E+01 -0.49706156721E+00  0.35630998186E+00  0.11802836346E+01  0.00000000000E+00 0.  1.
         11    1    3    3    0    0 -0.35729759904E+02 -0.20535655246E+02  0.90965596052E+01  0.42202799387E+02  0.51100000000E-03 0. -1.
        -11    1    3    3    0    0  0.99002074101E+01 -0.47989341337E+01 -0.30158971250E+01  0.11407870586E+02  0.51100000000E-03 0.  1.
        -12    1    3    3    0    0  0.24820076168E+02  0.25831650946E+02 -0.64369724620E+01  0.36397046392E+02  0.00000000000E+00 0.  1.
</event>
<event>
 7    1  0.1716782E-015  0.9000773E+02  0.7816164E-02  0.1186339E+00
        -11   -1    0    0    0    0  0.00000000000E+00  0.00000000000E+00  0.45593999997E+02  0.45594000000E+02  0.51100000000E-03 0.  1.
         11   -1    0    0    0    0 -0.00000000000E+00 -0.00000000000E+00 -0.45593999997E+02  0.45594000000E+02  0.51100000000E-03 0. -1.
    9900012    2    1    2    0    0 -0.21932994093E+00  0.16390942999E+00 -0.11480690020E+01  0.90007731235E+02  0.89999992487E+02 0.  0.
        -12    1    1    2    0    0  0.21932994093E+00 -0.16390942999E+00  0.11480690020E+01  0.11802687649E+01  0.00000000000E+00 0.  1.
         11    1    3    3    0    0  0.44707460607E+00 -0.32013177952E+02 -0.64672238598E+01  0.32662951842E+02  0.51100000000E-03 0. -1.
        -11    1    3    3    0    0  0.42771580668E-01 -0.36146834953E+00  0.21149607348E+02  0.21152739303E+02  0.51100000000E-03 0.  1.
        -12    1    3    3    0    0 -0.70917612766E+00  0.32538555732E+02 -0.15830452490E+02  0.36192040091E+02  0.00000000000E+00 0.  1.
</event>
<event>
 7    1  0.1716782E-015  0.9000783E+02  0.7816164E-02  0.1186339E+00
        -11   -1    0    0    0    0  0.00000000000E+00  0.00000000000E+00  0.45593999997E+02  0.45594000000E+02  0.51100000000E-03 0.  1.
         11   -1    0    0    0    0 -0.00000000000E+00 -0.00000000000E+00 -0.45593999997E+02  0.45594000000E+02  0.51100000000E-03 0. -1.
    9900012    2    1    2    0    0  0.11188983586E+01  0.28694783657E+00  0.24193042949E+00  0.90007829279E+02  0.90000091826E+02 0.  0.
        -12    1    1    2    0    0 -0.11188983586E+01 -0.28694783657E+00 -0.24193042949E+00  0.11801707209E+01  0.00000000000E+00 0.  1.
         11    1    3    3    0    0  0.76749512381E+01 -0.17754990789E+02 -0.36936652897E+01  0.19692326880E+02  0.51100000000E-03 0. -1.
        -11    1    3    3    0    0 -0.91323140550E+01 -0.10108925268E+01  0.33673085876E+02  0.34904122627E+02  0.51100000000E-03 0.  1.
         12    1    3    3    0    0  0.25762611755E+01  0.19052831152E+02 -0.29737490157E+02  0.35411379772E+02  0.00000000000E+00 0. -1.
</event>
<event>
 7    1  0.1716782E-015  0.9000767E+02  0.7816164E-02  0.1186339E+00
        -11   -1    0    0    0    0  0.00000000000E+00  0.00000000000E+00  0.45593999997E+02  0.45594000000E+02  0.51100000000E-03 0. -1.
         11   -1    0    0    0    0 -0.00000000000E+00 -0.00000000000E+00 -0.45593999997E+02  0.45594000000E+02  0.51100000000E-03 0.  1.
    9900012    2    1    2    0    0  0.11558592718E+01 -0.23699598440E+00  0.31762406227E-01  0.90007666741E+02  0.89999927142E+02 0.  0.
        -12    1    1    2    0    0 -0.11558592718E+01  0.23699598440E+00 -0.31762406227E-01  0.11803332594E+01  0.00000000000E+00 0.  1.
         11    1    3    3    0    0  0.83381659068E+01  0.22943212761E+02  0.15032064374E+01  0.24457629737E+02  0.51100000000E-03 0. -1.
        -11    1    3    3    0    0 -0.20331519102E+02  0.14327420827E+02 -0.58869759000E+01  0.25559775861E+02  0.51100000000E-03 0.  1.
         12    1    3    3    0    0  0.13149212467E+02 -0.37507629572E+02  0.44155318688E+01  0.39990261143E+02  0.00000000000E+00 0. -1.
</event>
<event>
 7    1  0.1716782E-015  0.9000773E+02  0.7816164E-02  0.1186339E+00
        -11   -1    0    0    0    0  0.00000000000E+00  0.00000000000E+00  0.45593999997E+02  0.45594000000E+02  0.51100000000E-03 0.  1.
         11   -1    0    0    0    0 -0.00000000000E+00 -0.00000000000E+00 -0.45593999997E+02  0.45594000000E+02  0.51100000000E-03 0. -1.
    9900012    2    1    2    0    0  0.67900728911E+00 -0.42561048566E+00 -0.86651443182E+00  0.90007727809E+02  0.89999989016E+02 0.  0.
        -12    1    1    2    0    0 -0.67900728911E+00  0.42561048566E+00  0.86651443182E+00  0.11802721909E+01  0.00000000000E+00 0.  1.
         11    1    3    3    0    0 -0.79285221335E+01 -0.33348067189E+01 -0.42053459344E+01  0.95743059155E+01  0.51100000000E-03 0. -1.
        -11    1    3    3    0    0 -0.10548062060E+02  0.29341520111E+02  0.26080245330E+02  0.40649300269E+02  0.51100000000E-03 0.  1.
         12    1    3    3    0    0  0.19155591482E+02 -0.26432323878E+02 -0.22741413827E+02  0.39784121625E+02  0.00000000000E+00 0. -1.
</event>
<event>
 7    1  0.1716782E-015  0.9000789E+02  0.7816164E-02  0.1186339E+00
        -11   -1    0    0    0    0  0.00000000000E+00  0.00000000000E+00  0.45593999997E+02  0.45594000000E+02  0.51100000000E-03 0.  1.
         11   -1    0    0    0    0 -0.00000000000E+00 -0.00000000000E+00 -0.45593999997E+02  0.45594000000E+02  0.51100000000E-03 0. -1.
    9900012    2    1    2    0    0 -0.13260957941E+00  0.11631991206E+01  0.14845968956E+00  0.90007890779E+02  0.90000154137E+02 0.  0.
        -12    1    1    2    0    0  0.13260957941E+00 -0.11631991206E+01 -0.14845968956E+00  0.11801092212E+01  0.00000000000E+00 0.  1.
         11    1    3    3    0    0  0.13439584612E+02  0.16075415112E+01  0.46051964397E+01  0.14297358454E+02  0.51100000000E-03 0. -1.
        -11    1    3    3    0    0  0.28288182806E+02 -0.14020851770E+02 -0.18171346528E+01  0.31624477062E+02  0.51100000000E-03 0.  1.
         12    1    3    3    0    0 -0.41860376998E+02  0.13576509380E+02 -0.26396020974E+01  0.44086055262E+02  0.00000000000E+00 0. -1.
</event>
<event>
 7    1  0.1716782E-015  0.9000775E+02  0.7816164E-02  0.1186339E+00
        -11   -1    0    0    0    0  0.00000000000E+00  0.00000000000E+00  0.45593999997E+02  0.45594000000E+02  0.51100000000E-03 0. -1.
         11   -1    0    0    0    0 -0.00000000000E+00 -0.00000000000E+00 -0.45593999997E+02  0.45594000000E+02  0.51100000000E-03 0.  1.
    9900012    2    1    2    0    0 -0.10115199340E+01  0.15594159954E+00  0.58779538768E+00  0.90007748426E+02  0.90000009906E+02 0.  0.
        -12    1    1    2    0    0  0.10115199340E+01 -0.15594159954E+00 -0.58779538768E+00  0.11802515737E+01  0.00000000000E+00 0.  1.
         11    1    3    3    0    0  0.35528402257E+01  0.96535781186E+01  0.53892100407E+00  0.10300712610E+02  0.51100000000E-03 0. -1.
        -11    1    3    3    0    0 -0.38160321493E+02  0.34173292922E+01  0.14439862019E+02  0.40943838258E+02  0.51100000000E-03 0.  1.
         12    1    3    3    0    0  0.33595961333E+02 -0.12914965811E+02 -0.14390987635E+02  0.38763197558E+02  0.00000000000E+00 0. -1.
</event>
<event>
 7    1  0.1716782E-015  0.9000775E+02  0.7816164E-02  0.1186339E+00
        -11   -1    0    0    0    0  0.00000000000E+00  0.00000000000E+00  0.45593999997E+02  0.45594000000E+02  0.51100000000E-03 0.  1.
         11   -1    0    0    0    0 -0.00000000000E+00 -0.00000000000E+00 -0.45593999997E+02  0.45594000000E+02  0.51100000000E-03 0. -1.
    9900012    2    1    2    0    0  0.41346105764E+00  0.81473540792E+00 -0.74716457888E+00  0.90007746324E+02  0.90000007776E+02 0.  0.
        -12    1    1    2    0    0 -0.41346105764E+00 -0.81473540792E+00  0.74716457888E+00  0.11802536757E+01  0.00000000000E+00 0.  1.
         11    1    3    3    0    0 -0.25478403665E+02 -0.23707063814E+02 -0.41446513653E+00  0.34804392102E+02  0.51100000000E-03 0. -1.
        -11    1    3    3    0    0 -0.46144388193E+01 -0.87940638792E+01 -0.13280437290E+01  0.10019596076E+02  0.51100000000E-03 0.  1.
        -12    1    3    3    0    0  0.30506303542E+02  0.33315863101E+02  0.99534428665E+00  0.45183758146E+02  0.00000000000E+00 0.  1.
</event>
<event>
 7    1  0.1716782E-015  0.9000788E+02  0.7816164E-02  0.1186339E+00
        -11   -1    0    0    0    0  0.00000000000E+00  0.00000000000E+00  0.45593999997E+02  0.45594000000E+02  0.51100000000E-03 0. -1.
         11   -1    0    0    0    0 -0.00000000000E+00 -0.00000000000E+00 -0.45593999997E+02  0.45594000000E+02  0.51100000000E-03 0.  1.
    9900012    2    1    2    0    0 -0.19495154683E+00 -0.98373105806E+00  0.62205951461E+00  0.90007876727E+02  0.90000139899E+02 0.  0.
        -12    1    1    2    0    0  0.19495154683E+00  0.98373105806E+00 -0.62205951461E+00  0.11801232732E+01  0.00000000000E+00 0.  1.
         11    1    3    3    0    0  0.64201685648E+01 -0.78767951935E+01  0.25644433273E+01  0.10480402509E+02  0.51100000000E-03 0. -1.
        -11    1    3    3    0    0 -0.31806549950E+01 -0.30711266800E+02  0.19093753301E+02  0.36302477740E+02  0.51100000000E-03 0.  1.
         12    1    3    3    0    0 -0.34344651166E+01  0.37604330936E+02 -0.21036137114E+02  0.43224996477E+02  0.00000000000E+00 0. -1.
</event>
<event>
 7    1  0.1716782E-015  0.9000775E+02  0.7816164E-02  0.1186339E+00
        -11   -1    0    0    0    0  0.00000000000E+00  0.00000000000E+00  0.45593999997E+02  0.45594000000E+02  0.51100000000E-03 0.  1.
         11   -1    0    0    0    0 -0.00000000000E+00 -0.00000000000E+00 -0.45593999997E+02  0.45594000000E+02  0.51100000000E-03 0. -1.
    9900012    2    1    2    0    0  0.20424857726E+00 -0.13085797289E-01 -0.11623731801E+01  0.90007745735E+02  0.90000007179E+02 0.  0.
        -12    1    1    2    0    0 -0.20424857726E+00  0.13085797289E-01  0.11623731801E+01  0.11802542646E+01  0.00000000000E+00 0.  1.
         11    1    3    3    0    0  0.57267625235E+01  0.72100593002E+01  0.19931435671E+00  0.92098040471E+01  0.51100000000E-03 0. -1.
        -11    1    3    3    0    0  0.36019517218E+02  0.66520352628E+01  0.31733741432E+01  0.36765819690E+02  0.51100000000E-03 0.  1.
         12    1    3    3    0    0 -0.41542031164E+02 -0.13875180360E+02 -0.45350616800E+01  0.44032121999E+02  0.00000000000E+00 0. -1.
</event>
<event>
 7    1  0.1716782E-015  0.9000770E+02  0.7816164E-02  0.1186339E+00
        -11   -1    0    0    0    0  0.00000000000E+00  0.00000000000E+00  0.45593999997E+02  0.45594000000E+02  0.51100000000E-03 0.  1.
         11   -1    0    0    0    0 -0.00000000000E+00 -0.00000000000E+00 -0.45593999997E+02  0.45594000000E+02  0.51100000000E-03 0. -1.
    9900012    2    1    2    0    0  0.81031613140E+00  0.70797542790E+00 -0.48504151026E+00  0.90007700586E+02  0.89999961434E+02 0.  0.
        -12    1    1    2    0    0 -0.81031613140E+00 -0.70797542790E+00  0.48504151026E+00  0.11802994137E+01  0.00000000000E+00 0.  1.
         11    1    3    3    0    0 -0.11780247777E+02  0.21404734292E+01  0.69303631719E+01  0.13834225607E+02  0.51100000000E-03 0. -1.
        -11    1    3    3    0    0  0.41920694115E+02 -0.22857046034E+01  0.84373475910E+01  0.42822399223E+02  0.51100000000E-03 0.  1.
         12    1    3    3    0    0 -0.29330130206E+02  0.85320660206E+00 -0.15852752273E+02  0.33351075756E+02  0.00000000000E+00 0. -1.
</event>
<event>
 7    1  0.1716782E-015  0.9000766E+02  0.7816164E-02  0.1186339E+00
        -11   -1    0    0    0    0  0.00000000000E+00  0.00000000000E+00  0.45593999997E+02  0.45594000000E+02  0.51100000000E-03 0. -1.
         11   -1    0    0    0    0 -0.00000000000E+00 -0.00000000000E+00 -0.45593999997E+02  0.45594000000E+02  0.51100000000E-03 0.  1.
    9900012    2    1    2    0    0 -0.39544107843E+00  0.83490256481E+00 -0.73468424064E+00  0.90007662390E+02  0.89999922734E+02 0.  0.
        -12    1    1    2    0    0  0.39544107843E+00 -0.83490256481E+00  0.73468424064E+00  0.11803376096E+01  0.00000000000E+00 0.  1.
         11    1    3    3    0    0 -0.26973925733E+02  0.49193541715E+01  0.20693819999E+02  0.34351519636E+02  0.51100000000E-03 0. -1.
        -11    1    3    3    0    0 -0.55935680486E+01  0.52919837753E+01  0.79668306075E+01  0.11079868500E+02  0.51100000000E-03 0.  1.
        -12    1    3    3    0    0  0.32172052703E+02 -0.93764353820E+01 -0.29395334847E+02  0.44576274254E+02  0.00000000000E+00 0.  1.
</event>
<event>
 7    1  0.1716782E-015  0.9000778E+02  0.7816164E-02  0.1186339E+00
        -11   -1    0    0    0    0  0.00000000000E+00  0.00000000000E+00  0.45593999997E+02  0.45594000000E+02  0.51100000000E-03 0.  1.
         11   -1    0    0    0    0 -0.00000000000E+00 -0.00000000000E+00 -0.45593999997E+02  0.45594000000E+02  0.51100000000E-03 0. -1.
    9900012    2    1    2    0    0  0.63211044174E+00 -0.88803199429E+00  0.45250965934E+00  0.90007775689E+02  0.90000037528E+02 0.  0.
        -12    1    1    2    0    0 -0.63211044174E+00  0.88803199429E+00 -0.45250965934E+00  0.11802243114E+01  0.00000000000E+00 0.  1.
         11    1    3    3    0    0  0.90955858329E+01  0.73732257554E+01  0.91845622444E+01  0.14881207060E+02  0.51100000000E-03 0. -1.
        -11    1    3    3    0    0 -0.21678931275E+01  0.32111852167E+02  0.37473351488E+01  0.32402366136E+02  0.51100000000E-03 0.  1.
         12    1    3    3    0    0 -0.62955822637E+01 -0.40373109917E+02 -0.12479387734E+02  0.42724202493E+02  0.00000000000E+00 0. -1.
</event>
<event>
 7    1  0.1716782E-015  0.9000772E+02  0.7816164E-02  0.1186339E+00
        -11   -1    0    0    0    0  0.00000000000E+00  0.00000000000E+00  0.45593999997E+02  0.45594000000E+02  0.51100000000E-03 0.  1.
         11   -1    0    0    0    0 -0.00000000000E+00 -0.00000000000E+00 -0.45593999997E+02  0.45594000000E+02  0.51100000000E-03 0. -1.
    9900012    2    1    2    0    0 -0.96463689506E+00 -0.65886385359E+00 -0.16860800405E+00  0.90007722670E+02  0.89999983809E+02 0.  0.
        -12    1    1    2    0    0  0.96463689506E+00  0.65886385359E+00  0.16860800405E+00  0.11802773301E+01  0.00000000000E+00 0.  1.
         11    1    3    3    0    0 -0.56463858670E+01  0.17042050745E+02 -0.28743580277E+02  0.33889623402E+02  0.51100000000E-03 0. -1.
        -11    1    3    3    0    0  0.45700513940E+01  0.99617065586E+01 -0.54717785780E+01  0.12249952178E+02  0.51100000000E-03 0.  1.
        -12    1    3    3    0    0  0.11169757790E+00 -0.27662621157E+02  0.34046750850E+02  0.43868147090E+02  0.00000000000E+00 0.  1.
</event>
<event>
 7    1  0.1716782E-015  0.9000778E+02  0.7816164E-02  0.1186339E+00
        -11   -1    0    0    0    0  0.00000000000E+00  0.00000000000E+00  0.45593999997E+02  0.45594000000E+02  0.51100000000E-03 0.  1.
         11   -1    0    0    0    0 -0.00000000000E+00 -0.00000000000E+00 -0.45593999997E+02  0.45594000000E+02  0.51100000000E-03 0. -1.
    9900012    2    1    2    0    0  0.79906922594E+00  0.62388154446E+00  0.60429134625E+00  0.90007784833E+02  0.90000046793E+02 0.  0.
        -12    1    1    2    0    0 -0.79906922594E+00 -0.62388154446E+00 -0.60429134625E+00  0.11802151670E+01  0.00000000000E+00 0.  1.
         11    1    3    3    0    0 -0.72742267609E+01  0.85059502973E+00 -0.47262054912E+01  0.87163584988E+01  0.51100000000E-03 0. -1.
        -11    1    3    3    0    0 -0.29144610210E+02  0.15205071018E+02  0.19924471725E+02  0.38439394671E+02  0.51100000000E-03 0.  1.
         12    1    3    3    0    0  0.37217906197E+02 -0.15431784503E+02 -0.14593974887E+02  0.42852031663E+02  0.00000000000E+00 0. -1.
</event>
<event>
 7    1  0.1716782E-015  0.9000776E+02  0.7816164E-02  0.1186339E+00
        -11   -1    0    0    0    0  0.00000000000E+00  0.00000000000E+00  0.45593999997E+02  0.45594000000E+02  0.51100000000E-03 0.  1.
         11   -1    0    0    0    0 -0.00000000000E+00 -0.00000000000E+00 -0.45593999997E+02  0.45594000000E+02  0.51100000000E-03 0. -1.
    9900012    2    1    2    0    0  0.48862731467E+00 -0.39890775989E-01 -0.10736003526E+01  0.90007760345E+02  0.90000021981E+02 0.  0.
        -12    1    1    2    0    0 -0.48862731467E+00  0.39890775989E-01  0.10736003526E+01  0.11802396552E+01  0.00000000000E+00 0.  1.
         11    1    3    3    0    0  0.11869513834E+02  0.29256181909E+02 -0.25634693072E+02  0.40668747555E+02  0.51100000000E-03 0. -1.
        -11    1    3    3    0    0  0.81009102912E+01 -0.27172200128E+01  0.54431105574E+00  0.85617934413E+01  0.51100000000E-03 0.  1.
        -12    1    3    3    0    0 -0.19481796810E+02 -0.26578852672E+02  0.24016781664E+02  0.40777219349E+02  0.00000000000E+00 0.  1.
</event>
<event>
 7    1  0.1716782E-015  0.9000759E+02  0.7816164E-02  0.1186339E+00
        -11   -1    0    0    0    0  0.00000000000E+00  0.00000000000E+00  0.45593999997E+02  0.45594000000E+02  0.51100000000E-03 0.  1.
         11   -1    0    0    0    0 -0.00000000000E+00 -0.00000000000E+00 -0.45593999997E+02  0.45594000000E+02  0.51100000000E-03 0. -1.
    9900012    2    1    2    0    0 -0.57754850817E+00  0.73184239608E+00 -0.72402110008E+00  0.90007592390E+02  0.89999851810E+02 0.  0.
        -12    1    1    2    0    0  0.57754850817E+00 -0.73184239608E+00  0.72402110008E+00  0.11804076098E+01  0.00000000000E+00 0.  1.
         11    1    3    3    0    0  0.16133243529E+02 -0.31205437775E+02 -0.10089181785E+02  0.36549315765E+02  0.51100000000E-03 0. -1.
        -11    1    3    3    0    0  0.35233228377E+01 -0.74564933062E+01  0.26710380841E+01  0.86687681335E+01  0.51100000000E-03 0.  1.
        -12    1    3    3    0    0 -0.20234114875E+02  0.39393773477E+02  0.66941226009E+01  0.44789508492E+02  0.00000000000E+00 0.  1.
</event>
<event>
 7    1  0.1716782E-015  0.9000776E+02  0.7816164E-02  0.1186339E+00
        -11   -1    0    0    0    0  0.00000000000E+00  0.00000000000E+00  0.45593999997E+02  0.45594000000E+02  0.51100000000E-03 0.  1.
         11   -1    0    0    0    0 -0.00000000000E+00 -0.00000000000E+00 -0.45593999997E+02  0.45594000000E+02  0.51100000000E-03 0. -1.
    9900012    2    1    2    0    0  0.50347342864E+00  0.10206023587E+01 -0.31281805753E+00  0.90007758582E+02  0.90000020195E+02 0.  0.
        -12    1    1    2    0    0 -0.50347342864E+00 -0.10206023587E+01  0.31281805753E+00  0.11802414182E+01  0.00000000000E+00 0.  1.
         11    1    3    3    0    0 -0.84622057714E+01  0.90234841484E+01 -0.34642048340E+02  0.36784557985E+02  0.51100000000E-03 0. -1.
        -11    1    3    3    0    0  0.54371537591E+01  0.15155776005E+02  0.79943440562E+01  0.17976921997E+02  0.51100000000E-03 0.  1.
        -12    1    3    3    0    0  0.35285254409E+01 -0.23158657795E+02  0.26334886226E+02  0.35246278601E+02  0.00000000000E+00 0.  1.
</event>
<event>
 7    1  0.2221279E-015  0.9000760E+02  0.7816164E-02  0.1186339E+00
        -11   -1    0    0    0    0  0.00000000000E+00  0.00000000000E+00  0.45593999997E+02  0.45594000000E+02  0.51100000000E-03 0. -1.
         11   -1    0    0    0    0 -0.00000000000E+00 -0.00000000000E+00 -0.45593999997E+02  0.45594000000E+02  0.51100000000E-03 0.  1.
    9900012    2    1    2    0    0 -0.26835184386E+00 -0.10433680658E+01  0.48239379646E+00  0.90007604555E+02  0.89999864135E+02 0.  0.
        -12    1    1    2    0    0  0.26835184386E+00  0.10433680658E+01 -0.48239379646E+00  0.11803954455E+01  0.00000000000E+00 0.  1.
         11    1    3    3    0    0  0.61985206927E+00  0.13313794315E+02  0.34417161266E+02  0.36907754274E+02  0.51100000000E-03 0. -1.
        -11    1    3    3    0    0  0.51427085765E+01 -0.42219978373E+01  0.74960244191E+01  0.10023128234E+02  0.51100000000E-03 0.  1.
        -12    1    3    3    0    0 -0.60309124897E+01 -0.10135164543E+02 -0.41430791889E+02  0.43076722047E+02  0.00000000000E+00 0.  1.
</event>
<event>
 7    1  0.1716782E-015  0.9000776E+02  0.7816164E-02  0.1186339E+00
        -11   -1    0    0    0    0  0.00000000000E+00  0.00000000000E+00  0.45593999997E+02  0.45594000000E+02  0.51100000000E-03 0.  1.
         11   -1    0    0    0    0 -0.00000000000E+00 -0.00000000000E+00 -0.45593999997E+02  0.45594000000E+02  0.51100000000E-03 0. -1.
    9900012    2    1    2    0    0 -0.33418235438E+00  0.66576991119E+00 -0.91544948585E+00  0.90007756304E+02  0.90000017887E+02 0.  0.
        -12    1    1    2    0    0  0.33418235438E+00 -0.66576991119E+00  0.91544948585E+00  0.11802436959E+01  0.00000000000E+00 0.  1.
         11    1    3    3    0    0 -0.16122359872E+01  0.67192785154E+01  0.73373236544E+01  0.10078905065E+02  0.51100000000E-03 0. -1.
        -11    1    3    3    0    0 -0.13610908369E+02 -0.51852370371E+01  0.32995407414E+02  0.36067165406E+02  0.51100000000E-03 0.  1.
         12    1    3    3    0    0  0.14888962001E+02 -0.86827156708E+00 -0.41248180555E+02  0.43861685832E+02  0.00000000000E+00 0. -1.
</event>
<event>
 7    1  0.1716782E-015  0.9000780E+02  0.7816164E-02  0.1186339E+00
        -11   -1    0    0    0    0  0.00000000000E+00  0.00000000000E+00  0.45593999997E+02  0.45594000000E+02  0.51100000000E-03 0.  1.
         11   -1    0    0    0    0 -0.00000000000E+00 -0.00000000000E+00 -0.45593999997E+02  0.45594000000E+02  0.51100000000E-03 0. -1.
    9900012    2    1    2    0    0 -0.40116375243E-01 -0.28594292780E+00 -0.11443300493E+01  0.90007803430E+02  0.90000065636E+02 0.  0.
        -12    1    1    2    0    0  0.40116375243E-01  0.28594292780E+00  0.11443300493E+01  0.11801965697E+01  0.00000000000E+00 0.  1.
         11    1    3    3    0    0  0.12432645675E+01 -0.77848647466E+01  0.59676297773E+01  0.98874886259E+01  0.51100000000E-03 0. -1.
        -11    1    3    3    0    0  0.16768111505E+02 -0.29990866639E+02  0.89692014033E+01  0.35511522345E+02  0.51100000000E-03 0.  1.
         12    1    3    3    0    0 -0.18051492448E+02  0.37489788458E+02 -0.16081161230E+02  0.44608792459E+02  0.00000000000E+00 0. -1.
</event>
<event>
 7    1  0.1716782E-015  0.9000767E+02  0.7816164E-02  0.1186339E+00
        -11   -1    0    0    0    0  0.00000000000E+00  0.00000000000E+00  0.45593999997E+02  0.45594000000E+02  0.51100000000E-03 0.  1.
         11   -1    0    0    0    0 -0.00000000000E+00 -0.00000000000E+00 -0.45593999997E+02  0.45594000000E+02  0.51100000000E-03 0. -1.
    9900012    2    1    2    0    0  0.10741706241E+01  0.43644956871E+00 -0.22099998689E+00  0.90007673033E+02  0.89999933517E+02 0.  0.
        -12    1    1    2    0    0 -0.10741706241E+01 -0.43644956871E+00  0.22099998689E+00  0.11803269673E+01  0.00000000000E+00 0.  1.
         11    1    3    3    0    0 -0.10282935337E+02  0.24567545755E+02 -0.24584477021E+02  0.36244993782E+02  0.51100000000E-03 0. -1.
        -11    1    3    3    0    0 -0.59504343335E+01  0.42825669488E+01 -0.54135240917E+01  0.91134127406E+01  0.51100000000E-03 0.  1.
        -12    1    3    3    0    0  0.17307540295E+02 -0.28413663135E+02  0.29777001126E+02  0.44649266510E+02  0.00000000000E+00 0.  1.
</event>
<event>
 7    1  0.1716782E-015  0.9000776E+02  0.7816164E-02  0.1186339E+00
        -11   -1    0    0    0    0  0.00000000000E+00  0.00000000000E+00  0.45593999997E+02  0.45594000000E+02  0.51100000000E-03 0. -1.
         11   -1    0    0    0    0 -0.00000000000E+00 -0.00000000000E+00 -0.45593999997E+02  0.45594000000E+02  0.51100000000E-03 0.  1.
    9900012    2    1    2    0    0  0.22017324305E+00  0.52415308659E-01  0.11583362892E+01  0.90007759948E+02  0.90000021579E+02 0.  0.
        -12    1    1    2    0    0 -0.22017324305E+00 -0.52415308659E-01 -0.11583362892E+01  0.11802400520E+01  0.00000000000E+00 0.  1.
         11    1    3    3    0    0 -0.29614412266E+01 -0.90871453918E+01 -0.70585911092E+00  0.95835579435E+01  0.51100000000E-03 0. -1.
        -11    1    3    3    0    0  0.36461235578E+02  0.95258912647E+00 -0.18146076812E+02  0.40738301754E+02  0.51100000000E-03 0.  1.
         12    1    3    3    0    0 -0.33279621108E+02  0.81869715740E+01  0.20010272212E+02  0.39685900250E+02  0.00000000000E+00 0. -1.
</event>
<event>
 7    1  0.1716782E-015  0.9000830E+02  0.7816164E-02  0.1186338E+00
        -11   -1    0    0    0    0  0.00000000000E+00  0.00000000000E+00  0.45593999997E+02  0.45594000000E+02  0.51100000000E-03 0.  1.
         11   -1    0    0    0    0 -0.00000000000E+00 -0.00000000000E+00 -0.45593999997E+02  0.45594000000E+02  0.51100000000E-03 0. -1.
    9900012    2    1    2    0    0  0.39394706413E+00  0.27706177923E+00 -0.10769066696E+01  0.90008302796E+02  0.90000571591E+02 0.  0.
        -12    1    1    2    0    0 -0.39394706413E+00 -0.27706177923E+00  0.10769066696E+01  0.11796972044E+01  0.00000000000E+00 0.  1.
         11    1    3    3    0    0 -0.60570376894E+01 -0.31375656897E+01  0.45509773262E+01  0.82002084676E+01  0.51100000000E-03 0. -1.
        -11    1    3    3    0    0 -0.13876447663E+02 -0.31549234522E+02 -0.18817236612E+02  0.39268287366E+02  0.51100000000E-03 0.  1.
         12    1    3    3    0    0  0.20327432416E+02  0.34963861991E+02  0.13189352616E+02  0.42539806962E+02  0.00000000000E+00 0. -1.
</event>
<event>
 7    1  0.1716782E-015  0.9000777E+02  0.7816164E-02  0.1186339E+00
        -11   -1    0    0    0    0  0.00000000000E+00  0.00000000000E+00  0.45593999997E+02  0.45594000000E+02  0.51100000000E-03 0. -1.
         11   -1    0    0    0    0 -0.00000000000E+00 -0.00000000000E+00 -0.45593999997E+02  0.45594000000E+02  0.51100000000E-03 0.  1.
    9900012    2    1    2    0    0 -0.78073887016E+00  0.31878025168E+00  0.82569158056E+00  0.90007770947E+02  0.90000032723E+02 0.  0.
        -12    1    1    2    0    0  0.78073887016E+00 -0.31878025168E+00 -0.82569158056E+00  0.11802290534E+01  0.00000000000E+00 0.  1.
         11    1    3    3    0    0  0.24351433465E+01 -0.18138513095E+00  0.63106561323E+01  0.67666243257E+01  0.51100000000E-03 0. -1.
        -11    1    3    3    0    0 -0.27959356015E+02  0.23086901144E+02  0.19758467306E+02  0.41293191010E+02  0.51100000000E-03 0.  1.
         12    1    3    3    0    0  0.24743473799E+02 -0.22586735762E+02 -0.25243431858E+02  0.41947955611E+02  0.00000000000E+00 0. -1.
</event>
<event>
 7    1  0.1716782E-015  0.9000780E+02  0.7816164E-02  0.1186339E+00
        -11   -1    0    0    0    0  0.00000000000E+00  0.00000000000E+00  0.45593999997E+02  0.45594000000E+02  0.51100000000E-03 0. -1.
         11   -1    0    0    0    0 -0.00000000000E+00 -0.00000000000E+00 -0.45593999997E+02  0.45594000000E+02  0.51100000000E-03 0.  1.
    9900012    2    1    2    0    0  0.72252400735E+00  0.15619929722E+00  0.92002343918E+00  0.90007795657E+02  0.90000057760E+02 0.  0.
        -12    1    1    2    0    0 -0.72252400735E+00 -0.15619929722E+00 -0.92002343918E+00  0.11802043426E+01  0.00000000000E+00 0.  1.
         11    1    3    3    0    0 -0.70234170497E+01 -0.11044322329E+01 -0.67290940885E+01  0.97892218855E+01  0.51100000000E-03 0. -1.
        -11    1    3    3    0    0  0.20552693152E+02  0.66809929544E+01 -0.31766960460E+02  0.38421200395E+02  0.51100000000E-03 0.  1.
         12    1    3    3    0    0 -0.12806752095E+02 -0.54203614243E+01  0.39416077988E+02  0.41797373376E+02  0.00000000000E+00 0. -1.
</event>
<event>
 7    1  0.1716782E-015  0.9000769E+02  0.7816164E-02  0.1186339E+00
        -11   -1    0    0    0    0  0.00000000000E+00  0.00000000000E+00  0.45593999997E+02  0.45594000000E+02  0.51100000000E-03 0. -1.
         11   -1    0    0    0    0 -0.00000000000E+00 -0.00000000000E+00 -0.45593999997E+02  0.45594000000E+02  0.51100000000E-03 0.  1.
    9900012    2    1    2    0    0 -0.26256102466E-01 -0.22409942965E+00  0.11585413836E+01  0.90007691534E+02  0.89999952262E+02 0.  0.
        -12    1    1    2    0    0  0.26256102466E-01  0.22409942965E+00 -0.11585413836E+01  0.11803084660E+01  0.00000000000E+00 0.  1.
         11    1    3    3    0    0 -0.26239375726E+02  0.67973637819E+01  0.35276458818E+02  0.44487498692E+02  0.51100000000E-03 0. -1.
        -11    1    3    3    0    0  0.70059950021E+01  0.23189827726E+01 -0.34459519710E+01  0.81447057845E+01  0.51100000000E-03 0.  1.
        -12    1    3    3    0    0  0.19207124622E+02 -0.93404459841E+01 -0.30671965463E+02  0.37375487058E+02  0.00000000000E+00 0.  1.
</event>
<event>
 7    1  0.1716782E-015  0.9000773E+02  0.7816164E-02  0.1186339E+00
        -11   -1    0    0    0    0  0.00000000000E+00  0.00000000000E+00  0.45593999997E+02  0.45594000000E+02  0.51100000000E-03 0. -1.
         11   -1    0    0    0    0 -0.00000000000E+00 -0.00000000000E+00 -0.45593999997E+02  0.45594000000E+02  0.51100000000E-03 0.  1.
    9900012    2    1    2    0    0  0.15592621813E+00  0.29978015478E+00  0.11308680920E+01  0.90007727248E+02  0.89999988448E+02 0.  0.
        -12    1    1    2    0    0 -0.15592621813E+00 -0.29978015478E+00 -0.11308680920E+01  0.11802727516E+01  0.00000000000E+00 0.  1.
         11    1    3    3    0    0  0.54582203509E+01 -0.60617877462E+01  0.34259885665E+01  0.88473068217E+01  0.51100000000E-03 0. -1.
        -11    1    3    3    0    0 -0.21225803552E+02 -0.19138399982E+02 -0.29168847553E+02  0.40836683976E+02  0.51100000000E-03 0.  1.
         12    1    3    3    0    0  0.15923509419E+02  0.25499967883E+02  0.26873727079E+02  0.40323736451E+02  0.00000000000E+00 0. -1.
</event>
<event>
 7    1  0.1716782E-015  0.9000765E+02  0.7816164E-02  0.1186339E+00
        -11   -1    0    0    0    0  0.00000000000E+00  0.00000000000E+00  0.45593999997E+02  0.45594000000E+02  0.51100000000E-03 0.  1.
         11   -1    0    0    0    0 -0.00000000000E+00 -0.00000000000E+00 -0.45593999997E+02  0.45594000000E+02  0.51100000000E-03 0. -1.
    9900012    2    1    2    0    0 -0.88564488133E+00  0.59896258204E+00 -0.50010392932E+00  0.90007649641E+02  0.89999909816E+02 0.  0.
        -12    1    1    2    0    0  0.88564488133E+00 -0.59896258204E+00  0.50010392932E+00  0.11803503593E+01  0.00000000000E+00 0.  1.
         11    1    3    3    0    0 -0.16550443899E+02  0.41184920435E+01 -0.35967275843E+02  0.39806081216E+02  0.51100000000E-03 0. -1.
        -11    1    3    3    0    0 -0.61182470057E+01 -0.25629298495E+01 -0.19333419192E+01  0.69093680662E+01  0.51100000000E-03 0.  1.
        -12    1    3    3    0    0  0.21783046024E+02 -0.95659961190E+00  0.37400513833E+02  0.43292200358E+02  0.00000000000E+00 0.  1.
</event>
<event>
 7    1  0.1716782E-015  0.9000772E+02  0.7816164E-02  0.1186339E+00
        -11   -1    0    0    0    0  0.00000000000E+00  0.00000000000E+00  0.45593999997E+02  0.45594000000E+02  0.51100000000E-03 0.  1.
         11   -1    0    0    0    0 -0.00000000000E+00 -0.00000000000E+00 -0.45593999997E+02  0.45594000000E+02  0.51100000000E-03 0. -1.
    9900012    2    1    2    0    0  0.34102651215E+00 -0.37031933199E+00 -0.10675326415E+01  0.90007719766E+02  0.89999980867E+02 0.  0.
        -12    1    1    2    0    0 -0.34102651215E+00  0.37031933199E+00  0.10675326415E+01  0.11802802338E+01  0.00000000000E+00 0.  1.
         11    1    3    3    0    0  0.14076081179E+02 -0.21812276540E+02 -0.22240645064E+02  0.34184174150E+02  0.51100000000E-03 0. -1.
        -11    1    3    3    0    0  0.58421376191E+01 -0.93601002509E+01 -0.37218030687E+01  0.11644477962E+02  0.51100000000E-03 0.  1.
        -12    1    3    3    0    0 -0.19577192286E+02  0.30802057459E+02  0.24894915491E+02  0.44179067654E+02  0.00000000000E+00 0.  1.
</event>
<event>
 7    1  0.1716782E-015  0.9000770E+02  0.7816164E-02  0.1186339E+00
        -11   -1    0    0    0    0  0.00000000000E+00  0.00000000000E+00  0.45593999997E+02  0.45594000000E+02  0.51100000000E-03 0.  1.
         11   -1    0    0    0    0 -0.00000000000E+00 -0.00000000000E+00 -0.45593999997E+02  0.45594000000E+02  0.51100000000E-03 0. -1.
    9900012    2    1    2    0    0  0.23989212309E+00  0.11040860835E+01 -0.34138430537E+00  0.90007704463E+02  0.89999965362E+02 0.  0.
        -12    1    1    2    0    0 -0.23989212309E+00 -0.11040860835E+01  0.34138430537E+00  0.11802955369E+01  0.00000000000E+00 0.  1.
         11    1    3    3    0    0 -0.55529401403E+01 -0.27284539571E+01  0.46329801188E+01  0.77294314306E+01  0.51100000000E-03 0. -1.
        -11    1    3    3    0    0  0.29243969686E+02 -0.26570233760E+02 -0.15534825635E+02  0.42456070153E+02  0.51100000000E-03 0.  1.
         12    1    3    3    0    0 -0.23451137423E+02  0.30402773801E+02  0.10560461211E+02  0.39822202880E+02  0.00000000000E+00 0. -1.
</event>
<event>
 7    1  0.1716782E-015  0.9000780E+02  0.7816164E-02  0.1186339E+00
        -11   -1    0    0    0    0  0.00000000000E+00  0.00000000000E+00  0.45593999997E+02  0.45594000000E+02  0.51100000000E-03 0.  1.
         11   -1    0    0    0    0 -0.00000000000E+00 -0.00000000000E+00 -0.45593999997E+02  0.45594000000E+02  0.51100000000E-03 0. -1.
    9900012    2    1    2    0    0 -0.62966301474E+00  0.31400952383E-01 -0.99769990387E+00  0.90007802292E+02  0.90000064482E+02 0.  0.
        -12    1    1    2    0    0  0.62966301474E+00 -0.31400952383E-01  0.99769990387E+00  0.11801977081E+01  0.00000000000E+00 0.  1.
         11    1    3    3    0    0 -0.87823328063E+01 -0.22546810811E+02 -0.30378535045E+02  0.38837397429E+02  0.51100000000E-03 0. -1.
        -11    1    3    3    0    0  0.90734326387E+00 -0.91288187675E+01  0.44848290723E+01  0.10211380708E+02  0.51100000000E-03 0.  1.
        -12    1    3    3    0    0  0.72453265277E+01  0.31707030531E+02  0.24896006069E+02  0.40959024156E+02  0.00000000000E+00 0.  1.
</event>
<event>
 7    1  0.1716782E-015  0.9000777E+02  0.7816164E-02  0.1186339E+00
        -11   -1    0    0    0    0  0.00000000000E+00  0.00000000000E+00  0.45593999997E+02  0.45594000000E+02  0.51100000000E-03 0. -1.
         11   -1    0    0    0    0 -0.00000000000E+00 -0.00000000000E+00 -0.45593999997E+02  0.45594000000E+02  0.51100000000E-03 0.  1.
    9900012    2    1    2    0    0  0.39128588609E+00 -0.74001747698E+00  0.83198753425E+00  0.90007773849E+02  0.90000035664E+02 0.  0.
        -12    1    1    2    0    0 -0.39128588609E+00  0.74001747698E+00 -0.83198753425E+00  0.11802261512E+01  0.00000000000E+00 0.  1.
         11    1    3    3    0    0 -0.29454929875E-01  0.88772290544E+00  0.33412104981E+02  0.33423908794E+02  0.51100000000E-03 0. -1.
        -11    1    3    3    0    0  0.61826312004E+01  0.11585083536E+02  0.67002468432E+01  0.14742197839E+02  0.51100000000E-03 0.  1.
        -12    1    3    3    0    0 -0.57618903844E+01 -0.13212823918E+02 -0.39280364290E+02  0.41841667216E+02  0.00000000000E+00 0.  1.
</event>
<event>
 7    1  0.1716782E-015  0.9000774E+02  0.7816164E-02  0.1186339E+00
        -11   -1    0    0    0    0  0.00000000000E+00  0.00000000000E+00  0.45593999997E+02  0.45594000000E+02  0.51100000000E-03 0. -1.
         11   -1    0    0    0    0 -0.00000000000E+00 -0.00000000000E+00 -0.45593999997E+02  0.45594000000E+02  0.51100000000E-03 0.  1.
    9900012    2    1    2    0    0 -0.11676570488E+01 -0.10555873981E+00  0.13582793304E+00  0.90007739495E+02  0.90000000857E+02 0.  0.
        -12    1    1    2    0    0  0.11676570488E+01  0.10555873981E+00 -0.13582793304E+00  0.11802605045E+01  0.00000000000E+00 0.  1.
         11    1    3    3    0    0  0.28340362580E+01  0.13207646926E+02  0.37687095522E+02  0.40034870650E+02  0.51100000000E-03 0. -1.
        -11    1    3    3    0    0  0.59948113094E+01  0.73356449774E+01 -0.70597261176E+01  0.11814786625E+02  0.51100000000E-03 0.  1.
        -12    1    3    3    0    0 -0.99965046161E+01 -0.20648850643E+02 -0.30491541472E+02  0.38158082220E+02  0.00000000000E+00 0.  1.
</event>
<event>
 7    1  0.1716782E-015  0.9000768E+02  0.7816164E-02  0.1186339E+00
        -11   -1    0    0    0    0  0.00000000000E+00  0.00000000000E+00  0.45593999997E+02  0.45594000000E+02  0.51100000000E-03 0.  1.
         11   -1    0    0    0    0 -0.00000000000E+00 -0.00000000000E+00 -0.45593999997E+02  0.45594000000E+02  0.51100000000E-03 0. -1.
    9900012    2    1    2    0    0 -0.33406138889E+00  0.56153135237E+00 -0.98297806979E+00  0.90007677859E+02  0.89999938407E+02 0.  0.
        -12    1    1    2    0    0  0.33406138889E+00 -0.56153135237E+00  0.98297806979E+00  0.11803221412E+01  0.00000000000E+00 0.  1.
         11    1    3    3    0    0  0.33338589970E+02 -0.22670370835E+02 -0.49298881357E+01  0.40616635659E+02  0.51100000000E-03 0. -1.
        -11    1    3    3    0    0  0.61410287841E+00  0.53610039802E+01 -0.73424362581E+01  0.91120171470E+01  0.51100000000E-03 0.  1.
        -12    1    3    3    0    0 -0.34286754237E+02  0.17870898207E+02  0.11289346324E+02  0.40279025053E+02  0.00000000000E+00 0.  1.
</event>
<event>
 7    1  0.1716782E-015  0.9000774E+02  0.7816164E-02  0.1186339E+00
        -11   -1    0    0    0    0  0.00000000000E+00  0.00000000000E+00  0.45593999997E+02  0.45594000000E+02  0.51100000000E-03 0. -1.
         11   -1    0    0    0    0 -0.00000000000E+00 -0.00000000000E+00 -0.45593999997E+02  0.45594000000E+02  0.51100000000E-03 0.  1.
    9900012    2    1    2    0    0  0.77215099846E+00  0.70999982769E+00  0.54101370845E+00  0.90007740388E+02  0.90000001761E+02 0.  0.
        -12    1    1    2    0    0 -0.77215099846E+00 -0.70999982769E+00 -0.54101370845E+00  0.11802596123E+01  0.00000000000E+00 0.  1.
         11    1    3    3    0    0  0.95808459982E+01  0.78782645224E+00  0.29707569529E+01  0.10061743273E+02  0.51100000000E-03 0. -1.
        -11    1    3    3    0    0  0.33435177145E+02  0.95376643742E+01  0.73364234219E+01  0.35534507472E+02  0.51100000000E-03 0.  1.
         12    1    3    3    0    0 -0.42243872144E+02 -0.96154909988E+01 -0.97661666664E+01  0.44411489642E+02  0.00000000000E+00 0. -1.
</event>
<event>
 7    1  0.1716782E-015  0.9000775E+02  0.7816164E-02  0.1186339E+00
        -11   -1    0    0    0    0  0.00000000000E+00  0.00000000000E+00  0.45593999997E+02  0.45594000000E+02  0.51100000000E-03 0.  1.
         11   -1    0    0    0    0 -0.00000000000E+00 -0.00000000000E+00 -0.45593999997E+02  0.45594000000E+02  0.51100000000E-03 0. -1.
    9900012    2    1    2    0    0  0.42518120007E+00  0.63152235481E+00 -0.90188063367E+00  0.90007750783E+02  0.90000012293E+02 0.  0.
        -12    1    1    2    0    0 -0.42518120007E+00 -0.63152235481E+00  0.90188063367E+00  0.11802492173E+01  0.00000000000E+00 0.  1.
         11    1    3    3    0    0  0.62369484992E+01  0.45050506014E+01 -0.66698530864E+01  0.10182433302E+02  0.51100000000E-03 0. -1.
        -11    1    3    3    0    0  0.84715819430E+01  0.28537141676E+02  0.25574242071E+02  0.39245101776E+02  0.51100000000E-03 0.  1.
         12    1    3    3    0    0 -0.14283349242E+02 -0.32410669922E+02 -0.19806269618E+02  0.40580215704E+02  0.00000000000E+00 0. -1.
</event>
<event>
 7    1  0.1716782E-015  0.9000777E+02  0.7816164E-02  0.1186339E+00
        -11   -1    0    0    0    0  0.00000000000E+00  0.00000000000E+00  0.45593999997E+02  0.45594000000E+02  0.51100000000E-03 0. -1.
         11   -1    0    0    0    0 -0.00000000000E+00 -0.00000000000E+00 -0.45593999997E+02  0.45594000000E+02  0.51100000000E-03 0.  1.
    9900012    2    1    2    0    0 -0.16272156702E+00  0.10188074407E+01  0.57315360901E+00  0.90007766138E+02  0.90000027851E+02 0.  0.
        -12    1    1    2    0    0  0.16272156702E+00 -0.10188074407E+01 -0.57315360901E+00  0.11802338620E+01  0.00000000000E+00 0.  1.
         11    1    3    3    0    0  0.29055642930E+02  0.23474638908E+01  0.13618675935E+02  0.32174668721E+02  0.51100000000E-03 0. -1.
        -11    1    3    3    0    0  0.80386048169E+01  0.84759055963E+00 -0.18431438358E+02  0.20125990593E+02  0.51100000000E-03 0.  1.
         12    1    3    3    0    0 -0.37256969314E+02 -0.21762470097E+01  0.53859160317E+01  0.37707106824E+02  0.00000000000E+00 0. -1.
</event>
<event>
 7    1  0.1716782E-015  0.9000768E+02  0.7816164E-02  0.1186339E+00
        -11   -1    0    0    0    0  0.00000000000E+00  0.00000000000E+00  0.45593999997E+02  0.45594000000E+02  0.51100000000E-03 0. -1.
         11   -1    0    0    0    0 -0.00000000000E+00 -0.00000000000E+00 -0.45593999997E+02  0.45594000000E+02  0.51100000000E-03 0.  1.
    9900012    2    1    2    0    0 -0.82100147104E+00  0.80159184012E+00  0.27670860799E+00  0.90007677778E+02  0.89999938325E+02 0.  0.
        -12    1    1    2    0    0  0.82100147104E+00 -0.80159184012E+00 -0.27670860799E+00  0.11803222218E+01  0.00000000000E+00 0.  1.
         11    1    3    3    0    0 -0.64988951083E+01 -0.31422203022E+02  0.18576711992E+02  0.37076740810E+02  0.51100000000E-03 0. -1.
        -11    1    3    3    0    0  0.72777709792E+01 -0.29111343587E+01  0.62615270447E+01  0.10032316526E+02  0.51100000000E-03 0.  1.
        -12    1    3    3    0    0 -0.15998773419E+01  0.35134929221E+02 -0.24561530429E+02  0.42898620442E+02  0.00000000000E+00 0.  1.
</event>
<event>
 7    1  0.1716782E-015  0.9000773E+02  0.7816164E-02  0.1186339E+00
        -11   -1    0    0    0    0  0.00000000000E+00  0.00000000000E+00  0.45593999997E+02  0.45594000000E+02  0.51100000000E-03 0. -1.
         11   -1    0    0    0    0 -0.00000000000E+00 -0.00000000000E+00 -0.45593999997E+02  0.45594000000E+02  0.51100000000E-03 0.  1.
    9900012    2    1    2    0    0 -0.32308415451E-01 -0.11763559670E+01 -0.90492086574E-01  0.90007726298E+02  0.89999987485E+02 0.  0.
        -12    1    1    2    0    0  0.32308415451E-01  0.11763559670E+01  0.90492086574E-01  0.11802737024E+01  0.00000000000E+00 0.  1.
         11    1    3    3    0    0  0.14776489228E+02 -0.26089137720E+02 -0.17664891897E+02  0.34799944639E+02  0.51100000000E-03 0. -1.
        -11    1    3    3    0    0  0.13907533386E+01 -0.74972531582E+01 -0.78506055116E+01  0.10944176850E+02  0.51100000000E-03 0.  1.
        -12    1    3    3    0    0 -0.16199550982E+02  0.32410034912E+02  0.25425005322E+02  0.44263604808E+02  0.00000000000E+00 0.  1.
</event>
<event>
 7    1  0.1716782E-015  0.9000769E+02  0.7816164E-02  0.1186339E+00
        -11   -1    0    0    0    0  0.00000000000E+00  0.00000000000E+00  0.45593999997E+02  0.45594000000E+02  0.51100000000E-03 0.  1.
         11   -1    0    0    0    0 -0.00000000000E+00 -0.00000000000E+00 -0.45593999997E+02  0.45594000000E+02  0.51100000000E-03 0. -1.
    9900012    2    1    2    0    0 -0.49545798168E+00  0.91851897330E+00  0.55133701914E+00  0.90007691471E+02  0.89999952198E+02 0.  0.
        -12    1    1    2    0    0  0.49545798168E+00 -0.91851897330E+00 -0.55133701914E+00  0.11803085294E+01  0.00000000000E+00 0.  1.
         11    1    3    3    0    0  0.62687388881E+01  0.56243362519E+01 -0.25252598949E+01  0.87924503592E+01  0.51100000000E-03 0. -1.
        -11    1    3    3    0    0 -0.25833811853E+02  0.22022665589E+02  0.24628655792E+02  0.41939889376E+02  0.51100000000E-03 0.  1.
         12    1    3    3    0    0  0.19069614984E+02 -0.26728482868E+02 -0.21552058878E+02  0.39275351735E+02  0.00000000000E+00 0. -1.
</event>
<event>
 7    1  0.1716782E-015  0.9000658E+02  0.7816164E-02  0.1186341E+00
        -11   -1    0    0    0    0  0.00000000000E+00  0.00000000000E+00  0.45593999997E+02  0.45594000000E+02  0.51100000000E-03 0. -1.
         11   -1    0    0    0    0 -0.00000000000E+00 -0.00000000000E+00 -0.45593999997E+02  0.45594000000E+02  0.51100000000E-03 0.  1.
    9900012    2    1    2    0    0  0.27616411731E-01  0.19907047041E+00  0.11641965989E+01  0.90006583291E+02  0.89998829383E+02 0.  0.
        -12    1    1    2    0    0 -0.27616411731E-01 -0.19907047041E+00 -0.11641965989E+01  0.11814167086E+01  0.00000000000E+00 0.  1.
         11    1    3    3    0    0  0.78235638104E+01  0.56152560937E+01 -0.19648538988E+00  0.96321263728E+01  0.51100000000E-03 0. -1.
        -11    1    3    3    0    0  0.29313767852E+00  0.21723338593E+02 -0.30692246754E+02  0.37603236302E+02  0.51100000000E-03 0.  1.
         12    1    3    3    0    0 -0.80890850771E+01 -0.27139524216E+02  0.32052928743E+02  0.42771220617E+02  0.00000000000E+00 0. -1.
</event>
<event>
 7    1  0.1716782E-015  0.9000772E+02  0.7816164E-02  0.1186339E+00
        -11   -1    0    0    0    0  0.00000000000E+00  0.00000000000E+00  0.45593999997E+02  0.45594000000E+02  0.51100000000E-03 0. -1.
         11   -1    0    0    0    0 -0.00000000000E+00 -0.00000000000E+00 -0.45593999997E+02  0.45594000000E+02  0.51100000000E-03 0.  1.
    9900012    2    1    2    0    0 -0.18397224777E+00 -0.51420449262E+00  0.10463308762E+01  0.90007720224E+02  0.89999981331E+02 0.  0.
        -12    1    1    2    0    0  0.18397224777E+00  0.51420449262E+00 -0.10463308762E+01  0.11802797764E+01  0.00000000000E+00 0.  1.
         11    1    3    3    0    0  0.24640527088E+01 -0.66773667040E+01  0.80018960987E+01  0.10709300784E+02  0.51100000000E-03 0. -1.
        -11    1    3    3    0    0 -0.12658659404E+02  0.35481425013E+02  0.15808058559E+02  0.40854227376E+02  0.51100000000E-03 0.  1.
         12    1    3    3    0    0  0.10010634447E+02 -0.29318262801E+02 -0.22763623781E+02  0.38444192063E+02  0.00000000000E+00 0. -1.
</event>
<event>
 7    1  0.1716782E-015  0.9000790E+02  0.7816164E-02  0.1186339E+00
        -11   -1    0    0    0    0  0.00000000000E+00  0.00000000000E+00  0.45593999997E+02  0.45594000000E+02  0.51100000000E-03 0. -1.
         11   -1    0    0    0    0 -0.00000000000E+00 -0.00000000000E+00 -0.45593999997E+02  0.45594000000E+02  0.51100000000E-03 0.  1.
    9900012    2    1    2    0    0 -0.81925078984E+00  0.73947375534E+00  0.41791496242E+00  0.90007895679E+02  0.90000159102E+02 0.  0.
        -12    1    1    2    0    0  0.81925078984E+00 -0.73947375534E+00 -0.41791496242E+00  0.11801043205E+01  0.00000000000E+00 0.  1.
         11    1    3    3    0    0 -0.27746327880E+02  0.25356436570E+02  0.12718736796E+02  0.39680900347E+02  0.51100000000E-03 0. -1.
        -11    1    3    3    0    0  0.27835088769E+01  0.77754992405E+01 -0.67006639907E+00  0.82858493437E+01  0.51100000000E-03 0.  1.
        -12    1    3    3    0    0  0.24143568214E+02 -0.32392462055E+02 -0.11630755435E+02  0.42041145989E+02  0.00000000000E+00 0.  1.
</event>
<event>
 7    1  0.1716782E-015  0.9000776E+02  0.7816164E-02  0.1186339E+00
        -11   -1    0    0    0    0  0.00000000000E+00  0.00000000000E+00  0.45593999997E+02  0.45594000000E+02  0.51100000000E-03 0.  1.
         11   -1    0    0    0    0 -0.00000000000E+00 -0.00000000000E+00 -0.45593999997E+02  0.45594000000E+02  0.51100000000E-03 0. -1.
    9900012    2    1    2    0    0  0.41974290131E+00 -0.10561278072E+01 -0.31840073476E+00  0.90007758891E+02  0.90000020508E+02 0.  0.
        -12    1    1    2    0    0 -0.41974290131E+00  0.10561278072E+01  0.31840073476E+00  0.11802411093E+01  0.00000000000E+00 0.  1.
         11    1    3    3    0    0  0.42747814622E+00  0.18540241532E+01 -0.93691569211E+01  0.95603998243E+01  0.51100000000E-03 0. -1.
        -11    1    3    3    0    0 -0.27798352291E+02 -0.24186141974E+02 -0.13008318148E+02  0.39076005361E+02  0.51100000000E-03 0.  1.
         12    1    3    3    0    0  0.27790617046E+02  0.21275990013E+02  0.22059074335E+02  0.41371353705E+02  0.00000000000E+00 0. -1.
</event>
<event>
 7    1  0.1716782E-015  0.9000772E+02  0.7816164E-02  0.1186339E+00
        -11   -1    0    0    0    0  0.00000000000E+00  0.00000000000E+00  0.45593999997E+02  0.45594000000E+02  0.51100000000E-03 0. -1.
         11   -1    0    0    0    0 -0.00000000000E+00 -0.00000000000E+00 -0.45593999997E+02  0.45594000000E+02  0.51100000000E-03 0.  1.
    9900012    2    1    2    0    0  0.35087114046E+00 -0.85803906261E+00  0.73055296494E+00  0.90007724937E+02  0.89999986106E+02 0.  0.
        -12    1    1    2    0    0 -0.35087114046E+00  0.85803906261E+00 -0.73055296494E+00  0.11802750632E+01  0.00000000000E+00 0.  1.
         11    1    3    3    0    0  0.16975620512E+02  0.67231810021E+01  0.37659375107E+02  0.41852137200E+02  0.51100000000E-03 0. -1.
        -11    1    3    3    0    0  0.64352172843E+01 -0.16846916914E+01 -0.49529750187E+01  0.82935016361E+01  0.51100000000E-03 0.  1.
        -12    1    3    3    0    0 -0.23059966656E+02 -0.58965283733E+01 -0.31975847123E+02  0.39862086100E+02  0.00000000000E+00 0.  1.
</event>
<event>
 7    1  0.1716782E-015  0.9000779E+02  0.7816164E-02  0.1186339E+00
        -11   -1    0    0    0    0  0.00000000000E+00  0.00000000000E+00  0.45593999997E+02  0.45594000000E+02  0.51100000000E-03 0. -1.
         11   -1    0    0    0    0 -0.00000000000E+00 -0.00000000000E+00 -0.45593999997E+02  0.45594000000E+02  0.51100000000E-03 0.  1.
    9900012    2    1    2    0    0  0.27893830783E+00  0.80262248149E-01  0.11439618968E+01  0.90007789244E+02  0.90000051262E+02 0.  0.
        -12    1    1    2    0    0 -0.27893830783E+00 -0.80262248149E-01 -0.11439618968E+01  0.11802107564E+01  0.00000000000E+00 0.  1.
         11    1    3    3    0    0  0.25113487560E+02  0.26959861799E+02 -0.52863483839E+01  0.37221860313E+02  0.51100000000E-03 0. -1.
        -11    1    3    3    0    0  0.17676992407E+01  0.81307972599E+01 -0.17182837666E+00  0.83225086326E+01  0.51100000000E-03 0.  1.
        -12    1    3    3    0    0 -0.26602248493E+02 -0.35010396811E+02  0.66021386574E+01  0.44463420298E+02  0.00000000000E+00 0.  1.
</event>
<event>
 7    1  0.1716782E-015  0.9000790E+02  0.7816164E-02  0.1186339E+00
        -11   -1    0    0    0    0  0.00000000000E+00  0.00000000000E+00  0.45593999997E+02  0.45594000000E+02  0.51100000000E-03 0.  1.
         11   -1    0    0    0    0 -0.00000000000E+00 -0.00000000000E+00 -0.45593999997E+02  0.45594000000E+02  0.51100000000E-03 0. -1.
    9900012    2    1    2    0    0  0.85965873892E+00  0.74720586995E+00 -0.30872874087E+00  0.90007896956E+02  0.90000160395E+02 0.  0.
        -12    1    1    2    0    0 -0.85965873892E+00 -0.74720586995E+00  0.30872874087E+00  0.11801030442E+01  0.00000000000E+00 0.  1.
         11    1    3    3    0    0 -0.31850940236E+02 -0.56429648936E+01  0.87939964008E+01  0.33521035481E+02  0.51100000000E-03 0. -1.
        -11    1    3    3    0    0 -0.53715632710E+01  0.13669097333E+01  0.11596226737E+02  0.12852805491E+02  0.51100000000E-03 0.  1.
        -12    1    3    3    0    0  0.38082162246E+02  0.50232610303E+01 -0.20698951879E+02  0.43634055984E+02  0.00000000000E+00 0.  1.
</event>
<event>
 7    1  0.1716782E-015  0.9000752E+02  0.7816164E-02  0.1186339E+00
        -11   -1    0    0    0    0  0.00000000000E+00  0.00000000000E+00  0.45593999997E+02  0.45594000000E+02  0.51100000000E-03 0.  1.
         11   -1    0    0    0    0 -0.00000000000E+00 -0.00000000000E+00 -0.45593999997E+02  0.45594000000E+02  0.51100000000E-03 0. -1.
    9900012    2    1    2    0    0 -0.80104662105E-01 -0.12623263420E+00 -0.11709697969E+01  0.90007524799E+02  0.89999783326E+02 0.  0.
        -12    1    1    2    0    0  0.80104662105E-01  0.12623263420E+00  0.11709697969E+01  0.11804752009E+01  0.00000000000E+00 0.  1.
         11    1    3    3    0    0  0.77569233598E+01 -0.41762406313E+01  0.40011799175E+01  0.96757576868E+01  0.51100000000E-03 0. -1.
        -11    1    3    3    0    0  0.30752346515E+02 -0.15323116697E+02 -0.12447562085E+02  0.36543761760E+02  0.51100000000E-03 0.  1.
         12    1    3    3    0    0 -0.38589374537E+02  0.19373124694E+02  0.72754123703E+01  0.43788005352E+02  0.00000000000E+00 0. -1.
</event>
<event>
 7    1  0.1716782E-015  0.9000771E+02  0.7816164E-02  0.1186339E+00
        -11   -1    0    0    0    0  0.00000000000E+00  0.00000000000E+00  0.45593999997E+02  0.45594000000E+02  0.51100000000E-03 0. -1.
         11   -1    0    0    0    0 -0.00000000000E+00 -0.00000000000E+00 -0.45593999997E+02  0.45594000000E+02  0.51100000000E-03 0.  1.
    9900012    2    1    2    0    0 -0.96435234207E+00 -0.33699502549E+00  0.59122961926E+00  0.90007706160E+02  0.89999967081E+02 0.  0.
        -12    1    1    2    0    0  0.96435234207E+00  0.33699502549E+00 -0.59122961926E+00  0.11802938403E+01  0.00000000000E+00 0.  1.
         11    1    3    3    0    0  0.24015399814E+01  0.57133474974E+01 -0.83008414627E+01  0.10359232750E+02  0.51100000000E-03 0. -1.
        -11    1    3    3    0    0  0.24157993369E+01 -0.30656619152E+02 -0.23398553473E+02  0.38641385704E+02  0.51100000000E-03 0.  1.
         12    1    3    3    0    0 -0.57816916604E+01  0.24606276629E+02  0.32290624555E+02  0.41007087706E+02  0.00000000000E+00 0. -1.
</event>
<event>
 7    1  0.1716782E-015  0.9000776E+02  0.7816164E-02  0.1186339E+00
        -11   -1    0    0    0    0  0.00000000000E+00  0.00000000000E+00  0.45593999997E+02  0.45594000000E+02  0.51100000000E-03 0.  1.
         11   -1    0    0    0    0 -0.00000000000E+00 -0.00000000000E+00 -0.45593999997E+02  0.45594000000E+02  0.51100000000E-03 0. -1.
    9900012    2    1    2    0    0  0.20630340011E-01 -0.40843008239E+00 -0.11071261323E+01  0.90007758916E+02  0.90000020534E+02 0.  0.
        -12    1    1    2    0    0 -0.20630340011E-01  0.40843008239E+00  0.11071261323E+01  0.11802410838E+01  0.00000000000E+00 0.  1.
         11    1    3    3    0    0 -0.25982423467E+02 -0.17560224015E+02 -0.18062768279E+02  0.36189934993E+02  0.51100000000E-03 0. -1.
        -11    1    3    3    0    0 -0.48955050822E+01 -0.80750267409E+01 -0.20024940226E+01  0.96530828987E+01  0.51100000000E-03 0.  1.
        -12    1    3    3    0    0  0.30898558889E+02  0.25226820674E+02  0.18958136169E+02  0.44164741024E+02  0.00000000000E+00 0.  1.
</event>
<event>
 7    1  0.1716782E-015  0.9000780E+02  0.7816164E-02  0.1186339E+00
        -11   -1    0    0    0    0  0.00000000000E+00  0.00000000000E+00  0.45593999997E+02  0.45594000000E+02  0.51100000000E-03 0.  1.
         11   -1    0    0    0    0 -0.00000000000E+00 -0.00000000000E+00 -0.45593999997E+02  0.45594000000E+02  0.51100000000E-03 0. -1.
    9900012    2    1    2    0    0 -0.10247843528E+01 -0.50000717638E+00 -0.30444020218E+00  0.90007799177E+02  0.90000061326E+02 0.  0.
        -12    1    1    2    0    0  0.10247843528E+01  0.50000717638E+00  0.30444020218E+00  0.11802008231E+01  0.00000000000E+00 0.  1.
         11    1    3    3    0    0  0.33214043210E+00  0.32862962421E+01  0.11406233987E+02  0.11874857232E+02  0.51100000000E-03 0. -1.
        -11    1    3    3    0    0  0.19000562298E+01  0.20880288693E+02  0.25722686839E+02  0.33185136553E+02  0.51100000000E-03 0.  1.
         12    1    3    3    0    0 -0.32569810147E+01 -0.24666592111E+02 -0.37433361028E+02  0.44947805392E+02  0.00000000000E+00 0. -1.
</event>
<event>
 7    1  0.1716782E-015  0.9000778E+02  0.7816164E-02  0.1186339E+00
        -11   -1    0    0    0    0  0.00000000000E+00  0.00000000000E+00  0.45593999997E+02  0.45594000000E+02  0.51100000000E-03 0.  1.
         11   -1    0    0    0    0 -0.00000000000E+00 -0.00000000000E+00 -0.45593999997E+02  0.45594000000E+02  0.51100000000E-03 0. -1.
    9900012    2    1    2    0    0  0.49865472744E+00  0.70142850579E+00 -0.80762306968E+00  0.90007782432E+02  0.90000044360E+02 0.  0.
        -12    1    1    2    0    0 -0.49865472744E+00 -0.70142850579E+00  0.80762306968E+00  0.11802175683E+01  0.00000000000E+00 0.  1.
         11    1    3    3    0    0 -0.56210658710E+01 -0.11607733198E-02  0.72527868089E+01  0.91760176346E+01  0.51100000000E-03 0. -1.
        -11    1    3    3    0    0  0.27798759699E+02  0.25918056363E+02  0.14465883664E+02  0.40666675262E+02  0.51100000000E-03 0.  1.
         12    1    3    3    0    0 -0.21679039101E+02 -0.25215467084E+02 -0.22526293542E+02  0.40165089535E+02  0.00000000000E+00 0. -1.
</event>
<event>
 7    1  0.1716782E-015  0.9000807E+02  0.7816164E-02  0.1186338E+00
        -11   -1    0    0    0    0  0.00000000000E+00  0.00000000000E+00  0.45593999997E+02  0.45594000000E+02  0.51100000000E-03 0.  1.
         11   -1    0    0    0    0 -0.00000000000E+00 -0.00000000000E+00 -0.45593999997E+02  0.45594000000E+02  0.51100000000E-03 0. -1.
    9900012    2    1    2    0    0  0.36847833052E+00 -0.78950879311E+00 -0.79569735329E+00  0.90008070048E+02  0.90000335772E+02 0.  0.
        -12    1    1    2    0    0 -0.36847833052E+00  0.78950879311E+00  0.79569735329E+00  0.11799299524E+01  0.00000000000E+00 0.  1.
         11    1    3    3    0    0  0.23722995500E+01  0.93987388911E+01  0.78856300258E+01  0.12495889687E+02  0.51100000000E-03 0. -1.
        -11    1    3    3    0    0 -0.27390223414E+02 -0.32979464234E+02 -0.36243262047E+01  0.43023309270E+02  0.51100000000E-03 0.  1.
         12    1    3    3    0    0  0.25386402195E+02  0.22791216550E+02 -0.50570011744E+01  0.34488871091E+02  0.00000000000E+00 0. -1.
</event>
<event>
 7    1  0.1716782E-015  0.9000777E+02  0.7816164E-02  0.1186339E+00
        -11   -1    0    0    0    0  0.00000000000E+00  0.00000000000E+00  0.45593999997E+02  0.45594000000E+02  0.51100000000E-03 0. -1.
         11   -1    0    0    0    0 -0.00000000000E+00 -0.00000000000E+00 -0.45593999997E+02  0.45594000000E+02  0.51100000000E-03 0.  1.
    9900012    2    1    2    0    0 -0.10079397799E+01 -0.59851411409E+00 -0.13703572562E+00  0.90007770982E+02  0.90000032759E+02 0.  0.
        -12    1    1    2    0    0  0.10079397799E+01  0.59851411409E+00  0.13703572562E+00  0.11802290180E+01  0.00000000000E+00 0.  1.
         11    1    3    3    0    0 -0.40492099640E+01  0.73804227523E+01 -0.30357737203E+01  0.89488917570E+01  0.51100000000E-03 0. -1.
        -11    1    3    3    0    0  0.25476480045E+02 -0.57850221737E+01  0.33856047644E+02  0.42763880546E+02  0.51100000000E-03 0.  1.
         12    1    3    3    0    0 -0.22435209860E+02 -0.21939146927E+01 -0.30957309649E+02  0.38294998679E+02  0.00000000000E+00 0. -1.
</event>
<event>
 7    1  0.1716782E-015  0.9000679E+02  0.7816164E-02  0.1186341E+00
        -11   -1    0    0    0    0  0.00000000000E+00  0.00000000000E+00  0.45593999997E+02  0.45594000000E+02  0.51100000000E-03 0. -1.
         11   -1    0    0    0    0 -0.00000000000E+00 -0.00000000000E+00 -0.45593999997E+02  0.45594000000E+02  0.51100000000E-03 0.  1.
    9900012    2    1    2    0    0 -0.39495008893E+00 -0.51262147522E+00 -0.98817771975E+00  0.90006788099E+02  0.89999036897E+02 0.  0.
        -12    1    1    2    0    0  0.39495008893E+00  0.51262147522E+00  0.98817771975E+00  0.11812119011E+01  0.00000000000E+00 0.  1.
         11    1    3    3    0    0 -0.31659831218E+01 -0.95775728581E+00  0.32234315497E+01  0.46185776342E+01  0.51100000000E-03 0. -1.
        -11    1    3    3    0    0 -0.71674950931E+01  0.40381998737E+02  0.93331231581E+01  0.42061692739E+02  0.51100000000E-03 0.  1.
         12    1    3    3    0    0  0.99385281260E+01 -0.39936862926E+02 -0.13544732428E+02  0.43326517726E+02  0.00000000000E+00 0. -1.
</event>
<event>
 7    1  0.1716782E-015  0.9000769E+02  0.7816164E-02  0.1186339E+00
        -11   -1    0    0    0    0  0.00000000000E+00  0.00000000000E+00  0.45593999997E+02  0.45594000000E+02  0.51100000000E-03 0. -1.
         11   -1    0    0    0    0 -0.00000000000E+00 -0.00000000000E+00 -0.45593999997E+02  0.45594000000E+02  0.51100000000E-03 0.  1.
    9900012    2    1    2    0    0 -0.35995201924E+00  0.95098704018E+00  0.59933322402E+00  0.90007685584E+02  0.89999946234E+02 0.  0.
        -12    1    1    2    0    0  0.35995201924E+00 -0.95098704018E+00 -0.59933322402E+00  0.11803144158E+01  0.00000000000E+00 0.  1.
         11    1    3    3    0    0  0.37578724373E+02  0.32389943008E+00 -0.19768197859E+02  0.42462301907E+02  0.51100000000E-03 0. -1.
        -11    1    3    3    0    0 -0.97045794979E+00 -0.45987956064E+01  0.58072699060E+01  0.74709499854E+01  0.51100000000E-03 0.  1.
        -12    1    3    3    0    0 -0.36968218442E+02  0.52258832165E+01  0.14560261177E+02  0.40074433692E+02  0.00000000000E+00 0.  1.
</event>
<event>
 7    1  0.1716782E-015  0.9000796E+02  0.7816164E-02  0.1186339E+00
        -11   -1    0    0    0    0  0.00000000000E+00  0.00000000000E+00  0.45593999997E+02  0.45594000000E+02  0.51100000000E-03 0.  1.
         11   -1    0    0    0    0 -0.00000000000E+00 -0.00000000000E+00 -0.45593999997E+02  0.45594000000E+02  0.51100000000E-03 0. -1.
    9900012    2    1    2    0    0  0.90383305420E+00 -0.54458679675E+00 -0.52820982176E+00  0.90007959922E+02  0.90000224193E+02 0.  0.
        -12    1    1    2    0    0 -0.90383305420E+00  0.54458679675E+00  0.52820982176E+00  0.11800400777E+01  0.00000000000E+00 0.  1.
         11    1    3    3    0    0  0.34603913808E+02 -0.12755533604E+02 -0.18381703702E+02  0.41207056673E+02  0.51100000000E-03 0. -1.
        -11    1    3    3    0    0 -0.82211902855E+01 -0.47731689273E+01 -0.48590309425E+01  0.10676202194E+02  0.51100000000E-03 0.  1.
        -12    1    3    3    0    0 -0.25478890468E+02  0.16984115734E+02  0.22712524823E+02  0.38124701056E+02  0.00000000000E+00 0.  1.
</event>
<event>
 7    1  0.1716782E-015  0.9000770E+02  0.7816164E-02  0.1186339E+00
        -11   -1    0    0    0    0  0.00000000000E+00  0.00000000000E+00  0.45593999997E+02  0.45594000000E+02  0.51100000000E-03 0. -1.
         11   -1    0    0    0    0 -0.00000000000E+00 -0.00000000000E+00 -0.45593999997E+02  0.45594000000E+02  0.51100000000E-03 0.  1.
    9900012    2    1    2    0    0  0.68322921803E+00 -0.68268439848E+00 -0.67840793035E+00  0.90007704498E+02  0.89999965397E+02 0.  0.
        -12    1    1    2    0    0 -0.68322921803E+00  0.68268439848E+00  0.67840793035E+00  0.11802955021E+01  0.00000000000E+00 0.  1.
         11    1    3    3    0    0 -0.28276450956E+02  0.23360606361E+02 -0.22122714505E+01  0.36744656121E+02  0.51100000000E-03 0. -1.
        -11    1    3    3    0    0  0.28376873232E+01  0.98775770962E+01 -0.12842453312E+01  0.10357040358E+02  0.51100000000E-03 0.  1.
        -12    1    3    3    0    0  0.26121992851E+02 -0.33920867856E+02  0.28181088513E+01  0.42906008019E+02  0.00000000000E+00 0.  1.
</event>
<event>
 7    1  0.1913253E-015  0.9000769E+02  0.7816164E-02  0.1186339E+00
        -11   -1    0    0    0    0  0.00000000000E+00  0.00000000000E+00  0.45593999997E+02  0.45594000000E+02  0.51100000000E-03 0.  1.
         11   -1    0    0    0    0 -0.00000000000E+00 -0.00000000000E+00 -0.45593999997E+02  0.45594000000E+02  0.51100000000E-03 0. -1.
    9900012    2    1    2    0    0 -0.94442749955E+00 -0.70794314638E+00 -0.13568362860E-02  0.90007691294E+02  0.89999952019E+02 0.  0.
        -12    1    1    2    0    0  0.94442749955E+00  0.70794314638E+00  0.13568362860E-02  0.11803087060E+01  0.00000000000E+00 0.  1.
         11    1    3    3    0    0  0.14394810468E+02  0.24493092121E+02 -0.22771883235E+02  0.36409899703E+02  0.51100000000E-03 0. -1.
        -11    1    3    3    0    0  0.30589305956E+01  0.88128520913E+01  0.14551310440E+01  0.94414418914E+01  0.51100000000E-03 0.  1.
        -12    1    3    3    0    0 -0.18398168563E+02 -0.34013887359E+02  0.21315395355E+02  0.44156349700E+02  0.00000000000E+00 0.  1.
</event>
<event>
 7    1  0.1716782E-015  0.9000772E+02  0.7816164E-02  0.1186339E+00
        -11   -1    0    0    0    0  0.00000000000E+00  0.00000000000E+00  0.45593999997E+02  0.45594000000E+02  0.51100000000E-03 0.  1.
         11   -1    0    0    0    0 -0.00000000000E+00 -0.00000000000E+00 -0.45593999997E+02  0.45594000000E+02  0.51100000000E-03 0. -1.
    9900012    2    1    2    0    0 -0.48788037720E+00 -0.10076285009E+01  0.37379469491E+00  0.90007718283E+02  0.89999979364E+02 0.  0.
        -12    1    1    2    0    0  0.48788037720E+00  0.10076285009E+01 -0.37379469491E+00  0.11802817173E+01  0.00000000000E+00 0.  1.
         11    1    3    3    0    0 -0.14849304133E+02 -0.28906750981E+01 -0.34649553747E+02  0.37808060131E+02  0.51100000000E-03 0. -1.
        -11    1    3    3    0    0 -0.64511376758E+01  0.61409148134E+01 -0.23492563438E+01  0.92112440901E+01  0.51100000000E-03 0.  1.
        -12    1    3    3    0    0  0.20812561432E+02 -0.42578682162E+01  0.37372604785E+02  0.42988414062E+02  0.00000000000E+00 0.  1.
</event>
<event>
 7    1  0.1716782E-015  0.9000776E+02  0.7816164E-02  0.1186339E+00
        -11   -1    0    0    0    0  0.00000000000E+00  0.00000000000E+00  0.45593999997E+02  0.45594000000E+02  0.51100000000E-03 0. -1.
         11   -1    0    0    0    0 -0.00000000000E+00 -0.00000000000E+00 -0.45593999997E+02  0.45594000000E+02  0.51100000000E-03 0.  1.
    9900012    2    1    2    0    0  0.71288101097E+00  0.35941720982E+00  0.86925124039E+00  0.90007755201E+02  0.90000016770E+02 0.  0.
        -12    1    1    2    0    0 -0.71288101097E+00 -0.35941720982E+00 -0.86925124039E+00  0.11802447989E+01  0.00000000000E+00 0.  1.
         11    1    3    3    0    0 -0.41690352895E+01  0.76895794409E+01  0.27783175939E+01  0.91776650699E+01  0.51100000000E-03 0. -1.
        -11    1    3    3    0    0  0.12693109406E+02 -0.38543038084E+02  0.16448328839E+02  0.43786166000E+02  0.51100000000E-03 0.  1.
         12    1    3    3    0    0 -0.78111931054E+01  0.31212875853E+02 -0.18357395192E+02  0.37043924131E+02  0.00000000000E+00 0. -1.
</event>
<event>
 7    1  0.1716782E-015  0.9000779E+02  0.7816164E-02  0.1186339E+00
        -11   -1    0    0    0    0  0.00000000000E+00  0.00000000000E+00  0.45593999997E+02  0.45594000000E+02  0.51100000000E-03 0. -1.
         11   -1    0    0    0    0 -0.00000000000E+00 -0.00000000000E+00 -0.45593999997E+02  0.45594000000E+02  0.51100000000E-03 0.  1.
    9900012    2    1    2    0    0 -0.11564919838E+01  0.21871108296E+00 -0.87142314387E-01  0.90007787295E+02  0.90000049287E+02 0.  0.
        -12    1    1    2    0    0  0.11564919838E+01 -0.21871108296E+00  0.87142314387E-01  0.11802127051E+01  0.00000000000E+00 0.  1.
         11    1    3    3    0    0  0.29551514948E+02 -0.81889157370E+01 -0.12914171163E+02  0.33273505883E+02  0.51100000000E-03 0. -1.
        -11    1    3    3    0    0  0.11636909245E+02 -0.15694757318E+01  0.33300825709E+01  0.12205341497E+02  0.51100000000E-03 0.  1.
        -12    1    3    3    0    0 -0.42344916177E+02  0.99771025518E+01  0.94969462780E+01  0.44528939915E+02  0.00000000000E+00 0.  1.
</event>
<event>
 7    1  0.1716782E-015  0.9000760E+02  0.7816164E-02  0.1186339E+00
        -11   -1    0    0    0    0  0.00000000000E+00  0.00000000000E+00  0.45593999997E+02  0.45594000000E+02  0.51100000000E-03 0.  1.
         11   -1    0    0    0    0 -0.00000000000E+00 -0.00000000000E+00 -0.45593999997E+02  0.45594000000E+02  0.51100000000E-03 0. -1.
    9900012    2    1    2    0    0  0.85308515093E+00 -0.68824470681E+00 -0.43807528915E+00  0.90007599640E+02  0.89999859155E+02 0.  0.
        -12    1    1    2    0    0 -0.85308515093E+00  0.68824470681E+00  0.43807528915E+00  0.11804003601E+01  0.00000000000E+00 0.  1.
         11    1    3    3    0    0  0.61796684682E+00  0.10230451175E+02 -0.50188614638E+01  0.11411966742E+02  0.51100000000E-03 0. -1.
        -11    1    3    3    0    0  0.37100415415E+02 -0.65308886998E+01  0.14176566238E+02  0.40250072817E+02  0.51100000000E-03 0.  1.
         12    1    3    3    0    0 -0.36865297111E+02 -0.43878071817E+01 -0.95957800635E+01  0.38345560082E+02  0.00000000000E+00 0. -1.
</event>
<event>
 7    1  0.1716782E-015  0.9000766E+02  0.7816164E-02  0.1186339E+00
        -11   -1    0    0    0    0  0.00000000000E+00  0.00000000000E+00  0.45593999997E+02  0.45594000000E+02  0.51100000000E-03 0. -1.
         11   -1    0    0    0    0 -0.00000000000E+00 -0.00000000000E+00 -0.45593999997E+02  0.45594000000E+02  0.51100000000E-03 0.  1.
    9900012    2    1    2    0    0 -0.22496766336E+00 -0.85169183327E-01  0.11555679055E+01  0.90007660463E+02  0.89999920781E+02 0.  0.
        -12    1    1    2    0    0  0.22496766336E+00  0.85169183327E-01 -0.11555679055E+01  0.11803395374E+01  0.00000000000E+00 0.  1.
         11    1    3    3    0    0  0.33700677184E+02 -0.11921040933E+02 -0.11022760105E+02  0.37407861476E+02  0.51100000000E-03 0. -1.
        -11    1    3    3    0    0  0.71011927186E+01  0.67956632310E+01  0.26671079841E+01  0.10184372442E+02  0.51100000000E-03 0.  1.
        -12    1    3    3    0    0 -0.41026837566E+02  0.50402085186E+01  0.95112200266E+01  0.42415426545E+02  0.00000000000E+00 0.  1.
</event>
<event>
 7    1  0.1716782E-015  0.9000773E+02  0.7816164E-02  0.1186339E+00
        -11   -1    0    0    0    0  0.00000000000E+00  0.00000000000E+00  0.45593999997E+02  0.45594000000E+02  0.51100000000E-03 0.  1.
         11   -1    0    0    0    0 -0.00000000000E+00 -0.00000000000E+00 -0.45593999997E+02  0.45594000000E+02  0.51100000000E-03 0. -1.
    9900012    2    1    2    0    0 -0.63876036935E+00  0.64683466199E+00  0.75274847345E+00  0.90007728780E+02  0.89999989999E+02 0.  0.
        -12    1    1    2    0    0  0.63876036935E+00 -0.64683466199E+00 -0.75274847345E+00  0.11802712204E+01  0.00000000000E+00 0.  1.
         11    1    3    3    0    0  0.98527193000E+01 -0.56531745245E+00 -0.40873920483E+01  0.10681874154E+02  0.51100000000E-03 0. -1.
        -11    1    3    3    0    0  0.39666897910E+00  0.36142024291E+02  0.18083139696E+02  0.40415383305E+02  0.51100000000E-03 0.  1.
         12    1    3    3    0    0 -0.10888148648E+02 -0.34929872177E+02 -0.13242999174E+02  0.38910471321E+02  0.00000000000E+00 0. -1.
</event>
<event>
 7    1  0.1716782E-015  0.9000770E+02  0.7816164E-02  0.1186339E+00
        -11   -1    0    0    0    0  0.00000000000E+00  0.00000000000E+00  0.45593999997E+02  0.45594000000E+02  0.51100000000E-03 0.  1.
         11   -1    0    0    0    0 -0.00000000000E+00 -0.00000000000E+00 -0.45593999997E+02  0.45594000000E+02  0.51100000000E-03 0. -1.
    9900012    2    1    2    0    0 -0.10770785691E+01  0.26835069968E-03 -0.48270319422E+00  0.90007703135E+02  0.89999964016E+02 0.  0.
        -12    1    1    2    0    0  0.10770785691E+01 -0.26835069969E-03  0.48270319422E+00  0.11802968651E+01  0.00000000000E+00 0.  1.
         11    1    3    3    0    0 -0.22180902332E+01 -0.64969637114E+01  0.75219345439E+01  0.10183808781E+02  0.51100000000E-03 0. -1.
        -11    1    3    3    0    0 -0.26781235670E+02 -0.58674769783E+01  0.23381834340E+02  0.36032930042E+02  0.51100000000E-03 0.  1.
         12    1    3    3    0    0  0.27922247334E+02  0.12364709040E+02 -0.31386472078E+02  0.43790964311E+02  0.00000000000E+00 0. -1.
</event>
<event>
 7    1  0.1716782E-015  0.9000782E+02  0.7816164E-02  0.1186339E+00
        -11   -1    0    0    0    0  0.00000000000E+00  0.00000000000E+00  0.45593999997E+02  0.45594000000E+02  0.51100000000E-03 0.  1.
         11   -1    0    0    0    0 -0.00000000000E+00 -0.00000000000E+00 -0.45593999997E+02  0.45594000000E+02  0.51100000000E-03 0. -1.
    9900012    2    1    2    0    0 -0.31082865280E+00  0.45086929467E+00 -0.10454359030E+01  0.90007816201E+02  0.90000078575E+02 0.  0.
        -12    1    1    2    0    0  0.31082865280E+00 -0.45086929467E+00  0.10454359030E+01  0.11801837990E+01  0.00000000000E+00 0.  1.
         11    1    3    3    0    0 -0.63302866562E+01  0.70478637466E+00  0.73444123261E+01  0.97216071542E+01  0.51100000000E-03 0. -1.
        -11    1    3    3    0    0 -0.47581046677E+01  0.36347976967E+02 -0.18145350405E+02  0.40903162851E+02  0.51100000000E-03 0.  1.
         12    1    3    3    0    0  0.10777562671E+02 -0.36601894047E+02  0.97555021761E+01  0.39383046196E+02  0.00000000000E+00 0. -1.
</event>
<event>
 7    1  0.1716782E-015  0.9000775E+02  0.7816164E-02  0.1186339E+00
        -11   -1    0    0    0    0  0.00000000000E+00  0.00000000000E+00  0.45593999997E+02  0.45594000000E+02  0.51100000000E-03 0.  1.
         11   -1    0    0    0    0 -0.00000000000E+00 -0.00000000000E+00 -0.45593999997E+02  0.45594000000E+02  0.51100000000E-03 0. -1.
    9900012    2    1    2    0    0 -0.57403004555E+00 -0.77811175402E+00 -0.67677336200E+00  0.90007749781E+02  0.90000011279E+02 0.  0.
        -12    1    1    2    0    0  0.57403004555E+00  0.77811175402E+00  0.67677336200E+00  0.11802502186E+01  0.00000000000E+00 0.  1.
         11    1    3    3    0    0 -0.20237046645E+00  0.97013369944E+01  0.10357929767E+01  0.97585736989E+01  0.51100000000E-03 0. -1.
        -11    1    3    3    0    0  0.15797114081E+02  0.12120550367E+02 -0.32913604213E+02  0.38467673403E+02  0.51100000000E-03 0.  1.
         12    1    3    3    0    0 -0.16168773660E+02 -0.22599999115E+02  0.31201037875E+02  0.41781502679E+02  0.00000000000E+00 0. -1.
</event>
<event>
 7    1  0.1716782E-015  0.9000804E+02  0.7816164E-02  0.1186338E+00
        -11   -1    0    0    0    0  0.00000000000E+00  0.00000000000E+00  0.45593999997E+02  0.45594000000E+02  0.51100000000E-03 0.  1.
         11   -1    0    0    0    0 -0.00000000000E+00 -0.00000000000E+00 -0.45593999997E+02  0.45594000000E+02  0.51100000000E-03 0. -1.
    9900012    2    1    2    0    0  0.11105441053E+01  0.39863305590E+00 -0.92258472788E-02  0.90008041679E+02  0.90000307029E+02 0.  0.
        -12    1    1    2    0    0 -0.11105441053E+01 -0.39863305590E+00  0.92258472788E-02  0.11799583210E+01  0.00000000000E+00 0.  1.
         11    1    3    3    0    0 -0.11557493412E+02  0.94232317143E+01 -0.26565261526E+02  0.30464505086E+02  0.51100000000E-03 0. -1.
        -11    1    3    3    0    0 -0.34979905807E+01  0.21345397307E+01 -0.13942620262E+02  0.14532338353E+02  0.51100000000E-03 0.  1.
        -12    1    3    3    0    0  0.16166028098E+02 -0.11159138389E+02  0.40498655941E+02  0.45011198241E+02  0.00000000000E+00 0.  1.
</event>
<event>
 7    1  0.1716782E-015  0.9000774E+02  0.7816164E-02  0.1186339E+00
        -11   -1    0    0    0    0  0.00000000000E+00  0.00000000000E+00  0.45593999997E+02  0.45594000000E+02  0.51100000000E-03 0.  1.
         11   -1    0    0    0    0 -0.00000000000E+00 -0.00000000000E+00 -0.45593999997E+02  0.45594000000E+02  0.51100000000E-03 0. -1.
    9900012    2    1    2    0    0 -0.15930404946E+00  0.11381533396E+01 -0.26879295591E+00  0.90007737123E+02  0.89999998453E+02 0.  0.
        -12    1    1    2    0    0  0.15930404946E+00 -0.11381533396E+01  0.26879295591E+00  0.11802628766E+01  0.00000000000E+00 0.  1.
         11    1    3    3    0    0 -0.30797918715E+01  0.93018466389E+01  0.55375667659E+01  0.11254959565E+02  0.51100000000E-03 0. -1.
        -11    1    3    3    0    0  0.34480162006E+02 -0.23976355987E+02  0.38027001518E+01  0.42168800635E+02  0.51100000000E-03 0.  1.
         12    1    3    3    0    0 -0.31559674183E+02  0.15812662687E+02 -0.96090598736E+01  0.36583976923E+02  0.00000000000E+00 0. -1.
</event>
<event>
 7    1  0.1716782E-015  0.9000781E+02  0.7816164E-02  0.1186339E+00
        -11   -1    0    0    0    0  0.00000000000E+00  0.00000000000E+00  0.45593999997E+02  0.45594000000E+02  0.51100000000E-03 0.  1.
         11   -1    0    0    0    0 -0.00000000000E+00 -0.00000000000E+00 -0.45593999997E+02  0.45594000000E+02  0.51100000000E-03 0. -1.
    9900012    2    1    2    0    0 -0.72687547771E+00  0.19106027709E+00 -0.90994174337E+00  0.90007811047E+02  0.90000073352E+02 0.  0.
        -12    1    1    2    0    0  0.72687547771E+00 -0.19106027709E+00  0.90994174337E+00  0.11801889535E+01  0.00000000000E+00 0.  1.
         11    1    3    3    0    0  0.14450865627E+01 -0.15385769414E+02  0.65632608032E+01  0.16789477903E+02  0.51100000000E-03 0. -1.
        -11    1    3    3    0    0  0.64698064504E+01  0.57631578382E+01  0.31207075056E+02  0.32387558067E+02  0.51100000000E-03 0.  1.
         12    1    3    3    0    0 -0.86417684908E+01  0.98136718530E+01 -0.38680277602E+02  0.40830775076E+02  0.00000000000E+00 0. -1.
</event>
<event>
 7    1  0.1716782E-015  0.9000773E+02  0.7816164E-02  0.1186339E+00
        -11   -1    0    0    0    0  0.00000000000E+00  0.00000000000E+00  0.45593999997E+02  0.45594000000E+02  0.51100000000E-03 0. -1.
         11   -1    0    0    0    0 -0.00000000000E+00 -0.00000000000E+00 -0.45593999997E+02  0.45594000000E+02  0.51100000000E-03 0.  1.
    9900012    2    1    2    0    0 -0.52670687616E+00 -0.42106549554E-01  0.10553829315E+01  0.90007734679E+02  0.89999995977E+02 0.  0.
        -12    1    1    2    0    0  0.52670687616E+00  0.42106549554E-01 -0.10553829315E+01  0.11802653206E+01  0.00000000000E+00 0.  1.
         11    1    3    3    0    0 -0.23045385155E+01 -0.14813209359E+01 -0.89723510027E+01  0.93812734882E+01  0.51100000000E-03 0. -1.
        -11    1    3    3    0    0 -0.24150609896E+02  0.27751251843E+02  0.20651603612E+02  0.42188537178E+02  0.51100000000E-03 0.  1.
         12    1    3    3    0    0  0.25928441535E+02 -0.26312037456E+02 -0.10623869678E+02  0.38437924014E+02  0.00000000000E+00 0. -1.
</event>
<event>
 7    1  0.1716782E-015  0.9000776E+02  0.7816164E-02  0.1186339E+00
        -11   -1    0    0    0    0  0.00000000000E+00  0.00000000000E+00  0.45593999997E+02  0.45594000000E+02  0.51100000000E-03 0.  1.
         11   -1    0    0    0    0 -0.00000000000E+00 -0.00000000000E+00 -0.45593999997E+02  0.45594000000E+02  0.51100000000E-03 0. -1.
    9900012    2    1    2    0    0  0.78619953725E+00  0.46262034128E+00 -0.74889463247E+00  0.90007758303E+02  0.90000019913E+02 0.  0.
        -12    1    1    2    0    0 -0.78619953725E+00 -0.46262034128E+00  0.74889463247E+00  0.11802416969E+01  0.00000000000E+00 0.  1.
         11    1    3    3    0    0  0.53040444362E+01  0.12244202616E+02 -0.37012521537E+02  0.39344378708E+02  0.51100000000E-03 0. -1.
        -11    1    3    3    0    0 -0.48890566128E+01  0.26061129090E+01 -0.46871785382E+01  0.72570201852E+01  0.51100000000E-03 0.  1.
        -12    1    3    3    0    0  0.37121171388E+00 -0.14387695184E+02  0.40950805443E+02  0.43406359410E+02  0.00000000000E+00 0.  1.
</event>
<event>
 7    1  0.1716782E-015  0.9000775E+02  0.7816164E-02  0.1186339E+00
        -11   -1    0    0    0    0  0.00000000000E+00  0.00000000000E+00  0.45593999997E+02  0.45594000000E+02  0.51100000000E-03 0.  1.
         11   -1    0    0    0    0 -0.00000000000E+00 -0.00000000000E+00 -0.45593999997E+02  0.45594000000E+02  0.51100000000E-03 0. -1.
    9900012    2    1    2    0    0  0.94260087226E+00 -0.51469272259E+00 -0.48946368486E+00  0.90007754389E+02  0.90000015947E+02 0.  0.
        -12    1    1    2    0    0 -0.94260087226E+00  0.51469272259E+00  0.48946368486E+00  0.11802456108E+01  0.00000000000E+00 0.  1.
         11    1    3    3    0    0  0.50623862235E+01 -0.76914111728E+01  0.46229895430E+01  0.10303280676E+02  0.51100000000E-03 0. -1.
        -11    1    3    3    0    0  0.28316156109E+02 -0.58761793930E+01  0.21273882452E+02  0.35901424149E+02  0.51100000000E-03 0.  1.
         12    1    3    3    0    0 -0.32435941460E+02  0.13052897843E+02 -0.26386335680E+02  0.43803049565E+02  0.00000000000E+00 0. -1.
</event>
<event>
 7    1  0.1716782E-015  0.9000773E+02  0.7816164E-02  0.1186339E+00
        -11   -1    0    0    0    0  0.00000000000E+00  0.00000000000E+00  0.45593999997E+02  0.45594000000E+02  0.51100000000E-03 0.  1.
         11   -1    0    0    0    0 -0.00000000000E+00 -0.00000000000E+00 -0.45593999997E+02  0.45594000000E+02  0.51100000000E-03 0. -1.
    9900012    2    1    2    0    0  0.83736261781E-01 -0.11586559110E+01 -0.20866014445E+00  0.90007731244E+02  0.89999992496E+02 0.  0.
        -12    1    1    2    0    0 -0.83736261781E-01  0.11586559110E+01  0.20866014445E+00  0.11802687565E+01  0.00000000000E+00 0.  1.
         11    1    3    3    0    0 -0.14728952761E+02  0.21516504586E+02 -0.26385205112E+02  0.37095566691E+02  0.51100000000E-03 0. -1.
        -11    1    3    3    0    0  0.54050967195E+01  0.43450464957E+01 -0.64826209896E+01  0.94930961626E+01  0.51100000000E-03 0.  1.
        -12    1    3    3    0    0  0.94075923034E+01 -0.27020206992E+02  0.32659165957E+02  0.43419068390E+02  0.00000000000E+00 0.  1.
</event>
<event>
 7    1  0.1716782E-015  0.9000797E+02  0.7816164E-02  0.1186339E+00
        -11   -1    0    0    0    0  0.00000000000E+00  0.00000000000E+00  0.45593999997E+02  0.45594000000E+02  0.51100000000E-03 0.  1.
         11   -1    0    0    0    0 -0.00000000000E+00 -0.00000000000E+00 -0.45593999997E+02  0.45594000000E+02  0.51100000000E-03 0. -1.
    9900012    2    1    2    0    0 -0.67274520297E+00 -0.46437536701E+00 -0.85102926684E+00  0.90007965508E+02  0.90000229852E+02 0.  0.
        -12    1    1    2    0    0  0.67274520297E+00  0.46437536701E+00  0.85102926684E+00  0.11800344921E+01  0.00000000000E+00 0.  1.
         11    1    3    3    0    0  0.79271633202E+01 -0.42547269732E+01  0.56425130914E+01  0.10619819875E+02  0.51100000000E-03 0. -1.
        -11    1    3    3    0    0 -0.19932729573E+01 -0.25560392389E+02  0.25017421613E+02  0.35821476527E+02  0.51100000000E-03 0.  1.
         12    1    3    3    0    0 -0.66066355659E+01  0.29350743995E+02 -0.31510963971E+02  0.43566669106E+02  0.00000000000E+00 0. -1.
</event>
<event>
 7    1  0.1716782E-015  0.9000785E+02  0.7816164E-02  0.1186339E+00
        -11   -1    0    0    0    0  0.00000000000E+00  0.00000000000E+00  0.45593999997E+02  0.45594000000E+02  0.51100000000E-03 0.  1.
         11   -1    0    0    0    0 -0.00000000000E+00 -0.00000000000E+00 -0.45593999997E+02  0.45594000000E+02  0.51100000000E-03 0. -1.
    9900012    2    1    2    0    0  0.32075903022E+00  0.10007156115E+01  0.53705629338E+00  0.90007852741E+02  0.90000115597E+02 0.  0.
        -12    1    1    2    0    0 -0.32075903022E+00 -0.10007156115E+01 -0.53705629338E+00  0.11801472590E+01  0.00000000000E+00 0.  1.
         11    1    3    3    0    0  0.50328860828E+00  0.10383860228E+02  0.14921582091E-01  0.10396060580E+02  0.51100000000E-03 0. -1.
        -11    1    3    3    0    0  0.16235455232E+02  0.30215024915E+02  0.99616352588E+01  0.35717949472E+02  0.51100000000E-03 0.  1.
         12    1    3    3    0    0 -0.16417984810E+02 -0.39598169531E+02 -0.94395005475E+01  0.43893842689E+02  0.00000000000E+00 0. -1.
</event>
<event>
 7    1  0.1716782E-015  0.9000774E+02  0.7816164E-02  0.1186339E+00
        -11   -1    0    0    0    0  0.00000000000E+00  0.00000000000E+00  0.45593999997E+02  0.45594000000E+02  0.51100000000E-03 0. -1.
         11   -1    0    0    0    0 -0.00000000000E+00 -0.00000000000E+00 -0.45593999997E+02  0.45594000000E+02  0.51100000000E-03 0.  1.
    9900012    2    1    2    0    0 -0.91729216361E+00 -0.55518711346E-01  0.74060894930E+00  0.90007742038E+02  0.90000003433E+02 0.  0.
        -12    1    1    2    0    0  0.91729216361E+00  0.55518711346E-01 -0.74060894930E+00  0.11802579619E+01  0.00000000000E+00 0.  1.
         11    1    3    3    0    0  0.82614101540E+01  0.44346842202E+01  0.74614825400E+00  0.94060650297E+01  0.51100000000E-03 0. -1.
        -11    1    3    3    0    0 -0.95548851114E+00 -0.40168237181E+02 -0.12232841052E+02  0.42000507580E+02  0.51100000000E-03 0.  1.
         12    1    3    3    0    0 -0.82232138065E+01  0.35678034249E+02  0.12227301748E+02  0.38601169428E+02  0.00000000000E+00 0. -1.
</event>
<event>
 7    1  0.1716782E-015  0.9000770E+02  0.7816164E-02  0.1186339E+00
        -11   -1    0    0    0    0  0.00000000000E+00  0.00000000000E+00  0.45593999997E+02  0.45594000000E+02  0.51100000000E-03 0.  1.
         11   -1    0    0    0    0 -0.00000000000E+00 -0.00000000000E+00 -0.45593999997E+02  0.45594000000E+02  0.51100000000E-03 0. -1.
    9900012    2    1    2    0    0 -0.78279434628E-01  0.25239902610E+00 -0.11503350484E+01  0.90007701876E+02  0.89999962741E+02 0.  0.
        -12    1    1    2    0    0  0.78279434628E-01 -0.25239902610E+00  0.11503350484E+01  0.11802981241E+01  0.00000000000E+00 0.  1.
         11    1    3    3    0    0 -0.16995621623E+02  0.24900488210E+02 -0.26104108542E+02  0.39878690431E+02  0.51100000000E-03 0. -1.
        -11    1    3    3    0    0 -0.90122847226E+01 -0.35332440172E+01  0.30287383602E+01  0.10142896308E+02  0.51100000000E-03 0.  1.
        -12    1    3    3    0    0  0.25929626910E+02 -0.21114845167E+02  0.21925035134E+02  0.39986115137E+02  0.00000000000E+00 0.  1.
</event>
<event>
 7    1  0.1716782E-015  0.9000783E+02  0.7816164E-02  0.1186339E+00
        -11   -1    0    0    0    0  0.00000000000E+00  0.00000000000E+00  0.45593999997E+02  0.45594000000E+02  0.51100000000E-03 0. -1.
         11   -1    0    0    0    0 -0.00000000000E+00 -0.00000000000E+00 -0.45593999997E+02  0.45594000000E+02  0.51100000000E-03 0.  1.
    9900012    2    1    2    0    0 -0.56830276140E+00 -0.47810852942E-01  0.10332170934E+01  0.90007834135E+02  0.90000096746E+02 0.  0.
        -12    1    1    2    0    0  0.56830276140E+00  0.47810852942E-01 -0.10332170934E+01  0.11801658648E+01  0.00000000000E+00 0.  1.
         11    1    3    3    0    0  0.81860754750E+01  0.39032584183E+02 -0.58325299892E+01  0.40305990449E+02  0.51100000000E-03 0. -1.
        -11    1    3    3    0    0 -0.95942260060E+01  0.38730018722E+00  0.28792808667E+01  0.10024441763E+02  0.51100000000E-03 0.  1.
        -12    1    3    3    0    0  0.83984776954E+00 -0.39467695223E+02  0.39864662159E+01  0.39677401924E+02  0.00000000000E+00 0.  1.
</event>
<event>
 7    1  0.1716782E-015  0.9000774E+02  0.7816164E-02  0.1186339E+00
        -11   -1    0    0    0    0  0.00000000000E+00  0.00000000000E+00  0.45593999997E+02  0.45594000000E+02  0.51100000000E-03 0.  1.
         11   -1    0    0    0    0 -0.00000000000E+00 -0.00000000000E+00 -0.45593999997E+02  0.45594000000E+02  0.51100000000E-03 0. -1.
    9900012    2    1    2    0    0 -0.11489344126E+01 -0.17648516839E+00 -0.20451707443E+00  0.90007735397E+02  0.89999996704E+02 0.  0.
        -12    1    1    2    0    0  0.11489344126E+01  0.17648516839E+00  0.20451707443E+00  0.11802646029E+01  0.00000000000E+00 0.  1.
         11    1    3    3    0    0  0.17953784255E+02  0.23396360048E+02 -0.24666026217E+02  0.38446597797E+02  0.51100000000E-03 0. -1.
        -11    1    3    3    0    0 -0.10470346841E+01  0.84717450519E+01  0.57662026119E+01  0.10301254228E+02  0.51100000000E-03 0.  1.
        -12    1    3    3    0    0 -0.18055683984E+02 -0.32044590268E+02  0.18695306531E+02  0.41259883372E+02  0.00000000000E+00 0.  1.
</event>
<event>
 7    1  0.1716782E-015  0.9000774E+02  0.7816164E-02  0.1186339E+00
        -11   -1    0    0    0    0  0.00000000000E+00  0.00000000000E+00  0.45593999997E+02  0.45594000000E+02  0.51100000000E-03 0.  1.
         11   -1    0    0    0    0 -0.00000000000E+00 -0.00000000000E+00 -0.45593999997E+02  0.45594000000E+02  0.51100000000E-03 0. -1.
    9900012    2    1    2    0    0  0.34794477652E+00  0.97193820191E+00 -0.57209546872E+00  0.90007736190E+02  0.89999997508E+02 0.  0.
        -12    1    1    2    0    0 -0.34794477652E+00 -0.97193820191E+00  0.57209546872E+00  0.11802638100E+01  0.00000000000E+00 0.  1.
         11    1    3    3    0    0 -0.12780209056E+01 -0.12796685659E+01 -0.39327901611E+02  0.39369464493E+02  0.51100000000E-03 0. -1.
        -11    1    3    3    0    0  0.14842800609E+01 -0.72972468214E+01 -0.28328011895E+01  0.79672869480E+01  0.51100000000E-03 0.  1.
        -12    1    3    3    0    0  0.14168562130E+00  0.95488535892E+01  0.41588607332E+02  0.42670984749E+02  0.00000000000E+00 0.  1.
</event>
<event>
 7    1  0.1716782E-015  0.9000741E+02  0.7816164E-02  0.1186340E+00
        -11   -1    0    0    0    0  0.00000000000E+00  0.00000000000E+00  0.45593999997E+02  0.45594000000E+02  0.51100000000E-03 0.  1.
         11   -1    0    0    0    0 -0.00000000000E+00 -0.00000000000E+00 -0.45593999997E+02  0.45594000000E+02  0.51100000000E-03 0. -1.
    9900012    2    1    2    0    0 -0.52131944697E+00 -0.79737457074E+00 -0.69729715589E+00  0.90007405448E+02  0.89999662400E+02 0.  0.
        -12    1    1    2    0    0  0.52131944697E+00  0.79737457074E+00  0.69729715589E+00  0.11805945517E+01  0.00000000000E+00 0.  1.
         11    1    3    3    0    0  0.59512680187E+01 -0.34100019570E+02 -0.15086039288E+02  0.37759998773E+02  0.51100000000E-03 0. -1.
        -11    1    3    3    0    0 -0.16655128184E+01 -0.31376937993E+01 -0.83169102146E+01  0.90437852200E+01  0.51100000000E-03 0.  1.
        -12    1    3    3    0    0 -0.48070746472E+01  0.36440338798E+02  0.22705652346E+02  0.43203621455E+02  0.00000000000E+00 0.  1.
</event>
<event>
 7    1  0.1716782E-015  0.9000773E+02  0.7816164E-02  0.1186339E+00
        -11   -1    0    0    0    0  0.00000000000E+00  0.00000000000E+00  0.45593999997E+02  0.45594000000E+02  0.51100000000E-03 0. -1.
         11   -1    0    0    0    0 -0.00000000000E+00 -0.00000000000E+00 -0.45593999997E+02  0.45594000000E+02  0.51100000000E-03 0.  1.
    9900012    2    1    2    0    0 -0.66358422525E+00  0.91888699942E+00 -0.32915219585E+00  0.90007729476E+02  0.89999990705E+02 0.  0.
        -12    1    1    2    0    0  0.66358422525E+00 -0.91888699942E+00  0.32915219585E+00  0.11802705240E+01  0.00000000000E+00 0.  1.
         11    1    3    3    0    0  0.21028948068E+02  0.25352304604E+02  0.16381602662E+02  0.36787401534E+02  0.51100000000E-03 0. -1.
        -11    1    3    3    0    0  0.14171575204E+01  0.85607968901E+00  0.97772188032E+01  0.99164114304E+01  0.51100000000E-03 0.  1.
        -12    1    3    3    0    0 -0.23109689813E+02 -0.25289497293E+02 -0.26487973661E+02  0.43303916512E+02  0.00000000000E+00 0.  1.
</event>
<event>
 7    1  0.1716782E-015  0.9000773E+02  0.7816164E-02  0.1186339E+00
        -11   -1    0    0    0    0  0.00000000000E+00  0.00000000000E+00  0.45593999997E+02  0.45594000000E+02  0.51100000000E-03 0.  1.
         11   -1    0    0    0    0 -0.00000000000E+00 -0.00000000000E+00 -0.45593999997E+02  0.45594000000E+02  0.51100000000E-03 0. -1.
    9900012    2    1    2    0    0 -0.32177068124E+00 -0.91556604666E+00 -0.67174858180E+00  0.90007727271E+02  0.89999988471E+02 0.  0.
        -12    1    1    2    0    0  0.32177068124E+00  0.91556604666E+00  0.67174858180E+00  0.11802727288E+01  0.00000000000E+00 0.  1.
         11    1    3    3    0    0 -0.27941709111E+02  0.25929718557E+02 -0.64650416224E+01  0.38663757913E+02  0.51100000000E-03 0. -1.
        -11    1    3    3    0    0  0.13086321590E+02  0.42361217559E+01 -0.60765453960E+01  0.15037318394E+02  0.51100000000E-03 0.  1.
        -12    1    3    3    0    0  0.14533616840E+02 -0.31081406359E+02  0.11869838437E+02  0.36306650964E+02  0.00000000000E+00 0.  1.
</event>
<event>
 7    1  0.1716782E-015  0.9000803E+02  0.7816164E-02  0.1186338E+00
        -11   -1    0    0    0    0  0.00000000000E+00  0.00000000000E+00  0.45593999997E+02  0.45594000000E+02  0.51100000000E-03 0.  1.
         11   -1    0    0    0    0 -0.00000000000E+00 -0.00000000000E+00 -0.45593999997E+02  0.45594000000E+02  0.51100000000E-03 0. -1.
    9900012    2    1    2    0    0  0.22508251212E-01  0.73990212943E+00 -0.91889332733E+00  0.90008031047E+02  0.90000296257E+02 0.  0.
        -12    1    1    2    0    0 -0.22508251212E-01 -0.73990212943E+00  0.91889332733E+00  0.11799689528E+01  0.00000000000E+00 0.  1.
         11    1    3    3    0    0 -0.17313896713E+02  0.30423560103E+02  0.14670673756E+02  0.37955140594E+02  0.51100000000E-03 0. -1.
        -11    1    3    3    0    0  0.37566635280E+01  0.83632489978E+01 -0.41709584283E+01  0.10072405330E+02  0.51100000000E-03 0.  1.
        -12    1    3    3    0    0  0.13579741437E+02 -0.38046906972E+02 -0.11418608655E+02  0.41980485124E+02  0.00000000000E+00 0.  1.
</event>
<event>
 7    1  0.1716782E-015  0.9000849E+02  0.7816164E-02  0.1186338E+00
        -11   -1    0    0    0    0  0.00000000000E+00  0.00000000000E+00  0.45593999997E+02  0.45594000000E+02  0.51100000000E-03 0. -1.
         11   -1    0    0    0    0 -0.00000000000E+00 -0.00000000000E+00 -0.45593999997E+02  0.45594000000E+02  0.51100000000E-03 0.  1.
    9900012    2    1    2    0    0  0.96240975137E-01 -0.10318109404E+01  0.56333965988E+00  0.90008488358E+02  0.90000759601E+02 0.  0.
        -12    1    1    2    0    0 -0.96240975137E-01  0.10318109404E+01 -0.56333965988E+00  0.11795116423E+01  0.00000000000E+00 0.  1.
         11    1    3    3    0    0  0.91535321334E+01 -0.41569958212E+01 -0.27165203633E+01  0.10413800839E+02  0.51100000000E-03 0. -1.
        -11    1    3    3    0    0 -0.90360657766E+01 -0.11048413602E+02 -0.35523569187E+02  0.38283702745E+02  0.51100000000E-03 0.  1.
         12    1    3    3    0    0 -0.21225381717E-01  0.14173598482E+02  0.38803429210E+02  0.41310984773E+02  0.00000000000E+00 0. -1.
</event>
<event>
 7    1  0.1716782E-015  0.9000776E+02  0.7816164E-02  0.1186339E+00
        -11   -1    0    0    0    0  0.00000000000E+00  0.00000000000E+00  0.45593999997E+02  0.45594000000E+02  0.51100000000E-03 0.  1.
         11   -1    0    0    0    0 -0.00000000000E+00 -0.00000000000E+00 -0.45593999997E+02  0.45594000000E+02  0.51100000000E-03 0. -1.
    9900012    2    1    2    0    0  0.71870558729E+00  0.59576199541E+00 -0.72214256645E+00  0.90007762752E+02  0.90000024420E+02 0.  0.
        -12    1    1    2    0    0 -0.71870558729E+00 -0.59576199541E+00  0.72214256645E+00  0.11802372485E+01  0.00000000000E+00 0.  1.
         11    1    3    3    0    0  0.31820329119E+00  0.26398741187E+01  0.98545274229E+01  0.10206953497E+02  0.51100000000E-03 0. -1.
        -11    1    3    3    0    0  0.21550056397E+02  0.31175671874E+02  0.33100658259E+01  0.38043185770E+02  0.51100000000E-03 0.  1.
         12    1    3    3    0    0 -0.21149554101E+02 -0.33219783997E+02 -0.13886735815E+02  0.41757623485E+02  0.00000000000E+00 0. -1.
</event>
<event>
 7    1  0.1716782E-015  0.9000699E+02  0.7816164E-02  0.1186341E+00
        -11   -1    0    0    0    0  0.00000000000E+00  0.00000000000E+00  0.45593999997E+02  0.45594000000E+02  0.51100000000E-03 0. -1.
         11   -1    0    0    0    0 -0.00000000000E+00 -0.00000000000E+00 -0.45593999997E+02  0.45594000000E+02  0.51100000000E-03 0.  1.
    9900012    2    1    2    0    0  0.11163234319E+01  0.15634610439E+00  0.35235288380E+00  0.90006994215E+02  0.89999245736E+02 0.  0.
        -12    1    1    2    0    0 -0.11163234319E+01 -0.15634610439E+00 -0.35235288380E+00  0.11810057848E+01  0.00000000000E+00 0.  1.
         11    1    3    3    0    0  0.53372914896E+01  0.16954255989E+01 -0.70852111715E+01  0.90311331521E+01  0.51100000000E-03 0. -1.
        -11    1    3    3    0    0  0.33502937283E+02 -0.23801429935E+01 -0.15314352466E+02  0.36913971325E+02  0.51100000000E-03 0.  1.
         12    1    3    3    0    0 -0.37723905340E+02  0.84106349900E+00  0.22751916521E+02  0.44061889738E+02  0.00000000000E+00 0. -1.
</event>
<event>
 7    1  0.1716782E-015  0.9000790E+02  0.7816164E-02  0.1186339E+00
        -11   -1    0    0    0    0  0.00000000000E+00  0.00000000000E+00  0.45593999997E+02  0.45594000000E+02  0.51100000000E-03 0.  1.
         11   -1    0    0    0    0 -0.00000000000E+00 -0.00000000000E+00 -0.45593999997E+02  0.45594000000E+02  0.51100000000E-03 0. -1.
    9900012    2    1    2    0    0 -0.10879968380E+01 -0.39547332097E+00  0.22911246443E+00  0.90007903060E+02  0.90000166580E+02 0.  0.
        -12    1    1    2    0    0  0.10879968380E+01  0.39547332097E+00 -0.22911246443E+00  0.11800969403E+01  0.00000000000E+00 0.  1.
         11    1    3    3    0    0 -0.10919216047E+01  0.50448822580E+00 -0.96576417302E+01  0.97322579708E+01  0.51100000000E-03 0. -1.
        -11    1    3    3    0    0  0.16246703121E+02  0.33171321270E+02 -0.90760159606E+01  0.38035062548E+02  0.51100000000E-03 0.  1.
         12    1    3    3    0    0 -0.16242778354E+02 -0.34071282817E+02  0.18962770155E+02  0.42240582541E+02  0.00000000000E+00 0. -1.
</event>
<event>
 7    1  0.1716782E-015  0.9000773E+02  0.7816164E-02  0.1186339E+00
        -11   -1    0    0    0    0  0.00000000000E+00  0.00000000000E+00  0.45593999997E+02  0.45594000000E+02  0.51100000000E-03 0. -1.
         11   -1    0    0    0    0 -0.00000000000E+00 -0.00000000000E+00 -0.45593999997E+02  0.45594000000E+02  0.51100000000E-03 0.  1.
    9900012    2    1    2    0    0  0.43429462934E+00 -0.64236322633E+00  0.88983354639E+00  0.90007726269E+02  0.89999987456E+02 0.  0.
        -12    1    1    2    0    0 -0.43429462934E+00  0.64236322633E+00 -0.88983354639E+00  0.11802737309E+01  0.00000000000E+00 0.  1.
         11    1    3    3    0    0  0.77184178855E+01  0.73523364631E+01  0.29080421175E+02  0.30972596309E+02  0.51100000000E-03 0. -1.
        -11    1    3    3    0    0  0.10079082568E+02 -0.46591811454E+01  0.11253649958E+02  0.15809507013E+02  0.51100000000E-03 0.  1.
        -12    1    3    3    0    0 -0.17363205824E+02 -0.33355185440E+01 -0.39444237586E+02  0.43225622948E+02  0.00000000000E+00 0.  1.
</event>
<event>
 7    1  0.1716782E-015  0.9000789E+02  0.7816164E-02  0.1186339E+00
        -11   -1    0    0    0    0  0.00000000000E+00  0.00000000000E+00  0.45593999997E+02  0.45594000000E+02  0.51100000000E-03 0. -1.
         11   -1    0    0    0    0 -0.00000000000E+00 -0.00000000000E+00 -0.45593999997E+02  0.45594000000E+02  0.51100000000E-03 0.  1.
    9900012    2    1    2    0    0  0.26150368420E+00 -0.97519861372E+00  0.61095581946E+00  0.90007888342E+02  0.90000151668E+02 0.  0.
        -12    1    1    2    0    0 -0.26150368420E+00  0.97519861372E+00 -0.61095581946E+00  0.11801116584E+01  0.00000000000E+00 0.  1.
         11    1    3    3    0    0  0.51863252481E+01 -0.22542156132E+02  0.33313599933E+02  0.40556660531E+02  0.51100000000E-03 0. -1.
        -11    1    3    3    0    0 -0.57780414897E+01  0.51895668784E+01  0.43712663239E+01  0.89120893946E+01  0.51100000000E-03 0.  1.
        -12    1    3    3    0    0  0.85321992584E+00  0.16377390640E+02 -0.37073910437E+02  0.40539138416E+02  0.00000000000E+00 0.  1.
</event>
<event>
 7    1  0.1716782E-015  0.9000771E+02  0.7816164E-02  0.1186339E+00
        -11   -1    0    0    0    0  0.00000000000E+00  0.00000000000E+00  0.45593999997E+02  0.45594000000E+02  0.51100000000E-03 0. -1.
         11   -1    0    0    0    0 -0.00000000000E+00 -0.00000000000E+00 -0.45593999997E+02  0.45594000000E+02  0.51100000000E-03 0.  1.
    9900012    2    1    2    0    0  0.84187325057E+00  0.47268906008E+00  0.67889249777E+00  0.90007711670E+02  0.89999972664E+02 0.  0.
        -12    1    1    2    0    0 -0.84187325057E+00 -0.47268906008E+00 -0.67889249777E+00  0.11802883296E+01  0.00000000000E+00 0.  1.
         11    1    3    3    0    0  0.61315219601E+01  0.85417766539E+01 -0.62387761181E+01  0.12226194734E+02  0.51100000000E-03 0. -1.
        -11    1    3    3    0    0  0.49948094316E+01  0.18954246020E+02 -0.26902635354E+02  0.33286083469E+02  0.51100000000E-03 0.  1.
         12    1    3    3    0    0 -0.10284458141E+02 -0.27023333614E+02  0.33820303970E+02  0.44495433468E+02  0.00000000000E+00 0. -1.
</event>
<event>
 7    1  0.1716782E-015  0.9000765E+02  0.7816164E-02  0.1186339E+00
        -11   -1    0    0    0    0  0.00000000000E+00  0.00000000000E+00  0.45593999997E+02  0.45594000000E+02  0.51100000000E-03 0.  1.
         11   -1    0    0    0    0 -0.00000000000E+00 -0.00000000000E+00 -0.45593999997E+02  0.45594000000E+02  0.51100000000E-03 0. -1.
    9900012    2    1    2    0    0 -0.92114603125E+00  0.47195387717E+00 -0.56742580407E+00  0.90007651528E+02  0.89999911728E+02 0.  0.
        -12    1    1    2    0    0  0.92114603125E+00 -0.47195387717E+00  0.56742580407E+00  0.11803484724E+01  0.00000000000E+00 0.  1.
         11    1    3    3    0    0 -0.56049279596E+01  0.40102859800E+02 -0.97808636966E+01  0.41657170769E+02  0.51100000000E-03 0. -1.
        -11    1    3    3    0    0  0.29404905230E+01 -0.45220084369E+01 -0.76517977393E+01  0.93618937040E+01  0.51100000000E-03 0.  1.
        -12    1    3    3    0    0  0.17432914053E+01 -0.35108897486E+02  0.16865235632E+02  0.38988587055E+02  0.00000000000E+00 0.  1.
</event>
<event>
 7    1  0.1716782E-015  0.9000778E+02  0.7816164E-02  0.1186339E+00
        -11   -1    0    0    0    0  0.00000000000E+00  0.00000000000E+00  0.45593999997E+02  0.45594000000E+02  0.51100000000E-03 0.  1.
         11   -1    0    0    0    0 -0.00000000000E+00 -0.00000000000E+00 -0.45593999997E+02  0.45594000000E+02  0.51100000000E-03 0. -1.
    9900012    2    1    2    0    0 -0.86358411765E+00 -0.68152200396E+00 -0.42740595483E+00  0.90007777301E+02  0.90000039161E+02 0.  0.
        -12    1    1    2    0    0  0.86358411765E+00  0.68152200396E+00  0.42740595483E+00  0.11802226995E+01  0.00000000000E+00 0.  1.
         11    1    3    3    0    0  0.33424504287E+01  0.17506402492E+01 -0.11502754074E+02  0.12105786538E+02  0.51100000000E-03 0. -1.
        -11    1    3    3    0    0  0.31908079314E+02  0.52178253622E+01  0.22348006082E+02  0.39303747953E+02  0.51100000000E-03 0.  1.
         12    1    3    3    0    0 -0.36114113861E+02 -0.76499876154E+01 -0.11272657963E+02  0.38598242810E+02  0.00000000000E+00 0. -1.
</event>
<event>
 7    1  0.1716782E-015  0.9000782E+02  0.7816164E-02  0.1186339E+00
        -11   -1    0    0    0    0  0.00000000000E+00  0.00000000000E+00  0.45593999997E+02  0.45594000000E+02  0.51100000000E-03 0. -1.
         11   -1    0    0    0    0 -0.00000000000E+00 -0.00000000000E+00 -0.45593999997E+02  0.45594000000E+02  0.51100000000E-03 0.  1.
    9900012    2    1    2    0    0  0.64753231849E+00 -0.78333797707E+00  0.59991842046E+00  0.90007822640E+02  0.90000085099E+02 0.  0.
        -12    1    1    2    0    0 -0.64753231849E+00  0.78333797707E+00 -0.59991842046E+00  0.11801773600E+01  0.00000000000E+00 0.  1.
         11    1    3    3    0    0 -0.34146082648E+02 -0.34696685602E+01  0.12586101109E+02  0.36556853003E+02  0.51100000000E-03 0. -1.
        -11    1    3    3    0    0 -0.40727952302E+01  0.70653611166E+01  0.62708607850E+01  0.10287404140E+02  0.51100000000E-03 0.  1.
        -12    1    3    3    0    0  0.38866410197E+02 -0.43790305335E+01 -0.18257043473E+02  0.43163565497E+02  0.00000000000E+00 0.  1.
</event>
<event>
 7    1  0.1716782E-015  0.9000787E+02  0.7816164E-02  0.1186339E+00
        -11   -1    0    0    0    0  0.00000000000E+00  0.00000000000E+00  0.45593999997E+02  0.45594000000E+02  0.51100000000E-03 0. -1.
         11   -1    0    0    0    0 -0.00000000000E+00 -0.00000000000E+00 -0.45593999997E+02  0.45594000000E+02  0.51100000000E-03 0.  1.
    9900012    2    1    2    0    0  0.11377856377E+01 -0.30964449529E+00  0.47672476356E-01  0.90007869272E+02  0.90000132346E+02 0.  0.
        -12    1    1    2    0    0 -0.11377856377E+01  0.30964449529E+00 -0.47672476356E-01  0.11801307283E+01  0.00000000000E+00 0.  1.
         11    1    3    3    0    0 -0.50209324104E+01  0.84616494047E+01 -0.21671076990E+01  0.10075000196E+02  0.51100000000E-03 0. -1.
        -11    1    3    3    0    0  0.36146967020E+01 -0.29473389184E+02 -0.29576010715E+02  0.41910465427E+02  0.51100000000E-03 0.  1.
         12    1    3    3    0    0  0.25440213462E+01  0.20702095284E+02  0.31790790890E+02  0.38022403648E+02  0.00000000000E+00 0. -1.
</event>
<event>
 7    1  0.1716782E-015  0.9000782E+02  0.7816164E-02  0.1186339E+00
        -11   -1    0    0    0    0  0.00000000000E+00  0.00000000000E+00  0.45593999997E+02  0.45594000000E+02  0.51100000000E-03 0. -1.
         11   -1    0    0    0    0 -0.00000000000E+00 -0.00000000000E+00 -0.45593999997E+02  0.45594000000E+02  0.51100000000E-03 0.  1.
    9900012    2    1    2    0    0 -0.10366694318E+01  0.48637002649E+00  0.28564591030E+00  0.90007816582E+02  0.90000078961E+02 0.  0.
        -12    1    1    2    0    0  0.10366694318E+01 -0.48637002649E+00 -0.28564591030E+00  0.11801834178E+01  0.00000000000E+00 0.  1.
         11    1    3    3    0    0  0.57708288690E+01  0.21437172394E+02  0.47498464468E+01  0.22702772245E+02  0.51100000000E-03 0. -1.
        -11    1    3    3    0    0  0.20006545559E+02  0.67686189711E+01 -0.16612104476E+02  0.26870766334E+02  0.51100000000E-03 0.  1.
         12    1    3    3    0    0 -0.26814043860E+02 -0.27719421338E+02  0.12147903940E+02  0.40434278003E+02  0.00000000000E+00 0. -1.
</event>
<event>
 7    1  0.1716782E-015  0.9000773E+02  0.7816164E-02  0.1186339E+00
        -11   -1    0    0    0    0  0.00000000000E+00  0.00000000000E+00  0.45593999997E+02  0.45594000000E+02  0.51100000000E-03 0. -1.
         11   -1    0    0    0    0 -0.00000000000E+00 -0.00000000000E+00 -0.45593999997E+02  0.45594000000E+02  0.51100000000E-03 0.  1.
    9900012    2    1    2    0    0  0.43437263491E+00 -0.84627640522E+00  0.69869496910E+00  0.90007729692E+02  0.89999990924E+02 0.  0.
        -12    1    1    2    0    0 -0.43437263491E+00  0.84627640522E+00 -0.69869496910E+00  0.11802703080E+01  0.00000000000E+00 0.  1.
         11    1    3    3    0    0  0.29035703143E+02 -0.19913492324E+02 -0.24059344900E+02  0.42643537739E+02  0.51100000000E-03 0. -1.
        -11    1    3    3    0    0  0.90453364143E+00  0.70005522975E+01  0.99886887509E+01  0.12231100392E+02  0.51100000000E-03 0.  1.
        -12    1    3    3    0    0 -0.29505864150E+02  0.12066663621E+02  0.14769351119E+02  0.35133091561E+02  0.00000000000E+00 0.  1.
</event>
<event>
 7    1  0.1716782E-015  0.9000777E+02  0.7816164E-02  0.1186339E+00
        -11   -1    0    0    0    0  0.00000000000E+00  0.00000000000E+00  0.45593999997E+02  0.45594000000E+02  0.51100000000E-03 0. -1.
         11   -1    0    0    0    0 -0.00000000000E+00 -0.00000000000E+00 -0.45593999997E+02  0.45594000000E+02  0.51100000000E-03 0.  1.
    9900012    2    1    2    0    0 -0.10841116965E+01  0.17401365094E-01 -0.46618932519E+00  0.90007773977E+02  0.90000035794E+02 0.  0.
        -12    1    1    2    0    0  0.10841116965E+01 -0.17401365094E-01  0.46618932519E+00  0.11802260229E+01  0.00000000000E+00 0.  1.
         11    1    3    3    0    0  0.11014646430E+02 -0.38695312389E+01  0.13872976027E+01  0.11756713099E+02  0.51100000000E-03 0. -1.
        -11    1    3    3    0    0  0.26391253271E+02 -0.19287316264E+02  0.40460778228E+01  0.32937358180E+02  0.51100000000E-03 0.  1.
         12    1    3    3    0    0 -0.38490011397E+02  0.23174248868E+02 -0.58995647507E+01  0.45313702698E+02  0.00000000000E+00 0. -1.
</event>
<event>
 7    1  0.1716782E-015  0.9000782E+02  0.7816164E-02  0.1186339E+00
        -11   -1    0    0    0    0  0.00000000000E+00  0.00000000000E+00  0.45593999997E+02  0.45594000000E+02  0.51100000000E-03 0.  1.
         11   -1    0    0    0    0 -0.00000000000E+00 -0.00000000000E+00 -0.45593999997E+02  0.45594000000E+02  0.51100000000E-03 0. -1.
    9900012    2    1    2    0    0 -0.12525249846E-01 -0.69766578733E+00 -0.95180298950E+00  0.90007820622E+02  0.90000083054E+02 0.  0.
        -12    1    1    2    0    0  0.12525249846E-01  0.69766578733E+00  0.95180298950E+00  0.11801793777E+01  0.00000000000E+00 0.  1.
         11    1    3    3    0    0 -0.52546242404E+01 -0.61679969190E+01 -0.56456645966E+01  0.98756666053E+01  0.51100000000E-03 0. -1.
        -11    1    3    3    0    0 -0.30329969176E+02  0.13724763822E+02 -0.17285194863E+02  0.37510720254E+02  0.51100000000E-03 0.  1.
         12    1    3    3    0    0  0.35572068167E+02 -0.82544326907E+01  0.21979056470E+02  0.42621433763E+02  0.00000000000E+00 0. -1.
</event>
<event>
 7    1  0.1716782E-015  0.9000781E+02  0.7816164E-02  0.1186339E+00
        -11   -1    0    0    0    0  0.00000000000E+00  0.00000000000E+00  0.45593999997E+02  0.45594000000E+02  0.51100000000E-03 0.  1.
         11   -1    0    0    0    0 -0.00000000000E+00 -0.00000000000E+00 -0.45593999997E+02  0.45594000000E+02  0.51100000000E-03 0. -1.
    9900012    2    1    2    0    0 -0.48132639047E+00  0.88869769905E+00  0.60942029840E+00  0.90007808577E+02  0.90000070850E+02 0.  0.
        -12    1    1    2    0    0  0.48132639047E+00 -0.88869769905E+00 -0.60942029840E+00  0.11801914228E+01  0.00000000000E+00 0.  1.
         11    1    3    3    0    0 -0.29396931543E+00 -0.38324142989E+01  0.76647099301E+01  0.85744735052E+01  0.51100000000E-03 0. -1.
        -11    1    3    3    0    0 -0.31903620049E+02 -0.10272704234E+02  0.18263135396E+02  0.38169510598E+02  0.51100000000E-03 0.  1.
         12    1    3    3    0    0  0.31716262974E+02  0.14993816232E+02 -0.25318425028E+02  0.43263824474E+02  0.00000000000E+00 0. -1.
</event>
<event>
 7    1  0.1716782E-015  0.9000776E+02  0.7816164E-02  0.1186339E+00
        -11   -1    0    0    0    0  0.00000000000E+00  0.00000000000E+00  0.45593999997E+02  0.45594000000E+02  0.51100000000E-03 0.  1.
         11   -1    0    0    0    0 -0.00000000000E+00 -0.00000000000E+00 -0.45593999997E+02  0.45594000000E+02  0.51100000000E-03 0. -1.
    9900012    2    1    2    0    0  0.11606322056E+01  0.21419909806E+00  0.46783954233E-02  0.90007758390E+02  0.90000020001E+02 0.  0.
        -12    1    1    2    0    0 -0.11606322056E+01 -0.21419909806E+00 -0.46783954233E-02  0.11802416099E+01  0.00000000000E+00 0.  1.
         11    1    3    3    0    0  0.68188260752E+01 -0.11745320230E+01 -0.99189189986E+00  0.69899759885E+01  0.51100000000E-03 0. -1.
        -11    1    3    3    0    0  0.91617495694E+01  0.44327518696E+01  0.39951763014E+02  0.41227785685E+02  0.51100000000E-03 0.  1.
         12    1    3    3    0    0 -0.14819943439E+02 -0.30440207485E+01 -0.38955192718E+02  0.41789996717E+02  0.00000000000E+00 0. -1.
</event>
<event>
 7    1  0.1716782E-015  0.9000777E+02  0.7816164E-02  0.1186339E+00
        -11   -1    0    0    0    0  0.00000000000E+00  0.00000000000E+00  0.45593999997E+02  0.45594000000E+02  0.51100000000E-03 0.  1.
         11   -1    0    0    0    0 -0.00000000000E+00 -0.00000000000E+00 -0.45593999997E+02  0.45594000000E+02  0.51100000000E-03 0. -1.
    9900012    2    1    2    0    0 -0.87552722473E+00 -0.13895897186E+00 -0.77915359154E+00  0.90007772125E+02  0.90000033917E+02 0.  0.
        -12    1    1    2    0    0  0.87552722473E+00  0.13895897186E+00  0.77915359154E+00  0.11802278747E+01  0.00000000000E+00 0.  1.
         11    1    3    3    0    0  0.17532016827E+02 -0.13036885799E+02 -0.32094875584E+02  0.38825417504E+02  0.51100000000E-03 0. -1.
        -11    1    3    3    0    0  0.63599302995E+01 -0.63879424958E+01  0.56862549299E+01  0.10657767971E+02  0.51100000000E-03 0.  1.
        -12    1    3    3    0    0 -0.24767474351E+02  0.19285869323E+02  0.25629467062E+02  0.40524586650E+02  0.00000000000E+00 0.  1.
</event>
<event>
 7    1  0.1716782E-015  0.9000773E+02  0.7816164E-02  0.1186339E+00
        -11   -1    0    0    0    0  0.00000000000E+00  0.00000000000E+00  0.45593999997E+02  0.45594000000E+02  0.51100000000E-03 0. -1.
         11   -1    0    0    0    0 -0.00000000000E+00 -0.00000000000E+00 -0.45593999997E+02  0.45594000000E+02  0.51100000000E-03 0.  1.
    9900012    2    1    2    0    0 -0.91814585307E+00 -0.31125037615E+00 -0.67317175412E+00  0.90007733583E+02  0.89999994866E+02 0.  0.
        -12    1    1    2    0    0  0.91814585307E+00  0.31125037615E+00  0.67317175412E+00  0.11802664168E+01  0.00000000000E+00 0.  1.
         11    1    3    3    0    0  0.37451365257E+01  0.15985564741E+02  0.33633225972E+02  0.37426704600E+02  0.51100000000E-03 0. -1.
        -11    1    3    3    0    0  0.79631708140E+01 -0.19166572559E+01  0.44762540490E+01  0.93339442372E+01  0.51100000000E-03 0.  1.
        -12    1    3    3    0    0 -0.12626453193E+02 -0.14380157861E+02 -0.38782651775E+02  0.43247084746E+02  0.00000000000E+00 0.  1.
</event>
<event>
 7    1  0.1716782E-015  0.9000775E+02  0.7816164E-02  0.1186339E+00
        -11   -1    0    0    0    0  0.00000000000E+00  0.00000000000E+00  0.45593999997E+02  0.45594000000E+02  0.51100000000E-03 0.  1.
         11   -1    0    0    0    0 -0.00000000000E+00 -0.00000000000E+00 -0.45593999997E+02  0.45594000000E+02  0.51100000000E-03 0. -1.
    9900012    2    1    2    0    0 -0.80343858740E+00 -0.68403680929E+00  0.52873776936E+00  0.90007752759E+02  0.90000014296E+02 0.  0.
        -12    1    1    2    0    0  0.80343858740E+00  0.68403680929E+00 -0.52873776936E+00  0.11802472406E+01  0.00000000000E+00 0.  1.
         11    1    3    3    0    0  0.90082569307E+01 -0.52050398154E+01  0.35496007697E+01  0.10992761177E+02  0.51100000000E-03 0. -1.
        -11    1    3    3    0    0  0.52492401891E+01  0.62706840104E+01  0.36123048714E+02  0.37037152282E+02  0.51100000000E-03 0.  1.
         12    1    3    3    0    0 -0.15060935707E+02 -0.17496810043E+01 -0.39143911714E+02  0.41977839300E+02  0.00000000000E+00 0. -1.
</event>
<event>
 7    1  0.1716782E-015  0.9000773E+02  0.7816164E-02  0.1186339E+00
        -11   -1    0    0    0    0  0.00000000000E+00  0.00000000000E+00  0.45593999997E+02  0.45594000000E+02  0.51100000000E-03 0. -1.
         11   -1    0    0    0    0 -0.00000000000E+00 -0.00000000000E+00 -0.45593999997E+02  0.45594000000E+02  0.51100000000E-03 0.  1.
    9900012    2    1    2    0    0  0.10406139940E+01 -0.50023972016E+00 -0.24477737282E+00  0.90007731715E+02  0.89999992974E+02 0.  0.
        -12    1    1    2    0    0 -0.10406139940E+01  0.50023972016E+00  0.24477737282E+00  0.11802682849E+01  0.00000000000E+00 0.  1.
         11    1    3    3    0    0  0.17816344030E+01  0.97377338877E+01  0.15715218091E+01  0.10023340934E+02  0.51100000000E-03 0. -1.
        -11    1    3    3    0    0  0.21845938781E+02  0.18734708867E+02 -0.23649357523E+02  0.37249516360E+02  0.51100000000E-03 0.  1.
         12    1    3    3    0    0 -0.22586959190E+02 -0.28972682475E+02  0.21833058341E+02  0.42734874421E+02  0.00000000000E+00 0. -1.
</event>
<event>
 7    1  0.1716782E-015  0.9000780E+02  0.7816164E-02  0.1186339E+00
        -11   -1    0    0    0    0  0.00000000000E+00  0.00000000000E+00  0.45593999997E+02  0.45594000000E+02  0.51100000000E-03 0.  1.
         11   -1    0    0    0    0 -0.00000000000E+00 -0.00000000000E+00 -0.45593999997E+02  0.45594000000E+02  0.51100000000E-03 0. -1.
    9900012    2    1    2    0    0 -0.63113238027E+00 -0.98481467750E+00  0.15709896472E+00  0.90007801663E+02  0.90000063845E+02 0.  0.
        -12    1    1    2    0    0  0.63113238027E+00  0.98481467750E+00 -0.15709896472E+00  0.11801983372E+01  0.00000000000E+00 0.  1.
         11    1    3    3    0    0 -0.78724375741E+01  0.13245999642E+02  0.68653906164E+01  0.16869065429E+02  0.51100000000E-03 0. -1.
        -11    1    3    3    0    0  0.90661293425E+01 -0.31335274642E+02  0.22229344300E+02  0.39474521991E+02  0.51100000000E-03 0.  1.
         12    1    3    3    0    0 -0.18248241486E+01  0.17104460322E+02 -0.28937635952E+02  0.33664214243E+02  0.00000000000E+00 0. -1.
</event>
<event>
 7    1  0.1716782E-015  0.9000772E+02  0.7816164E-02  0.1186339E+00
        -11   -1    0    0    0    0  0.00000000000E+00  0.00000000000E+00  0.45593999997E+02  0.45594000000E+02  0.51100000000E-03 0. -1.
         11   -1    0    0    0    0 -0.00000000000E+00 -0.00000000000E+00 -0.45593999997E+02  0.45594000000E+02  0.51100000000E-03 0.  1.
    9900012    2    1    2    0    0 -0.93518104690E+00 -0.28831670887E+00  0.65982877293E+00  0.90007718625E+02  0.89999979711E+02 0.  0.
        -12    1    1    2    0    0  0.93518104690E+00  0.28831670887E+00 -0.65982877293E+00  0.11802813752E+01  0.00000000000E+00 0.  1.
         11    1    3    3    0    0 -0.27076764294E+02 -0.33139294785E+02 -0.70302948811E-01  0.42794496915E+02  0.51100000000E-03 0. -1.
        -11    1    3    3    0    0  0.56545088462E+01 -0.15719466793E+01 -0.36577095915E+01  0.69154411552E+01  0.51100000000E-03 0.  1.
        -12    1    3    3    0    0  0.20487074401E+02  0.34422924755E+02  0.43878413132E+01  0.40297780554E+02  0.00000000000E+00 0.  1.
</event>
<event>
 7    1  0.1716782E-015  0.9000770E+02  0.7816164E-02  0.1186339E+00
        -11   -1    0    0    0    0  0.00000000000E+00  0.00000000000E+00  0.45593999997E+02  0.45594000000E+02  0.51100000000E-03 0.  1.
         11   -1    0    0    0    0 -0.00000000000E+00 -0.00000000000E+00 -0.45593999997E+02  0.45594000000E+02  0.51100000000E-03 0. -1.
    9900012    2    1    2    0    0  0.86844658413E+00 -0.72070469677E+00 -0.34566415325E+00  0.90007704090E+02  0.89999964984E+02 0.  0.
        -12    1    1    2    0    0 -0.86844658413E+00  0.72070469677E+00  0.34566415325E+00  0.11802959105E+01  0.00000000000E+00 0.  1.
         11    1    3    3    0    0 -0.10690479220E+02 -0.20422552457E+02 -0.20015825570E+01  0.23138135789E+02  0.51100000000E-03 0. -1.
        -11    1    3    3    0    0 -0.59263508199E+01 -0.21325175724E+02 -0.13204751060E+01  0.22172695111E+02  0.51100000000E-03 0.  1.
         12    1    3    3    0    0  0.17485276624E+02  0.41027023484E+02  0.29763935097E+01  0.44696873190E+02  0.00000000000E+00 0. -1.
</event>
<event>
 7    1  0.1716782E-015  0.9000773E+02  0.7816164E-02  0.1186339E+00
        -11   -1    0    0    0    0  0.00000000000E+00  0.00000000000E+00  0.45593999997E+02  0.45594000000E+02  0.51100000000E-03 0.  1.
         11   -1    0    0    0    0 -0.00000000000E+00 -0.00000000000E+00 -0.45593999997E+02  0.45594000000E+02  0.51100000000E-03 0. -1.
    9900012    2    1    2    0    0  0.93788553997E-02 -0.96384601538E+00 -0.68113477092E+00  0.90007732369E+02  0.89999993636E+02 0.  0.
        -12    1    1    2    0    0 -0.93788553997E-02  0.96384601538E+00  0.68113477092E+00  0.11802676309E+01  0.00000000000E+00 0.  1.
         11    1    3    3    0    0 -0.14577550827E+01  0.11865493931E+02  0.78665816196E+01  0.14310768768E+02  0.51100000000E-03 0. -1.
        -11    1    3    3    0    0  0.16015991097E+02  0.94365631260E+01  0.26083914518E+02  0.32030162211E+02  0.51100000000E-03 0.  1.
         12    1    3    3    0    0 -0.14548857159E+02 -0.22265903072E+02 -0.34631630908E+02  0.43666801390E+02  0.00000000000E+00 0. -1.
</event>
<event>
 7    1  0.1716782E-015  0.9000779E+02  0.7816164E-02  0.1186339E+00
        -11   -1    0    0    0    0  0.00000000000E+00  0.00000000000E+00  0.45593999997E+02  0.45594000000E+02  0.51100000000E-03 0. -1.
         11   -1    0    0    0    0 -0.00000000000E+00 -0.00000000000E+00 -0.45593999997E+02  0.45594000000E+02  0.51100000000E-03 0.  1.
    9900012    2    1    2    0    0  0.41195845980E-01 -0.11703984082E+01 -0.14620561535E+00  0.90007785776E+02  0.90000047749E+02 0.  0.
        -12    1    1    2    0    0 -0.41195845980E-01  0.11703984082E+01  0.14620561535E+00  0.11802142236E+01  0.00000000000E+00 0.  1.
         11    1    3    3    0    0  0.51013589570E+01  0.73847458010E+01  0.11351862422E+01  0.90469321772E+01  0.51100000000E-03 0. -1.
        -11    1    3    3    0    0 -0.20629276387E+02  0.31504204852E+02  0.29601447013E+01  0.37773594276E+02  0.51100000000E-03 0.  1.
         12    1    3    3    0    0  0.15569113276E+02 -0.40059349062E+02 -0.42415365588E+01  0.43187259323E+02  0.00000000000E+00 0. -1.
</event>
<event>
 7    1  0.1716782E-015  0.9000750E+02  0.7816164E-02  0.1186340E+00
        -11   -1    0    0    0    0  0.00000000000E+00  0.00000000000E+00  0.45593999997E+02  0.45594000000E+02  0.51100000000E-03 0. -1.
         11   -1    0    0    0    0 -0.00000000000E+00 -0.00000000000E+00 -0.45593999997E+02  0.45594000000E+02  0.51100000000E-03 0.  1.
    9900012    2    1    2    0    0  0.35847370749E-01  0.67873446899E-01  0.11780041872E+01  0.90007497690E+02  0.89999755859E+02 0.  0.
        -12    1    1    2    0    0 -0.35847370749E-01 -0.67873446899E-01 -0.11780041872E+01  0.11805023100E+01  0.00000000000E+00 0.  1.
         11    1    3    3    0    0  0.39055683957E+02  0.11907997311E+01 -0.37852503269E+01  0.39256751950E+02  0.51100000000E-03 0. -1.
        -11    1    3    3    0    0  0.10662192035E+01  0.87025854481E+01 -0.17361366244E+01  0.89378961457E+01  0.51100000000E-03 0.  1.
        -12    1    3    3    0    0 -0.40086055790E+02 -0.98255117323E+01  0.66993911385E+01  0.41812849594E+02  0.00000000000E+00 0.  1.
</event>
<event>
 7    1  0.1716782E-015  0.9000773E+02  0.7816164E-02  0.1186339E+00
        -11   -1    0    0    0    0  0.00000000000E+00  0.00000000000E+00  0.45593999997E+02  0.45594000000E+02  0.51100000000E-03 0.  1.
         11   -1    0    0    0    0 -0.00000000000E+00 -0.00000000000E+00 -0.45593999997E+02  0.45594000000E+02  0.51100000000E-03 0. -1.
    9900012    2    1    2    0    0 -0.11475441956E+01  0.27562395876E+00 -0.14166489558E-01  0.90007734379E+02  0.89999995672E+02 0.  0.
        -12    1    1    2    0    0  0.11475441956E+01 -0.27562395876E+00  0.14166489558E-01  0.11802656213E+01  0.00000000000E+00 0.  1.
         11    1    3    3    0    0 -0.57318112795E+01 -0.23401140189E+01 -0.72233332847E+01  0.95134819161E+01  0.51100000000E-03 0. -1.
        -11    1    3    3    0    0  0.87404255611E+01  0.36848355976E+02  0.21059876374E+02  0.43332606318E+02  0.51100000000E-03 0.  1.
         12    1    3    3    0    0 -0.41561584772E+01 -0.34232617999E+02 -0.13850709579E+02  0.37161646145E+02  0.00000000000E+00 0. -1.
</event>
<event>
 7    1  0.1716782E-015  0.9000772E+02  0.7816164E-02  0.1186339E+00
        -11   -1    0    0    0    0  0.00000000000E+00  0.00000000000E+00  0.45593999997E+02  0.45594000000E+02  0.51100000000E-03 0.  1.
         11   -1    0    0    0    0 -0.00000000000E+00 -0.00000000000E+00 -0.45593999997E+02  0.45594000000E+02  0.51100000000E-03 0. -1.
    9900012    2    1    2    0    0 -0.41232750345E+00  0.10694787222E+01  0.28153988996E+00  0.90007718925E+02  0.89999980014E+02 0.  0.
        -12    1    1    2    0    0  0.41232750345E+00 -0.10694787222E+01 -0.28153988996E+00  0.11802810754E+01  0.00000000000E+00 0.  1.
         11    1    3    3    0    0  0.24350612304E+01 -0.19690295920E+02 -0.31120434344E+02  0.36906892454E+02  0.51100000000E-03 0. -1.
        -11    1    3    3    0    0 -0.10738246824E+01 -0.56063819832E+01 -0.53574499153E+01  0.78285942701E+01  0.51100000000E-03 0.  1.
        -12    1    3    3    0    0 -0.17735640514E+01  0.26366156625E+02  0.36759424149E+02  0.45272232200E+02  0.00000000000E+00 0.  1.
</event>
<event>
 7    1  0.1716782E-015  0.9000771E+02  0.7816164E-02  0.1186339E+00
        -11   -1    0    0    0    0  0.00000000000E+00  0.00000000000E+00  0.45593999997E+02  0.45594000000E+02  0.51100000000E-03 0.  1.
         11   -1    0    0    0    0 -0.00000000000E+00 -0.00000000000E+00 -0.45593999997E+02  0.45594000000E+02  0.51100000000E-03 0. -1.
    9900012    2    1    2    0    0  0.64485459899E+00  0.97742873174E+00 -0.14788082165E+00  0.90007714815E+02  0.89999975851E+02 0.  0.
        -12    1    1    2    0    0 -0.64485459899E+00 -0.97742873174E+00  0.14788082165E+00  0.11802851846E+01  0.00000000000E+00 0.  1.
         11    1    3    3    0    0 -0.25986286745E+02  0.21977431260E+01 -0.29000881575E+02  0.39002157709E+02  0.51100000000E-03 0. -1.
        -11    1    3    3    0    0 -0.53491328426E+01 -0.88203413904E+00  0.15369059824E+02  0.16297214686E+02  0.51100000000E-03 0.  1.
         12    1    3    3    0    0  0.31980274186E+02 -0.33828025518E+00  0.13483940929E+02  0.34708342420E+02  0.00000000000E+00 0. -1.
</event>
<event>
 7    1  0.1716782E-015  0.9000777E+02  0.7816164E-02  0.1186339E+00
        -11   -1    0    0    0    0  0.00000000000E+00  0.00000000000E+00  0.45593999997E+02  0.45594000000E+02  0.51100000000E-03 0. -1.
         11   -1    0    0    0    0 -0.00000000000E+00 -0.00000000000E+00 -0.45593999997E+02  0.45594000000E+02  0.51100000000E-03 0.  1.
    9900012    2    1    2    0    0  0.22267967472E+00  0.24252008326E+00  0.11333781493E+01  0.90007767710E+02  0.90000029444E+02 0.  0.
        -12    1    1    2    0    0 -0.22267967472E+00 -0.24252008326E+00 -0.11333781493E+01  0.11802322897E+01  0.00000000000E+00 0.  1.
         11    1    3    3    0    0 -0.66915761503E+01 -0.31750893465E+01 -0.69173242057E+01  0.10134483616E+02  0.51100000000E-03 0. -1.
        -11    1    3    3    0    0 -0.22222775716E+02  0.29346722246E+02 -0.80428492440E+01  0.37679826052E+02  0.51100000000E-03 0.  1.
         12    1    3    3    0    0  0.29137031541E+02 -0.25929112817E+02  0.16093551599E+02  0.42193458042E+02  0.00000000000E+00 0. -1.
</event>
<event>
 7    1  0.1716782E-015  0.9000780E+02  0.7816164E-02  0.1186339E+00
        -11   -1    0    0    0    0  0.00000000000E+00  0.00000000000E+00  0.45593999997E+02  0.45594000000E+02  0.51100000000E-03 0. -1.
         11   -1    0    0    0    0 -0.00000000000E+00 -0.00000000000E+00 -0.45593999997E+02  0.45594000000E+02  0.51100000000E-03 0.  1.
    9900012    2    1    2    0    0 -0.86753374843E+00 -0.44391426217E+00  0.66572504994E+00  0.90007803186E+02  0.90000065388E+02 0.  0.
        -12    1    1    2    0    0  0.86753374843E+00  0.44391426217E+00 -0.66572504994E+00  0.11801968136E+01  0.00000000000E+00 0.  1.
         11    1    3    3    0    0 -0.11404917595E+02 -0.16946864817E+02  0.40379611703E+02  0.45252418875E+02  0.51100000000E-03 0. -1.
        -11    1    3    3    0    0 -0.37615803165E-01  0.48478270428E+01 -0.80740682723E+01  0.94177184452E+01  0.51100000000E-03 0.  1.
        -12    1    3    3    0    0  0.10574999650E+02  0.11655123512E+02 -0.31639818381E+02  0.35337665866E+02  0.00000000000E+00 0.  1.
</event>
<event>
 7    1  0.1716782E-015  0.9000789E+02  0.7816164E-02  0.1186339E+00
        -11   -1    0    0    0    0  0.00000000000E+00  0.00000000000E+00  0.45593999997E+02  0.45594000000E+02  0.51100000000E-03 0. -1.
         11   -1    0    0    0    0 -0.00000000000E+00 -0.00000000000E+00 -0.45593999997E+02  0.45594000000E+02  0.51100000000E-03 0.  1.
    9900012    2    1    2    0    0  0.87817125482E+00 -0.22978948856E+00 -0.75410891696E+00  0.90007886353E+02  0.90000149652E+02 0.  0.
        -12    1    1    2    0    0 -0.87817125482E+00  0.22978948856E+00  0.75410891696E+00  0.11801136473E+01  0.00000000000E+00 0.  1.
         11    1    3    3    0    0  0.22091486487E+01  0.95831880808E+01  0.25300398711E+00  0.98377763149E+01  0.51100000000E-03 0. -1.
        -11    1    3    3    0    0 -0.28512940445E+02 -0.12694389347E+02  0.26828828217E+02  0.41157275390E+02  0.51100000000E-03 0.  1.
         12    1    3    3    0    0  0.27181963052E+02  0.28814117781E+01 -0.27835941121E+02  0.39012834648E+02  0.00000000000E+00 0. -1.
</event>
<event>
 7    1  0.1716782E-015  0.9000776E+02  0.7816164E-02  0.1186339E+00
        -11   -1    0    0    0    0  0.00000000000E+00  0.00000000000E+00  0.45593999997E+02  0.45594000000E+02  0.51100000000E-03 0. -1.
         11   -1    0    0    0    0 -0.00000000000E+00 -0.00000000000E+00 -0.45593999997E+02  0.45594000000E+02  0.51100000000E-03 0.  1.
    9900012    2    1    2    0    0 -0.60971188486E+00 -0.68366201486E+00 -0.74419654978E+00  0.90007758144E+02  0.90000019752E+02 0.  0.
        -12    1    1    2    0    0  0.60971188486E+00  0.68366201486E+00  0.74419654978E+00  0.11802418556E+01  0.00000000000E+00 0.  1.
         11    1    3    3    0    0  0.28260257916E+02 -0.11576651461E+02 -0.21423624213E+02  0.37304593701E+02  0.51100000000E-03 0. -1.
        -11    1    3    3    0    0  0.35882988151E+01 -0.61873393999E+01 -0.42826838964E+01  0.83366923209E+01  0.51100000000E-03 0.  1.
        -12    1    3    3    0    0 -0.32458268616E+02  0.17080328846E+02  0.24962111560E+02  0.44366472122E+02  0.00000000000E+00 0.  1.
</event>
<event>
 7    1  0.1716782E-015  0.9000778E+02  0.7816164E-02  0.1186339E+00
        -11   -1    0    0    0    0  0.00000000000E+00  0.00000000000E+00  0.45593999997E+02  0.45594000000E+02  0.51100000000E-03 0. -1.
         11   -1    0    0    0    0 -0.00000000000E+00 -0.00000000000E+00 -0.45593999997E+02  0.45594000000E+02  0.51100000000E-03 0.  1.
    9900012    2    1    2    0    0 -0.49501435442E+00 -0.10572726995E+01  0.17337498377E+00  0.90007778132E+02  0.90000040004E+02 0.  0.
        -12    1    1    2    0    0  0.49501435442E+00  0.10572726995E+01 -0.17337498377E+00  0.11802218678E+01  0.00000000000E+00 0.  1.
         11    1    3    3    0    0  0.19543770989E+02 -0.24263387138E+02  0.20788965826E+02  0.37454666468E+02  0.51100000000E-03 0. -1.
        -11    1    3    3    0    0  0.35890603743E+01 -0.78398095915E+01 -0.73962880173E+01  0.11359975594E+02  0.51100000000E-03 0.  1.
        -12    1    3    3    0    0 -0.23627845718E+02  0.31045924030E+02 -0.13219302825E+02  0.41193136070E+02  0.00000000000E+00 0.  1.
</event>
<event>
 7    1  0.1716782E-015  0.9000777E+02  0.7816164E-02  0.1186339E+00
        -11   -1    0    0    0    0  0.00000000000E+00  0.00000000000E+00  0.45593999997E+02  0.45594000000E+02  0.51100000000E-03 0.  1.
         11   -1    0    0    0    0 -0.00000000000E+00 -0.00000000000E+00 -0.45593999997E+02  0.45594000000E+02  0.51100000000E-03 0. -1.
    9900012    2    1    2    0    0 -0.19593255296E+00 -0.64547163987E+00 -0.96845839589E+00  0.90007773383E+02  0.90000035192E+02 0.  0.
        -12    1    1    2    0    0  0.19593255296E+00  0.64547163987E+00  0.96845839589E+00  0.11802266171E+01  0.00000000000E+00 0.  1.
         11    1    3    3    0    0 -0.42980331216E+01  0.77388308639E+01 -0.21446083446E+01  0.91083443648E+01  0.51100000000E-03 0. -1.
        -11    1    3    3    0    0  0.79907491198E+01 -0.41533358519E+02 -0.13558727411E+02  0.44415211703E+02  0.51100000000E-03 0.  1.
         12    1    3    3    0    0 -0.38886485511E+01  0.33149056015E+02  0.14734877360E+02  0.36484217315E+02  0.00000000000E+00 0. -1.
</event>
<event>
 7    1  0.1716782E-015  0.9000773E+02  0.7816164E-02  0.1186339E+00
        -11   -1    0    0    0    0  0.00000000000E+00  0.00000000000E+00  0.45593999997E+02  0.45594000000E+02  0.51100000000E-03 0.  1.
         11   -1    0    0    0    0 -0.00000000000E+00 -0.00000000000E+00 -0.45593999997E+02  0.45594000000E+02  0.51100000000E-03 0. -1.
    9900012    2    1    2    0    0  0.91243960205E+00  0.10920057059E+00 -0.74065868553E+00  0.90007726269E+02  0.89999987456E+02 0.  0.
        -12    1    1    2    0    0 -0.91243960205E+00 -0.10920057059E+00  0.74065868553E+00  0.11802737312E+01  0.00000000000E+00 0.  1.
         11    1    3    3    0    0  0.12684919125E+02  0.18462547971E+02 -0.30280914033E+02  0.37665721893E+02  0.51100000000E-03 0. -1.
        -11    1    3    3    0    0 -0.14923272708E+00 -0.17595132147E+01 -0.88014240384E+01  0.89768158344E+01  0.51100000000E-03 0.  1.
        -12    1    3    3    0    0 -0.11623246796E+02 -0.16593834186E+02  0.38341679386E+02  0.43365188541E+02  0.00000000000E+00 0.  1.
</event>
<event>
 7    1  0.1716782E-015  0.9000797E+02  0.7816164E-02  0.1186339E+00
        -11   -1    0    0    0    0  0.00000000000E+00  0.00000000000E+00  0.45593999997E+02  0.45594000000E+02  0.51100000000E-03 0. -1.
         11   -1    0    0    0    0 -0.00000000000E+00 -0.00000000000E+00 -0.45593999997E+02  0.45594000000E+02  0.51100000000E-03 0.  1.
    9900012    2    1    2    0    0  0.68648843380E+00 -0.31834251998E+00  0.90546236785E+00  0.90007970157E+02  0.90000234563E+02 0.  0.
        -12    1    1    2    0    0 -0.68648843380E+00  0.31834251998E+00 -0.90546236785E+00  0.11800298426E+01  0.00000000000E+00 0.  1.
         11    1    3    3    0    0  0.64997633276E+01  0.37502161930E+01 -0.46171623598E+01  0.88107453332E+01  0.51100000000E-03 0. -1.
        -11    1    3    3    0    0  0.25293888426E+02 -0.23131385748E+02  0.22454474381E+02  0.40976154264E+02  0.51100000000E-03 0.  1.
         12    1    3    3    0    0 -0.31107163319E+02  0.19062827035E+02 -0.16931849653E+02  0.40221070560E+02  0.00000000000E+00 0. -1.
</event>
<event>
 7    1  0.1716782E-015  0.9000778E+02  0.7816164E-02  0.1186339E+00
        -11   -1    0    0    0    0  0.00000000000E+00  0.00000000000E+00  0.45593999997E+02  0.45594000000E+02  0.51100000000E-03 0.  1.
         11   -1    0    0    0    0 -0.00000000000E+00 -0.00000000000E+00 -0.45593999997E+02  0.45594000000E+02  0.51100000000E-03 0. -1.
    9900012    2    1    2    0    0 -0.86666651961E+00  0.56116865383E+00  0.57175556099E+00  0.90007777336E+02  0.90000039197E+02 0.  0.
        -12    1    1    2    0    0  0.86666651961E+00 -0.56116865383E+00 -0.57175556099E+00  0.11802226636E+01  0.00000000000E+00 0.  1.
         11    1    3    3    0    0  0.24646239257E+02 -0.21631047797E+02 -0.14538615838E+01  0.32824579998E+02  0.51100000000E-03 0. -1.
        -11    1    3    3    0    0 -0.18128265677E+02  0.92531691543E+00  0.20988096616E+02  0.27748701369E+02  0.51100000000E-03 0.  1.
        -12    1    3    3    0    0 -0.73846401000E+01  0.21266899535E+02 -0.18962479471E+02  0.29434495969E+02  0.00000000000E+00 0.  1.
</event>
<event>
 7    1  0.1716782E-015  0.9000776E+02  0.7816164E-02  0.1186339E+00
        -11   -1    0    0    0    0  0.00000000000E+00  0.00000000000E+00  0.45593999997E+02  0.45594000000E+02  0.51100000000E-03 0. -1.
         11   -1    0    0    0    0 -0.00000000000E+00 -0.00000000000E+00 -0.45593999997E+02  0.45594000000E+02  0.51100000000E-03 0.  1.
    9900012    2    1    2    0    0 -0.58126573187E+00 -0.95848415517E+00 -0.36933421851E+00  0.90007758715E+02  0.90000020330E+02 0.  0.
        -12    1    1    2    0    0  0.58126573187E+00  0.95848415517E+00  0.36933421851E+00  0.11802412854E+01  0.00000000000E+00 0.  1.
         11    1    3    3    0    0  0.50772231618E+01 -0.51286049575E+01  0.69147472901E+01  0.99947243180E+01  0.51100000000E-03 0. -1.
        -11    1    3    3    0    0  0.36565681075E+02 -0.34569611693E+01 -0.20259726338E+01  0.36784564404E+02  0.51100000000E-03 0.  1.
         12    1    3    3    0    0 -0.42224169969E+02  0.76270819716E+01 -0.52581088748E+01  0.43228469993E+02  0.00000000000E+00 0. -1.
</event>
<event>
 7    1  0.1716782E-015  0.9000777E+02  0.7816164E-02  0.1186339E+00
        -11   -1    0    0    0    0  0.00000000000E+00  0.00000000000E+00  0.45593999997E+02  0.45594000000E+02  0.51100000000E-03 0. -1.
         11   -1    0    0    0    0 -0.00000000000E+00 -0.00000000000E+00 -0.45593999997E+02  0.45594000000E+02  0.51100000000E-03 0.  1.
    9900012    2    1    2    0    0  0.11014010338E+01 -0.40805005666E+00  0.11555773144E+00  0.90007770075E+02  0.90000031840E+02 0.  0.
        -12    1    1    2    0    0 -0.11014010338E+01  0.40805005666E+00 -0.11555773144E+00  0.11802299247E+01  0.00000000000E+00 0.  1.
         11    1    3    3    0    0 -0.87985984137E-01 -0.12473082941E+01 -0.10923253051E+02  0.10994588532E+02  0.51100000000E-03 0. -1.
        -11    1    3    3    0    0 -0.15687830569E+02 -0.79292784147E+00 -0.30411667619E+02  0.34228734861E+02  0.51100000000E-03 0.  1.
         12    1    3    3    0    0  0.16877217587E+02  0.16321860789E+01  0.41450478402E+02  0.44784446682E+02  0.00000000000E+00 0. -1.
</event>
<event>
 7    1  0.1716782E-015  0.9000751E+02  0.7816164E-02  0.1186340E+00
        -11   -1    0    0    0    0  0.00000000000E+00  0.00000000000E+00  0.45593999997E+02  0.45594000000E+02  0.51100000000E-03 0.  1.
         11   -1    0    0    0    0 -0.00000000000E+00 -0.00000000000E+00 -0.45593999997E+02  0.45594000000E+02  0.51100000000E-03 0. -1.
    9900012    2    1    2    0    0  0.23561942458E+00 -0.11043106571E+01  0.34429249109E+00  0.90007510330E+02  0.89999768666E+02 0.  0.
        -12    1    1    2    0    0 -0.23561942458E+00  0.11043106571E+01 -0.34429249109E+00  0.11804896696E+01  0.00000000000E+00 0.  1.
         11    1    3    3    0    0 -0.41147824352E+01 -0.25705129085E+01 -0.72288737773E+01  0.87060661295E+01  0.51100000000E-03 0. -1.
        -11    1    3    3    0    0 -0.92052728551E+01 -0.37955646265E+02  0.65507339027E+01  0.39601518237E+02  0.51100000000E-03 0.  1.
         12    1    3    3    0    0  0.13555674715E+02  0.39421848517E+02  0.10224323657E+01  0.41699925964E+02  0.00000000000E+00 0. -1.
</event>
<event>
 7    1  0.1716782E-015  0.9000751E+02  0.7816164E-02  0.1186340E+00
        -11   -1    0    0    0    0  0.00000000000E+00  0.00000000000E+00  0.45593999997E+02  0.45594000000E+02  0.51100000000E-03 0. -1.
         11   -1    0    0    0    0 -0.00000000000E+00 -0.00000000000E+00 -0.45593999997E+02  0.45594000000E+02  0.51100000000E-03 0.  1.
    9900012    2    1    2    0    0  0.10954032030E+00 -0.80441858123E+00  0.85701483530E+00  0.90007507406E+02  0.89999765704E+02 0.  0.
        -12    1    1    2    0    0 -0.10954032030E+00  0.80441858123E+00 -0.85701483530E+00  0.11804925936E+01  0.00000000000E+00 0.  1.
         11    1    3    3    0    0 -0.26862843575E+02 -0.26355246817E+02  0.11555909124E+01  0.37650322579E+02  0.51100000000E-03 0. -1.
        -11    1    3    3    0    0 -0.77568794151E+01 -0.27918326997E+00  0.42290850364E+01  0.88392466910E+01  0.51100000000E-03 0.  1.
        -12    1    3    3    0    0  0.34729263310E+02  0.25830011506E+02 -0.45276611135E+01  0.43517938136E+02  0.00000000000E+00 0.  1.
</event>
<event>
 7    1  0.1716782E-015  0.9000765E+02  0.7816164E-02  0.1186339E+00
        -11   -1    0    0    0    0  0.00000000000E+00  0.00000000000E+00  0.45593999997E+02  0.45594000000E+02  0.51100000000E-03 0. -1.
         11   -1    0    0    0    0 -0.00000000000E+00 -0.00000000000E+00 -0.45593999997E+02  0.45594000000E+02  0.51100000000E-03 0.  1.
    9900012    2    1    2    0    0  0.30096410505E+00  0.54143365792E+00 -0.10047339388E+01  0.90007652557E+02  0.89999912771E+02 0.  0.
        -12    1    1    2    0    0 -0.30096410505E+00 -0.54143365792E+00  0.10047339388E+01  0.11803474430E+01  0.00000000000E+00 0.  1.
         11    1    3    3    0    0  0.33584068537E+02  0.14779152397E+02  0.76086231212E+01  0.37472712086E+02  0.51100000000E-03 0. -1.
        -11    1    3    3    0    0  0.50569605464E+01  0.42048191738E+00  0.69770883000E+01  0.86272484847E+01  0.51100000000E-03 0.  1.
        -12    1    3    3    0    0 -0.38340064978E+02 -0.14658200656E+02 -0.15590445360E+02  0.43907691986E+02  0.00000000000E+00 0.  1.
</event>
<event>
 7    1  0.1716782E-015  0.9000774E+02  0.7816164E-02  0.1186339E+00
        -11   -1    0    0    0    0  0.00000000000E+00  0.00000000000E+00  0.45593999997E+02  0.45594000000E+02  0.51100000000E-03 0.  1.
         11   -1    0    0    0    0 -0.00000000000E+00 -0.00000000000E+00 -0.45593999997E+02  0.45594000000E+02  0.51100000000E-03 0. -1.
    9900012    2    1    2    0    0  0.90410984356E+00 -0.51341753815E+00  0.55856680534E+00  0.90007741955E+02  0.90000003348E+02 0.  0.
        -12    1    1    2    0    0 -0.90410984356E+00  0.51341753815E+00 -0.55856680534E+00  0.11802580454E+01  0.00000000000E+00 0.  1.
         11    1    3    3    0    0  0.81838304803E+01  0.37372950837E+02  0.32482095102E+01  0.38396137838E+02  0.51100000000E-03 0. -1.
        -11    1    3    3    0    0 -0.69976218527E+01 -0.29118992179E+01 -0.13086943371E+02  0.15123291828E+02  0.51100000000E-03 0.  1.
        -12    1    3    3    0    0 -0.28209878405E+00 -0.34974469157E+02  0.10397300666E+02  0.36488312289E+02  0.00000000000E+00 0.  1.
</event>
<event>
 7    1  0.1716782E-015  0.9000777E+02  0.7816164E-02  0.1186339E+00
        -11   -1    0    0    0    0  0.00000000000E+00  0.00000000000E+00  0.45593999997E+02  0.45594000000E+02  0.51100000000E-03 0.  1.
         11   -1    0    0    0    0 -0.00000000000E+00 -0.00000000000E+00 -0.45593999997E+02  0.45594000000E+02  0.51100000000E-03 0. -1.
    9900012    2    1    2    0    0 -0.10890869678E+01  0.36164172540E+00  0.27575548947E+00  0.90007772797E+02  0.90000034598E+02 0.  0.
        -12    1    1    2    0    0  0.10890869678E+01 -0.36164172540E+00 -0.27575548947E+00  0.11802272031E+01  0.00000000000E+00 0.  1.
         11    1    3    3    0    0  0.15375752748E+02  0.35455695867E+02  0.18616278891E+02  0.42896223400E+02  0.51100000000E-03 0. -1.
        -11    1    3    3    0    0  0.29058273837E+01 -0.91175954159E+01  0.58249158092E+00  0.95871620229E+01  0.51100000000E-03 0.  1.
        -12    1    3    3    0    0 -0.19370667099E+02 -0.25976458725E+02 -0.18923014983E+02  0.37524387374E+02  0.00000000000E+00 0.  1.
</event>
<event>
 7    1  0.1716782E-015  0.9000734E+02  0.7816164E-02  0.1186340E+00
        -11   -1    0    0    0    0  0.00000000000E+00  0.00000000000E+00  0.45593999997E+02  0.45594000000E+02  0.51100000000E-03 0.  1.
         11   -1    0    0    0    0 -0.00000000000E+00 -0.00000000000E+00 -0.45593999997E+02  0.45594000000E+02  0.51100000000E-03 0. -1.
    9900012    2    1    2    0    0  0.66980655431E+00 -0.52030842030E+00  0.82133186985E+00  0.90007344372E+02  0.89999600516E+02 0.  0.
        -12    1    1    2    0    0 -0.66980655431E+00  0.52030842030E+00 -0.82133186985E+00  0.11806556284E+01  0.00000000000E+00 0.  1.
         11    1    3    3    0    0  0.35531626060E+02 -0.40635011951E+01 -0.74999556155E+01  0.36541179879E+02  0.51100000000E-03 0. -1.
        -11    1    3    3    0    0  0.65226214511E+01 -0.72636769863E+01 -0.57199138112E+00  0.97792008036E+01  0.51100000000E-03 0.  1.
        -12    1    3    3    0    0 -0.41384440957E+02  0.10806869761E+02  0.88932788665E+01  0.43686963689E+02  0.00000000000E+00 0.  1.
</event>
<event>
 7    1  0.1716782E-015  0.9000780E+02  0.7816164E-02  0.1186339E+00
        -11   -1    0    0    0    0  0.00000000000E+00  0.00000000000E+00  0.45593999997E+02  0.45594000000E+02  0.51100000000E-03 0. -1.
         11   -1    0    0    0    0 -0.00000000000E+00 -0.00000000000E+00 -0.45593999997E+02  0.45594000000E+02  0.51100000000E-03 0.  1.
    9900012    2    1    2    0    0  0.44531488201E+00  0.81355064282E+00 -0.72986034595E+00  0.90007802509E+02  0.90000064702E+02 0.  0.
        -12    1    1    2    0    0 -0.44531488201E+00 -0.81355064282E+00  0.72986034595E+00  0.11801974907E+01  0.00000000000E+00 0.  1.
         11    1    3    3    0    0 -0.66329156862E+01 -0.46538113779E+01  0.24716491058E+01  0.84712797383E+01  0.51100000000E-03 0. -1.
        -11    1    3    3    0    0 -0.21982851568E+02 -0.37968245765E+01 -0.32383209937E+02  0.39323452621E+02  0.51100000000E-03 0.  1.
         12    1    3    3    0    0  0.29061082137E+02  0.92641865972E+01  0.29181700486E+02  0.42213070150E+02  0.00000000000E+00 0. -1.
</event>
<event>
 7    1  0.1716782E-015  0.9000843E+02  0.7816164E-02  0.1186338E+00
        -11   -1    0    0    0    0  0.00000000000E+00  0.00000000000E+00  0.45593999997E+02  0.45594000000E+02  0.51100000000E-03 0.  1.
         11   -1    0    0    0    0 -0.00000000000E+00 -0.00000000000E+00 -0.45593999997E+02  0.45594000000E+02  0.51100000000E-03 0. -1.
    9900012    2    1    2    0    0 -0.48432634507E+00  0.73005531779E+00 -0.78982414390E+00  0.90008434422E+02  0.90000704953E+02 0.  0.
        -12    1    1    2    0    0  0.48432634507E+00 -0.73005531779E+00  0.78982414390E+00  0.11795655784E+01  0.00000000000E+00 0.  1.
         11    1    3    3    0    0  0.12129011387E+01  0.78668031198E+01  0.57546714492E+01  0.98221160779E+01  0.51100000000E-03 0. -1.
        -11    1    3    3    0    0  0.36997950955E+02  0.67387509587E+01 -0.10058793882E+02  0.38928633087E+02  0.51100000000E-03 0.  1.
         12    1    3    3    0    0 -0.38695178439E+02 -0.13875498761E+02  0.35142982893E+01  0.41257685257E+02  0.00000000000E+00 0. -1.
</event>
<event>
 7    1  0.1716782E-015  0.9000782E+02  0.7816164E-02  0.1186339E+00
        -11   -1    0    0    0    0  0.00000000000E+00  0.00000000000E+00  0.45593999997E+02  0.45594000000E+02  0.51100000000E-03 0.  1.
         11   -1    0    0    0    0 -0.00000000000E+00 -0.00000000000E+00 -0.45593999997E+02  0.45594000000E+02  0.51100000000E-03 0. -1.
    9900012    2    1    2    0    0  0.73374152496E+00  0.83793496838E+00 -0.39026059521E+00  0.90007824179E+02  0.90000086658E+02 0.  0.
        -12    1    1    2    0    0 -0.73374152496E+00 -0.83793496838E+00  0.39026059521E+00  0.11801758212E+01  0.00000000000E+00 0.  1.
         11    1    3    3    0    0 -0.15938968474E+01 -0.90419432753E+00 -0.34878292529E+02  0.34926399249E+02  0.51100000000E-03 0. -1.
        -11    1    3    3    0    0  0.71995210852E+01 -0.18891012059E+02  0.95766311012E+01  0.22369964327E+02  0.51100000000E-03 0.  1.
        -12    1    3    3    0    0 -0.48718827128E+01  0.20633141355E+02  0.24911400832E+02  0.32711460603E+02  0.00000000000E+00 0.  1.
</event>
<event>
 7    1  0.1997821E-015  0.9000770E+02  0.7816164E-02  0.1186339E+00
        -11   -1    0    0    0    0  0.00000000000E+00  0.00000000000E+00  0.45593999997E+02  0.45594000000E+02  0.51100000000E-03 0. -1.
         11   -1    0    0    0    0 -0.00000000000E+00 -0.00000000000E+00 -0.45593999997E+02  0.45594000000E+02  0.51100000000E-03 0.  1.
    9900012    2    1    2    0    0  0.37564132278E+00 -0.18881146587E+00  0.11028809330E+01  0.90007702357E+02  0.89999963228E+02 0.  0.
        -12    1    1    2    0    0 -0.37564132278E+00  0.18881146587E+00 -0.11028809330E+01  0.11802976427E+01  0.00000000000E+00 0.  1.
         11    1    3    3    0    0  0.98627518312E+00 -0.27167398001E+02  0.22837076018E+02  0.35504539065E+02  0.51100000000E-03 0. -1.
        -11    1    3    3    0    0 -0.19506179866E+01 -0.53580395479E+01  0.84856310139E+01  0.10223474570E+02  0.51100000000E-03 0.  1.
        -12    1    3    3    0    0  0.13399841263E+01  0.32336626083E+02 -0.30219826099E+02  0.44279688722E+02  0.00000000000E+00 0.  1.
</event>
<event>
 7    1  0.1716782E-015  0.9000811E+02  0.7816164E-02  0.1186338E+00
        -11   -1    0    0    0    0  0.00000000000E+00  0.00000000000E+00  0.45593999997E+02  0.45594000000E+02  0.51100000000E-03 0. -1.
         11   -1    0    0    0    0 -0.00000000000E+00 -0.00000000000E+00 -0.45593999997E+02  0.45594000000E+02  0.51100000000E-03 0.  1.
    9900012    2    1    2    0    0  0.10533240421E+01 -0.37109903689E+00 -0.38070344808E+00  0.90008109688E+02  0.90000375935E+02 0.  0.
        -12    1    1    2    0    0 -0.10533240421E+01  0.37109903689E+00  0.38070344808E+00  0.11798903119E+01  0.00000000000E+00 0.  1.
         11    1    3    3    0    0 -0.25509181031E+02 -0.31236110179E+01  0.82568371110E+01  0.26993529261E+02  0.51100000000E-03 0. -1.
        -11    1    3    3    0    0 -0.16758062415E+02 -0.26490920561E+01  0.42607781091E+01  0.17492986451E+02  0.51100000000E-03 0.  1.
        -12    1    3    3    0    0  0.43320567488E+02  0.54016040371E+01 -0.12898318668E+02  0.45521593976E+02  0.00000000000E+00 0.  1.
</event>
<event>
 7    1  0.1716782E-015  0.9000779E+02  0.7816164E-02  0.1186339E+00
        -11   -1    0    0    0    0  0.00000000000E+00  0.00000000000E+00  0.45593999997E+02  0.45594000000E+02  0.51100000000E-03 0.  1.
         11   -1    0    0    0    0 -0.00000000000E+00 -0.00000000000E+00 -0.45593999997E+02  0.45594000000E+02  0.51100000000E-03 0. -1.
    9900012    2    1    2    0    0 -0.45366226444E+00 -0.68062041774E-01 -0.10874114784E+01  0.90007785776E+02  0.90000047748E+02 0.  0.
        -12    1    1    2    0    0  0.45366226444E+00  0.68062041774E-01  0.10874114784E+01  0.11802142242E+01  0.00000000000E+00 0.  1.
         11    1    3    3    0    0  0.80576283703E+01  0.32862192088E+01 -0.56768900822E+00  0.87204863806E+01  0.51100000000E-03 0. -1.
        -11    1    3    3    0    0 -0.14268217624E+02 -0.24196543421E+02  0.31782033386E+02  0.42416416563E+02  0.51100000000E-03 0.  1.
         12    1    3    3    0    0  0.57569269893E+01  0.20842262171E+02 -0.32301755856E+02  0.38870882832E+02  0.00000000000E+00 0. -1.
</event>
<event>
 7    1  0.1716782E-015  0.9000768E+02  0.7816164E-02  0.1186339E+00
        -11   -1    0    0    0    0  0.00000000000E+00  0.00000000000E+00  0.45593999997E+02  0.45594000000E+02  0.51100000000E-03 0.  1.
         11   -1    0    0    0    0 -0.00000000000E+00 -0.00000000000E+00 -0.45593999997E+02  0.45594000000E+02  0.51100000000E-03 0. -1.
    9900012    2    1    2    0    0  0.45551046371E+00 -0.77013702100E+00 -0.76977672436E+00  0.90007679273E+02  0.89999939839E+02 0.  0.
        -12    1    1    2    0    0 -0.45551046371E+00  0.77013702100E+00  0.76977672436E+00  0.11803207272E+01  0.00000000000E+00 0.  1.
         11    1    3    3    0    0  0.40048802183E+01 -0.54630616820E+01  0.64609086427E+01  0.93609534372E+01  0.51100000000E-03 0. -1.
        -11    1    3    3    0    0  0.29031736953E+02  0.17304268882E+02  0.17290266909E+02  0.37963572041E+02  0.51100000000E-03 0.  1.
         12    1    3    3    0    0 -0.32581106708E+02 -0.12611344221E+02 -0.24520952276E+02  0.42683153795E+02  0.00000000000E+00 0. -1.
</event>
<event>
 7    1  0.1716782E-015  0.9000764E+02  0.7816164E-02  0.1186339E+00
        -11   -1    0    0    0    0  0.00000000000E+00  0.00000000000E+00  0.45593999997E+02  0.45594000000E+02  0.51100000000E-03 0.  1.
         11   -1    0    0    0    0 -0.00000000000E+00 -0.00000000000E+00 -0.45593999997E+02  0.45594000000E+02  0.51100000000E-03 0. -1.
    9900012    2    1    2    0    0 -0.54680344954E-01 -0.71642202418E+00 -0.93648666192E+00  0.90007636613E+02  0.89999896616E+02 0.  0.
        -12    1    1    2    0    0  0.54680344954E-01  0.71642202418E+00  0.93648666192E+00  0.11803633868E+01  0.00000000000E+00 0.  1.
         11    1    3    3    0    0  0.18116730018E+02  0.12020367061E+02  0.84086469409E+01  0.23311166304E+02  0.51100000000E-03 0. -1.
        -11    1    3    3    0    0  0.12591298433E+02  0.15378984585E+02 -0.14640473461E+02  0.24685976313E+02  0.51100000000E-03 0.  1.
        -12    1    3    3    0    0 -0.30762708796E+02 -0.28115773670E+02  0.52953398586E+01  0.42010493996E+02  0.00000000000E+00 0.  1.
</event>
<event>
 7    1  0.1716782E-015  0.9000797E+02  0.7816164E-02  0.1186339E+00
        -11   -1    0    0    0    0  0.00000000000E+00  0.00000000000E+00  0.45593999997E+02  0.45594000000E+02  0.51100000000E-03 0.  1.
         11   -1    0    0    0    0 -0.00000000000E+00 -0.00000000000E+00 -0.45593999997E+02  0.45594000000E+02  0.51100000000E-03 0. -1.
    9900012    2    1    2    0    0  0.26712299506E+00  0.92817698858E+00  0.67793955398E+00  0.90007970655E+02  0.90000235067E+02 0.  0.
        -12    1    1    2    0    0 -0.26712299506E+00 -0.92817698858E+00 -0.67793955398E+00  0.11800293452E+01  0.00000000000E+00 0.  1.
         11    1    3    3    0    0 -0.19026152363E+02  0.23973943028E+02 -0.27316753951E+02  0.41023767072E+02  0.51100000000E-03 0. -1.
        -11    1    3    3    0    0 -0.60401081482E+01 -0.14248985433E+00  0.44186995831E+01  0.74851931216E+01  0.51100000000E-03 0.  1.
        -12    1    3    3    0    0  0.25333383506E+02 -0.22903276185E+02  0.23575993922E+02  0.41499010462E+02  0.00000000000E+00 0.  1.
</event>
<event>
 7    1  0.1716782E-015  0.9000768E+02  0.7816164E-02  0.1186339E+00
        -11   -1    0    0    0    0  0.00000000000E+00  0.00000000000E+00  0.45593999997E+02  0.45594000000E+02  0.51100000000E-03 0.  1.
         11   -1    0    0    0    0 -0.00000000000E+00 -0.00000000000E+00 -0.45593999997E+02  0.45594000000E+02  0.51100000000E-03 0. -1.
    9900012    2    1    2    0    0 -0.84728764124E+00 -0.92642512896E-01 -0.81650200738E+00  0.90007680336E+02  0.89999940916E+02 0.  0.
        -12    1    1    2    0    0  0.84728764124E+00  0.92642512896E-01  0.81650200738E+00  0.11803196644E+01  0.00000000000E+00 0.  1.
         11    1    3    3    0    0 -0.14549616158E+01  0.83347286792E+00  0.88148066208E+01  0.89728705746E+01  0.51100000000E-03 0. -1.
        -11    1    3    3    0    0 -0.10288169491E+02 -0.88647056923E+01  0.33339284474E+02  0.35999129545E+02  0.51100000000E-03 0.  1.
         12    1    3    3    0    0  0.10895843466E+02  0.79385903114E+01 -0.42970593102E+02  0.45035680216E+02  0.00000000000E+00 0. -1.
</event>
<event>
 7    1  0.1716782E-015  0.9000783E+02  0.7816164E-02  0.1186339E+00
        -11   -1    0    0    0    0  0.00000000000E+00  0.00000000000E+00  0.45593999997E+02  0.45594000000E+02  0.51100000000E-03 0.  1.
         11   -1    0    0    0    0 -0.00000000000E+00 -0.00000000000E+00 -0.45593999997E+02  0.45594000000E+02  0.51100000000E-03 0. -1.
    9900012    2    1    2    0    0  0.67382558707E+00  0.96757411861E+00 -0.50713764684E-01  0.90007825232E+02  0.90000087725E+02 0.  0.
        -12    1    1    2    0    0 -0.67382558707E+00 -0.96757411861E+00  0.50713764684E-01  0.11801747679E+01  0.00000000000E+00 0.  1.
         11    1    3    3    0    0 -0.69338258595E+00  0.70108951468E+01  0.35637468462E+01  0.78951708034E+01  0.51100000000E-03 0. -1.
        -11    1    3    3    0    0  0.17186648655E+02  0.30852077677E+02  0.14365691229E+02  0.38126167834E+02  0.51100000000E-03 0.  1.
         12    1    3    3    0    0 -0.15819440482E+02 -0.36895398705E+02 -0.17980151840E+02  0.43986486595E+02  0.00000000000E+00 0. -1.
</event>
<event>
 7    1  0.1716782E-015  0.9000778E+02  0.7816164E-02  0.1186339E+00
        -11   -1    0    0    0    0  0.00000000000E+00  0.00000000000E+00  0.45593999997E+02  0.45594000000E+02  0.51100000000E-03 0.  1.
         11   -1    0    0    0    0 -0.00000000000E+00 -0.00000000000E+00 -0.45593999997E+02  0.45594000000E+02  0.51100000000E-03 0. -1.
    9900012    2    1    2    0    0 -0.11020170223E+01 -0.63432167361E-02 -0.42242047782E+00  0.90007779337E+02  0.90000041224E+02 0.  0.
        -12    1    1    2    0    0  0.11020170223E+01  0.63432167361E-02  0.42242047782E+00  0.11802206633E+01  0.00000000000E+00 0.  1.
         11    1    3    3    0    0  0.25145515674E+01 -0.53258736918E+01 -0.42777090076E+01  0.72791960257E+01  0.51100000000E-03 0. -1.
        -11    1    3    3    0    0  0.24464511823E+02  0.65261934831E+01 -0.29653366401E+02  0.38992636219E+02  0.51100000000E-03 0.  1.
         12    1    3    3    0    0 -0.28081080413E+02 -0.12066630081E+01  0.33508654931E+02  0.43735947092E+02  0.00000000000E+00 0. -1.
</event>
<event>
 7    1  0.1716782E-015  0.9000771E+02  0.7816164E-02  0.1186339E+00
        -11   -1    0    0    0    0  0.00000000000E+00  0.00000000000E+00  0.45593999997E+02  0.45594000000E+02  0.51100000000E-03 0. -1.
         11   -1    0    0    0    0 -0.00000000000E+00 -0.00000000000E+00 -0.45593999997E+02  0.45594000000E+02  0.51100000000E-03 0.  1.
    9900012    2    1    2    0    0  0.94382873826E+00  0.30507925283E+00  0.63968784367E+00  0.90007709114E+02  0.89999970075E+02 0.  0.
        -12    1    1    2    0    0 -0.94382873826E+00 -0.30507925283E+00 -0.63968784367E+00  0.11802908858E+01  0.00000000000E+00 0.  1.
         11    1    3    3    0    0  0.47533864742E+01 -0.47952009244E+01 -0.68417709740E+01  0.96124120387E+01  0.51100000000E-03 0. -1.
        -11    1    3    3    0    0 -0.23466275896E+02 -0.21628512316E+02 -0.19700184132E+02  0.37504078505E+02  0.51100000000E-03 0.  1.
         12    1    3    3    0    0  0.19656718160E+02  0.26728792493E+02  0.27181642950E+02  0.42891218570E+02  0.00000000000E+00 0. -1.
</event>
<event>
 7    1  0.1716782E-015  0.9000785E+02  0.7816164E-02  0.1186339E+00
        -11   -1    0    0    0    0  0.00000000000E+00  0.00000000000E+00  0.45593999997E+02  0.45594000000E+02  0.51100000000E-03 0.  1.
         11   -1    0    0    0    0 -0.00000000000E+00 -0.00000000000E+00 -0.45593999997E+02  0.45594000000E+02  0.51100000000E-03 0. -1.
    9900012    2    1    2    0    0  0.14408182162E+00  0.92285737473E+00 -0.72133276264E+00  0.90007853289E+02  0.90000116152E+02 0.  0.
        -12    1    1    2    0    0 -0.14408182162E+00 -0.92285737473E+00  0.72133276264E+00  0.11801467112E+01  0.00000000000E+00 0.  1.
         11    1    3    3    0    0 -0.81573003301E+01  0.14615731623E+02 -0.36190609817E+02  0.39873818462E+02  0.51100000000E-03 0. -1.
        -11    1    3    3    0    0 -0.78338133536E+01  0.37382478090E+01  0.16954352959E+01  0.88440731252E+01  0.51100000000E-03 0.  1.
        -12    1    3    3    0    0  0.16135195505E+02 -0.17431122058E+02  0.33773841759E+02  0.41289961701E+02  0.00000000000E+00 0.  1.
</event>
<event>
 7    1  0.1716782E-015  0.9000772E+02  0.7816164E-02  0.1186339E+00
        -11   -1    0    0    0    0  0.00000000000E+00  0.00000000000E+00  0.45593999997E+02  0.45594000000E+02  0.51100000000E-03 0. -1.
         11   -1    0    0    0    0 -0.00000000000E+00 -0.00000000000E+00 -0.45593999997E+02  0.45594000000E+02  0.51100000000E-03 0.  1.
    9900012    2    1    2    0    0  0.90307781876E+00  0.73401958484E+00  0.19680608678E+00  0.90007717435E+02  0.89999978505E+02 0.  0.
        -12    1    1    2    0    0 -0.90307781876E+00 -0.73401958484E+00 -0.19680608678E+00  0.11802825651E+01  0.00000000000E+00 0.  1.
         11    1    3    3    0    0 -0.18460509991E+02  0.24449105687E+02  0.12149502569E+02  0.32956935703E+02  0.51100000000E-03 0. -1.
        -11    1    3    3    0    0 -0.31496221183E+01  0.10217184604E+02  0.63173458878E+01  0.12418528095E+02  0.51100000000E-03 0.  1.
        -12    1    3    3    0    0  0.22513209928E+02 -0.33932270706E+02 -0.18270042370E+02  0.44632253637E+02  0.00000000000E+00 0.  1.
</event>
<event>
 7    1  0.1788035E-015  0.9000779E+02  0.7816164E-02  0.1186339E+00
        -11   -1    0    0    0    0  0.00000000000E+00  0.00000000000E+00  0.45593999997E+02  0.45594000000E+02  0.51100000000E-03 0.  1.
         11   -1    0    0    0    0 -0.00000000000E+00 -0.00000000000E+00 -0.45593999997E+02  0.45594000000E+02  0.51100000000E-03 0. -1.
    9900012    2    1    2    0    0  0.90940236806E+00  0.70518687949E+00 -0.26189292734E+00  0.90007792769E+02  0.90000054834E+02 0.  0.
        -12    1    1    2    0    0 -0.90940236806E+00 -0.70518687949E+00  0.26189292734E+00  0.11802072307E+01  0.00000000000E+00 0.  1.
         11    1    3    3    0    0 -0.23352893836E+02  0.28473420541E+02 -0.18444668730E+02  0.41186152195E+02  0.51100000000E-03 0. -1.
        -11    1    3    3    0    0  0.42943718108E+01  0.42457035544E+01  0.74578642682E+01  0.95962163181E+01  0.51100000000E-03 0.  1.
        -12    1    3    3    0    0  0.19967924393E+02 -0.32013937216E+02  0.10724911534E+02  0.39225424256E+02  0.00000000000E+00 0.  1.
</event>
<event>
 7    1  0.1716782E-015  0.9000760E+02  0.7816164E-02  0.1186339E+00
        -11   -1    0    0    0    0  0.00000000000E+00  0.00000000000E+00  0.45593999997E+02  0.45594000000E+02  0.51100000000E-03 0.  1.
         11   -1    0    0    0    0 -0.00000000000E+00 -0.00000000000E+00 -0.45593999997E+02  0.45594000000E+02  0.51100000000E-03 0. -1.
    9900012    2    1    2    0    0  0.79415760407E+00 -0.73658566896E+00 -0.46915211324E+00  0.90007598181E+02  0.89999857677E+02 0.  0.
        -12    1    1    2    0    0 -0.79415760407E+00  0.73658566896E+00  0.46915211324E+00  0.11804018185E+01  0.00000000000E+00 0.  1.
         11    1    3    3    0    0 -0.31337116553E+01 -0.83714432595E+01  0.35846027270E+01  0.96307106673E+01  0.51100000000E-03 0. -1.
        -11    1    3    3    0    0  0.24604183124E+02  0.19020159027E+02  0.27128492514E+02  0.41268479290E+02  0.51100000000E-03 0.  1.
         12    1    3    3    0    0 -0.20676313864E+02 -0.11385301436E+02 -0.31182247354E+02  0.39108408224E+02  0.00000000000E+00 0. -1.
</event>
<event>
 7    1  0.1716782E-015  0.9000773E+02  0.7816164E-02  0.1186339E+00
        -11   -1    0    0    0    0  0.00000000000E+00  0.00000000000E+00  0.45593999997E+02  0.45594000000E+02  0.51100000000E-03 0. -1.
         11   -1    0    0    0    0 -0.00000000000E+00 -0.00000000000E+00 -0.45593999997E+02  0.45594000000E+02  0.51100000000E-03 0.  1.
    9900012    2    1    2    0    0  0.54680482924E+00  0.10290280761E+01  0.18748615594E+00  0.90007726573E+02  0.89999987764E+02 0.  0.
        -12    1    1    2    0    0 -0.54680482924E+00 -0.10290280761E+01 -0.18748615594E+00  0.11802734266E+01  0.00000000000E+00 0.  1.
         11    1    3    3    0    0 -0.24357674252E+02 -0.22987282297E+01  0.30718177725E+02  0.39270687408E+02  0.51100000000E-03 0. -1.
        -11    1    3    3    0    0 -0.24877831708E+01 -0.84647365022E+00  0.50184589779E+01  0.56648489406E+01  0.51100000000E-03 0.  1.
        -12    1    3    3    0    0  0.27392262252E+02  0.41742299560E+01 -0.35549150547E+02  0.45072190225E+02  0.00000000000E+00 0.  1.
</event>
<event>
 7    1  0.2411483E-015  0.9000777E+02  0.7816164E-02  0.1186339E+00
        -11   -1    0    0    0    0  0.00000000000E+00  0.00000000000E+00  0.45593999997E+02  0.45594000000E+02  0.51100000000E-03 0. -1.
         11   -1    0    0    0    0 -0.00000000000E+00 -0.00000000000E+00 -0.45593999997E+02  0.45594000000E+02  0.51100000000E-03 0.  1.
    9900012    2    1    2    0    0  0.88224123976E+00 -0.76568267344E+00  0.16830415084E+00  0.90007768731E+02  0.90000030478E+02 0.  0.
        -12    1    1    2    0    0 -0.88224123976E+00  0.76568267344E+00 -0.16830415084E+00  0.11802312692E+01  0.00000000000E+00 0.  1.
         11    1    3    3    0    0 -0.10805295712E+02 -0.17654660626E+02  0.33428826794E+02  0.39318289871E+02  0.51100000000E-03 0. -1.
        -11    1    3    3    0    0 -0.89367318454E+01 -0.17205581660E+01 -0.29315271414E+01  0.95613465642E+01  0.51100000000E-03 0.  1.
        -12    1    3    3    0    0  0.20624268797E+02  0.18609536119E+02 -0.30328995502E+02  0.41128132296E+02  0.00000000000E+00 0.  1.
</event>
<event>
 7    1  0.1716782E-015  0.9000777E+02  0.7816164E-02  0.1186339E+00
        -11   -1    0    0    0    0  0.00000000000E+00  0.00000000000E+00  0.45593999997E+02  0.45594000000E+02  0.51100000000E-03 0.  1.
         11   -1    0    0    0    0 -0.00000000000E+00 -0.00000000000E+00 -0.45593999997E+02  0.45594000000E+02  0.51100000000E-03 0. -1.
    9900012    2    1    2    0    0 -0.10631789609E+01  0.49652972572E+00 -0.12667199472E+00  0.90007772452E+02  0.90000034248E+02 0.  0.
        -12    1    1    2    0    0  0.10631789609E+01 -0.49652972572E+00  0.12667199472E+00  0.11802275483E+01  0.00000000000E+00 0.  1.
         11    1    3    3    0    0  0.60679702376E+01  0.95040585541E+01 -0.87855292887E+00  0.11310139138E+02  0.51100000000E-03 0. -1.
        -11    1    3    3    0    0  0.31814687758E+02 -0.17175448962E+02  0.10652287162E+02  0.37691399897E+02  0.51100000000E-03 0.  1.
         12    1    3    3    0    0 -0.38945836956E+02  0.81679201341E+01 -0.99004062278E+01  0.41006233417E+02  0.00000000000E+00 0. -1.
</event>
<event>
 7    1  0.1716782E-015  0.9000774E+02  0.7816164E-02  0.1186339E+00
        -11   -1    0    0    0    0  0.00000000000E+00  0.00000000000E+00  0.45593999997E+02  0.45594000000E+02  0.51100000000E-03 0.  1.
         11   -1    0    0    0    0 -0.00000000000E+00 -0.00000000000E+00 -0.45593999997E+02  0.45594000000E+02  0.51100000000E-03 0. -1.
    9900012    2    1    2    0    0 -0.11349287593E+01  0.73162156100E-01 -0.31559370295E+00  0.90007739277E+02  0.90000000635E+02 0.  0.
        -12    1    1    2    0    0  0.11349287593E+01 -0.73162156100E-01  0.31559370295E+00  0.11802607234E+01  0.00000000000E+00 0.  1.
         11    1    3    3    0    0  0.44670840828E+00  0.26038683720E+01  0.93529901887E+01  0.97189559435E+01  0.51100000000E-03 0. -1.
        -11    1    3    3    0    0 -0.99284415982E+01 -0.32447417957E+02  0.18247556377E+02  0.38527680940E+02  0.51100000000E-03 0.  1.
         12    1    3    3    0    0  0.83468044306E+01  0.29916711741E+02 -0.27916140269E+02  0.41761102393E+02  0.00000000000E+00 0. -1.
</event>
<event>
 7    1  0.1716782E-015  0.9000773E+02  0.7816164E-02  0.1186339E+00
        -11   -1    0    0    0    0  0.00000000000E+00  0.00000000000E+00  0.45593999997E+02  0.45594000000E+02  0.51100000000E-03 0. -1.
         11   -1    0    0    0    0 -0.00000000000E+00 -0.00000000000E+00 -0.45593999997E+02  0.45594000000E+02  0.51100000000E-03 0.  1.
    9900012    2    1    2    0    0  0.27948901162E+00  0.10371345864E+01 -0.48915353106E+00  0.90007731626E+02  0.89999992883E+02 0.  0.
        -12    1    1    2    0    0 -0.27948901162E+00 -0.10371345864E+01  0.48915353106E+00  0.11802683741E+01  0.00000000000E+00 0.  1.
         11    1    3    3    0    0  0.80898099199E+01 -0.39812202298E+00 -0.48105453256E+01  0.94204496854E+01  0.51100000000E-03 0. -1.
        -11    1    3    3    0    0 -0.49879187096E+01 -0.18062259288E+02 -0.33248579470E+02  0.38165332184E+02  0.51100000000E-03 0.  1.
         12    1    3    3    0    0 -0.28224021987E+01  0.19497515897E+02  0.37569971265E+02  0.42421949757E+02  0.00000000000E+00 0. -1.
</event>
<event>
 7    1  0.1716782E-015  0.9000777E+02  0.7816164E-02  0.1186339E+00
        -11   -1    0    0    0    0  0.00000000000E+00  0.00000000000E+00  0.45593999997E+02  0.45594000000E+02  0.51100000000E-03 0.  1.
         11   -1    0    0    0    0 -0.00000000000E+00 -0.00000000000E+00 -0.45593999997E+02  0.45594000000E+02  0.51100000000E-03 0. -1.
    9900012    2    1    2    0    0  0.35387499635E+00 -0.10528464110E+01 -0.39903414233E+00  0.90007770647E+02  0.90000032420E+02 0.  0.
        -12    1    1    2    0    0 -0.35387499635E+00  0.10528464110E+01  0.39903414233E+00  0.11802293527E+01  0.00000000000E+00 0.  1.
         11    1    3    3    0    0  0.71180677983E+01  0.75178062684E+00  0.10961795276E+01  0.72411099364E+01  0.51100000000E-03 0. -1.
        -11    1    3    3    0    0  0.37231139104E+02  0.58727640099E+01  0.33721814461E+01  0.37842022727E+02  0.51100000000E-03 0.  1.
         12    1    3    3    0    0 -0.43995331906E+02 -0.76773910477E+01 -0.48673951161E+01  0.44924637984E+02  0.00000000000E+00 0. -1.
</event>
<event>
 7    1  0.1716782E-015  0.9000777E+02  0.7816164E-02  0.1186339E+00
        -11   -1    0    0    0    0  0.00000000000E+00  0.00000000000E+00  0.45593999997E+02  0.45594000000E+02  0.51100000000E-03 0.  1.
         11   -1    0    0    0    0 -0.00000000000E+00 -0.00000000000E+00 -0.45593999997E+02  0.45594000000E+02  0.51100000000E-03 0. -1.
    9900012    2    1    2    0    0  0.87564428927E+00  0.43861922484E+00 -0.65862837263E+00  0.90007774988E+02  0.90000036818E+02 0.  0.
        -12    1    1    2    0    0 -0.87564428927E+00 -0.43861922484E+00  0.65862837263E+00  0.11802250120E+01  0.00000000000E+00 0.  1.
         11    1    3    3    0    0 -0.27195967623E+01  0.20306926885E+01  0.84399750614E+01  0.90968730146E+01  0.51100000000E-03 0. -1.
        -11    1    3    3    0    0 -0.34180053056E+01  0.24608404370E+02  0.26389746037E+02  0.36244655082E+02  0.51100000000E-03 0.  1.
         12    1    3    3    0    0  0.70132463572E+01 -0.26200477834E+02 -0.35488349471E+02  0.44666246891E+02  0.00000000000E+00 0. -1.
</event>
<event>
 7    1  0.1716782E-015  0.9000759E+02  0.7816164E-02  0.1186339E+00
        -11   -1    0    0    0    0  0.00000000000E+00  0.00000000000E+00  0.45593999997E+02  0.45594000000E+02  0.51100000000E-03 0.  1.
         11   -1    0    0    0    0 -0.00000000000E+00 -0.00000000000E+00 -0.45593999997E+02  0.45594000000E+02  0.51100000000E-03 0. -1.
    9900012    2    1    2    0    0 -0.32412571270E+00 -0.26722603100E+00 -0.11031315591E+01  0.90007590552E+02  0.89999849947E+02 0.  0.
        -12    1    1    2    0    0  0.32412571270E+00  0.26722603100E+00  0.11031315591E+01  0.11804094485E+01  0.00000000000E+00 0.  1.
         11    1    3    3    0    0  0.26083300560E+02 -0.70636988375E+01 -0.24506475415E+02  0.36480155522E+02  0.51100000000E-03 0. -1.
        -11    1    3    3    0    0  0.50268120836E+01 -0.57730141536E+01 -0.51614487862E+01  0.92323932961E+01  0.51100000000E-03 0.  1.
        -12    1    3    3    0    0 -0.31434238356E+02  0.12569486960E+02  0.28564792642E+02  0.44295041733E+02  0.00000000000E+00 0.  1.
</event>
<event>
 7    1  0.1716782E-015  0.9000757E+02  0.7816164E-02  0.1186339E+00
        -11   -1    0    0    0    0  0.00000000000E+00  0.00000000000E+00  0.45593999997E+02  0.45594000000E+02  0.51100000000E-03 0. -1.
         11   -1    0    0    0    0 -0.00000000000E+00 -0.00000000000E+00 -0.45593999997E+02  0.45594000000E+02  0.51100000000E-03 0.  1.
    9900012    2    1    2    0    0 -0.74253030593E+00  0.43151828073E+00  0.80985547336E+00  0.90007565686E+02  0.89999824753E+02 0.  0.
        -12    1    1    2    0    0  0.74253030593E+00 -0.43151828073E+00 -0.80985547336E+00  0.11804343140E+01  0.00000000000E+00 0.  1.
         11    1    3    3    0    0  0.59828074868E+01  0.62243770000E+01  0.25853844747E+01  0.90122731653E+01  0.51100000000E-03 0. -1.
        -11    1    3    3    0    0 -0.41071989383E+02  0.81681837067E+01 -0.99208341212E+01  0.43035456160E+02  0.51100000000E-03 0.  1.
         12    1    3    3    0    0  0.34346651590E+02 -0.13961042426E+02  0.81453051198E+01  0.37959836361E+02  0.00000000000E+00 0. -1.
</event>
<event>
 7    1  0.2448508E-015  0.9000764E+02  0.7816164E-02  0.1186339E+00
        -11   -1    0    0    0    0  0.00000000000E+00  0.00000000000E+00  0.45593999997E+02  0.45594000000E+02  0.51100000000E-03 0. -1.
         11   -1    0    0    0    0 -0.00000000000E+00 -0.00000000000E+00 -0.45593999997E+02  0.45594000000E+02  0.51100000000E-03 0.  1.
    9900012    2    1    2    0    0 -0.73314103178E+00  0.41029064381E+00  0.82910048751E+00  0.90007643358E+02  0.89999903450E+02 0.  0.
        -12    1    1    2    0    0  0.73314103178E+00 -0.41029064381E+00 -0.82910048751E+00  0.11803566424E+01  0.00000000000E+00 0.  1.
         11    1    3    3    0    0  0.53970745038E+01 -0.29721476497E+02  0.24006561538E+02  0.38585095251E+02  0.51100000000E-03 0. -1.
        -11    1    3    3    0    0 -0.50683415695E+01 -0.70531806176E+01 -0.49491991382E+01  0.99965001605E+01  0.51100000000E-03 0.  1.
        -12    1    3    3    0    0 -0.10618739661E+01  0.37184947759E+02 -0.18228261912E+02  0.41426047946E+02  0.00000000000E+00 0.  1.
</event>
<event>
 7    1  0.1716782E-015  0.9000781E+02  0.7816164E-02  0.1186339E+00
        -11   -1    0    0    0    0  0.00000000000E+00  0.00000000000E+00  0.45593999997E+02  0.45594000000E+02  0.51100000000E-03 0.  1.
         11   -1    0    0    0    0 -0.00000000000E+00 -0.00000000000E+00 -0.45593999997E+02  0.45594000000E+02  0.51100000000E-03 0. -1.
    9900012    2    1    2    0    0 -0.23495162341E+00  0.11564089263E+01 -0.18972629232E-01  0.90007811951E+02  0.90000074269E+02 0.  0.
        -12    1    1    2    0    0  0.23495162341E+00 -0.11564089263E+01  0.18972629232E-01  0.11801880490E+01  0.00000000000E+00 0.  1.
         11    1    3    3    0    0  0.60767894108E+01  0.10058247383E+02 -0.39384156635E+02  0.41099969636E+02  0.51100000000E-03 0. -1.
        -11    1    3    3    0    0  0.91914155895E+01 -0.21951986863E+01  0.51786149467E+01  0.10775855921E+02  0.51100000000E-03 0.  1.
        -12    1    3    3    0    0 -0.15503156624E+02 -0.67066397707E+01  0.34186569059E+02  0.38131986394E+02  0.00000000000E+00 0.  1.
</event>
<event>
 7    1  0.1716782E-015  0.9000755E+02  0.7816164E-02  0.1186339E+00
        -11   -1    0    0    0    0  0.00000000000E+00  0.00000000000E+00  0.45593999997E+02  0.45594000000E+02  0.51100000000E-03 0.  1.
         11   -1    0    0    0    0 -0.00000000000E+00 -0.00000000000E+00 -0.45593999997E+02  0.45594000000E+02  0.51100000000E-03 0. -1.
    9900012    2    1    2    0    0  0.41076335522E+00 -0.67725252069E+00 -0.87524945728E+00  0.90007551304E+02  0.89999810181E+02 0.  0.
        -12    1    1    2    0    0 -0.41076335522E+00  0.67725252069E+00  0.87524945728E+00  0.11804486957E+01  0.00000000000E+00 0.  1.
         11    1    3    3    0    0 -0.24765190525E+00  0.56250503958E+01  0.88327949760E+01  0.10474769247E+02  0.51100000000E-03 0. -1.
        -11    1    3    3    0    0 -0.35910193281E+02 -0.29862674657E+01 -0.20245451758E+02  0.41332046792E+02  0.51100000000E-03 0.  1.
         12    1    3    3    0    0  0.36568608541E+02 -0.33160354507E+01  0.10537407325E+02  0.38200735266E+02  0.00000000000E+00 0. -1.
</event>
<event>
 7    1  0.1716782E-015  0.9000773E+02  0.7816164E-02  0.1186339E+00
        -11   -1    0    0    0    0  0.00000000000E+00  0.00000000000E+00  0.45593999997E+02  0.45594000000E+02  0.51100000000E-03 0.  1.
         11   -1    0    0    0    0 -0.00000000000E+00 -0.00000000000E+00 -0.45593999997E+02  0.45594000000E+02  0.51100000000E-03 0. -1.
    9900012    2    1    2    0    0  0.33072398037E+00 -0.24903451463E+00  0.11052760098E+01  0.90007732404E+02  0.89999993672E+02 0.  0.
        -12    1    1    2    0    0 -0.33072398037E+00  0.24903451463E+00 -0.11052760098E+01  0.11802675962E+01  0.00000000000E+00 0.  1.
         11    1    3    3    0    0 -0.61070332262E+01 -0.74805236857E+01 -0.20119392656E+01  0.98641770720E+01  0.51100000000E-03 0. -1.
        -11    1    3    3    0    0 -0.21532927408E+02 -0.27638006080E+02 -0.23179009997E+01  0.35112661650E+02  0.51100000000E-03 0.  1.
         12    1    3    3    0    0  0.27970684615E+02  0.34869495251E+02  0.54351162751E+01  0.45030893682E+02  0.00000000000E+00 0. -1.
</event>
<event>
 7    1  0.1716782E-015  0.9000771E+02  0.7816164E-02  0.1186339E+00
        -11   -1    0    0    0    0  0.00000000000E+00  0.00000000000E+00  0.45593999997E+02  0.45594000000E+02  0.51100000000E-03 0. -1.
         11   -1    0    0    0    0 -0.00000000000E+00 -0.00000000000E+00 -0.45593999997E+02  0.45594000000E+02  0.51100000000E-03 0.  1.
    9900012    2    1    2    0    0 -0.17545572262E+00 -0.10556659622E+01  0.49785368090E+00  0.90007714602E+02  0.89999975634E+02 0.  0.
        -12    1    1    2    0    0  0.17545572262E+00  0.10556659622E+01 -0.49785368090E+00  0.11802853985E+01  0.00000000000E+00 0.  1.
         11    1    3    3    0    0 -0.28072830496E+02  0.12075701735E+02  0.22918883761E+02  0.38199235824E+02  0.51100000000E-03 0. -1.
        -11    1    3    3    0    0  0.26391528648E+01  0.44805571410E+01  0.73329537412E+01  0.89895901447E+01  0.51100000000E-03 0.  1.
        -12    1    3    3    0    0  0.25258221909E+02 -0.17611924838E+02 -0.29753983821E+02  0.42818888632E+02  0.00000000000E+00 0.  1.
</event>
<event>
 7    1  0.1716782E-015  0.9000779E+02  0.7816164E-02  0.1186339E+00
        -11   -1    0    0    0    0  0.00000000000E+00  0.00000000000E+00  0.45593999997E+02  0.45594000000E+02  0.51100000000E-03 0.  1.
         11   -1    0    0    0    0 -0.00000000000E+00 -0.00000000000E+00 -0.45593999997E+02  0.45594000000E+02  0.51100000000E-03 0. -1.
    9900012    2    1    2    0    0  0.47037993725E+00 -0.22513380476E-01 -0.10821859749E+01  0.90007792128E+02  0.90000054184E+02 0.  0.
        -12    1    1    2    0    0 -0.47037993725E+00  0.22513380476E-01  0.10821859749E+01  0.11802078724E+01  0.00000000000E+00 0.  1.
         11    1    3    3    0    0 -0.80121738064E+01  0.93376265502E+01  0.61165205682E+01  0.13740379282E+02  0.51100000000E-03 0. -1.
        -11    1    3    3    0    0  0.52642214239E+01  0.30897767987E+02 -0.15609027329E+02  0.35014651622E+02  0.51100000000E-03 0.  1.
         12    1    3    3    0    0  0.32183323198E+01 -0.40257907918E+02  0.84103207857E+01  0.41252761224E+02  0.00000000000E+00 0. -1.
</event>
<event>
 7    1  0.1716782E-015  0.9000776E+02  0.7816164E-02  0.1186339E+00
        -11   -1    0    0    0    0  0.00000000000E+00  0.00000000000E+00  0.45593999997E+02  0.45594000000E+02  0.51100000000E-03 0.  1.
         11   -1    0    0    0    0 -0.00000000000E+00 -0.00000000000E+00 -0.45593999997E+02  0.45594000000E+02  0.51100000000E-03 0. -1.
    9900012    2    1    2    0    0 -0.78955835452E+00  0.15108511880E+00 -0.86414131782E+00  0.90007758785E+02  0.90000020401E+02 0.  0.
        -12    1    1    2    0    0  0.78955835452E+00 -0.15108511880E+00  0.86414131782E+00  0.11802412150E+01  0.00000000000E+00 0.  1.
         11    1    3    3    0    0 -0.24911462439E+02  0.12036215990E+02 -0.23287064476E+02  0.36162671754E+02  0.51100000000E-03 0. -1.
        -11    1    3    3    0    0 -0.10323299265E+02 -0.20386171473E+01 -0.16949668792E+01  0.10658301017E+02  0.51100000000E-03 0.  1.
        -12    1    3    3    0    0  0.34445203350E+02 -0.98465137239E+01  0.24117890037E+02  0.43186786014E+02  0.00000000000E+00 0.  1.
</event>
<event>
 7    1  0.1716782E-015  0.9000784E+02  0.7816164E-02  0.1186339E+00
        -11   -1    0    0    0    0  0.00000000000E+00  0.00000000000E+00  0.45593999997E+02  0.45594000000E+02  0.51100000000E-03 0.  1.
         11   -1    0    0    0    0 -0.00000000000E+00 -0.00000000000E+00 -0.45593999997E+02  0.45594000000E+02  0.51100000000E-03 0. -1.
    9900012    2    1    2    0    0 -0.71406284481E+00 -0.70232499906E+00 -0.62420705896E+00  0.90007838739E+02  0.90000101410E+02 0.  0.
        -12    1    1    2    0    0  0.71406284481E+00  0.70232499906E+00  0.62420705896E+00  0.11801612615E+01  0.00000000000E+00 0.  1.
         11    1    3    3    0    0  0.38721742107E+01 -0.13753312376E+02 -0.24047397492E+01  0.14488965041E+02  0.51100000000E-03 0. -1.
        -11    1    3    3    0    0  0.89858099136E+01  0.31785289891E+02  0.25992503668E+02  0.42031650937E+02  0.51100000000E-03 0.  1.
         12    1    3    3    0    0 -0.13572046969E+02 -0.18734302514E+02 -0.24211970978E+02  0.33487222761E+02  0.00000000000E+00 0. -1.
</event>
<event>
 7    1  0.1716782E-015  0.9000774E+02  0.7816164E-02  0.1186339E+00
        -11   -1    0    0    0    0  0.00000000000E+00  0.00000000000E+00  0.45593999997E+02  0.45594000000E+02  0.51100000000E-03 0.  1.
         11   -1    0    0    0    0 -0.00000000000E+00 -0.00000000000E+00 -0.45593999997E+02  0.45594000000E+02  0.51100000000E-03 0. -1.
    9900012    2    1    2    0    0  0.11664778811E+01 -0.17919780932E+00 -0.15091788456E-01  0.90007741442E+02  0.90000002829E+02 0.  0.
        -12    1    1    2    0    0 -0.11664778811E+01  0.17919780932E+00  0.15091788456E-01  0.11802585581E+01  0.00000000000E+00 0.  1.
         11    1    3    3    0    0 -0.75840207909E+01  0.53689587956E+01 -0.59066183798E+01  0.11010505477E+02  0.51100000000E-03 0. -1.
        -11    1    3    3    0    0 -0.33032147550E+02 -0.14384681119E+02  0.39820039517E+01  0.36247733424E+02  0.51100000000E-03 0.  1.
         12    1    3    3    0    0  0.41782646222E+02  0.88365245136E+01  0.19095226396E+01  0.42749502541E+02  0.00000000000E+00 0. -1.
</event>
<event>
 7    1  0.1716782E-015  0.9000765E+02  0.7816164E-02  0.1186339E+00
        -11   -1    0    0    0    0  0.00000000000E+00  0.00000000000E+00  0.45593999997E+02  0.45594000000E+02  0.51100000000E-03 0.  1.
         11   -1    0    0    0    0 -0.00000000000E+00 -0.00000000000E+00 -0.45593999997E+02  0.45594000000E+02  0.51100000000E-03 0. -1.
    9900012    2    1    2    0    0  0.54644514547E+00  0.12384864862E+00 -0.10388921128E+01  0.90007645135E+02  0.89999905251E+02 0.  0.
        -12    1    1    2    0    0 -0.54644514547E+00 -0.12384864862E+00  0.10388921128E+01  0.11803548648E+01  0.00000000000E+00 0.  1.
         11    1    3    3    0    0  0.53308922178E+01  0.71307148002E+01 -0.27182579939E+01  0.93088362421E+01  0.51100000000E-03 0. -1.
        -11    1    3    3    0    0 -0.18864481044E+02 -0.36183013972E+01  0.37460468885E+02  0.42098069782E+02  0.51100000000E-03 0.  1.
         12    1    3    3    0    0  0.14080033972E+02 -0.33885647544E+01 -0.35781103004E+02  0.38600739111E+02  0.00000000000E+00 0. -1.
</event>
<event>
 7    1  0.1716782E-015  0.9000775E+02  0.7816164E-02  0.1186339E+00
        -11   -1    0    0    0    0  0.00000000000E+00  0.00000000000E+00  0.45593999997E+02  0.45594000000E+02  0.51100000000E-03 0.  1.
         11   -1    0    0    0    0 -0.00000000000E+00 -0.00000000000E+00 -0.45593999997E+02  0.45594000000E+02  0.51100000000E-03 0. -1.
    9900012    2    1    2    0    0 -0.95904173345E+00 -0.56145018764E+00 -0.39750801609E+00  0.90007745797E+02  0.90000007242E+02 0.  0.
        -12    1    1    2    0    0  0.95904173345E+00  0.56145018764E+00  0.39750801609E+00  0.11802542025E+01  0.00000000000E+00 0.  1.
         11    1    3    3    0    0 -0.67004704159E+01  0.21336868631E+02 -0.31090525227E+02  0.38298551224E+02  0.51100000000E-03 0. -1.
        -11    1    3    3    0    0  0.67561725098E+01  0.39873466153E-01 -0.59408530292E+01  0.89967322874E+01  0.51100000000E-03 0.  1.
        -12    1    3    3    0    0 -0.10147438274E+01 -0.21938192285E+02  0.36633870240E+02  0.42712462286E+02  0.00000000000E+00 0.  1.
</event>
<event>
 7    1  0.1716782E-015  0.9000773E+02  0.7816164E-02  0.1186339E+00
        -11   -1    0    0    0    0  0.00000000000E+00  0.00000000000E+00  0.45593999997E+02  0.45594000000E+02  0.51100000000E-03 0.  1.
         11   -1    0    0    0    0 -0.00000000000E+00 -0.00000000000E+00 -0.45593999997E+02  0.45594000000E+02  0.51100000000E-03 0. -1.
    9900012    2    1    2    0    0  0.42151523461E+00  0.11010754774E+01 -0.54655273787E-01  0.90007733293E+02  0.89999994573E+02 0.  0.
        -12    1    1    2    0    0 -0.42151523461E+00 -0.11010754774E+01  0.54655273787E-01  0.11802667067E+01  0.00000000000E+00 0.  1.
         11    1    3    3    0    0  0.15560607670E+02 -0.15932322401E+02 -0.32233905925E+02  0.39179026271E+02  0.51100000000E-03 0. -1.
        -11    1    3    3    0    0  0.49025030546E+00  0.91865852841E+01 -0.44643974802E+01  0.10225680401E+02  0.51100000000E-03 0.  1.
        -12    1    3    3    0    0 -0.15629342741E+02  0.78468125944E+01  0.36643648131E+02  0.40603026621E+02  0.00000000000E+00 0.  1.
</event>
<event>
 7    1  0.1716782E-015  0.9000764E+02  0.7816164E-02  0.1186339E+00
        -11   -1    0    0    0    0  0.00000000000E+00  0.00000000000E+00  0.45593999997E+02  0.45594000000E+02  0.51100000000E-03 0. -1.
         11   -1    0    0    0    0 -0.00000000000E+00 -0.00000000000E+00 -0.45593999997E+02  0.45594000000E+02  0.51100000000E-03 0.  1.
    9900012    2    1    2    0    0  0.26354438689E+00  0.11013283362E+01  0.33297103602E+00  0.90007640115E+02  0.89999900164E+02 0.  0.
        -12    1    1    2    0    0 -0.26354438689E+00 -0.11013283362E+01 -0.33297103602E+00  0.11803598853E+01  0.00000000000E+00 0.  1.
         11    1    3    3    0    0 -0.13134217069E+01 -0.62482516277E+01  0.67651695759E+01  0.93023246898E+01  0.51100000000E-03 0. -1.
        -11    1    3    3    0    0 -0.34853565294E+01 -0.29127873235E+02 -0.25825770512E+02  0.39083898630E+02  0.51100000000E-03 0.  1.
         12    1    3    3    0    0  0.50623226232E+01  0.36477453198E+02  0.19393571972E+02  0.41621416795E+02  0.00000000000E+00 0. -1.
</event>
<event>
 7    1  0.1716782E-015  0.9000772E+02  0.7816164E-02  0.1186339E+00
        -11   -1    0    0    0    0  0.00000000000E+00  0.00000000000E+00  0.45593999997E+02  0.45594000000E+02  0.51100000000E-03 0. -1.
         11   -1    0    0    0    0 -0.00000000000E+00 -0.00000000000E+00 -0.45593999997E+02  0.45594000000E+02  0.51100000000E-03 0.  1.
    9900012    2    1    2    0    0 -0.67034785705E+00 -0.88801761612E+00  0.39386230528E+00  0.90007716538E+02  0.89999977596E+02 0.  0.
        -12    1    1    2    0    0  0.67034785705E+00  0.88801761612E+00 -0.39386230528E+00  0.11802834624E+01  0.00000000000E+00 0.  1.
         11    1    3    3    0    0 -0.31399614551E+02 -0.15371065217E+02 -0.99351921747E+01  0.36344373480E+02  0.51100000000E-03 0. -1.
        -11    1    3    3    0    0 -0.51678656762E+01 -0.81084071766E+01 -0.12517493877E+01  0.96963900179E+01  0.51100000000E-03 0.  1.
        -12    1    3    3    0    0  0.35897132370E+02  0.22591454777E+02  0.11580803868E+02  0.43966953040E+02  0.00000000000E+00 0.  1.
</event>
<event>
 7    1  0.1716782E-015  0.9000779E+02  0.7816164E-02  0.1186339E+00
        -11   -1    0    0    0    0  0.00000000000E+00  0.00000000000E+00  0.45593999997E+02  0.45594000000E+02  0.51100000000E-03 0.  1.
         11   -1    0    0    0    0 -0.00000000000E+00 -0.00000000000E+00 -0.45593999997E+02  0.45594000000E+02  0.51100000000E-03 0. -1.
    9900012    2    1    2    0    0 -0.90390447028E+00  0.11136795028E+00 -0.75063842104E+00  0.90007786396E+02  0.90000048376E+02 0.  0.
        -12    1    1    2    0    0  0.90390447028E+00 -0.11136795028E+00  0.75063842104E+00  0.11802136039E+01  0.00000000000E+00 0.  1.
         11    1    3    3    0    0 -0.16698037967E+01  0.10246913248E+02 -0.22609634728E+01  0.10625414435E+02  0.51100000000E-03 0. -1.
        -11    1    3    3    0    0 -0.14759012082E+02  0.25166012943E+02 -0.19859821662E+02  0.35292621917E+02  0.51100000000E-03 0.  1.
         12    1    3    3    0    0  0.15524911408E+02 -0.35301558240E+02  0.21370146714E+02  0.44089750044E+02  0.00000000000E+00 0. -1.
</event>
<event>
 7    1  0.1716782E-015  0.9000774E+02  0.7816164E-02  0.1186339E+00
        -11   -1    0    0    0    0  0.00000000000E+00  0.00000000000E+00  0.45593999997E+02  0.45594000000E+02  0.51100000000E-03 0. -1.
         11   -1    0    0    0    0 -0.00000000000E+00 -0.00000000000E+00 -0.45593999997E+02  0.45594000000E+02  0.51100000000E-03 0.  1.
    9900012    2    1    2    0    0  0.16326364143E-01  0.10360716576E+01 -0.56506748652E+00  0.90007740582E+02  0.90000001957E+02 0.  0.
        -12    1    1    2    0    0 -0.16326364143E-01 -0.10360716576E+01  0.56506748652E+00  0.11802594182E+01  0.00000000000E+00 0.  1.
         11    1    3    3    0    0  0.24935595363E+01  0.74304165669E+01 -0.45329328777E+01  0.90540825186E+01  0.51100000000E-03 0. -1.
        -11    1    3    3    0    0  0.77847215123E+01 -0.28694545892E+02 -0.27869381268E+02  0.40751457220E+02  0.51100000000E-03 0.  1.
         12    1    3    3    0    0 -0.10261954684E+02  0.22300200983E+02  0.31837246659E+02  0.40202200844E+02  0.00000000000E+00 0. -1.
</event>
<event>
 7    1  0.1716782E-015  0.9000765E+02  0.7816164E-02  0.1186339E+00
        -11   -1    0    0    0    0  0.00000000000E+00  0.00000000000E+00  0.45593999997E+02  0.45594000000E+02  0.51100000000E-03 0. -1.
         11   -1    0    0    0    0 -0.00000000000E+00 -0.00000000000E+00 -0.45593999997E+02  0.45594000000E+02  0.51100000000E-03 0.  1.
    9900012    2    1    2    0    0 -0.77692789184E+00 -0.10162403973E+00  0.88277089777E+00  0.90007648844E+02  0.89999909008E+02 0.  0.
        -12    1    1    2    0    0  0.77692789184E+00  0.10162403973E+00 -0.88277089777E+00  0.11803511564E+01  0.00000000000E+00 0.  1.
         11    1    3    3    0    0  0.27089819347E+02  0.22912022679E+02 -0.19050097985E+02  0.40270650963E+02  0.51100000000E-03 0. -1.
        -11    1    3    3    0    0 -0.11480231135E+01  0.46284423925E+01  0.82977939480E+01  0.95704660656E+01  0.51100000000E-03 0.  1.
        -12    1    3    3    0    0 -0.26718724125E+02 -0.27642089111E+02  0.11635074935E+02  0.40166531815E+02  0.00000000000E+00 0.  1.
</event>
<event>
 7    1  0.1716782E-015  0.9000797E+02  0.7816164E-02  0.1186339E+00
        -11   -1    0    0    0    0  0.00000000000E+00  0.00000000000E+00  0.45593999997E+02  0.45594000000E+02  0.51100000000E-03 0.  1.
         11   -1    0    0    0    0 -0.00000000000E+00 -0.00000000000E+00 -0.45593999997E+02  0.45594000000E+02  0.51100000000E-03 0. -1.
    9900012    2    1    2    0    0  0.28767502381E+00  0.15596204147E+00  0.11337471049E+01  0.90007973061E+02  0.90000237506E+02 0.  0.
        -12    1    1    2    0    0 -0.28767502381E+00 -0.15596204147E+00 -0.11337471049E+01  0.11800269385E+01  0.00000000000E+00 0.  1.
         11    1    3    3    0    0  0.50629833870E+01 -0.39328745594E+02  0.59137521504E+01  0.40091850737E+02  0.51100000000E-03 0. -1.
        -11    1    3    3    0    0 -0.89283237866E+01  0.40559654089E+01  0.73322688243E+01  0.12244508459E+02  0.51100000000E-03 0.  1.
        -12    1    3    3    0    0  0.41530154234E+01  0.35428742227E+02 -0.12112273870E+02  0.37671613865E+02  0.00000000000E+00 0.  1.
</event>
<event>
 7    1  0.1716782E-015  0.9000772E+02  0.7816164E-02  0.1186339E+00
        -11   -1    0    0    0    0  0.00000000000E+00  0.00000000000E+00  0.45593999997E+02  0.45594000000E+02  0.51100000000E-03 0.  1.
         11   -1    0    0    0    0 -0.00000000000E+00 -0.00000000000E+00 -0.45593999997E+02  0.45594000000E+02  0.51100000000E-03 0. -1.
    9900012    2    1    2    0    0  0.11512878016E+01 -0.25686633688E+00 -0.40090742506E-01  0.90007724107E+02  0.89999985265E+02 0.  0.
        -12    1    1    2    0    0 -0.11512878016E+01  0.25686633688E+00  0.40090742506E-01  0.11802758935E+01  0.00000000000E+00 0.  1.
         11    1    3    3    0    0 -0.91038128665E+01  0.23857650491E+01  0.50304022462E+00  0.94246662173E+01  0.51100000000E-03 0. -1.
        -11    1    3    3    0    0 -0.24737576208E+02 -0.14123507389E+02  0.23223112836E+02  0.36752334724E+02  0.51100000000E-03 0.  1.
         12    1    3    3    0    0  0.34992676876E+02  0.11480876003E+02 -0.23766243803E+02  0.43830723166E+02  0.00000000000E+00 0. -1.
</event>
<event>
 7    1  0.1716782E-015  0.9000758E+02  0.7816164E-02  0.1186339E+00
        -11   -1    0    0    0    0  0.00000000000E+00  0.00000000000E+00  0.45593999997E+02  0.45594000000E+02  0.51100000000E-03 0.  1.
         11   -1    0    0    0    0 -0.00000000000E+00 -0.00000000000E+00 -0.45593999997E+02  0.45594000000E+02  0.51100000000E-03 0. -1.
    9900012    2    1    2    0    0  0.84888204899E+00 -0.70046170724E+00  0.42676967806E+00  0.90007584948E+02  0.89999844269E+02 0.  0.
        -12    1    1    2    0    0 -0.84888204899E+00  0.70046170724E+00 -0.42676967806E+00  0.11804150518E+01  0.00000000000E+00 0.  1.
         11    1    3    3    0    0  0.17932681471E+02 -0.20160173218E+02 -0.49063604700E+01  0.27424186811E+02  0.51100000000E-03 0. -1.
        -11    1    3    3    0    0 -0.25565633846E+02 -0.12598516853E+02 -0.21702349722E+01  0.28583809770E+02  0.51100000000E-03 0.  1.
        -12    1    3    3    0    0  0.84818344238E+01  0.32058228364E+02  0.75033651202E+01  0.33999588368E+02  0.00000000000E+00 0.  1.
</event>
<event>
 7    1  0.1716782E-015  0.9000776E+02  0.7816164E-02  0.1186339E+00
        -11   -1    0    0    0    0  0.00000000000E+00  0.00000000000E+00  0.45593999997E+02  0.45594000000E+02  0.51100000000E-03 0.  1.
         11   -1    0    0    0    0 -0.00000000000E+00 -0.00000000000E+00 -0.45593999997E+02  0.45594000000E+02  0.51100000000E-03 0. -1.
    9900012    2    1    2    0    0 -0.11155237238E+01 -0.38529361433E+00 -0.11456112474E-01  0.90007756131E+02  0.90000017712E+02 0.  0.
        -12    1    1    2    0    0  0.11155237238E+01  0.38529361433E+00  0.11456112474E-01  0.11802438689E+01  0.00000000000E+00 0.  1.
         11    1    3    3    0    0  0.15147978940E+02 -0.61309495303E+01 -0.31609759807E+02  0.35584079634E+02  0.51100000000E-03 0. -1.
        -11    1    3    3    0    0  0.94449731601E+01 -0.17953794881E+01 -0.35325716294E+01  0.10242556716E+02  0.51100000000E-03 0.  1.
        -12    1    3    3    0    0 -0.25708475824E+02  0.75410354041E+01  0.35130875323E+02  0.44181119781E+02  0.00000000000E+00 0.  1.
</event>
<event>
 7    1  0.1716782E-015  0.9000766E+02  0.7816164E-02  0.1186339E+00
        -11   -1    0    0    0    0  0.00000000000E+00  0.00000000000E+00  0.45593999997E+02  0.45594000000E+02  0.51100000000E-03 0.  1.
         11   -1    0    0    0    0 -0.00000000000E+00 -0.00000000000E+00 -0.45593999997E+02  0.45594000000E+02  0.51100000000E-03 0. -1.
    9900012    2    1    2    0    0 -0.90428358786E+00 -0.55302197514E+00 -0.51926712803E+00  0.90007660870E+02  0.89999921193E+02 0.  0.
        -12    1    1    2    0    0  0.90428358786E+00  0.55302197514E+00  0.51926712803E+00  0.11803391303E+01  0.00000000000E+00 0.  1.
         11    1    3    3    0    0 -0.38658342937E+02 -0.94876145984E+01 -0.11651363634E+02  0.41475734884E+02  0.51100000000E-03 0. -1.
        -11    1    3    3    0    0 -0.11984889169E+01  0.66463159857E+01  0.62612104531E+01  0.92093782887E+01  0.51100000000E-03 0.  1.
        -12    1    3    3    0    0  0.38952548266E+02  0.22882766375E+01  0.48708860525E+01  0.39322547697E+02  0.00000000000E+00 0.  1.
</event>
<event>
 7    1  0.1716782E-015  0.9000768E+02  0.7816164E-02  0.1186339E+00
        -11   -1    0    0    0    0  0.00000000000E+00  0.00000000000E+00  0.45593999997E+02  0.45594000000E+02  0.51100000000E-03 0.  1.
         11   -1    0    0    0    0 -0.00000000000E+00 -0.00000000000E+00 -0.45593999997E+02  0.45594000000E+02  0.51100000000E-03 0. -1.
    9900012    2    1    2    0    0 -0.29827031085E+00  0.38921889939E-01 -0.11413439939E+01  0.90007683854E+02  0.89999944481E+02 0.  0.
        -12    1    1    2    0    0  0.29827031085E+00 -0.38921889939E-01  0.11413439939E+01  0.11803161459E+01  0.00000000000E+00 0.  1.
         11    1    3    3    0    0 -0.77818433149E+01  0.39962307225E+01  0.41075404308E+01  0.96643072186E+01  0.51100000000E-03 0. -1.
        -11    1    3    3    0    0  0.10687265294E+01  0.36776032344E+01  0.36865795581E+02  0.37064185220E+02  0.51100000000E-03 0.  1.
         12    1    3    3    0    0  0.64148464746E+01 -0.76349120669E+01 -0.42114680006E+02  0.43279191415E+02  0.00000000000E+00 0. -1.
</event>
<event>
 7    1  0.1716782E-015  0.9000773E+02  0.7816164E-02  0.1186339E+00
        -11   -1    0    0    0    0  0.00000000000E+00  0.00000000000E+00  0.45593999997E+02  0.45594000000E+02  0.51100000000E-03 0.  1.
         11   -1    0    0    0    0 -0.00000000000E+00 -0.00000000000E+00 -0.45593999997E+02  0.45594000000E+02  0.51100000000E-03 0. -1.
    9900012    2    1    2    0    0  0.28281525731E+00  0.67993404685E+00 -0.92235813478E+00  0.90007729138E+02  0.89999990363E+02 0.  0.
        -12    1    1    2    0    0 -0.28281525731E+00 -0.67993404685E+00  0.92235813478E+00  0.11802708616E+01  0.00000000000E+00 0.  1.
         11    1    3    3    0    0 -0.24641367356E+02 -0.19945771187E+02 -0.16956587122E+02  0.35952143476E+02  0.51100000000E-03 0. -1.
        -11    1    3    3    0    0 -0.25410810162E+01 -0.99768452231E+01  0.13078758586E+01  0.10378105456E+02  0.51100000000E-03 0.  1.
        -12    1    3    3    0    0  0.27465263629E+02  0.30602550457E+02  0.14726353129E+02  0.43677480206E+02  0.00000000000E+00 0.  1.
</event>
<event>
 7    1  0.1716782E-015  0.9000772E+02  0.7816164E-02  0.1186339E+00
        -11   -1    0    0    0    0  0.00000000000E+00  0.00000000000E+00  0.45593999997E+02  0.45594000000E+02  0.51100000000E-03 0. -1.
         11   -1    0    0    0    0 -0.00000000000E+00 -0.00000000000E+00 -0.45593999997E+02  0.45594000000E+02  0.51100000000E-03 0.  1.
    9900012    2    1    2    0    0 -0.36478358898E+00 -0.81088157025E+00  0.77618868373E+00  0.90007718313E+02  0.89999979395E+02 0.  0.
        -12    1    1    2    0    0  0.36478358898E+00  0.81088157025E+00 -0.77618868373E+00  0.11802816869E+01  0.00000000000E+00 0.  1.
         11    1    3    3    0    0  0.11988699097E+02 -0.48812517261E+01  0.45308062090E+00  0.12952251031E+02  0.51100000000E-03 0. -1.
        -11    1    3    3    0    0  0.20191962278E+02  0.20464837971E+02 -0.20289818354E+02  0.35188089788E+02  0.51100000000E-03 0.  1.
         12    1    3    3    0    0 -0.32545444964E+02 -0.16394467815E+02  0.20612926417E+02  0.41867377495E+02  0.00000000000E+00 0. -1.
</event>
<event>
 7    1  0.1716782E-015  0.9000773E+02  0.7816164E-02  0.1186339E+00
        -11   -1    0    0    0    0  0.00000000000E+00  0.00000000000E+00  0.45593999997E+02  0.45594000000E+02  0.51100000000E-03 0. -1.
         11   -1    0    0    0    0 -0.00000000000E+00 -0.00000000000E+00 -0.45593999997E+02  0.45594000000E+02  0.51100000000E-03 0.  1.
    9900012    2    1    2    0    0 -0.45992824899E+00  0.10566118399E+01  0.25509464546E+00  0.90007730602E+02  0.89999991846E+02 0.  0.
        -12    1    1    2    0    0  0.45992824899E+00 -0.10566118399E+01 -0.25509464546E+00  0.11802693983E+01  0.00000000000E+00 0.  1.
         11    1    3    3    0    0 -0.54250070477E+01 -0.36521858887E+01 -0.66978594917E+01  0.93611155994E+01  0.51100000000E-03 0. -1.
        -11    1    3    3    0    0 -0.29233897956E+02  0.27247396827E+01 -0.21274916174E+02  0.36258337724E+02  0.51100000000E-03 0.  1.
         12    1    3    3    0    0  0.34198976755E+02  0.19840580459E+01  0.28227870311E+02  0.44388277278E+02  0.00000000000E+00 0. -1.
</event>
<event>
 7    1  0.1716782E-015  0.9000773E+02  0.7816164E-02  0.1186339E+00
        -11   -1    0    0    0    0  0.00000000000E+00  0.00000000000E+00  0.45593999997E+02  0.45594000000E+02  0.51100000000E-03 0.  1.
         11   -1    0    0    0    0 -0.00000000000E+00 -0.00000000000E+00 -0.45593999997E+02  0.45594000000E+02  0.51100000000E-03 0. -1.
    9900012    2    1    2    0    0  0.39858723807E+00 -0.14416551170E+00 -0.11015403657E+01  0.90007726024E+02  0.89999987208E+02 0.  0.
        -12    1    1    2    0    0 -0.39858723807E+00  0.14416551170E+00  0.11015403657E+01  0.11802739760E+01  0.00000000000E+00 0.  1.
         11    1    3    3    0    0 -0.15684832656E+02  0.28870921475E+02 -0.82216458556E+00  0.32866701038E+02  0.51100000000E-03 0. -1.
        -11    1    3    3    0    0  0.18538250043E+02  0.55707320560E+01  0.88531763595E+01  0.21285640752E+02  0.51100000000E-03 0.  1.
        -12    1    3    3    0    0 -0.24548301497E+01 -0.34585819043E+02 -0.91325521396E+01  0.35855384234E+02  0.00000000000E+00 0.  1.
</event>
<event>
 7    1  0.1716782E-015  0.9000776E+02  0.7816164E-02  0.1186339E+00
        -11   -1    0    0    0    0  0.00000000000E+00  0.00000000000E+00  0.45593999997E+02  0.45594000000E+02  0.51100000000E-03 0. -1.
         11   -1    0    0    0    0 -0.00000000000E+00 -0.00000000000E+00 -0.45593999997E+02  0.45594000000E+02  0.51100000000E-03 0.  1.
    9900012    2    1    2    0    0 -0.10267887702E+01  0.55350096340E+00 -0.17975519735E+00  0.90007758319E+02  0.90000019929E+02 0.  0.
        -12    1    1    2    0    0  0.10267887702E+01 -0.55350096340E+00  0.17975519735E+00  0.11802416812E+01  0.00000000000E+00 0.  1.
         11    1    3    3    0    0  0.79452726323E+01 -0.28888724701E+01 -0.80364495476E+01  0.11664367233E+02  0.51100000000E-03 0. -1.
        -11    1    3    3    0    0  0.91873185121E+01  0.15884999689E+02 -0.29641066050E+02  0.34861624079E+02  0.51100000000E-03 0.  1.
         12    1    3    3    0    0 -0.18159379915E+02 -0.12442626256E+02  0.37497760400E+02  0.43481767007E+02  0.00000000000E+00 0. -1.
</event>
<event>
 7    1  0.1716782E-015  0.9000774E+02  0.7816164E-02  0.1186339E+00
        -11   -1    0    0    0    0  0.00000000000E+00  0.00000000000E+00  0.45593999997E+02  0.45594000000E+02  0.51100000000E-03 0. -1.
         11   -1    0    0    0    0 -0.00000000000E+00 -0.00000000000E+00 -0.45593999997E+02  0.45594000000E+02  0.51100000000E-03 0.  1.
    9900012    2    1    2    0    0 -0.15108203717E+00  0.59847918341E+00  0.10059870877E+01  0.90007740225E+02  0.90000001596E+02 0.  0.
        -12    1    1    2    0    0  0.15108203717E+00 -0.59847918341E+00 -0.10059870877E+01  0.11802597746E+01  0.00000000000E+00 0.  1.
         11    1    3    3    0    0  0.47777364794E+01 -0.74557729519E+00 -0.49119429455E+01  0.68927378544E+01  0.51100000000E-03 0. -1.
        -11    1    3    3    0    0  0.32280711094E+02 -0.13715469282E+02  0.20240491865E+02  0.40494887549E+02  0.51100000000E-03 0.  1.
         12    1    3    3    0    0 -0.37209529611E+02  0.15059525761E+02 -0.14322561832E+02  0.42620114822E+02  0.00000000000E+00 0. -1.
</event>
<event>
 7    1  0.1716782E-015  0.9000764E+02  0.7816164E-02  0.1186339E+00
        -11   -1    0    0    0    0  0.00000000000E+00  0.00000000000E+00  0.45593999997E+02  0.45594000000E+02  0.51100000000E-03 0.  1.
         11   -1    0    0    0    0 -0.00000000000E+00 -0.00000000000E+00 -0.45593999997E+02  0.45594000000E+02  0.51100000000E-03 0. -1.
    9900012    2    1    2    0    0 -0.45609257224E+00  0.67626565946E+00 -0.85316253782E+00  0.90007643277E+02  0.89999903369E+02 0.  0.
        -12    1    1    2    0    0  0.45609257224E+00 -0.67626565946E+00  0.85316253782E+00  0.11803567226E+01  0.00000000000E+00 0.  1.
         11    1    3    3    0    0 -0.61677509721E+01 -0.64164898828E+01 -0.82001987143E+00  0.89378368368E+01  0.51100000000E-03 0. -1.
        -11    1    3    3    0    0  0.88993285361E+01 -0.21835061714E+02  0.30722180274E+02  0.38727513856E+02  0.51100000000E-03 0.  1.
         12    1    3    3    0    0 -0.31876701362E+01  0.28927817257E+02 -0.30755322940E+02  0.42342292584E+02  0.00000000000E+00 0. -1.
</event>
<event>
 7    1  0.1716782E-015  0.9000739E+02  0.7816164E-02  0.1186340E+00
        -11   -1    0    0    0    0  0.00000000000E+00  0.00000000000E+00  0.45593999997E+02  0.45594000000E+02  0.51100000000E-03 0.  1.
         11   -1    0    0    0    0 -0.00000000000E+00 -0.00000000000E+00 -0.45593999997E+02  0.45594000000E+02  0.51100000000E-03 0. -1.
    9900012    2    1    2    0    0  0.56468807802E+00 -0.78619153225E+00  0.67591771426E+00  0.90007392314E+02  0.89999649092E+02 0.  0.
        -12    1    1    2    0    0 -0.56468807802E+00  0.78619153225E+00 -0.67591771426E+00  0.11806076856E+01  0.00000000000E+00 0.  1.
         11    1    3    3    0    0 -0.16073241849E+01  0.30343299080E+01 -0.78399470521E+01  0.85589379638E+01  0.51100000000E-03 0. -1.
        -11    1    3    3    0    0  0.24897414161E+02  0.23603764353E+02  0.24753184862E+02  0.42305307996E+02  0.51100000000E-03 0.  1.
         12    1    3    3    0    0 -0.22725401898E+02 -0.27424285793E+02 -0.16237320095E+02  0.39143146355E+02  0.00000000000E+00 0. -1.
</event>
<event>
 7    1  0.1716782E-015  0.9000761E+02  0.7816164E-02  0.1186339E+00
        -11   -1    0    0    0    0  0.00000000000E+00  0.00000000000E+00  0.45593999997E+02  0.45594000000E+02  0.51100000000E-03 0.  1.
         11   -1    0    0    0    0 -0.00000000000E+00 -0.00000000000E+00 -0.45593999997E+02  0.45594000000E+02  0.51100000000E-03 0. -1.
    9900012    2    1    2    0    0  0.86339387584E+00 -0.66903560671E+00  0.44750575743E+00  0.90007610644E+02  0.89999870305E+02 0.  0.
        -12    1    1    2    0    0 -0.86339387584E+00  0.66903560671E+00 -0.44750575743E+00  0.11803893556E+01  0.00000000000E+00 0.  1.
         11    1    3    3    0    0 -0.20795016567E+01  0.27159638013E+01  0.94746222667E+01  0.10073194819E+02  0.51100000000E-03 0. -1.
        -11    1    3    3    0    0 -0.64616282113E+01  0.11412225676E+02  0.32398004385E+02  0.34951712725E+02  0.51100000000E-03 0.  1.
         12    1    3    3    0    0  0.94045237438E+01 -0.14797225084E+02 -0.41425120895E+02  0.44982703100E+02  0.00000000000E+00 0. -1.
</event>
<event>
 7    1  0.1716782E-015  0.9000774E+02  0.7816164E-02  0.1186339E+00
        -11   -1    0    0    0    0  0.00000000000E+00  0.00000000000E+00  0.45593999997E+02  0.45594000000E+02  0.51100000000E-03 0.  1.
         11   -1    0    0    0    0 -0.00000000000E+00 -0.00000000000E+00 -0.45593999997E+02  0.45594000000E+02  0.51100000000E-03 0. -1.
    9900012    2    1    2    0    0 -0.10417810852E+01  0.33330577728E-01 -0.55371720464E+00  0.90007736682E+02  0.89999998006E+02 0.  0.
        -12    1    1    2    0    0  0.10417810852E+01 -0.33330577728E-01  0.55371720464E+00  0.11802633179E+01  0.00000000000E+00 0.  1.
         11    1    3    3    0    0 -0.20365537613E+02 -0.20922080232E+02 -0.29542979807E+02  0.41536444476E+02  0.51100000000E-03 0. -1.
        -11    1    3    3    0    0  0.22405180864E+01  0.15564928155E+02  0.16851734952E+01  0.15815395023E+02  0.51100000000E-03 0.  1.
        -12    1    3    3    0    0  0.17083238441E+02  0.53904826555E+01  0.27304089107E+02  0.32655897184E+02  0.00000000000E+00 0.  1.
</event>
<event>
 7    1  0.1716782E-015  0.9000768E+02  0.7816164E-02  0.1186339E+00
        -11   -1    0    0    0    0  0.00000000000E+00  0.00000000000E+00  0.45593999997E+02  0.45594000000E+02  0.51100000000E-03 0.  1.
         11   -1    0    0    0    0 -0.00000000000E+00 -0.00000000000E+00 -0.45593999997E+02  0.45594000000E+02  0.51100000000E-03 0. -1.
    9900012    2    1    2    0    0  0.35330831000E+00  0.65523650398E+00 -0.91596136659E+00  0.90007683575E+02  0.89999944198E+02 0.  0.
        -12    1    1    2    0    0 -0.35330831000E+00 -0.65523650398E+00  0.91596136659E+00  0.11803164250E+01  0.00000000000E+00 0.  1.
         11    1    3    3    0    0 -0.90043292291E+01  0.23914400594E+02 -0.25592136586E+02  0.36165369567E+02  0.51100000000E-03 0.  1.
        -11    1    3    3    0    0  0.13066956185E+02 -0.14204412321E+02 -0.71219956199E+01  0.20572639481E+02  0.51100000000E-03 0. -1.
        -12    1    3    3    0    0 -0.37093186463E+01 -0.90547517688E+01  0.31798170839E+02  0.33269674527E+02  0.00000000000E+00 0.  1.
</event>
<event>
 7    1  0.1716782E-015  0.9000784E+02  0.7816164E-02  0.1186339E+00
        -11   -1    0    0    0    0  0.00000000000E+00  0.00000000000E+00  0.45593999997E+02  0.45594000000E+02  0.51100000000E-03 0. -1.
         11   -1    0    0    0    0 -0.00000000000E+00 -0.00000000000E+00 -0.45593999997E+02  0.45594000000E+02  0.51100000000E-03 0.  1.
    9900012    2    1    2    0    0  0.58919850660E+00 -0.94107458257E+00  0.39998832464E+00  0.90007844540E+02  0.90000107288E+02 0.  0.
        -12    1    1    2    0    0 -0.58919850660E+00  0.94107458257E+00 -0.39998832464E+00  0.11801554601E+01  0.00000000000E+00 0.  1.
         11    1    3    3    0    0  0.18459159920E+02  0.80120869291E+01  0.29133406875E+02  0.35407478283E+02  0.51100000000E-03 0. -1.
        -11    1    3    3    0    0 -0.22930147219E+01  0.55525706102E+01  0.92675516554E+01  0.11044295851E+02  0.51100000000E-03 0.  1.
        -12    1    3    3    0    0 -0.15576946692E+02 -0.14505732122E+02 -0.38000970206E+02  0.43556070406E+02  0.00000000000E+00 0.  1.
</event>
<event>
 7    1  0.1716782E-015  0.9000771E+02  0.7816164E-02  0.1186339E+00
        -11   -1    0    0    0    0  0.00000000000E+00  0.00000000000E+00  0.45593999997E+02  0.45594000000E+02  0.51100000000E-03 0. -1.
         11   -1    0    0    0    0 -0.00000000000E+00 -0.00000000000E+00 -0.45593999997E+02  0.45594000000E+02  0.51100000000E-03 0.  1.
    9900012    2    1    2    0    0  0.59924583845E+00  0.11877067535E+00  0.10098939132E+01  0.90007708610E+02  0.89999969564E+02 0.  0.
        -12    1    1    2    0    0 -0.59924583845E+00 -0.11877067535E+00 -0.10098939132E+01  0.11802913895E+01  0.00000000000E+00 0.  1.
         11    1    3    3    0    0  0.72820406645E+01  0.35289065522E+02  0.14916462700E+02  0.38998039968E+02  0.51100000000E-03 0. -1.
        -11    1    3    3    0    0 -0.40740217783E+01  0.44615671863E+01 -0.92106273772E+01  0.11015393418E+02  0.51100000000E-03 0.  1.
        -12    1    3    3    0    0 -0.26087730478E+01 -0.39631862033E+02 -0.46959414091E+01  0.39994275224E+02  0.00000000000E+00 0.  1.
</event>
<event>
 7    1  0.1716782E-015  0.9000779E+02  0.7816164E-02  0.1186339E+00
        -11   -1    0    0    0    0  0.00000000000E+00  0.00000000000E+00  0.45593999997E+02  0.45594000000E+02  0.51100000000E-03 0. -1.
         11   -1    0    0    0    0 -0.00000000000E+00 -0.00000000000E+00 -0.45593999997E+02  0.45594000000E+02  0.51100000000E-03 0.  1.
    9900012    2    1    2    0    0  0.51339970926E+00  0.10413123576E+01 -0.21209981316E+00  0.90007789418E+02  0.90000051438E+02 0.  0.
        -12    1    1    2    0    0 -0.51339970926E+00 -0.10413123576E+01  0.21209981316E+00  0.11802105821E+01  0.00000000000E+00 0.  1.
         11    1    3    3    0    0 -0.11160621801E+01 -0.27547648771E+02  0.25047304256E+02  0.37248973118E+02  0.51100000000E-03 0. -1.
        -11    1    3    3    0    0 -0.69585964548E+01 -0.31817845344E+00  0.60952048864E+01  0.92560696311E+01  0.51100000000E-03 0.  1.
        -12    1    3    3    0    0  0.85880583441E+01  0.28907139582E+02 -0.31354608956E+02  0.43502746668E+02  0.00000000000E+00 0.  1.
</event>
<event>
 7    1  0.1716782E-015  0.9000780E+02  0.7816164E-02  0.1186339E+00
        -11   -1    0    0    0    0  0.00000000000E+00  0.00000000000E+00  0.45593999997E+02  0.45594000000E+02  0.51100000000E-03 0.  1.
         11   -1    0    0    0    0 -0.00000000000E+00 -0.00000000000E+00 -0.45593999997E+02  0.45594000000E+02  0.51100000000E-03 0. -1.
    9900012    2    1    2    0    0  0.22937423285E+00 -0.28724739378E+00 -0.11214906133E+01  0.90007803067E+02  0.90000065268E+02 0.  0.
        -12    1    1    2    0    0 -0.22937423285E+00  0.28724739378E+00  0.11214906133E+01  0.11801969326E+01  0.00000000000E+00 0.  1.
         11    1    3    3    0    0 -0.12682522297E+02  0.32612938809E+02 -0.15507900295E+02  0.38274601518E+02  0.51100000000E-03 0. -1.
        -11    1    3    3    0    0  0.43794184373E+01  0.66092081034E+01  0.71378455222E+01  0.10668166504E+02  0.51100000000E-03 0.  1.
        -12    1    3    3    0    0  0.85324780923E+01 -0.39509394306E+02  0.72485641595E+01  0.41065035045E+02  0.00000000000E+00 0.  1.
</event>
<event>
 7    1  0.1716782E-015  0.9000775E+02  0.7816164E-02  0.1186339E+00
        -11   -1    0    0    0    0  0.00000000000E+00  0.00000000000E+00  0.45593999997E+02  0.45594000000E+02  0.51100000000E-03 0. -1.
         11   -1    0    0    0    0 -0.00000000000E+00 -0.00000000000E+00 -0.45593999997E+02  0.45594000000E+02  0.51100000000E-03 0.  1.
    9900012    2    1    2    0    0 -0.69772489494E+00 -0.93018650045E+00  0.20232164078E+00  0.90007745366E+02  0.90000006805E+02 0.  0.
        -12    1    1    2    0    0  0.69772489494E+00  0.93018650045E+00 -0.20232164078E+00  0.11802546340E+01  0.00000000000E+00 0.  1.
         11    1    3    3    0    0  0.27028976540E+02  0.22663551369E+02 -0.28492579391E+01  0.35388139320E+02  0.51100000000E-03 0. -1.
        -11    1    3    3    0    0  0.80923383549E+01  0.41964822262E+01  0.16410017122E+01  0.92622508067E+01  0.51100000000E-03 0.  1.
        -12    1    3    3    0    0 -0.35819039790E+02 -0.27790220096E+02  0.14105778677E+01  0.45357355240E+02  0.00000000000E+00 0.  1.
</event>
<event>
 7    1  0.1716782E-015  0.9000790E+02  0.7816164E-02  0.1186339E+00
        -11   -1    0    0    0    0  0.00000000000E+00  0.00000000000E+00  0.45593999997E+02  0.45594000000E+02  0.51100000000E-03 0. -1.
         11   -1    0    0    0    0 -0.00000000000E+00 -0.00000000000E+00 -0.45593999997E+02  0.45594000000E+02  0.51100000000E-03 0.  1.
    9900012    2    1    2    0    0 -0.54636664408E+00  0.87379954956E+00  0.57497413185E+00  0.90007899405E+02  0.90000162877E+02 0.  0.
        -12    1    1    2    0    0  0.54636664408E+00 -0.87379954956E+00 -0.57497413185E+00  0.11801005952E+01  0.00000000000E+00 0.  1.
         11    1    3    3    0    0 -0.38559395844E+01 -0.10297087956E+02 -0.33544362993E+01  0.11495674560E+02  0.51100000000E-03 0. -1.
        -11    1    3    3    0    0 -0.71052855514E+01 -0.24153327847E+02 -0.22030516133E+02  0.33454625543E+02  0.51100000000E-03 0.  1.
         12    1    3    3    0    0  0.10414858492E+02  0.35324215352E+02  0.25959926564E+02  0.45057599302E+02  0.00000000000E+00 0. -1.
</event>
<event>
 7    1  0.1716782E-015  0.9000778E+02  0.7816164E-02  0.1186339E+00
        -11   -1    0    0    0    0  0.00000000000E+00  0.00000000000E+00  0.45593999997E+02  0.45594000000E+02  0.51100000000E-03 0. -1.
         11   -1    0    0    0    0 -0.00000000000E+00 -0.00000000000E+00 -0.45593999997E+02  0.45594000000E+02  0.51100000000E-03 0.  1.
    9900012    2    1    2    0    0 -0.68283701132E+00 -0.95742540495E+00 -0.10000162870E+00  0.90007775396E+02  0.90000037231E+02 0.  0.
        -12    1    1    2    0    0  0.68283701132E+00  0.95742540495E+00  0.10000162870E+00  0.11802246040E+01  0.00000000000E+00 0.  1.
         11    1    3    3    0    0  0.84835405579E+01 -0.22007733556E+02  0.26434748946E+02  0.35427485781E+02  0.51100000000E-03 0. -1.
        -11    1    3    3    0    0  0.34578290344E+01 -0.46024656788E+01  0.79306522623E+01  0.97997202778E+01  0.51100000000E-03 0.  1.
        -12    1    3    3    0    0 -0.12624206604E+02  0.25652773830E+02 -0.34465402837E+02  0.44780569338E+02  0.00000000000E+00 0.  1.
</event>
<event>
 7    1  0.1716782E-015  0.9000771E+02  0.7816164E-02  0.1186339E+00
        -11   -1    0    0    0    0  0.00000000000E+00  0.00000000000E+00  0.45593999997E+02  0.45594000000E+02  0.51100000000E-03 0. -1.
         11   -1    0    0    0    0 -0.00000000000E+00 -0.00000000000E+00 -0.45593999997E+02  0.45594000000E+02  0.51100000000E-03 0.  1.
    9900012    2    1    2    0    0 -0.86996037002E+00 -0.32614528409E+00  0.72793768580E+00  0.90007705517E+02  0.89999966430E+02 0.  0.
        -12    1    1    2    0    0  0.86996037002E+00  0.32614528409E+00 -0.72793768580E+00  0.11802944828E+01  0.00000000000E+00 0.  1.
         11    1    3    3    0    0 -0.34664882443E+02 -0.87602198407E+01  0.33819593306E+01  0.35914247530E+02  0.51100000000E-03 0. -1.
        -11    1    3    3    0    0 -0.83650985541E+01  0.27580884714E+01  0.60317787877E+01  0.10675405446E+02  0.51100000000E-03 0.  1.
        -12    1    3    3    0    0  0.42160020627E+02  0.56759860852E+01 -0.86858004325E+01  0.43418052541E+02  0.00000000000E+00 0.  1.
</event>
<event>
 7    1  0.1716782E-015  0.9000785E+02  0.7816164E-02  0.1186339E+00
        -11   -1    0    0    0    0  0.00000000000E+00  0.00000000000E+00  0.45593999997E+02  0.45594000000E+02  0.51100000000E-03 0.  1.
         11   -1    0    0    0    0 -0.00000000000E+00 -0.00000000000E+00 -0.45593999997E+02  0.45594000000E+02  0.51100000000E-03 0. -1.
    9900012    2    1    2    0    0  0.17353119765E+00  0.84733112626E+00 -0.80291396447E+00  0.90007850031E+02  0.90000112852E+02 0.  0.
        -12    1    1    2    0    0 -0.17353119765E+00 -0.84733112626E+00  0.80291396447E+00  0.11801499686E+01  0.00000000000E+00 0.  1.
         11    1    3    3    0    0 -0.19001159427E+02 -0.17422195770E+02 -0.27570100984E+02  0.37745031906E+02  0.51100000000E-03 0. -1.
        -11    1    3    3    0    0  0.53108223249E+01 -0.31608846951E+01 -0.73829627717E+01  0.96283002327E+01  0.51100000000E-03 0.  1.
        -12    1    3    3    0    0  0.13863868300E+02  0.21430411592E+02  0.34150149791E+02  0.42634517893E+02  0.00000000000E+00 0.  1.
</event>
<event>
 7    1  0.1716782E-015  0.9000773E+02  0.7816164E-02  0.1186339E+00
        -11   -1    0    0    0    0  0.00000000000E+00  0.00000000000E+00  0.45593999997E+02  0.45594000000E+02  0.51100000000E-03 0.  1.
         11   -1    0    0    0    0 -0.00000000000E+00 -0.00000000000E+00 -0.45593999997E+02  0.45594000000E+02  0.51100000000E-03 0. -1.
    9900012    2    1    2    0    0  0.85415737636E+00 -0.78064841061E+00 -0.23247430874E+00  0.90007728392E+02  0.89999989607E+02 0.  0.
        -12    1    1    2    0    0 -0.85415737636E+00  0.78064841061E+00  0.23247430874E+00  0.11802716081E+01  0.00000000000E+00 0.  1.
         11    1    3    3    0    0 -0.27386879818E+01 -0.53206627590E+00  0.85202713194E+01  0.89654074085E+01  0.51100000000E-03 0. -1.
        -11    1    3    3    0    0 -0.25149214091E+01  0.13251087104E+02  0.33582090217E+02  0.36189403459E+02  0.51100000000E-03 0.  1.
         12    1    3    3    0    0  0.61077667673E+01 -0.13499669239E+02 -0.42334835845E+02  0.44852917524E+02  0.00000000000E+00 0. -1.
</event>
<event>
 7    1  0.1716782E-015  0.9000779E+02  0.7816164E-02  0.1186339E+00
        -11   -1    0    0    0    0  0.00000000000E+00  0.00000000000E+00  0.45593999997E+02  0.45594000000E+02  0.51100000000E-03 0.  1.
         11   -1    0    0    0    0 -0.00000000000E+00 -0.00000000000E+00 -0.45593999997E+02  0.45594000000E+02  0.51100000000E-03 0. -1.
    9900012    2    1    2    0    0  0.26018013380E+00  0.61108437640E-01 -0.11495544770E+01  0.90007786698E+02  0.90000048682E+02 0.  0.
        -12    1    1    2    0    0 -0.26018013380E+00 -0.61108437640E-01  0.11495544770E+01  0.11802133022E+01  0.00000000000E+00 0.  1.
         11    1    3    3    0    0 -0.66124796501E+01 -0.57894220350E+01 -0.37238636129E+01  0.95451272957E+01  0.51100000000E-03 0. -1.
        -11    1    3    3    0    0 -0.25778484749E+02 -0.67429606799E+01  0.26884402847E+02  0.37851934051E+02  0.51100000000E-03 0.  1.
         12    1    3    3    0    0  0.32651144533E+02  0.12593491153E+02 -0.24310093711E+02  0.42610725351E+02  0.00000000000E+00 0. -1.
</event>
<event>
 7    1  0.1716782E-015  0.9000770E+02  0.7816164E-02  0.1186339E+00
        -11   -1    0    0    0    0  0.00000000000E+00  0.00000000000E+00  0.45593999997E+02  0.45594000000E+02  0.51100000000E-03 0. -1.
         11   -1    0    0    0    0 -0.00000000000E+00 -0.00000000000E+00 -0.45593999997E+02  0.45594000000E+02  0.51100000000E-03 0.  1.
    9900012    2    1    2    0    0 -0.61362823148E+00 -0.86666752643E+00  0.51522400349E+00  0.90007700046E+02  0.89999960887E+02 0.  0.
        -12    1    1    2    0    0  0.61362823148E+00  0.86666752643E+00 -0.51522400349E+00  0.11802999541E+01  0.00000000000E+00 0.  1.
         11    1    3    3    0    0  0.40719944491E+02 -0.69057244163E+01  0.11108786379E+02  0.42769241800E+02  0.51100000000E-03 0. -1.
        -11    1    3    3    0    0 -0.11325695990E+02  0.96176675743E+01  0.94903855278E+00  0.14888639752E+02  0.51100000000E-03 0.  1.
        -12    1    3    3    0    0 -0.30007876732E+02 -0.35786106844E+01 -0.11542600928E+02  0.32349818494E+02  0.00000000000E+00 0.  1.
</event>
<event>
 7    1  0.1716782E-015  0.9000780E+02  0.7816164E-02  0.1186339E+00
        -11   -1    0    0    0    0  0.00000000000E+00  0.00000000000E+00  0.45593999997E+02  0.45594000000E+02  0.51100000000E-03 0.  1.
         11   -1    0    0    0    0 -0.00000000000E+00 -0.00000000000E+00 -0.45593999997E+02  0.45594000000E+02  0.51100000000E-03 0. -1.
    9900012    2    1    2    0    0 -0.95081924088E+00 -0.81928075402E-01  0.69434273748E+00  0.90007796087E+02  0.90000058196E+02 0.  0.
        -12    1    1    2    0    0  0.95081924088E+00  0.81928075402E-01 -0.69434273748E+00  0.11802039127E+01  0.00000000000E+00 0.  1.
         11    1    3    3    0    0  0.58060358565E+01  0.42880284865E+01 -0.61083846361E+01  0.94556651692E+01  0.51100000000E-03 0. -1.
        -11    1    3    3    0    0 -0.16569972593E+02 -0.12416933219E+02  0.39983693621E+02  0.45027102707E+02  0.51100000000E-03 0.  1.
         12    1    3    3    0    0  0.98131174954E+01  0.80469766568E+01 -0.33180966248E+02  0.35525028212E+02  0.00000000000E+00 0. -1.
</event>
<event>
 7    1  0.1716782E-015  0.9000780E+02  0.7816164E-02  0.1186339E+00
        -11   -1    0    0    0    0  0.00000000000E+00  0.00000000000E+00  0.45593999997E+02  0.45594000000E+02  0.51100000000E-03 0. -1.
         11   -1    0    0    0    0 -0.00000000000E+00 -0.00000000000E+00 -0.45593999997E+02  0.45594000000E+02  0.51100000000E-03 0.  1.
    9900012    2    1    2    0    0  0.57672335986E+00  0.99619954394E+00  0.26046675043E+00  0.90007802435E+02  0.90000064627E+02 0.  0.
        -12    1    1    2    0    0 -0.57672335986E+00 -0.99619954394E+00 -0.26046675043E+00  0.11801975653E+01  0.00000000000E+00 0.  1.
         11    1    3    3    0    0 -0.29167865267E+02  0.16479545618E+02  0.14650815381E+02  0.36564821613E+02  0.51100000000E-03 0. -1.
        -11    1    3    3    0    0 -0.18926685523E+01  0.87480112217E+01  0.36916986192E+01  0.96818662220E+01  0.51100000000E-03 0.  1.
        -12    1    3    3    0    0  0.31637257180E+02 -0.24231357296E+02 -0.18082047250E+02  0.43761114599E+02  0.00000000000E+00 0.  1.
</event>
<event>
 7    1  0.1716782E-015  0.9000716E+02  0.7816164E-02  0.1186340E+00
        -11   -1    0    0    0    0  0.00000000000E+00  0.00000000000E+00  0.45593999997E+02  0.45594000000E+02  0.51100000000E-03 0.  1.
         11   -1    0    0    0    0 -0.00000000000E+00 -0.00000000000E+00 -0.45593999997E+02  0.45594000000E+02  0.51100000000E-03 0. -1.
    9900012    2    1    2    0    0 -0.23016934842E+00  0.98679664009E+00 -0.60633011403E+00  0.90007160576E+02  0.89999414294E+02 0.  0.
        -12    1    1    2    0    0  0.23016934842E+00 -0.98679664009E+00  0.60633011403E+00  0.11808394239E+01  0.00000000000E+00 0.  1.
         11    1    3    3    0    0 -0.37029985620E+02 -0.62375036158E-01 -0.13730455050E+02  0.39493659260E+02  0.51100000000E-03 0. -1.
        -11    1    3    3    0    0 -0.27253924124E+01  0.81624837196E+01  0.27653457056E+01  0.90388628382E+01  0.51100000000E-03 0.  1.
        -12    1    3    3    0    0  0.39525208684E+02 -0.71133120434E+01  0.10358779230E+02  0.41474638478E+02  0.00000000000E+00 0.  1.
</event>
<event>
 7    1  0.1716782E-015  0.9000790E+02  0.7816164E-02  0.1186339E+00
        -11   -1    0    0    0    0  0.00000000000E+00  0.00000000000E+00  0.45593999997E+02  0.45594000000E+02  0.51100000000E-03 0. -1.
         11   -1    0    0    0    0 -0.00000000000E+00 -0.00000000000E+00 -0.45593999997E+02  0.45594000000E+02  0.51100000000E-03 0.  1.
    9900012    2    1    2    0    0 -0.11743599086E+01  0.56120257031E-01 -0.10183960538E+00  0.90007897469E+02  0.90000160916E+02 0.  0.
        -12    1    1    2    0    0  0.11743599086E+01 -0.56120257031E-01  0.10183960538E+00  0.11801025308E+01  0.00000000000E+00 0.  1.
         11    1    3    3    0    0 -0.16233090383E+02  0.15484038471E+02  0.32963729994E+02  0.39873251261E+02  0.51100000000E-03 0. -1.
        -11    1    3    3    0    0 -0.19236139202E+01 -0.10736496809E+02  0.18145738634E+01  0.11057365546E+02  0.51100000000E-03 0.  1.
        -12    1    3    3    0    0  0.16982344395E+02 -0.46914214050E+01 -0.34880143463E+02  0.39077280662E+02  0.00000000000E+00 0.  1.
</event>
<event>
 7    1  0.1716782E-015  0.9000766E+02  0.7816164E-02  0.1186339E+00
        -11   -1    0    0    0    0  0.00000000000E+00  0.00000000000E+00  0.45593999997E+02  0.45594000000E+02  0.51100000000E-03 0.  1.
         11   -1    0    0    0    0 -0.00000000000E+00 -0.00000000000E+00 -0.45593999997E+02  0.45594000000E+02  0.51100000000E-03 0. -1.
    9900012    2    1    2    0    0  0.90036226790E+00  0.25174058168E+00 -0.72054194061E+00  0.90007658430E+02  0.89999918721E+02 0.  0.
        -12    1    1    2    0    0 -0.90036226790E+00 -0.25174058168E+00  0.72054194061E+00  0.11803415701E+01  0.00000000000E+00 0.  1.
         11    1    3    3    0    0 -0.13192431290E+02 -0.14440305405E+02 -0.17946110887E+01  0.19641366876E+02  0.51100000000E-03 0. -1.
        -11    1    3    3    0    0  0.41096809295E+02  0.40527848276E+01 -0.50211720546E+00  0.41299212111E+02  0.51100000000E-03 0.  1.
         12    1    3    3    0    0 -0.27004015737E+02  0.10639261159E+02  0.15761863536E+01  0.29067079443E+02  0.00000000000E+00 0. -1.
</event>
<event>
 7    1  0.1716782E-015  0.9000770E+02  0.7816164E-02  0.1186339E+00
        -11   -1    0    0    0    0  0.00000000000E+00  0.00000000000E+00  0.45593999997E+02  0.45594000000E+02  0.51100000000E-03 0. -1.
         11   -1    0    0    0    0 -0.00000000000E+00 -0.00000000000E+00 -0.45593999997E+02  0.45594000000E+02  0.51100000000E-03 0.  1.
    9900012    2    1    2    0    0  0.73865091629E+00 -0.70101611194E+00  0.59673010055E+00  0.90007696828E+02  0.89999957626E+02 0.  0.
        -12    1    1    2    0    0 -0.73865091629E+00  0.70101611194E+00 -0.59673010055E+00  0.11803031722E+01  0.00000000000E+00 0.  1.
         11    1    3    3    0    0 -0.72924563041E+01  0.72335321578E+01  0.15630183448E+01  0.10389751346E+02  0.51100000000E-03 0. -1.
        -11    1    3    3    0    0 -0.15199476109E+02  0.30452878677E+02 -0.56640640570E+01  0.34503384118E+02  0.51100000000E-03 0.  1.
         12    1    3    3    0    0  0.23230583330E+02 -0.38387426947E+02  0.46977758127E+01  0.45114561363E+02  0.00000000000E+00 0. -1.
</event>
<event>
 7    1  0.1716782E-015  0.9000773E+02  0.7816164E-02  0.1186339E+00
        -11   -1    0    0    0    0  0.00000000000E+00  0.00000000000E+00  0.45593999997E+02  0.45594000000E+02  0.51100000000E-03 0. -1.
         11   -1    0    0    0    0 -0.00000000000E+00 -0.00000000000E+00 -0.45593999997E+02  0.45594000000E+02  0.51100000000E-03 0.  1.
    9900012    2    1    2    0    0  0.70166800608E+00 -0.67680883173E+00  0.66531137678E+00  0.90007725704E+02  0.89999986883E+02 0.  0.
        -12    1    1    2    0    0 -0.70166800608E+00  0.67680883173E+00 -0.66531137678E+00  0.11802742959E+01  0.00000000000E+00 0.  1.
         11    1    3    3    0    0 -0.51021080101E+01  0.24766314453E+02  0.25370367771E+02  0.35819790603E+02  0.51100000000E-03 0. -1.
        -11    1    3    3    0    0  0.79637539624E+01  0.58643789099E+01  0.49070882870E+01  0.11040463436E+02  0.51100000000E-03 0.  1.
        -12    1    3    3    0    0 -0.21599779462E+01 -0.31307502195E+02 -0.29612144682E+02  0.43147471665E+02  0.00000000000E+00 0.  1.
</event>
<event>
 7    1  0.1716782E-015  0.9000785E+02  0.7816164E-02  0.1186339E+00
        -11   -1    0    0    0    0  0.00000000000E+00  0.00000000000E+00  0.45593999997E+02  0.45594000000E+02  0.51100000000E-03 0.  1.
         11   -1    0    0    0    0 -0.00000000000E+00 -0.00000000000E+00 -0.45593999997E+02  0.45594000000E+02  0.51100000000E-03 0. -1.
    9900012    2    1    2    0    0 -0.90865132422E+00  0.18235563139E+00 -0.73065603751E+00  0.90007847870E+02  0.90000110662E+02 0.  0.
        -12    1    1    2    0    0  0.90865132422E+00 -0.18235563139E+00  0.73065603751E+00  0.11801521302E+01  0.00000000000E+00 0.  1.
         11    1    3    3    0    0  0.47536037439E+01 -0.43262717983E+01 -0.36595119752E+02  0.37155297955E+02  0.51100000000E-03 0. -1.
        -11    1    3    3    0    0 -0.24619011456E+01  0.70952188431E+01 -0.67151642759E+01  0.10074548089E+02  0.51100000000E-03 0.  1.
        -12    1    3    3    0    0 -0.32003539225E+01 -0.25865914134E+01  0.42579627990E+02  0.42778001825E+02  0.00000000000E+00 0.  1.
</event>
<event>
 7    1  0.1716782E-015  0.9000743E+02  0.7816164E-02  0.1186340E+00
        -11   -1    0    0    0    0  0.00000000000E+00  0.00000000000E+00  0.45593999997E+02  0.45594000000E+02  0.51100000000E-03 0.  1.
         11   -1    0    0    0    0 -0.00000000000E+00 -0.00000000000E+00 -0.45593999997E+02  0.45594000000E+02  0.51100000000E-03 0. -1.
    9900012    2    1    2    0    0 -0.37298817155E+00  0.22325314299E+00  0.10976250389E+01  0.90007431125E+02  0.89999688416E+02 0.  0.
        -12    1    1    2    0    0  0.37298817155E+00 -0.22325314299E+00 -0.10976250389E+01  0.11805688747E+01  0.00000000000E+00 0.  1.
         11    1    3    3    0    0 -0.21477862859E+01 -0.41706490158E+01  0.55382344988E+01  0.72580535109E+01  0.51100000000E-03 0. -1.
        -11    1    3    3    0    0  0.25990303834E+02 -0.20402326941E+02  0.21532313521E+02  0.39438450322E+02  0.51100000000E-03 0.  1.
         12    1    3    3    0    0 -0.24215505719E+02  0.24796229100E+02 -0.25972922981E+02  0.43310927293E+02  0.00000000000E+00 0. -1.
</event>
<event>
 7    1  0.1716782E-015  0.9000774E+02  0.7816164E-02  0.1186339E+00
        -11   -1    0    0    0    0  0.00000000000E+00  0.00000000000E+00  0.45593999997E+02  0.45594000000E+02  0.51100000000E-03 0. -1.
         11   -1    0    0    0    0 -0.00000000000E+00 -0.00000000000E+00 -0.45593999997E+02  0.45594000000E+02  0.51100000000E-03 0.  1.
    9900012    2    1    2    0    0 -0.93734032754E+00 -0.66630663434E+00 -0.26542761059E+00  0.90007735946E+02  0.89999997261E+02 0.  0.
        -12    1    1    2    0    0  0.93734032754E+00  0.66630663434E+00  0.26542761059E+00  0.11802640540E+01  0.00000000000E+00 0.  1.
         11    1    3    3    0    0  0.30209496043E+02  0.18370547889E+02  0.16440435587E+02  0.38992032564E+02  0.51100000000E-03 0. -1.
        -11    1    3    3    0    0 -0.14241884500E+01  0.78909927689E+01 -0.17209994412E+01  0.82010925466E+01  0.51100000000E-03 0.  1.
        -12    1    3    3    0    0 -0.29722647920E+02 -0.26927847293E+02 -0.14984863756E+02  0.42814610836E+02  0.00000000000E+00 0.  1.
</event>
<event>
 7    1  0.1716782E-015  0.9000773E+02  0.7816164E-02  0.1186339E+00
        -11   -1    0    0    0    0  0.00000000000E+00  0.00000000000E+00  0.45593999997E+02  0.45594000000E+02  0.51100000000E-03 0.  1.
         11   -1    0    0    0    0 -0.00000000000E+00 -0.00000000000E+00 -0.45593999997E+02  0.45594000000E+02  0.51100000000E-03 0. -1.
    9900012    2    1    2    0    0 -0.10276541795E+01  0.34908269143E+00 -0.46378839637E+00  0.90007732439E+02  0.89999993708E+02 0.  0.
        -12    1    1    2    0    0  0.10276541795E+01 -0.34908269143E+00  0.46378839637E+00  0.11802675606E+01  0.00000000000E+00 0.  1.
         11    1    3    3    0    0  0.84750381804E-01  0.88740625816E+01  0.31593341080E+01  0.94200616557E+01  0.51100000000E-03 0. -1.
        -11    1    3    3    0    0 -0.19698441073E+02  0.29001131877E+02  0.10160270313E+02  0.36501031820E+02  0.51100000000E-03 0.  1.
         12    1    3    3    0    0  0.18586036512E+02 -0.37526111767E+02 -0.13783392817E+02  0.44086638964E+02  0.00000000000E+00 0. -1.
</event>
<event>
 7    1  0.1716782E-015  0.9000768E+02  0.7816164E-02  0.1186339E+00
        -11   -1    0    0    0    0  0.00000000000E+00  0.00000000000E+00  0.45593999997E+02  0.45594000000E+02  0.51100000000E-03 0. -1.
         11   -1    0    0    0    0 -0.00000000000E+00 -0.00000000000E+00 -0.45593999997E+02  0.45594000000E+02  0.51100000000E-03 0.  1.
    9900012    2    1    2    0    0  0.75847342160E+00  0.32827883181E+00  0.84268013934E+00  0.90007678544E+02  0.89999939101E+02 0.  0.
        -12    1    1    2    0    0 -0.75847342160E+00 -0.32827883181E+00 -0.84268013934E+00  0.11803214562E+01  0.00000000000E+00 0.  1.
         11    1    3    3    0    0  0.10135595475E+02 -0.41474598488E+01 -0.56552379642E+01  0.12325316852E+02  0.51100000000E-03 0. -1.
        -11    1    3    3    0    0 -0.11231955158E+02 -0.28658458546E+02 -0.18698218005E+02  0.36015099885E+02  0.51100000000E-03 0.  1.
         12    1    3    3    0    0  0.18548331055E+01  0.33134197226E+02  0.25196136108E+02  0.41667261807E+02  0.00000000000E+00 0. -1.
</event>
<event>
 7    1  0.1716782E-015  0.9000761E+02  0.7816164E-02  0.1186339E+00
        -11   -1    0    0    0    0  0.00000000000E+00  0.00000000000E+00  0.45593999997E+02  0.45594000000E+02  0.51100000000E-03 0. -1.
         11   -1    0    0    0    0 -0.00000000000E+00 -0.00000000000E+00 -0.45593999997E+02  0.45594000000E+02  0.51100000000E-03 0.  1.
    9900012    2    1    2    0    0  0.41665144282E+00  0.93969420298E+00  0.58024654469E+00  0.90007614608E+02  0.89999874321E+02 0.  0.
        -12    1    1    2    0    0 -0.41665144282E+00 -0.93969420298E+00 -0.58024654469E+00  0.11803853915E+01  0.00000000000E+00 0.  1.
         11    1    3    3    0    0  0.10216708610E+02  0.41287474542E+02 -0.33153732561E+01  0.42661790737E+02  0.51100000000E-03 0. -1.
        -11    1    3    3    0    0 -0.10871932482E+02 -0.52559301319E+01  0.11515977772E+01  0.12130535650E+02  0.51100000000E-03 0.  1.
        -12    1    3    3    0    0  0.10718753153E+01 -0.35091850207E+02  0.27440220236E+01  0.35215288221E+02  0.00000000000E+00 0.  1.
</event>
<event>
 7    1  0.1716782E-015  0.9000791E+02  0.7816164E-02  0.1186339E+00
        -11   -1    0    0    0    0  0.00000000000E+00  0.00000000000E+00  0.45593999997E+02  0.45594000000E+02  0.51100000000E-03 0.  1.
         11   -1    0    0    0    0 -0.00000000000E+00 -0.00000000000E+00 -0.45593999997E+02  0.45594000000E+02  0.51100000000E-03 0. -1.
    9900012    2    1    2    0    0 -0.48614570796E+00 -0.10718026471E+01  0.86641048669E-01  0.90007913039E+02  0.90000176691E+02 0.  0.
        -12    1    1    2    0    0  0.48614570796E+00  0.10718026471E+01 -0.86641048669E-01  0.11800869608E+01  0.00000000000E+00 0.  1.
         11    1    3    3    0    0 -0.66095027030E+01 -0.90059558936E+01  0.11279764393E+02  0.15875322125E+02  0.51100000000E-03 0. -1.
        -11    1    3    3    0    0 -0.11562777591E+00  0.48012538767E+01  0.30997958592E+02  0.31367799504E+02  0.51100000000E-03 0.  1.
         12    1    3    3    0    0  0.62389847709E+01  0.31328993697E+01 -0.42191081936E+02  0.42764791411E+02  0.00000000000E+00 0. -1.
</event>
<event>
 7    1  0.1716782E-015  0.9000773E+02  0.7816164E-02  0.1186339E+00
        -11   -1    0    0    0    0  0.00000000000E+00  0.00000000000E+00  0.45593999997E+02  0.45594000000E+02  0.51100000000E-03 0.  1.
         11   -1    0    0    0    0 -0.00000000000E+00 -0.00000000000E+00 -0.45593999997E+02  0.45594000000E+02  0.51100000000E-03 0. -1.
    9900012    2    1    2    0    0  0.87160527577E+00  0.66202007663E+00 -0.44166498063E+00  0.90007731262E+02  0.89999992515E+02 0.  0.
        -12    1    1    2    0    0 -0.87160527577E+00 -0.66202007663E+00  0.44166498063E+00  0.11802687379E+01  0.00000000000E+00 0.  1.
         11    1    3    3    0    0 -0.76435004704E+01  0.72008102769E+01 -0.12726339206E+01  0.10578013303E+02  0.51100000000E-03 0. -1.
        -11    1    3    3    0    0 -0.25545877076E+02  0.22508871093E+02 -0.45182423960E+01  0.34346115182E+02  0.51100000000E-03 0.  1.
         12    1    3    3    0    0  0.34060982823E+02 -0.29047661293E+02  0.53492113360E+01  0.45083602777E+02  0.00000000000E+00 0. -1.
</event>
<event>
 7    1  0.1716782E-015  0.9000766E+02  0.7816164E-02  0.1186339E+00
        -11   -1    0    0    0    0  0.00000000000E+00  0.00000000000E+00  0.45593999997E+02  0.45594000000E+02  0.51100000000E-03 0.  1.
         11   -1    0    0    0    0 -0.00000000000E+00 -0.00000000000E+00 -0.45593999997E+02  0.45594000000E+02  0.51100000000E-03 0. -1.
    9900012    2    1    2    0    0 -0.31748443960E+00 -0.11030983080E+01 -0.27490510670E+00  0.90007663157E+02  0.89999923510E+02 0.  0.
        -12    1    1    2    0    0  0.31748443960E+00  0.11030983080E+01  0.27490510670E+00  0.11803368435E+01  0.00000000000E+00 0.  1.
         11    1    3    3    0    0  0.32979207260E+01 -0.69216858021E+01  0.45979064900E+01  0.89401767214E+01  0.51100000000E-03 0. -1.
        -11    1    3    3    0    0 -0.23087663217E+02  0.20851079582E+02  0.26732171210E+02  0.41017273074E+02  0.51100000000E-03 0.  1.
         12    1    3    3    0    0  0.19472258052E+02 -0.15032492088E+02 -0.31604982807E+02  0.40050213361E+02  0.00000000000E+00 0. -1.
</event>
<event>
 7    1  0.1716782E-015  0.9000775E+02  0.7816164E-02  0.1186339E+00
        -11   -1    0    0    0    0  0.00000000000E+00  0.00000000000E+00  0.45593999997E+02  0.45594000000E+02  0.51100000000E-03 0.  1.
         11   -1    0    0    0    0 -0.00000000000E+00 -0.00000000000E+00 -0.45593999997E+02  0.45594000000E+02  0.51100000000E-03 0. -1.
    9900012    2    1    2    0    0 -0.73365048131E+00 -0.79550503635E-01 -0.92109124234E+00  0.90007754098E+02  0.90000015653E+02 0.  0.
        -12    1    1    2    0    0  0.73365048131E+00  0.79550503635E-01  0.92109124234E+00  0.11802459015E+01  0.00000000000E+00 0.  1.
         11    1    3    3    0    0  0.34985770330E+01 -0.84534269308E+01  0.86770539079E+01  0.12609192397E+02  0.51100000000E-03 0. -1.
        -11    1    3    3    0    0  0.34977088878E+02 -0.24417012322E+00 -0.12510197217E+02  0.37147831701E+02  0.51100000000E-03 0.  1.
         12    1    3    3    0    0 -0.39209316392E+02  0.86180465504E+01  0.29120520664E+01  0.40250730000E+02  0.00000000000E+00 0. -1.
</event>
<event>
 8    1  0.1716782E-015  0.9000773E+02  0.7816164E-02  0.1186339E+00
        -11   -1    0    0    0    0  0.00000000000E+00  0.00000000000E+00  0.45593999997E+02  0.45594000000E+02  0.51100000000E-03 0. -1.
         11   -1    0    0    0    0 -0.00000000000E+00 -0.00000000000E+00 -0.45593999997E+02  0.45594000000E+02  0.51100000000E-03 0.  1.
    9900012    2    1    2    0    0 -0.58698109858E-01 -0.11777141404E+01 -0.50773408844E-01  0.90007731385E+02  0.89999992639E+02 0.  0.
         23    2    3    3    0    0 -0.15832697092E+02 -0.13115086812E+02  0.12769282331E+02  0.66434998422E+02  0.61869820145E+02 0.  0.
        -12    1    1    2    0    0  0.58698109858E-01  0.11777141404E+01  0.50773408844E-01  0.11802686150E+01  0.00000000000E+00 0.  1.
         11    1    4    4    0    0 -0.31333893309E+02  0.13327077630E+02  0.10795407301E+02  0.35720647909E+02  0.51100000000E-03 0. -1.
        -11    1    4    4    0    0  0.15501196217E+02 -0.26442164442E+02  0.19738750303E+01  0.30714350513E+02  0.51100000000E-03 0.  1.
        -12    1    3    3    0    0  0.15773998982E+02  0.11937372672E+02 -0.12820055740E+02  0.23572732963E+02  0.00000000000E+00 0.  1.
</event>
<event>
 7    1  0.1716782E-015  0.9000776E+02  0.7816164E-02  0.1186339E+00
        -11   -1    0    0    0    0  0.00000000000E+00  0.00000000000E+00  0.45593999997E+02  0.45594000000E+02  0.51100000000E-03 0.  1.
         11   -1    0    0    0    0 -0.00000000000E+00 -0.00000000000E+00 -0.45593999997E+02  0.45594000000E+02  0.51100000000E-03 0. -1.
    9900012    2    1    2    0    0 -0.54133207762E+00  0.58223099479E+00 -0.87231841879E+00  0.90007757324E+02  0.90000018921E+02 0.  0.
        -12    1    1    2    0    0  0.54133207762E+00 -0.58223099479E+00  0.87231841879E+00  0.11802426756E+01  0.00000000000E+00 0.  1.
         11    1    3    3    0    0  0.33511217350E+02 -0.16441895310E+02  0.77700472871E+01  0.38127565419E+02  0.51100000000E-03 0. -1.
        -11    1    3    3    0    0 -0.18104491904E+01 -0.85942153015E+01  0.26596368505E+01  0.91767059099E+01  0.51100000000E-03 0.  1.
        -12    1    3    3    0    0 -0.32242100238E+02  0.25618341606E+02 -0.11302002556E+02  0.42703485995E+02  0.00000000000E+00 0.  1.
</event>
<event>
 7    1  0.1716782E-015  0.9000776E+02  0.7816164E-02  0.1186339E+00
        -11   -1    0    0    0    0  0.00000000000E+00  0.00000000000E+00  0.45593999997E+02  0.45594000000E+02  0.51100000000E-03 0. -1.
         11   -1    0    0    0    0 -0.00000000000E+00 -0.00000000000E+00 -0.45593999997E+02  0.45594000000E+02  0.51100000000E-03 0.  1.
    9900012    2    1    2    0    0  0.31885019979E+00  0.86847833851E+00  0.73283796594E+00  0.90007757839E+02  0.90000019442E+02 0.  0.
        -12    1    1    2    0    0 -0.31885019979E+00 -0.86847833851E+00 -0.73283796594E+00  0.11802421610E+01  0.00000000000E+00 0.  1.
         11    1    3    3    0    0 -0.12552751017E+01  0.20913719992E+01  0.90247273546E+01  0.93485430151E+01  0.51100000000E-03 0. -1.
        -11    1    3    3    0    0 -0.14007603826E+02 -0.86888561548E+01 -0.40712000192E+02  0.43922387755E+02  0.51100000000E-03 0.  1.
         12    1    3    3    0    0  0.15581729128E+02  0.74659624942E+01  0.32420110803E+02  0.36736827069E+02  0.00000000000E+00 0. -1.
</event>
<event>
 7    1  0.1716782E-015  0.9000771E+02  0.7816164E-02  0.1186339E+00
        -11   -1    0    0    0    0  0.00000000000E+00  0.00000000000E+00  0.45593999997E+02  0.45594000000E+02  0.51100000000E-03 0.  1.
         11   -1    0    0    0    0 -0.00000000000E+00 -0.00000000000E+00 -0.45593999997E+02  0.45594000000E+02  0.51100000000E-03 0. -1.
    9900012    2    1    2    0    0 -0.63179556337E+00 -0.81799900225E+00 -0.56991045024E+00  0.90007709390E+02  0.89999970354E+02 0.  0.
        -12    1    1    2    0    0  0.63179556337E+00  0.81799900225E+00  0.56991045024E+00  0.11802906095E+01  0.00000000000E+00 0.  1.
         11    1    3    3    0    0 -0.88997649833E+01  0.39586054538E+01  0.14174864242E+02  0.17198928758E+02  0.51100000000E-03 0. -1.
        -11    1    3    3    0    0 -0.21155527757E+02  0.19346921609E+02  0.62655140800E+01  0.29344784841E+02  0.51100000000E-03 0.  1.
         12    1    3    3    0    0  0.29423497177E+02 -0.24123526065E+02 -0.21010288772E+02  0.43463995792E+02  0.00000000000E+00 0. -1.
</event>
<event>
 7    1  0.1716782E-015  0.9000774E+02  0.7816164E-02  0.1186339E+00
        -11   -1    0    0    0    0  0.00000000000E+00  0.00000000000E+00  0.45593999997E+02  0.45594000000E+02  0.51100000000E-03 0.  1.
         11   -1    0    0    0    0 -0.00000000000E+00 -0.00000000000E+00 -0.45593999997E+02  0.45594000000E+02  0.51100000000E-03 0. -1.
    9900012    2    1    2    0    0  0.20539441252E+00  0.93517363937E+00 -0.69012618081E+00  0.90007741238E+02  0.90000002622E+02 0.  0.
        -12    1    1    2    0    0 -0.20539441252E+00 -0.93517363937E+00  0.69012618081E+00  0.11802587623E+01  0.00000000000E+00 0.  1.
         11    1    3    3    0    0  0.96459106724E+01 -0.90240647338E-01  0.64758725712E+01  0.11618462114E+02  0.51100000000E-03 0. -1.
        -11    1    3    3    0    0  0.29263492566E+02 -0.11975738194E+00  0.15914611022E+02  0.33311277118E+02  0.51100000000E-03 0.  1.
         12    1    3    3    0    0 -0.38704008826E+02  0.11451716686E+01 -0.23080609774E+02  0.45078002006E+02  0.00000000000E+00 0. -1.
</event>
<event>
 7    1  0.1716782E-015  0.9000807E+02  0.7816164E-02  0.1186338E+00
        -11   -1    0    0    0    0  0.00000000000E+00  0.00000000000E+00  0.45593999997E+02  0.45594000000E+02  0.51100000000E-03 0.  1.
         11   -1    0    0    0    0 -0.00000000000E+00 -0.00000000000E+00 -0.45593999997E+02  0.45594000000E+02  0.51100000000E-03 0. -1.
    9900012    2    1    2    0    0 -0.90992629216E+00 -0.69072536835E+00 -0.29525935393E+00  0.90008065477E+02  0.90000331141E+02 0.  0.
        -12    1    1    2    0    0  0.90992629216E+00  0.69072536835E+00  0.29525935393E+00  0.11799345226E+01  0.00000000000E+00 0.  1.
         11    1    3    3    0    0 -0.40546286182E+01  0.83775758690E+01  0.75935747976E+01  0.12011917796E+02  0.51100000000E-03 0. -1.
        -11    1    3    3    0    0 -0.19602461068E+01  0.24586421332E+02  0.21732258452E+02  0.32872872348E+02  0.51100000000E-03 0.  1.
         12    1    3    3    0    0  0.51049484328E+01 -0.33654722570E+02 -0.29621092604E+02  0.45123275333E+02  0.00000000000E+00 0. -1.
</event>
<event>
 7    1  0.1716782E-015  0.9000761E+02  0.7816164E-02  0.1186339E+00
        -11   -1    0    0    0    0  0.00000000000E+00  0.00000000000E+00  0.45593999997E+02  0.45594000000E+02  0.51100000000E-03 0. -1.
         11   -1    0    0    0    0 -0.00000000000E+00 -0.00000000000E+00 -0.45593999997E+02  0.45594000000E+02  0.51100000000E-03 0.  1.
    9900012    2    1    2    0    0  0.26860561472E+00  0.24705866504E+00  0.11225517883E+01  0.90007614691E+02  0.89999874405E+02 0.  0.
        -12    1    1    2    0    0 -0.26860561472E+00 -0.24705866504E+00 -0.11225517883E+01  0.11803853089E+01  0.00000000000E+00 0.  1.
         11    1    3    3    0    0 -0.22069594016E+01  0.62722404120E+00 -0.70186382336E+01  0.73841291101E+01  0.51100000000E-03 0. -1.
        -11    1    3    3    0    0 -0.36660321164E+02  0.63532417318E+01 -0.10635774888E+02  0.38697061078E+02  0.51100000000E-03 0.  1.
         12    1    3    3    0    0  0.39135886180E+02 -0.67334071079E+01  0.18776964910E+02  0.43926424503E+02  0.00000000000E+00 0. -1.
</event>
<event>
 7    1  0.2225442E-015  0.9000777E+02  0.7816164E-02  0.1186339E+00
        -11   -1    0    0    0    0  0.00000000000E+00  0.00000000000E+00  0.45593999997E+02  0.45594000000E+02  0.51100000000E-03 0. -1.
         11   -1    0    0    0    0 -0.00000000000E+00 -0.00000000000E+00 -0.45593999997E+02  0.45594000000E+02  0.51100000000E-03 0.  1.
    9900012    2    1    2    0    0  0.11580783731E+01 -0.20955554928E+00  0.88844400356E-01  0.90007765966E+02  0.90000027677E+02 0.  0.
        -12    1    1    2    0    0 -0.11580783731E+01  0.20955554928E+00 -0.88844400356E-01  0.11802340336E+01  0.00000000000E+00 0.  1.
         11    1    3    3    0    0 -0.13001351607E+02 -0.85774776117E+01  0.31870738262E+02  0.35473260682E+02  0.51100000000E-03 0. -1.
        -11    1    3    3    0    0 -0.50776941330E+00  0.76331831949E+00  0.97729254571E+01  0.98158319507E+01  0.51100000000E-03 0.  1.
        -12    1    3    3    0    0  0.14667199394E+02  0.76046037429E+01 -0.41554819319E+02  0.44718673334E+02  0.00000000000E+00 0.  1.
</event>
<event>
 7    1  0.1716782E-015  0.9000775E+02  0.7816164E-02  0.1186339E+00
        -11   -1    0    0    0    0  0.00000000000E+00  0.00000000000E+00  0.45593999997E+02  0.45594000000E+02  0.51100000000E-03 0. -1.
         11   -1    0    0    0    0 -0.00000000000E+00 -0.00000000000E+00 -0.45593999997E+02  0.45594000000E+02  0.51100000000E-03 0.  1.
    9900012    2    1    2    0    0  0.61445099436E+00  0.13060360718E+00  0.99918559456E+00  0.90007754611E+02  0.90000016172E+02 0.  0.
        -12    1    1    2    0    0 -0.61445099436E+00 -0.13060360718E+00 -0.99918559456E+00  0.11802453893E+01  0.00000000000E+00 0.  1.
         11    1    3    3    0    0  0.91919924238E+01 -0.29761473041E+02  0.27581030505E+02  0.41604702214E+02  0.51100000000E-03 0. -1.
        -11    1    3    3    0    0 -0.67157598004E+01 -0.30895771320E+01 -0.42233474423E+01  0.85137289381E+01  0.51100000000E-03 0.  1.
        -12    1    3    3    0    0 -0.18617816290E+01  0.32981653781E+02 -0.22358497468E+02  0.39889323459E+02  0.00000000000E+00 0.  1.
</event>
<event>
 7    1  0.1716782E-015  0.9000773E+02  0.7816164E-02  0.1186339E+00
        -11   -1    0    0    0    0  0.00000000000E+00  0.00000000000E+00  0.45593999997E+02  0.45594000000E+02  0.51100000000E-03 0. -1.
         11   -1    0    0    0    0 -0.00000000000E+00 -0.00000000000E+00 -0.45593999997E+02  0.45594000000E+02  0.51100000000E-03 0.  1.
    9900012    2    1    2    0    0 -0.40170199552E+00  0.48005637674E-01 -0.11087643449E+01  0.90007734180E+02  0.89999995471E+02 0.  0.
        -12    1    1    2    0    0  0.40170199552E+00 -0.48005637674E-01  0.11087643449E+01  0.11802658205E+01  0.00000000000E+00 0.  1.
         11    1    3    3    0    0  0.33513228154E+02 -0.10533917058E+02 -0.69403918236E+01  0.35808782565E+02  0.51100000000E-03 0. -1.
        -11    1    3    3    0    0  0.77360195989E+01 -0.51775475324E+01  0.19372958877E+00  0.93107748925E+01  0.51100000000E-03 0.  1.
        -12    1    3    3    0    0 -0.41650949748E+02  0.15759470228E+02  0.56378978899E+01  0.44888176722E+02  0.00000000000E+00 0.  1.
</event>
<event>
 7    1  0.1716782E-015  0.9000763E+02  0.7816164E-02  0.1186339E+00
        -11   -1    0    0    0    0  0.00000000000E+00  0.00000000000E+00  0.45593999997E+02  0.45594000000E+02  0.51100000000E-03 0. -1.
         11   -1    0    0    0    0 -0.00000000000E+00 -0.00000000000E+00 -0.45593999997E+02  0.45594000000E+02  0.51100000000E-03 0.  1.
    9900012    2    1    2    0    0  0.82033368086E+00  0.83252364664E+00  0.16499200409E+00  0.90007633391E+02  0.89999893352E+02 0.  0.
        -12    1    1    2    0    0 -0.82033368086E+00 -0.83252364664E+00 -0.16499200409E+00  0.11803666090E+01  0.00000000000E+00 0.  1.
         11    1    3    3    0    0 -0.19933248566E+02  0.28219256321E+02  0.23735236899E+02  0.41916849793E+02  0.51100000000E-03 0. -1.
        -11    1    3    3    0    0  0.37521604740E+01  0.34598773062E+01 -0.82064595834E+01  0.96641315363E+01  0.51100000000E-03 0.  1.
        -12    1    3    3    0    0  0.17001421773E+02 -0.30846609980E+02 -0.15363785312E+02  0.38426652062E+02  0.00000000000E+00 0.  1.
</event>
<event>
 7    1  0.2616295E-015  0.9000776E+02  0.7816164E-02  0.1186339E+00
        -11   -1    0    0    0    0  0.00000000000E+00  0.00000000000E+00  0.45593999997E+02  0.45594000000E+02  0.51100000000E-03 0.  1.
         11   -1    0    0    0    0 -0.00000000000E+00 -0.00000000000E+00 -0.45593999997E+02  0.45594000000E+02  0.51100000000E-03 0. -1.
    9900012    2    1    2    0    0 -0.97195798760E+00 -0.65150120319E+00 -0.15428389879E+00  0.90007762876E+02  0.90000024546E+02 0.  0.
        -12    1    1    2    0    0  0.97195798760E+00  0.65150120319E+00  0.15428389879E+00  0.11802371240E+01  0.00000000000E+00 0.  1.
         11    1    3    3    0    0  0.11983824597E+02 -0.47065379381E+01 -0.36707823696E+02  0.38900229717E+02  0.51100000000E-03 0. -1.
        -11    1    3    3    0    0 -0.92165844810E+01 -0.72064399868E+00 -0.40215918772E+01  0.10081565293E+02  0.51100000000E-03 0.  1.
        -12    1    3    3    0    0 -0.37391981033E+01  0.47756807336E+01  0.40575131674E+02  0.41025967866E+02  0.00000000000E+00 0.  1.
</event>
<event>
 7    1  0.1716782E-015  0.9000748E+02  0.7816164E-02  0.1186340E+00
        -11   -1    0    0    0    0  0.00000000000E+00  0.00000000000E+00  0.45593999997E+02  0.45594000000E+02  0.51100000000E-03 0. -1.
         11   -1    0    0    0    0 -0.00000000000E+00 -0.00000000000E+00 -0.45593999997E+02  0.45594000000E+02  0.51100000000E-03 0.  1.
    9900012    2    1    2    0    0 -0.10146923853E+00 -0.11219395354E+01 -0.35294822668E+00  0.90007484529E+02  0.89999742524E+02 0.  0.
        -12    1    1    2    0    0  0.10146923853E+00  0.11219395354E+01  0.35294822668E+00  0.11805154714E+01  0.00000000000E+00 0.  1.
         11    1    3    3    0    0  0.19839158864E+02 -0.20288656560E+02  0.32800966679E+02  0.43371940524E+02  0.51100000000E-03 0. -1.
        -11    1    3    3    0    0 -0.85571050454E+01  0.83712986080E+00 -0.21502943170E+01  0.88627647534E+01  0.51100000000E-03 0.  1.
        -12    1    3    3    0    0 -0.11383523057E+02  0.18329587164E+02 -0.31003620589E+02  0.37772779252E+02  0.00000000000E+00 0.  1.
</event>
<event>
 7    1  0.1716782E-015  0.9000767E+02  0.7816164E-02  0.1186339E+00
        -11   -1    0    0    0    0  0.00000000000E+00  0.00000000000E+00  0.45593999997E+02  0.45594000000E+02  0.51100000000E-03 0.  1.
         11   -1    0    0    0    0 -0.00000000000E+00 -0.00000000000E+00 -0.45593999997E+02  0.45594000000E+02  0.51100000000E-03 0. -1.
    9900012    2    1    2    0    0  0.26194728494E-01  0.24322043888E+00 -0.11547056839E+01  0.90007666334E+02  0.89999926730E+02 0.  0.
        -12    1    1    2    0    0 -0.26194728494E-01 -0.24322043888E+00  0.11547056839E+01  0.11803336656E+01  0.00000000000E+00 0.  1.
         11    1    3    3    0    0 -0.89442308708E+00 -0.89742410699E+01  0.13155888879E+01  0.91141521725E+01  0.51100000000E-03 0. -1.
        -11    1    3    3    0    0 -0.91910623725E+01 -0.34539826933E+02  0.17544051901E+01  0.35784818148E+02  0.51100000000E-03 0.  1.
         12    1    3    3    0    0  0.10111680188E+02  0.43757288441E+02 -0.42246997618E+01  0.45108696014E+02  0.00000000000E+00 0. -1.
</event>
<event>
 7    1  0.1716782E-015  0.9000757E+02  0.7816164E-02  0.1186339E+00
        -11   -1    0    0    0    0  0.00000000000E+00  0.00000000000E+00  0.45593999997E+02  0.45594000000E+02  0.51100000000E-03 0.  1.
         11   -1    0    0    0    0 -0.00000000000E+00 -0.00000000000E+00 -0.45593999997E+02  0.45594000000E+02  0.51100000000E-03 0. -1.
    9900012    2    1    2    0    0  0.25842938963E+00  0.10139075521E+01 -0.54645162122E+00  0.90007574802E+02  0.89999833989E+02 0.  0.
        -12    1    1    2    0    0 -0.25842938963E+00 -0.10139075521E+01  0.54645162122E+00  0.11804251980E+01  0.00000000000E+00 0.  1.
         11    1    3    3    0    0  0.22301537127E+02  0.20843281975E+02 -0.19672804780E+02  0.36315564293E+02  0.51100000000E-03 0. -1.
        -11    1    3    3    0    0  0.28190725141E+01  0.88307913314E+01 -0.30334186824E+01  0.97535467674E+01  0.51100000000E-03 0.  1.
        -12    1    3    3    0    0 -0.24862180251E+02 -0.28660165755E+02  0.22159771841E+02  0.43938463742E+02  0.00000000000E+00 0.  1.
</event>
<event>
 7    1  0.1716782E-015  0.9000764E+02  0.7816164E-02  0.1186339E+00
        -11   -1    0    0    0    0  0.00000000000E+00  0.00000000000E+00  0.45593999997E+02  0.45594000000E+02  0.51100000000E-03 0.  1.
         11   -1    0    0    0    0 -0.00000000000E+00 -0.00000000000E+00 -0.45593999997E+02  0.45594000000E+02  0.51100000000E-03 0. -1.
    9900012    2    1    2    0    0 -0.16247517784E+00 -0.11475990206E+01  0.22331821482E+00  0.90007638733E+02  0.89999898764E+02 0.  0.
        -12    1    1    2    0    0  0.16247517784E+00  0.11475990206E+01 -0.22331821482E+00  0.11803612669E+01  0.00000000000E+00 0.  1.
         11    1    3    3    0    0 -0.51912083576E+01  0.12681931046E+02 -0.33482395214E+02  0.36178043187E+02  0.51100000000E-03 0. -1.
        -11    1    3    3    0    0 -0.44122116859E+01  0.57030763651E+01 -0.54682382519E+01  0.90495481560E+01  0.51100000000E-03 0.  1.
        -12    1    3    3    0    0  0.94409448657E+01 -0.19532606432E+02  0.39173951681E+02  0.44780047390E+02  0.00000000000E+00 0.  1.
</event>
<event>
 7    1  0.1716782E-015  0.9000765E+02  0.7816164E-02  0.1186339E+00
        -11   -1    0    0    0    0  0.00000000000E+00  0.00000000000E+00  0.45593999997E+02  0.45594000000E+02  0.51100000000E-03 0.  1.
         11   -1    0    0    0    0 -0.00000000000E+00 -0.00000000000E+00 -0.45593999997E+02  0.45594000000E+02  0.51100000000E-03 0. -1.
    9900012    2    1    2    0    0 -0.87947409203E+00 -0.53755097096E+00 -0.57513924884E+00  0.90007652221E+02  0.89999912430E+02 0.  0.
        -12    1    1    2    0    0  0.87947409203E+00  0.53755097096E+00  0.57513924884E+00  0.11803477795E+01  0.00000000000E+00 0.  1.
         11    1    3    3    0    0 -0.28805161435E-01  0.90837768351E+01  0.97901638485E+00  0.91364273472E+01  0.51100000000E-03 0. -1.
        -11    1    3    3    0    0  0.22495594131E+02 -0.36931302632E+02  0.73305968923E+01  0.43860124492E+02  0.51100000000E-03 0.  1.
         12    1    3    3    0    0 -0.23346263062E+02  0.27309974826E+02 -0.88847525260E+01  0.37011100381E+02  0.00000000000E+00 0. -1.
</event>
<event>
 7    1  0.1716782E-015  0.9000770E+02  0.7816164E-02  0.1186339E+00
        -11   -1    0    0    0    0  0.00000000000E+00  0.00000000000E+00  0.45593999997E+02  0.45594000000E+02  0.51100000000E-03 0. -1.
         11   -1    0    0    0    0 -0.00000000000E+00 -0.00000000000E+00 -0.45593999997E+02  0.45594000000E+02  0.51100000000E-03 0.  1.
    9900012    2    1    2    0    0 -0.11147197956E+01 -0.27846431987E+00 -0.27012115107E+00  0.90007700023E+02  0.89999960863E+02 0.  0.
        -12    1    1    2    0    0  0.11147197956E+01  0.27846431987E+00  0.27012115107E+00  0.11802999773E+01  0.00000000000E+00 0.  1.
         11    1    3    3    0    0 -0.10048759639E+02 -0.19871912061E+01  0.34076528411E+02  0.35582808883E+02  0.51100000000E-03 0. -1.
        -11    1    3    3    0    0  0.49910495006E+01 -0.27195720934E+01  0.90163508843E+01  0.10658387824E+02  0.51100000000E-03 0.  1.
        -12    1    3    3    0    0  0.39429903428E+01  0.44282989796E+01 -0.43363000447E+02  0.43766503315E+02  0.00000000000E+00 0.  1.
</event>
<event>
 7    1  0.1716782E-015  0.9000781E+02  0.7816164E-02  0.1186339E+00
        -11   -1    0    0    0    0  0.00000000000E+00  0.00000000000E+00  0.45593999997E+02  0.45594000000E+02  0.51100000000E-03 0.  1.
         11   -1    0    0    0    0 -0.00000000000E+00 -0.00000000000E+00 -0.45593999997E+02  0.45594000000E+02  0.51100000000E-03 0. -1.
    9900012    2    1    2    0    0 -0.17116921380E+00  0.93916240274E+00 -0.69391122517E+00  0.90007814546E+02  0.90000076898E+02 0.  0.
        -12    1    1    2    0    0  0.17116921380E+00 -0.93916240274E+00  0.69391122517E+00  0.11801854545E+01  0.00000000000E+00 0.  1.
         11    1    3    3    0    0 -0.10027061724E+02 -0.16058406133E+02 -0.28710984512E+02  0.34390914588E+02  0.51100000000E-03 0. -1.
        -11    1    3    3    0    0  0.13712329286E+01 -0.35136838148E+01 -0.10502653011E+02  0.11159389509E+02  0.51100000000E-03 0.  1.
        -12    1    3    3    0    0  0.84846595813E+01  0.20511252351E+02  0.38519726297E+02  0.44457510448E+02  0.00000000000E+00 0.  1.
</event>
<event>
 7    1  0.1716782E-015  0.9000765E+02  0.7816164E-02  0.1186339E+00
        -11   -1    0    0    0    0  0.00000000000E+00  0.00000000000E+00  0.45593999997E+02  0.45594000000E+02  0.51100000000E-03 0.  1.
         11   -1    0    0    0    0 -0.00000000000E+00 -0.00000000000E+00 -0.45593999997E+02  0.45594000000E+02  0.51100000000E-03 0. -1.
    9900012    2    1    2    0    0 -0.19011574144E+00  0.34611400788E+00 -0.11123354762E+01  0.90007648733E+02  0.89999908896E+02 0.  0.
        -12    1    1    2    0    0  0.19011574144E+00 -0.34611400788E+00  0.11123354762E+01  0.11803512668E+01  0.00000000000E+00 0.  1.
         11    1    3    3    0    0 -0.25847946819E+02 -0.15496394751E+01 -0.18986639275E+02  0.32109347681E+02  0.51100000000E-03 0. -1.
        -11    1    3    3    0    0 -0.54769746565E+01 -0.95346564257E+01 -0.97794308194E+01  0.14715440597E+02  0.51100000000E-03 0.  1.
        -12    1    3    3    0    0  0.31134805734E+02  0.11430409909E+02  0.27653734618E+02  0.43182860456E+02  0.00000000000E+00 0.  1.
</event>
<event>
 7    1  0.1716782E-015  0.9000785E+02  0.7816164E-02  0.1186339E+00
        -11   -1    0    0    0    0  0.00000000000E+00  0.00000000000E+00  0.45593999997E+02  0.45594000000E+02  0.51100000000E-03 0.  1.
         11   -1    0    0    0    0 -0.00000000000E+00 -0.00000000000E+00 -0.45593999997E+02  0.45594000000E+02  0.51100000000E-03 0. -1.
    9900012    2    1    2    0    0 -0.54289942203E+00  0.83082146794E+00  0.63856107323E+00  0.90007845629E+02  0.90000108392E+02 0.  0.
        -12    1    1    2    0    0  0.54289942203E+00 -0.83082146794E+00 -0.63856107323E+00  0.11801543705E+01  0.00000000000E+00 0.  1.
         11    1    3    3    0    0  0.26263956432E+01 -0.82177835592E+01  0.10840512972E+02  0.13854480952E+02  0.51100000000E-03 0. -1.
        -11    1    3    3    0    0  0.67638638025E+01 -0.16825952922E+02  0.25291221480E+02  0.31120868071E+02  0.51100000000E-03 0.  1.
         12    1    3    3    0    0 -0.99331588678E+01  0.25874557949E+02 -0.35493173379E+02  0.45032496607E+02  0.00000000000E+00 0. -1.
</event>
<event>
 7    1  0.1716782E-015  0.9000775E+02  0.7816164E-02  0.1186339E+00
        -11   -1    0    0    0    0  0.00000000000E+00  0.00000000000E+00  0.45593999997E+02  0.45594000000E+02  0.51100000000E-03 0.  1.
         11   -1    0    0    0    0 -0.00000000000E+00 -0.00000000000E+00 -0.45593999997E+02  0.45594000000E+02  0.51100000000E-03 0. -1.
    9900012    2    1    2    0    0  0.15126809428E+00 -0.10867278379E+01  0.43487854125E+00  0.90007754782E+02  0.90000016345E+02 0.  0.
        -12    1    1    2    0    0 -0.15126809428E+00  0.10867278379E+01 -0.43487854125E+00  0.11802452184E+01  0.00000000000E+00 0.  1.
         11    1    3    3    0    0 -0.24177893769E+02  0.93094004188E+01 -0.34164983371E+02  0.42877518261E+02  0.51100000000E-03 0. -1.
        -11    1    3    3    0    0  0.11179564477E+02 -0.58816925177E+01  0.35684844133E+01  0.13126730364E+02  0.51100000000E-03 0.  1.
        -12    1    3    3    0    0  0.13149597387E+02 -0.45144357390E+01  0.31031377499E+02  0.34003506157E+02  0.00000000000E+00 0.  1.
</event>
<event>
 7    1  0.1716782E-015  0.9000773E+02  0.7816164E-02  0.1186339E+00
        -11   -1    0    0    0    0  0.00000000000E+00  0.00000000000E+00  0.45593999997E+02  0.45594000000E+02  0.51100000000E-03 0. -1.
         11   -1    0    0    0    0 -0.00000000000E+00 -0.00000000000E+00 -0.45593999997E+02  0.45594000000E+02  0.51100000000E-03 0.  1.
    9900012    2    1    2    0    0  0.44867879443E+00  0.99212750959E+00 -0.45543099597E+00  0.90007725859E+02  0.89999987040E+02 0.  0.
        -12    1    1    2    0    0 -0.44867879443E+00 -0.99212750959E+00  0.45543099597E+00  0.11802741410E+01  0.00000000000E+00 0.  1.
         11    1    3    3    0    0 -0.50693632250E+01 -0.33399875843E+01 -0.69419474974E+01  0.92219626917E+01  0.51100000000E-03 0. -1.
        -11    1    3    3    0    0 -0.19228222227E+02 -0.29674372669E+02 -0.80916234644E+01  0.36273506777E+02  0.51100000000E-03 0.  1.
         12    1    3    3    0    0  0.24746264247E+02  0.34006487763E+02  0.14578139966E+02  0.44512256391E+02  0.00000000000E+00 0. -1.
</event>
<event>
 7    1  0.1716782E-015  0.9000800E+02  0.7816164E-02  0.1186339E+00
        -11   -1    0    0    0    0  0.00000000000E+00  0.00000000000E+00  0.45593999997E+02  0.45594000000E+02  0.51100000000E-03 0.  1.
         11   -1    0    0    0    0 -0.00000000000E+00 -0.00000000000E+00 -0.45593999997E+02  0.45594000000E+02  0.51100000000E-03 0. -1.
    9900012    2    1    2    0    0 -0.11277016627E+01  0.32824936794E+00  0.11375266086E+00  0.90008000697E+02  0.90000265506E+02 0.  0.
        -12    1    1    2    0    0  0.11277016627E+01 -0.32824936794E+00 -0.11375266086E+00  0.11799993031E+01  0.00000000000E+00 0.  1.
         11    1    3    3    0    0 -0.11644854650E+02 -0.46516129777E+01  0.78673626403E+01  0.14803227293E+02  0.51100000000E-03 0. -1.
        -11    1    3    3    0    0 -0.19606382551E+02 -0.37160794340E+01  0.23571515881E+02  0.30884232940E+02  0.51100000000E-03 0.  1.
         12    1    3    3    0    0  0.30123535539E+02  0.86959417796E+01 -0.31325125860E+02  0.44320540463E+02  0.00000000000E+00 0. -1.
</event>
<event>
 7    1  0.1716782E-015  0.9000771E+02  0.7816164E-02  0.1186339E+00
        -11   -1    0    0    0    0  0.00000000000E+00  0.00000000000E+00  0.45593999997E+02  0.45594000000E+02  0.51100000000E-03 0. -1.
         11   -1    0    0    0    0 -0.00000000000E+00 -0.00000000000E+00 -0.45593999997E+02  0.45594000000E+02  0.51100000000E-03 0.  1.
    9900012    2    1    2    0    0 -0.39931570880E+00 -0.63298503916E+00  0.91267102148E+00  0.90007707033E+02  0.89999967966E+02 0.  0.
        -12    1    1    2    0    0  0.39931570880E+00  0.63298503916E+00 -0.91267102148E+00  0.11802929673E+01  0.00000000000E+00 0.  1.
         11    1    3    3    0    0  0.26467398438E+02 -0.13812402418E+01  0.33124454080E+02  0.42422405201E+02  0.51100000000E-03 0. -1.
        -11    1    3    3    0    0 -0.69827176919E+01 -0.12516688666E+01  0.25084945151E+01  0.75244645198E+01  0.51100000000E-03 0.  1.
        -12    1    3    3    0    0 -0.19883996455E+02  0.19999240692E+01 -0.34720277574E+02  0.40060837312E+02  0.00000000000E+00 0.  1.
</event>
<event>
 7    1  0.1716782E-015  0.9000770E+02  0.7816164E-02  0.1186339E+00
        -11   -1    0    0    0    0  0.00000000000E+00  0.00000000000E+00  0.45593999997E+02  0.45594000000E+02  0.51100000000E-03 0. -1.
         11   -1    0    0    0    0 -0.00000000000E+00 -0.00000000000E+00 -0.45593999997E+02  0.45594000000E+02  0.51100000000E-03 0.  1.
    9900012    2    1    2    0    0 -0.65142305533E+00  0.82931626946E+00  0.53007503274E+00  0.90007704693E+02  0.89999965595E+02 0.  0.
        -12    1    1    2    0    0  0.65142305533E+00 -0.82931626946E+00 -0.53007503274E+00  0.11802953072E+01  0.00000000000E+00 0.  1.
         11    1    3    3    0    0 -0.67545418888E+01 -0.80597837073E+01 -0.31274477807E+01  0.10971092900E+02  0.51100000000E-03 0. -1.
        -11    1    3    3    0    0 -0.22167143051E+02  0.34366171033E+02  0.20146412334E+01  0.40944776493E+02  0.51100000000E-03 0.  1.
         12    1    3    3    0    0  0.28270261885E+02 -0.25477071056E+02  0.16428815800E+01  0.38091835300E+02  0.00000000000E+00 0. -1.
</event>
<event>
 7    1  0.1716782E-015  0.9000806E+02  0.7816164E-02  0.1186338E+00
        -11   -1    0    0    0    0  0.00000000000E+00  0.00000000000E+00  0.45593999997E+02  0.45594000000E+02  0.51100000000E-03 0.  1.
         11   -1    0    0    0    0 -0.00000000000E+00 -0.00000000000E+00 -0.45593999997E+02  0.45594000000E+02  0.51100000000E-03 0. -1.
    9900012    2    1    2    0    0  0.42648995158E+00  0.39312263150E+00 -0.10275329703E+01  0.90008058015E+02  0.90000323581E+02 0.  0.
        -12    1    1    2    0    0 -0.42648995158E+00 -0.39312263150E+00  0.10275329703E+01  0.11799419847E+01  0.00000000000E+00 0.  1.
         11    1    3    3    0    0 -0.42115444169E+01  0.45195944504E+01 -0.31592415337E+01  0.69386344263E+01  0.51100000000E-03 0. -1.
        -11    1    3    3    0    0  0.27834393493E+02  0.27913136420E+02  0.13903858077E+02  0.41799687984E+02  0.51100000000E-03 0.  1.
         12    1    3    3    0    0 -0.23196359125E+02 -0.32039608238E+02 -0.11772149513E+02  0.41269735605E+02  0.00000000000E+00 0. -1.
</event>
<event>
 7    1  0.1716782E-015  0.9000777E+02  0.7816164E-02  0.1186339E+00
        -11   -1    0    0    0    0  0.00000000000E+00  0.00000000000E+00  0.45593999997E+02  0.45594000000E+02  0.51100000000E-03 0.  1.
         11   -1    0    0    0    0 -0.00000000000E+00 -0.00000000000E+00 -0.45593999997E+02  0.45594000000E+02  0.51100000000E-03 0. -1.
    9900012    2    1    2    0    0  0.53318021083E+00 -0.10417948338E+01 -0.15273716708E+00  0.90007768559E+02  0.90000030304E+02 0.  0.
        -12    1    1    2    0    0 -0.53318021083E+00  0.10417948338E+01  0.15273716708E+00  0.11802314413E+01  0.00000000000E+00 0.  1.
         11    1    3    3    0    0  0.38288685752E+01  0.71108695674E+01  0.45079579587E+01  0.92491289206E+01  0.51100000000E-03 0. -1.
        -11    1    3    3    0    0 -0.20198093176E+02  0.90642219430E+01  0.30761769757E+02  0.37899994277E+02  0.51100000000E-03 0.  1.
         12    1    3    3    0    0  0.16902404811E+02 -0.17216886344E+02 -0.35422464883E+02  0.42858645361E+02  0.00000000000E+00 0. -1.
</event>
<event>
 7    1  0.1716782E-015  0.9000775E+02  0.7816164E-02  0.1186339E+00
        -11   -1    0    0    0    0  0.00000000000E+00  0.00000000000E+00  0.45593999997E+02  0.45594000000E+02  0.51100000000E-03 0.  1.
         11   -1    0    0    0    0 -0.00000000000E+00 -0.00000000000E+00 -0.45593999997E+02  0.45594000000E+02  0.51100000000E-03 0. -1.
    9900012    2    1    2    0    0  0.17011201537E+00 -0.14959805727E+00 -0.11583012926E+01  0.90007754449E+02  0.90000016008E+02 0.  0.
        -12    1    1    2    0    0 -0.17011201537E+00  0.14959805727E+00  0.11583012926E+01  0.11802455511E+01  0.00000000000E+00 0.  1.
         11    1    3    3    0    0 -0.51117839042E+01 -0.79487445119E+01  0.12140894807E+01  0.95282153379E+01  0.51100000000E-03 0. -1.
        -11    1    3    3    0    0  0.51536239829E+01 -0.12835536250E+01  0.38370507035E+02  0.38736328690E+02  0.51100000000E-03 0.  1.
         12    1    3    3    0    0  0.12827193665E+00  0.90827000796E+01 -0.40742897808E+02  0.41743210420E+02  0.00000000000E+00 0. -1.
</event>
<event>
 7    1  0.1716782E-015  0.9000789E+02  0.7816164E-02  0.1186339E+00
        -11   -1    0    0    0    0  0.00000000000E+00  0.00000000000E+00  0.45593999997E+02  0.45594000000E+02  0.51100000000E-03 0.  1.
         11   -1    0    0    0    0 -0.00000000000E+00 -0.00000000000E+00 -0.45593999997E+02  0.45594000000E+02  0.51100000000E-03 0. -1.
    9900012    2    1    2    0    0 -0.65552508942E+00 -0.30434778777E+00 -0.93290328504E+00  0.90007894387E+02  0.90000157793E+02 0.  0.
        -12    1    1    2    0    0  0.65552508942E+00  0.30434778777E+00  0.93290328504E+00  0.11801056131E+01  0.00000000000E+00 0.  1.
         11    1    3    3    0    0  0.16287711926E+02  0.14709187606E+00  0.84037523646E+01  0.18328509210E+02  0.51100000000E-03 0. -1.
        -11    1    3    3    0    0  0.85927372491E+01  0.29967312746E+02 -0.15957652055E+01  0.31215724138E+02  0.51100000000E-03 0.  1.
         12    1    3    3    0    0 -0.25535974264E+02 -0.30418752409E+02 -0.77408904441E+01  0.40463661039E+02  0.00000000000E+00 0. -1.
</event>
<event>
 7    1  0.1716782E-015  0.9000798E+02  0.7816164E-02  0.1186339E+00
        -11   -1    0    0    0    0  0.00000000000E+00  0.00000000000E+00  0.45593999997E+02  0.45594000000E+02  0.51100000000E-03 0.  1.
         11   -1    0    0    0    0 -0.00000000000E+00 -0.00000000000E+00 -0.45593999997E+02  0.45594000000E+02  0.51100000000E-03 0. -1.
    9900012    2    1    2    0    0 -0.14266375321E+00 -0.55345247719E+00 -0.10323680318E+01  0.90007980363E+02  0.90000244903E+02 0.  0.
        -12    1    1    2    0    0  0.14266375321E+00  0.55345247719E+00  0.10323680318E+01  0.11800196372E+01  0.00000000000E+00 0.  1.
         11    1    3    3    0    0  0.76976249124E+01  0.32691137539E+02 -0.12446490892E+02  0.35817300829E+02  0.51100000000E-03 0. -1.
        -11    1    3    3    0    0 -0.64544574035E+01  0.31991594042E+01 -0.96747970048E+01  0.12062186312E+02  0.51100000000E-03 0.  1.
        -12    1    3    3    0    0 -0.13858312621E+01 -0.36443749420E+02  0.21088919865E+02  0.42128493222E+02  0.00000000000E+00 0.  1.
</event>
<event>
 7    1  0.1716782E-015  0.9000790E+02  0.7816164E-02  0.1186339E+00
        -11   -1    0    0    0    0  0.00000000000E+00  0.00000000000E+00  0.45593999997E+02  0.45594000000E+02  0.51100000000E-03 0.  1.
         11   -1    0    0    0    0 -0.00000000000E+00 -0.00000000000E+00 -0.45593999997E+02  0.45594000000E+02  0.51100000000E-03 0. -1.
    9900012    2    1    2    0    0 -0.71203107779E+00  0.90737544249E+00 -0.24961856601E+00  0.90007903446E+02  0.90000166971E+02 0.  0.
        -12    1    1    2    0    0  0.71203107779E+00 -0.90737544249E+00  0.24961856601E+00  0.11800965545E+01  0.00000000000E+00 0.  1.
         11    1    3    3    0    0  0.68221584539E+01  0.65547341210E+01 -0.41438765171E+01  0.10328509003E+02  0.51100000000E-03 0. -1.
        -11    1    3    3    0    0  0.27301449344E+02 -0.74520418081E+01 -0.22321739250E+02  0.36043891394E+02  0.51100000000E-03 0.  1.
         12    1    3    3    0    0 -0.34835638876E+02  0.18046831296E+01  0.26215997201E+02  0.43635503049E+02  0.00000000000E+00 0. -1.
</event>
<event>
 7    1  0.1716782E-015  0.9000774E+02  0.7816164E-02  0.1186339E+00
        -11   -1    0    0    0    0  0.00000000000E+00  0.00000000000E+00  0.45593999997E+02  0.45594000000E+02  0.51100000000E-03 0. -1.
         11   -1    0    0    0    0 -0.00000000000E+00 -0.00000000000E+00 -0.45593999997E+02  0.45594000000E+02  0.51100000000E-03 0.  1.
    9900012    2    1    2    0    0 -0.10379373337E+01  0.35802707997E+00 -0.43303809876E+00  0.90007737617E+02  0.89999998953E+02 0.  0.
        -12    1    1    2    0    0  0.10379373337E+01 -0.35802707997E+00  0.43303809876E+00  0.11802623834E+01  0.00000000000E+00 0.  1.
         11    1    3    3    0    0  0.19586125946E+02  0.82402068348E+01 -0.19085411998E+01  0.21334476043E+02  0.51100000000E-03 0. -1.
        -11    1    3    3    0    0  0.10881982279E+02  0.19972624198E+02 -0.10349311560E+02  0.24988627527E+02  0.51100000000E-03 0.  1.
         12    1    3    3    0    0 -0.31506045558E+02 -0.27854803953E+02  0.11824814661E+02  0.43684634046E+02  0.00000000000E+00 0. -1.
</event>
<event>
 7    1  0.1716782E-015  0.9000776E+02  0.7816164E-02  0.1186339E+00
        -11   -1    0    0    0    0  0.00000000000E+00  0.00000000000E+00  0.45593999997E+02  0.45594000000E+02  0.51100000000E-03 0.  1.
         11   -1    0    0    0    0 -0.00000000000E+00 -0.00000000000E+00 -0.45593999997E+02  0.45594000000E+02  0.51100000000E-03 0. -1.
    9900012    2    1    2    0    0 -0.37888369077E+00  0.56737297900E+00 -0.96307301834E+00  0.90007756556E+02  0.90000018143E+02 0.  0.
        -12    1    1    2    0    0  0.37888369077E+00 -0.56737297900E+00  0.96307301834E+00  0.11802434440E+01  0.00000000000E+00 0.  1.
         11    1    3    3    0    0  0.37787118362E+02 -0.10232088398E+02  0.14906112868E+02  0.41889785727E+02  0.51100000000E-03 0. -1.
        -11    1    3    3    0    0 -0.19477946386E+01  0.85244883748E+01 -0.65659664323E+00  0.87688041043E+01  0.51100000000E-03 0.  1.
        -12    1    3    3    0    0 -0.36218207415E+02  0.22749730020E+01 -0.15212589243E+02  0.39349166725E+02  0.00000000000E+00 0.  1.
</event>
<event>
 7    1  0.1716782E-015  0.9000779E+02  0.7816164E-02  0.1186339E+00
        -11   -1    0    0    0    0  0.00000000000E+00  0.00000000000E+00  0.45593999997E+02  0.45594000000E+02  0.51100000000E-03 0.  1.
         11   -1    0    0    0    0 -0.00000000000E+00 -0.00000000000E+00 -0.45593999997E+02  0.45594000000E+02  0.51100000000E-03 0. -1.
    9900012    2    1    2    0    0 -0.20050554430E+00  0.11557264165E+01 -0.13038866938E+00  0.90007785092E+02  0.90000047056E+02 0.  0.
        -12    1    1    2    0    0  0.20050554430E+00 -0.11557264165E+01  0.13038866938E+00  0.11802149077E+01  0.00000000000E+00 0.  1.
         11    1    3    3    0    0  0.80068731108E+01 -0.80825152108E+00 -0.58377606475E+00  0.80687100759E+01  0.51100000000E-03 0. -1.
        -11    1    3    3    0    0  0.35270457642E+01  0.14122849475E+02  0.38039315606E+02  0.40729405362E+02  0.51100000000E-03 0.  1.
         12    1    3    3    0    0 -0.11734424419E+02 -0.12158871538E+02 -0.37585928211E+02  0.41209669654E+02  0.00000000000E+00 0. -1.
</event>
<event>
 7    1  0.1716782E-015  0.9000768E+02  0.7816164E-02  0.1186339E+00
        -11   -1    0    0    0    0  0.00000000000E+00  0.00000000000E+00  0.45593999997E+02  0.45594000000E+02  0.51100000000E-03 0. -1.
         11   -1    0    0    0    0 -0.00000000000E+00 -0.00000000000E+00 -0.45593999997E+02  0.45594000000E+02  0.51100000000E-03 0.  1.
    9900012    2    1    2    0    0 -0.40780142973E+00 -0.51508374403E+00  0.98058267203E+00  0.90007679854E+02  0.89999940428E+02 0.  0.
        -12    1    1    2    0    0  0.40780142973E+00  0.51508374403E+00 -0.98058267203E+00  0.11803201456E+01  0.00000000000E+00 0.  1.
         11    1    3    3    0    0  0.10719302906E+02  0.26595796709E+02  0.16434451031E+02  0.33050431742E+02  0.51100000000E-03 0. -1.
        -11    1    3    3    0    0 -0.16073250519E+02  0.65268160140E+01  0.39758808534E+01  0.17797649798E+02  0.51100000000E-03 0.  1.
         12    1    3    3    0    0  0.49461461831E+01 -0.33637696467E+02 -0.19429749212E+02  0.39159598314E+02  0.00000000000E+00 0. -1.
</event>
<event>
 7    1  0.1716782E-015  0.9000789E+02  0.7816164E-02  0.1186339E+00
        -11   -1    0    0    0    0  0.00000000000E+00  0.00000000000E+00  0.45593999997E+02  0.45594000000E+02  0.51100000000E-03 0. -1.
         11   -1    0    0    0    0 -0.00000000000E+00 -0.00000000000E+00 -0.45593999997E+02  0.45594000000E+02  0.51100000000E-03 0.  1.
    9900012    2    1    2    0    0  0.11752512711E+01  0.61272020321E-01 -0.87667340178E-01  0.90007891796E+02  0.90000155168E+02 0.  0.
        -12    1    1    2    0    0 -0.11752512711E+01 -0.61272020321E-01  0.87667340178E-01  0.11801082040E+01  0.00000000000E+00 0.  1.
         11    1    3    3    0    0  0.63009580120E+01  0.77597647463E+01  0.58425025219E+01  0.11578033372E+02  0.51100000000E-03 0. -1.
        -11    1    3    3    0    0  0.12629293907E+02 -0.39653472536E+02 -0.20199806161E+01  0.41665060551E+02  0.51100000000E-03 0.  1.
         12    1    3    3    0    0 -0.17755000648E+02  0.31954979810E+02 -0.39101892460E+01  0.36764797873E+02  0.00000000000E+00 0. -1.
</event>
<event>
 7    1  0.1716782E-015  0.9000770E+02  0.7816164E-02  0.1186339E+00
        -11   -1    0    0    0    0  0.00000000000E+00  0.00000000000E+00  0.45593999997E+02  0.45594000000E+02  0.51100000000E-03 0.  1.
         11   -1    0    0    0    0 -0.00000000000E+00 -0.00000000000E+00 -0.45593999997E+02  0.45594000000E+02  0.51100000000E-03 0. -1.
    9900012    2    1    2    0    0 -0.11280510371E+01  0.33088189575E+00  0.10550119573E+00  0.90007698143E+02  0.89999958959E+02 0.  0.
        -12    1    1    2    0    0  0.11280510371E+01 -0.33088189575E+00 -0.10550119573E+00  0.11803018570E+01  0.00000000000E+00 0.  1.
         11    1    3    3    0    0 -0.39707039307E+01 -0.28060014321E+02 -0.29289481560E+02  0.40755424469E+02  0.51100000000E-03 0. -1.
        -11    1    3    3    0    0  0.10416603652E+02  0.14503632085E+01  0.33899392288E+01  0.11049926394E+02  0.51100000000E-03 0.  1.
        -12    1    3    3    0    0 -0.75739507585E+01  0.26940533008E+02  0.26005043527E+02  0.38202347280E+02  0.00000000000E+00 0.  1.
</event>
<event>
 7    1  0.1716782E-015  0.9000779E+02  0.7816164E-02  0.1186339E+00
        -11   -1    0    0    0    0  0.00000000000E+00  0.00000000000E+00  0.45593999997E+02  0.45594000000E+02  0.51100000000E-03 0. -1.
         11   -1    0    0    0    0 -0.00000000000E+00 -0.00000000000E+00 -0.45593999997E+02  0.45594000000E+02  0.51100000000E-03 0.  1.
    9900012    2    1    2    0    0 -0.38432714485E+00 -0.58633760248E+00  0.94942309155E+00  0.90007786737E+02  0.90000048722E+02 0.  0.
        -12    1    1    2    0    0  0.38432714485E+00  0.58633760248E+00 -0.94942309155E+00  0.11802132626E+01  0.00000000000E+00 0.  1.
         11    1    3    3    0    0 -0.45572501618E+01  0.54894774069E+01 -0.69047142587E+01  0.99286439403E+01  0.51100000000E-03 0. -1.
        -11    1    3    3    0    0 -0.11692933261E+02  0.96526081723E+01 -0.31424681119E+02  0.34891375962E+02  0.51100000000E-03 0.  1.
         12    1    3    3    0    0  0.15865856278E+02 -0.15728423182E+02  0.39278818470E+02  0.45187766836E+02  0.00000000000E+00 0. -1.
</event>
<event>
 7    1  0.1716782E-015  0.9000772E+02  0.7816164E-02  0.1186339E+00
        -11   -1    0    0    0    0  0.00000000000E+00  0.00000000000E+00  0.45593999997E+02  0.45594000000E+02  0.51100000000E-03 0.  1.
         11   -1    0    0    0    0 -0.00000000000E+00 -0.00000000000E+00 -0.45593999997E+02  0.45594000000E+02  0.51100000000E-03 0. -1.
    9900012    2    1    2    0    0  0.11664442277E+00  0.10420671415E+01 -0.54179954628E+00  0.90007721814E+02  0.89999982942E+02 0.  0.
        -12    1    1    2    0    0 -0.11664442277E+00 -0.10420671415E+01  0.54179954628E+00  0.11802781863E+01  0.00000000000E+00 0.  1.
         11    1    3    3    0    0  0.23524541928E+02 -0.32248503387E+01 -0.22779583924E+02  0.32904607225E+02  0.51100000000E-03 0. -1.
        -11    1    3    3    0    0  0.58846443201E+01  0.39117909071E+01 -0.10826335250E+02  0.12928289991E+02  0.51100000000E-03 0.  1.
        -12    1    3    3    0    0 -0.29292541825E+02  0.35512657308E+00  0.33064119628E+02  0.44174824598E+02  0.00000000000E+00 0.  1.
</event>
<event>
 7    1  0.1716782E-015  0.9000785E+02  0.7816164E-02  0.1186339E+00
        -11   -1    0    0    0    0  0.00000000000E+00  0.00000000000E+00  0.45593999997E+02  0.45594000000E+02  0.51100000000E-03 0.  1.
         11   -1    0    0    0    0 -0.00000000000E+00 -0.00000000000E+00 -0.45593999997E+02  0.45594000000E+02  0.51100000000E-03 0. -1.
    9900012    2    1    2    0    0 -0.88099403574E+00  0.77820415143E+00 -0.10488141700E+00  0.90007850728E+02  0.90000113558E+02 0.  0.
        -12    1    1    2    0    0  0.88099403574E+00 -0.77820415143E+00  0.10488141700E+00  0.11801492719E+01  0.00000000000E+00 0.  1.
         11    1    3    3    0    0  0.31545179551E+01 -0.39699564130E+02 -0.15576190751E+02  0.42762414504E+02  0.51100000000E-03 0. -1.
        -11    1    3    3    0    0  0.62924952722E+01  0.61980243805E+01  0.27473154132E+01  0.92497970362E+01  0.51100000000E-03 0.  1.
        -12    1    3    3    0    0 -0.10328007263E+02  0.34279743901E+02  0.12723993921E+02  0.37995639187E+02  0.00000000000E+00 0.  1.
</event>
<event>
 7    1  0.1716782E-015  0.9000776E+02  0.7816164E-02  0.1186339E+00
        -11   -1    0    0    0    0  0.00000000000E+00  0.00000000000E+00  0.45593999997E+02  0.45594000000E+02  0.51100000000E-03 0.  1.
         11   -1    0    0    0    0 -0.00000000000E+00 -0.00000000000E+00 -0.45593999997E+02  0.45594000000E+02  0.51100000000E-03 0. -1.
    9900012    2    1    2    0    0 -0.24034118077E+00 -0.75847763024E+00 -0.87173095931E+00  0.90007759743E+02  0.90000021372E+02 0.  0.
        -12    1    1    2    0    0  0.24034118077E+00  0.75847763024E+00  0.87173095931E+00  0.11802402570E+01  0.00000000000E+00 0.  1.
         11    1    3    3    0    0 -0.35960846618E+01  0.20377949812E+02 -0.33456539762E+02  0.39338692360E+02  0.51100000000E-03 0. -1.
        -11    1    3    3    0    0 -0.95176719886E+01  0.33306146310E+01  0.38498785017E+01  0.10793546157E+02  0.51100000000E-03 0.  1.
        -12    1    3    3    0    0  0.12873415470E+02 -0.24467042073E+02  0.28734930301E+02  0.39875521227E+02  0.00000000000E+00 0.  1.
</event>
<event>
 7    1  0.1716782E-015  0.9000772E+02  0.7816164E-02  0.1186339E+00
        -11   -1    0    0    0    0  0.00000000000E+00  0.00000000000E+00  0.45593999997E+02  0.45594000000E+02  0.51100000000E-03 0.  1.
         11   -1    0    0    0    0 -0.00000000000E+00 -0.00000000000E+00 -0.45593999997E+02  0.45594000000E+02  0.51100000000E-03 0. -1.
    9900012    2    1    2    0    0 -0.24577236981E+00 -0.70099073498E+00 -0.91721196721E+00  0.90007716195E+02  0.89999977248E+02 0.  0.
        -12    1    1    2    0    0  0.24577236981E+00  0.70099073498E+00  0.91721196721E+00  0.11802838053E+01  0.00000000000E+00 0.  1.
         11    1    3    3    0    0 -0.14124832948E+02 -0.12090917923E+02 -0.28541486934E+02  0.34063436096E+02  0.51100000000E-03 0. -1.
        -11    1    3    3    0    0 -0.88524795276E+01 -0.11282765558E+02  0.12516048668E+01  0.14395614174E+02  0.51100000000E-03 0.  1.
        -12    1    3    3    0    0  0.22731540105E+02  0.22672692747E+02  0.26372670100E+02  0.41548665925E+02  0.00000000000E+00 0.  1.
</event>
<event>
 7    1  0.1716782E-015  0.9000803E+02  0.7816164E-02  0.1186338E+00
        -11   -1    0    0    0    0  0.00000000000E+00  0.00000000000E+00  0.45593999997E+02  0.45594000000E+02  0.51100000000E-03 0. -1.
         11   -1    0    0    0    0 -0.00000000000E+00 -0.00000000000E+00 -0.45593999997E+02  0.45594000000E+02  0.51100000000E-03 0.  1.
    9900012    2    1    2    0    0  0.10224778983E+01 -0.29002445049E+00  0.51259030172E+00  0.90008032182E+02  0.90000297406E+02 0.  0.
        -12    1    1    2    0    0 -0.10224778983E+01  0.29002445049E+00 -0.51259030172E+00  0.11799678181E+01  0.00000000000E+00 0.  1.
         11    1    3    3    0    0 -0.35107486539E+02 -0.39041886629E+01 -0.94531397393E+01  0.36566927016E+02  0.51100000000E-03 0. -1.
        -11    1    3    3    0    0 -0.53138441187E+01 -0.67435631947E+01  0.61327311193E+01  0.10550970340E+02  0.51100000000E-03 0.  1.
        -12    1    3    3    0    0  0.41443808556E+02  0.10357727407E+02  0.38329989217E+01  0.42890134826E+02  0.00000000000E+00 0.  1.
</event>
<event>
 7    1  0.1716782E-015  0.9000775E+02  0.7816164E-02  0.1186339E+00
        -11   -1    0    0    0    0  0.00000000000E+00  0.00000000000E+00  0.45593999997E+02  0.45594000000E+02  0.51100000000E-03 0.  1.
         11   -1    0    0    0    0 -0.00000000000E+00 -0.00000000000E+00 -0.45593999997E+02  0.45594000000E+02  0.51100000000E-03 0. -1.
    9900012    2    1    2    0    0 -0.92114962822E+00  0.64262274802E+00  0.36265745358E+00  0.90007745340E+02  0.90000006778E+02 0.  0.
        -12    1    1    2    0    0  0.92114962822E+00 -0.64262274802E+00 -0.36265745358E+00  0.11802546600E+01  0.00000000000E+00 0.  1.
         11    1    3    3    0    0 -0.83775540083E+01  0.99173362984E+00  0.63069032551E+01  0.10532994621E+02  0.51100000000E-03 0. -1.
        -11    1    3    3    0    0  0.38041943822E+02 -0.12770415321E+02  0.12022645322E+02  0.41890535900E+02  0.51100000000E-03 0.  1.
         12    1    3    3    0    0 -0.30585539442E+02  0.12421304439E+02 -0.17966891124E+02  0.37584214819E+02  0.00000000000E+00 0. -1.
</event>
<event>
 7    1  0.1716782E-015  0.9000760E+02  0.7816164E-02  0.1186339E+00
        -11   -1    0    0    0    0  0.00000000000E+00  0.00000000000E+00  0.45593999997E+02  0.45594000000E+02  0.51100000000E-03 0.  1.
         11   -1    0    0    0    0 -0.00000000000E+00 -0.00000000000E+00 -0.45593999997E+02  0.45594000000E+02  0.51100000000E-03 0. -1.
    9900012    2    1    2    0    0  0.50011793026E+00 -0.49614272862E+00 -0.94713229204E+00  0.90007603825E+02  0.89999863395E+02 0.  0.
        -12    1    1    2    0    0 -0.50011793026E+00  0.49614272862E+00  0.94713229204E+00  0.11803961750E+01  0.00000000000E+00 0.  1.
         11    1    3    3    0    0  0.24116988905E+02  0.32158275287E+02 -0.43450395909E+01  0.40430968237E+02  0.51100000000E-03 0. -1.
        -11    1    3    3    0    0  0.20689695136E+01 -0.62237062897E+01 -0.86015240095E+01  0.10816717172E+02  0.51100000000E-03 0.  1.
        -12    1    3    3    0    0 -0.25685840488E+02 -0.26430711726E+02  0.11999431308E+02  0.38759918416E+02  0.00000000000E+00 0.  1.
</event>
<event>
 7    1  0.1716782E-015  0.9000767E+02  0.7816164E-02  0.1186339E+00
        -11   -1    0    0    0    0  0.00000000000E+00  0.00000000000E+00  0.45593999997E+02  0.45594000000E+02  0.51100000000E-03 0.  1.
         11   -1    0    0    0    0 -0.00000000000E+00 -0.00000000000E+00 -0.45593999997E+02  0.45594000000E+02  0.51100000000E-03 0. -1.
    9900012    2    1    2    0    0 -0.25227423676E+00 -0.11398513473E+01  0.17403211314E+00  0.90007665064E+02  0.89999925443E+02 0.  0.
        -12    1    1    2    0    0  0.25227423676E+00  0.11398513473E+01 -0.17403211314E+00  0.11803349359E+01  0.00000000000E+00 0.  1.
         11    1    3    3    0    0 -0.81757577860E+01  0.13958934696E+01  0.63629931055E+01  0.10453669953E+02  0.51100000000E-03 0. -1.
        -11    1    3    3    0    0 -0.66334353512E+01 -0.17157949283E+02  0.31562527138E+02  0.36532051787E+02  0.51100000000E-03 0.  1.
         12    1    3    3    0    0  0.14556918901E+02  0.14622204466E+02 -0.37751488131E+02  0.43021943324E+02  0.00000000000E+00 0. -1.
</event>
<event>
 7    1  0.1716782E-015  0.9000769E+02  0.7816164E-02  0.1186339E+00
        -11   -1    0    0    0    0  0.00000000000E+00  0.00000000000E+00  0.45593999997E+02  0.45594000000E+02  0.51100000000E-03 0.  1.
         11   -1    0    0    0    0 -0.00000000000E+00 -0.00000000000E+00 -0.45593999997E+02  0.45594000000E+02  0.51100000000E-03 0. -1.
    9900012    2    1    2    0    0  0.89174671346E+00  0.51346134844E+00 -0.57815927697E+00  0.90007693723E+02  0.89999954480E+02 0.  0.
        -12    1    1    2    0    0 -0.89174671346E+00 -0.51346134844E+00  0.57815927697E+00  0.11803062767E+01  0.00000000000E+00 0.  1.
         11    1    3    3    0    0 -0.14600908835E+01  0.88471955228E+01  0.21328922483E+01  0.92170474454E+01  0.51100000000E-03 0. -1.
        -11    1    3    3    0    0  0.71967427820E+01 -0.18764881788E+02  0.35550336950E+02  0.40837976844E+02  0.51100000000E-03 0.  1.
         12    1    3    3    0    0 -0.48449051851E+01  0.10431147614E+02 -0.38261388476E+02  0.39952669434E+02  0.00000000000E+00 0. -1.
</event>
<event>
 7    1  0.1716782E-015  0.9000768E+02  0.7816164E-02  0.1186339E+00
        -11   -1    0    0    0    0  0.00000000000E+00  0.00000000000E+00  0.45593999997E+02  0.45594000000E+02  0.51100000000E-03 0. -1.
         11   -1    0    0    0    0 -0.00000000000E+00 -0.00000000000E+00 -0.45593999997E+02  0.45594000000E+02  0.51100000000E-03 0.  1.
    9900012    2    1    2    0    0  0.60916962081E+00 -0.32219405409E+00  0.95825207553E+00  0.90007684925E+02  0.89999945566E+02 0.  0.
        -12    1    1    2    0    0 -0.60916962081E+00  0.32219405409E+00 -0.95825207553E+00  0.11803150747E+01  0.00000000000E+00 0.  1.
         11    1    3    3    0    0  0.10672340945E+02 -0.21137633725E+01 -0.18172504994E+01  0.11030378801E+02  0.51100000000E-03 0. -1.
        -11    1    3    3    0    0 -0.17391949529E+02  0.13583111054E+02 -0.33511626698E+02  0.40124929140E+02  0.51100000000E-03 0.  1.
         12    1    3    3    0    0  0.73287782050E+01 -0.11791541736E+02  0.36287129273E+02  0.38852376984E+02  0.00000000000E+00 0. -1.
</event>
<event>
 7    1  0.1716782E-015  0.9000782E+02  0.7816164E-02  0.1186339E+00
        -11   -1    0    0    0    0  0.00000000000E+00  0.00000000000E+00  0.45593999997E+02  0.45594000000E+02  0.51100000000E-03 0.  1.
         11   -1    0    0    0    0 -0.00000000000E+00 -0.00000000000E+00 -0.45593999997E+02  0.45594000000E+02  0.51100000000E-03 0. -1.
    9900012    2    1    2    0    0  0.38031137469E+00  0.35647261985E+00 -0.10588234922E+01  0.90007823463E+02  0.90000085933E+02 0.  0.
        -12    1    1    2    0    0 -0.38031137469E+00 -0.35647261985E+00  0.10588234922E+01  0.11801765368E+01  0.00000000000E+00 0.  1.
         11    1    3    3    0    0 -0.81204832959E+01 -0.53452214867E+01 -0.36279282083E+02  0.37559285809E+02  0.51100000000E-03 0. -1.
        -11    1    3    3    0    0 -0.14854092318E+01 -0.83777265670E+01 -0.41454072453E+01  0.94645202999E+01  0.51100000000E-03 0.  1.
        -12    1    3    3    0    0  0.99862039023E+01  0.14079420674E+02  0.39365865837E+02  0.42984017355E+02  0.00000000000E+00 0.  1.
</event>
<event>
 7    1  0.1716782E-015  0.9000767E+02  0.7816164E-02  0.1186339E+00
        -11   -1    0    0    0    0  0.00000000000E+00  0.00000000000E+00  0.45593999997E+02  0.45594000000E+02  0.51100000000E-03 0. -1.
         11   -1    0    0    0    0 -0.00000000000E+00 -0.00000000000E+00 -0.45593999997E+02  0.45594000000E+02  0.51100000000E-03 0.  1.
    9900012    2    1    2    0    0  0.43180483403E+00 -0.93450537192E+00  0.57742180919E+00  0.90007673075E+02  0.89999933559E+02 0.  0.
        -12    1    1    2    0    0 -0.43180483403E+00  0.93450537192E+00 -0.57742180919E+00  0.11803269253E+01  0.00000000000E+00 0.  1.
         11    1    3    3    0    0 -0.87933910976E+01 -0.15007417128E-01  0.46126788497E+00  0.88054937704E+01  0.51100000000E-03 0. -1.
        -11    1    3    3    0    0  0.81325744980E+01 -0.28916487375E+02 -0.28318779394E+02  0.41282626814E+02  0.51100000000E-03 0.  1.
         12    1    3    3    0    0  0.10926214336E+01  0.27996989421E+02  0.28434933318E+02  0.39919552490E+02  0.00000000000E+00 0. -1.
</event>
<event>
 7    1  0.1716782E-015  0.9000791E+02  0.7816164E-02  0.1186339E+00
        -11   -1    0    0    0    0  0.00000000000E+00  0.00000000000E+00  0.45593999997E+02  0.45594000000E+02  0.51100000000E-03 0. -1.
         11   -1    0    0    0    0 -0.00000000000E+00 -0.00000000000E+00 -0.45593999997E+02  0.45594000000E+02  0.51100000000E-03 0.  1.
    9900012    2    1    2    0    0 -0.26366154752E+00  0.40717981309E+00  0.10757818650E+01  0.90007907024E+02  0.90000170596E+02 0.  0.
        -12    1    1    2    0    0  0.26366154752E+00 -0.40717981309E+00 -0.10757818650E+01  0.11800929764E+01  0.00000000000E+00 0.  1.
         11    1    3    3    0    0 -0.31327182825E+01 -0.69716236632E+01 -0.90227570013E+01  0.11824872283E+02  0.51100000000E-03 0. -1.
        -11    1    3    3    0    0 -0.35783072491E+02 -0.64163622467E+01  0.70391672817E+01  0.37029013728E+02  0.51100000000E-03 0.  1.
         12    1    3    3    0    0  0.38652129226E+02  0.13795165723E+02  0.30593715846E+01  0.41154021013E+02  0.00000000000E+00 0. -1.
</event>
<event>
 7    1  0.1716782E-015  0.9000791E+02  0.7816164E-02  0.1186339E+00
        -11   -1    0    0    0    0  0.00000000000E+00  0.00000000000E+00  0.45593999997E+02  0.45594000000E+02  0.51100000000E-03 0. -1.
         11   -1    0    0    0    0 -0.00000000000E+00 -0.00000000000E+00 -0.45593999997E+02  0.45594000000E+02  0.51100000000E-03 0.  1.
    9900012    2    1    2    0    0 -0.75184845569E+00  0.67725596625E+00  0.60716546154E+00  0.90007914562E+02  0.90000178234E+02 0.  0.
        -12    1    1    2    0    0  0.75184845569E+00 -0.67725596625E+00 -0.60716546154E+00  0.11800854384E+01  0.00000000000E+00 0.  1.
         11    1    3    3    0    0  0.30689723013E+01  0.96106324719E+01 -0.13882622813E+01  0.10183816569E+02  0.51100000000E-03 0. -1.
        -11    1    3    3    0    0  0.30472566114E+02 -0.26569063108E+02  0.66844332633E+01  0.40977726247E+02  0.51100000000E-03 0.  1.
         12    1    3    3    0    0 -0.34293386871E+02  0.17635686602E+02 -0.46890055205E+01  0.38846371746E+02  0.00000000000E+00 0. -1.
</event>
<event>
 7    1  0.1716782E-015  0.9000781E+02  0.7816164E-02  0.1186339E+00
        -11   -1    0    0    0    0  0.00000000000E+00  0.00000000000E+00  0.45593999997E+02  0.45594000000E+02  0.51100000000E-03 0.  1.
         11   -1    0    0    0    0 -0.00000000000E+00 -0.00000000000E+00 -0.45593999997E+02  0.45594000000E+02  0.51100000000E-03 0. -1.
    9900012    2    1    2    0    0 -0.31546949429E+00 -0.96044807049E+00 -0.60899777025E+00  0.90007805193E+02  0.90000067422E+02 0.  0.
        -12    1    1    2    0    0  0.31546949429E+00  0.96044807049E+00  0.60899777025E+00  0.11801948068E+01  0.00000000000E+00 0.  1.
         11    1    3    3    0    0  0.15052278986E+01 -0.15530845518E+01 -0.84346799771E+01  0.87075604637E+01  0.51100000000E-03 0. -1.
        -11    1    3    3    0    0  0.21118342466E+02 -0.32531716312E+02 -0.47893565027E+01  0.39079852746E+02  0.51100000000E-03 0.  1.
         12    1    3    3    0    0 -0.22939039859E+02  0.33124352793E+02  0.12615038710E+02  0.42220391983E+02  0.00000000000E+00 0. -1.
</event>
<event>
 7    1  0.1716782E-015  0.9000794E+02  0.7816164E-02  0.1186339E+00
        -11   -1    0    0    0    0  0.00000000000E+00  0.00000000000E+00  0.45593999997E+02  0.45594000000E+02  0.51100000000E-03 0.  1.
         11   -1    0    0    0    0 -0.00000000000E+00 -0.00000000000E+00 -0.45593999997E+02  0.45594000000E+02  0.51100000000E-03 0. -1.
    9900012    2    1    2    0    0 -0.41111531780E+00  0.16210707093E-01 -0.11060137668E+01  0.90007938542E+02  0.90000202531E+02 0.  0.
        -12    1    1    2    0    0  0.41111531780E+00 -0.16210707093E-01  0.11060137668E+01  0.11800614577E+01  0.00000000000E+00 0.  1.
         11    1    3    3    0    0 -0.59456885027E+01  0.75631312408E+01 -0.11581260881E+01  0.96898618273E+01  0.51100000000E-03 0. -1.
        -11    1    3    3    0    0  0.99745236146E+00  0.25668086184E+02  0.27028937695E+02  0.37288188917E+02  0.51100000000E-03 0.  1.
         12    1    3    3    0    0  0.45371208235E+01 -0.33215006718E+02 -0.26976825374E+02  0.43029887798E+02  0.00000000000E+00 0. -1.
</event>
<event>
 7    1  0.1716782E-015  0.9000769E+02  0.7816164E-02  0.1186339E+00
        -11   -1    0    0    0    0  0.00000000000E+00  0.00000000000E+00  0.45593999997E+02  0.45594000000E+02  0.51100000000E-03 0.  1.
         11   -1    0    0    0    0 -0.00000000000E+00 -0.00000000000E+00 -0.45593999997E+02  0.45594000000E+02  0.51100000000E-03 0. -1.
    9900012    2    1    2    0    0 -0.57950290620E+00 -0.34350065518E-01 -0.10276830380E+01  0.90007688189E+02  0.89999948873E+02 0.  0.
        -12    1    1    2    0    0  0.57950290620E+00  0.34350065518E-01  0.10276830380E+01  0.11803118113E+01  0.00000000000E+00 0.  1.
         11    1    3    3    0    0  0.37923144519E+01  0.41724308184E+01  0.61096936647E+01  0.83137948480E+01  0.51100000000E-03 0. -1.
        -11    1    3    3    0    0 -0.73650194230E+01 -0.23635595336E+02  0.30469487076E+02  0.39259069282E+02  0.51100000000E-03 0.  1.
         12    1    3    3    0    0  0.29932020649E+01  0.19428814452E+02 -0.37606863778E+02  0.42434824058E+02  0.00000000000E+00 0. -1.
</event>
<event>
 7    1  0.1716782E-015  0.9000775E+02  0.7816164E-02  0.1186339E+00
        -11   -1    0    0    0    0  0.00000000000E+00  0.00000000000E+00  0.45593999997E+02  0.45594000000E+02  0.51100000000E-03 0.  1.
         11   -1    0    0    0    0 -0.00000000000E+00 -0.00000000000E+00 -0.45593999997E+02  0.45594000000E+02  0.51100000000E-03 0. -1.
    9900012    2    1    2    0    0  0.53359178633E+00  0.84358945263E+00  0.62977695119E+00  0.90007753260E+02  0.90000014803E+02 0.  0.
        -12    1    1    2    0    0 -0.53359178633E+00 -0.84358945263E+00 -0.62977695119E+00  0.11802467400E+01  0.00000000000E+00 0.  1.
         11    1    3    3    0    0 -0.71819155079E+01  0.47024417045E+01 -0.42883047038E+01  0.95959588287E+01  0.51100000000E-03 0. -1.
        -11    1    3    3    0    0 -0.11775974283E+02 -0.30092641531E+02  0.26037749224E+02  0.41499458184E+02  0.51100000000E-03 0.  1.
         12    1    3    3    0    0  0.19491481577E+02  0.26233789279E+02 -0.21119667569E+02  0.38912336248E+02  0.00000000000E+00 0. -1.
</event>
<event>
 7    1  0.1716782E-015  0.9000768E+02  0.7816164E-02  0.1186339E+00
        -11   -1    0    0    0    0  0.00000000000E+00  0.00000000000E+00  0.45593999997E+02  0.45594000000E+02  0.51100000000E-03 0.  1.
         11   -1    0    0    0    0 -0.00000000000E+00 -0.00000000000E+00 -0.45593999997E+02  0.45594000000E+02  0.51100000000E-03 0. -1.
    9900012    2    1    2    0    0 -0.37966534225E+00  0.28773459805E+00 -0.10799142594E+01  0.90007681493E+02  0.89999942088E+02 0.  0.
        -12    1    1    2    0    0  0.37966534225E+00 -0.28773459805E+00  0.10799142594E+01  0.11803185073E+01  0.00000000000E+00 0.  1.
         11    1    3    3    0    0 -0.87441922612E+01  0.23537066211E+02 -0.26531322379E+02  0.36528967294E+02  0.51100000000E-03 0. -1.
        -11    1    3    3    0    0 -0.10115892768E+01  0.10666125319E+02  0.12830268556E+01  0.10790537538E+02  0.51100000000E-03 0.  1.
        -12    1    3    3    0    0  0.93761161958E+01 -0.33915456931E+02  0.24168381264E+02  0.42688176661E+02  0.00000000000E+00 0.  1.
</event>
<event>
 7    1  0.1716782E-015  0.9000770E+02  0.7816164E-02  0.1186339E+00
        -11   -1    0    0    0    0  0.00000000000E+00  0.00000000000E+00  0.45593999997E+02  0.45594000000E+02  0.51100000000E-03 0. -1.
         11   -1    0    0    0    0 -0.00000000000E+00 -0.00000000000E+00 -0.45593999997E+02  0.45594000000E+02  0.51100000000E-03 0.  1.
    9900012    2    1    2    0    0 -0.94171766821E+00  0.67508076220E+00  0.22478971839E+00  0.90007704859E+02  0.89999965763E+02 0.  0.
        -12    1    1    2    0    0  0.94171766821E+00 -0.67508076220E+00 -0.22478971839E+00  0.11802951409E+01  0.00000000000E+00 0.  1.
         11    1    3    3    0    0 -0.42282603502E+01  0.15837361722E+01  0.92722387807E+01  0.10313138131E+02  0.51100000000E-03 0. -1.
        -11    1    3    3    0    0  0.22585838869E+02  0.19538455267E+02 -0.31726675254E+02  0.43571243666E+02  0.51100000000E-03 0.  1.
         12    1    3    3    0    0 -0.19299296187E+02 -0.20447110677E+02  0.22679226192E+02  0.36123323062E+02  0.00000000000E+00 0. -1.
</event>
<event>
 7    1  0.1716782E-015  0.9000775E+02  0.7816164E-02  0.1186339E+00
        -11   -1    0    0    0    0  0.00000000000E+00  0.00000000000E+00  0.45593999997E+02  0.45594000000E+02  0.51100000000E-03 0.  1.
         11   -1    0    0    0    0 -0.00000000000E+00 -0.00000000000E+00 -0.45593999997E+02  0.45594000000E+02  0.51100000000E-03 0. -1.
    9900012    2    1    2    0    0  0.47820909038E+00  0.29899344293E+00 -0.10367807484E+01  0.90007747767E+02  0.90000009238E+02 0.  0.
        -12    1    1    2    0    0 -0.47820909038E+00 -0.29899344293E+00  0.10367807484E+01  0.11802522329E+01  0.00000000000E+00 0.  1.
         11    1    3    3    0    0 -0.58909405231E+01 -0.14410545308E+02 -0.34173023581E+02  0.37552130928E+02  0.51100000000E-03 0. -1.
        -11    1    3    3    0    0  0.13275141026E+01  0.90196334683E-01 -0.82073598080E+01  0.83145164833E+01  0.51100000000E-03 0.  1.
        -12    1    3    3    0    0  0.50416355109E+01  0.14619342416E+02  0.41343602641E+02  0.44141100356E+02  0.00000000000E+00 0.  1.
</event>
<event>
 7    1  0.1716782E-015  0.9000773E+02  0.7816164E-02  0.1186339E+00
        -11   -1    0    0    0    0  0.00000000000E+00  0.00000000000E+00  0.45593999997E+02  0.45594000000E+02  0.51100000000E-03 0. -1.
         11   -1    0    0    0    0 -0.00000000000E+00 -0.00000000000E+00 -0.45593999997E+02  0.45594000000E+02  0.51100000000E-03 0.  1.
    9900012    2    1    2    0    0  0.45843799194E+00 -0.10238441706E+01  0.36688409899E+00  0.90007734682E+02  0.89999995980E+02 0.  0.
        -12    1    1    2    0    0 -0.45843799194E+00  0.10238441706E+01 -0.36688409899E+00  0.11802653177E+01  0.00000000000E+00 0.  1.
         11    1    3    3    0    0  0.10279779302E+01  0.88474380060E+01  0.32035923572E+01  0.94655640163E+01  0.51100000000E-03 0. -1.
        -11    1    3    3    0    0 -0.35661171726E+02  0.16988447303E+01 -0.18733172386E+02  0.40317948735E+02  0.51100000000E-03 0.  1.
         12    1    3    3    0    0  0.35091631788E+02 -0.11570126907E+02  0.15896464128E+02  0.40224221931E+02  0.00000000000E+00 0. -1.
</event>
<event>
 7    1  0.1716782E-015  0.9000775E+02  0.7816164E-02  0.1186339E+00
        -11   -1    0    0    0    0  0.00000000000E+00  0.00000000000E+00  0.45593999997E+02  0.45594000000E+02  0.51100000000E-03 0.  1.
         11   -1    0    0    0    0 -0.00000000000E+00 -0.00000000000E+00 -0.45593999997E+02  0.45594000000E+02  0.51100000000E-03 0. -1.
    9900012    2    1    2    0    0 -0.73437519324E+00 -0.72620432601E+00  0.57123928268E+00  0.90007748346E+02  0.90000009825E+02 0.  0.
        -12    1    1    2    0    0  0.73437519324E+00  0.72620432601E+00 -0.57123928268E+00  0.11802516535E+01  0.00000000000E+00 0.  1.
         11    1    3    3    0    0 -0.20876066948E+02 -0.94584181602E+01 -0.34063761345E+02  0.41056201512E+02  0.51100000000E-03 0. -1.
        -11    1    3    3    0    0  0.20112173355E+01 -0.53577969886E+01 -0.16993616187E+01  0.59698252833E+01  0.51100000000E-03 0.  1.
        -12    1    3    3    0    0  0.18130474420E+02  0.14090010823E+02  0.36334362247E+02  0.42981721551E+02  0.00000000000E+00 0.  1.
</event>
<event>
 7    1  0.1716782E-015  0.9000775E+02  0.7816164E-02  0.1186339E+00
        -11   -1    0    0    0    0  0.00000000000E+00  0.00000000000E+00  0.45593999997E+02  0.45594000000E+02  0.51100000000E-03 0. -1.
         11   -1    0    0    0    0 -0.00000000000E+00 -0.00000000000E+00 -0.45593999997E+02  0.45594000000E+02  0.51100000000E-03 0.  1.
    9900012    2    1    2    0    0 -0.40634624983E+00  0.10913503641E+01  0.19189894948E+00  0.90007750832E+02  0.90000012343E+02 0.  0.
        -12    1    1    2    0    0  0.40634624983E+00 -0.10913503641E+01 -0.19189894948E+00  0.11802491680E+01  0.00000000000E+00 0.  1.
         11    1    3    3    0    0  0.12315357029E+02 -0.12758778534E+02  0.36595420397E+02  0.40665455152E+02  0.51100000000E-03 0. -1.
        -11    1    3    3    0    0  0.75216805598E+01  0.77716756006E+01 -0.61653206519E+01  0.12449329262E+02  0.51100000000E-03 0.  1.
        -12    1    3    3    0    0 -0.20243383839E+02  0.60784532977E+01 -0.30238200796E+02  0.36892966417E+02  0.00000000000E+00 0.  1.
</event>
<event>
 7    1  0.1716782E-015  0.9000778E+02  0.7816164E-02  0.1186339E+00
        -11   -1    0    0    0    0  0.00000000000E+00  0.00000000000E+00  0.45593999997E+02  0.45594000000E+02  0.51100000000E-03 0.  1.
         11   -1    0    0    0    0 -0.00000000000E+00 -0.00000000000E+00 -0.45593999997E+02  0.45594000000E+02  0.51100000000E-03 0. -1.
    9900012    2    1    2    0    0  0.66422186099E+00  0.47676653793E+00  0.85113656750E+00  0.90007775246E+02  0.90000037080E+02 0.  0.
        -12    1    1    2    0    0 -0.66422186099E+00 -0.47676653793E+00 -0.85113656750E+00  0.11802247535E+01  0.00000000000E+00 0.  1.
         11    1    3    3    0    0 -0.19345176739E+02  0.32683581539E+02  0.59446152215E+01  0.38442044894E+02  0.51100000000E-03 0. -1.
        -11    1    3    3    0    0  0.56137812903E+01  0.67757884115E+01  0.28668786730E+01  0.92544498788E+01  0.51100000000E-03 0.  1.
        -12    1    3    3    0    0  0.14395617310E+02 -0.38982603412E+02 -0.79603573270E+01  0.42311280473E+02  0.00000000000E+00 0.  1.
</event>
<event>
 7    1  0.1716782E-015  0.9000766E+02  0.7816164E-02  0.1186339E+00
        -11   -1    0    0    0    0  0.00000000000E+00  0.00000000000E+00  0.45593999997E+02  0.45594000000E+02  0.51100000000E-03 0.  1.
         11   -1    0    0    0    0 -0.00000000000E+00 -0.00000000000E+00 -0.45593999997E+02  0.45594000000E+02  0.51100000000E-03 0. -1.
    9900012    2    1    2    0    0  0.21255065502E-01  0.95972647119E+00 -0.68678811823E+00  0.90007659118E+02  0.89999919419E+02 0.  0.
        -12    1    1    2    0    0 -0.21255065502E-01 -0.95972647119E+00  0.68678811823E+00  0.11803408815E+01  0.00000000000E+00 0.  1.
         11    1    3    3    0    0  0.36714109036E+01  0.47764048994E+01  0.65032201702E+01  0.88648279526E+01  0.51100000000E-03 0. -1.
        -11    1    3    3    0    0  0.29537651570E+02  0.58459503650E+01  0.20857705071E+02  0.36629112152E+02  0.51100000000E-03 0.  1.
         12    1    3    3    0    0 -0.33187807408E+02 -0.96626287931E+01 -0.28047713360E+02  0.44513719014E+02  0.00000000000E+00 0. -1.
</event>
<event>
 7    1  0.1716782E-015  0.9000775E+02  0.7816164E-02  0.1186339E+00
        -11   -1    0    0    0    0  0.00000000000E+00  0.00000000000E+00  0.45593999997E+02  0.45594000000E+02  0.51100000000E-03 0.  1.
         11   -1    0    0    0    0 -0.00000000000E+00 -0.00000000000E+00 -0.45593999997E+02  0.45594000000E+02  0.51100000000E-03 0. -1.
    9900012    2    1    2    0    0 -0.82542219206E+00  0.68390772142E+00 -0.49391176414E+00  0.90007745622E+02  0.90000007064E+02 0.  0.
        -12    1    1    2    0    0  0.82542219206E+00 -0.68390772142E+00  0.49391176414E+00  0.11802543782E+01  0.00000000000E+00 0.  1.
         11    1    3    3    0    0 -0.14738005696E+02 -0.15248572204E+02 -0.34717489062E+02  0.40682082213E+02  0.51100000000E-03 0. -1.
        -11    1    3    3    0    0 -0.74755893016E+01 -0.18106639974E+01  0.64780880971E+01  0.10056269943E+02  0.51100000000E-03 0.  1.
        -12    1    3    3    0    0  0.21388172805E+02  0.17743143923E+02  0.27745489200E+02  0.39269393466E+02  0.00000000000E+00 0.  1.
</event>
<event>
 7    1  0.1716782E-015  0.9000766E+02  0.7816164E-02  0.1186339E+00
        -11   -1    0    0    0    0  0.00000000000E+00  0.00000000000E+00  0.45593999997E+02  0.45594000000E+02  0.51100000000E-03 0.  1.
         11   -1    0    0    0    0 -0.00000000000E+00 -0.00000000000E+00 -0.45593999997E+02  0.45594000000E+02  0.51100000000E-03 0. -1.
    9900012    2    1    2    0    0  0.11701011444E+01  0.14004494187E+00 -0.66706047709E-01  0.90007661502E+02  0.89999921833E+02 0.  0.
        -12    1    1    2    0    0 -0.11701011444E+01 -0.14004494187E+00  0.66706047709E-01  0.11803384983E+01  0.00000000000E+00 0.  1.
         11    1    3    3    0    0  0.22308835795E+02  0.13221333748E+02 -0.26577027728E+02  0.37132549384E+02  0.51100000000E-03 0. -1.
        -11    1    3    3    0    0 -0.55800350209E+01  0.10221745104E+02 -0.31586355574E+01  0.12066393109E+02  0.51100000000E-03 0.  1.
        -12    1    3    3    0    0 -0.15558699630E+02 -0.23303033910E+02  0.29668957238E+02  0.40808719009E+02  0.00000000000E+00 0.  1.
</event>
<event>
 7    1  0.1716782E-015  0.9000747E+02  0.7816164E-02  0.1186340E+00
        -11   -1    0    0    0    0  0.00000000000E+00  0.00000000000E+00  0.45593999997E+02  0.45594000000E+02  0.51100000000E-03 0.  1.
         11   -1    0    0    0    0 -0.00000000000E+00 -0.00000000000E+00 -0.45593999997E+02  0.45594000000E+02  0.51100000000E-03 0. -1.
    9900012    2    1    2    0    0 -0.10835564078E+01  0.19863016741E+00 -0.42438261329E+00  0.90007470867E+02  0.89999728682E+02 0.  0.
        -12    1    1    2    0    0  0.10835564078E+01 -0.19863016741E+00  0.42438261329E+00  0.11805291333E+01  0.00000000000E+00 0.  1.
         11    1    3    3    0    0 -0.10186042806E+01  0.17147619562E+02 -0.41097430372E+02  0.44542981431E+02  0.51100000000E-03 0. -1.
        -11    1    3    3    0    0 -0.34153254351E+01 -0.65382568036E+00  0.97329350443E+01  0.10335470995E+02  0.51100000000E-03 0.  1.
        -12    1    3    3    0    0  0.33503733079E+01 -0.16295163714E+02  0.30940112715E+02  0.35129018440E+02  0.00000000000E+00 0.  1.
</event>
<event>
 7    1  0.1716782E-015  0.9000761E+02  0.7816164E-02  0.1186339E+00
        -11   -1    0    0    0    0  0.00000000000E+00  0.00000000000E+00  0.45593999997E+02  0.45594000000E+02  0.51100000000E-03 0. -1.
         11   -1    0    0    0    0 -0.00000000000E+00 -0.00000000000E+00 -0.45593999997E+02  0.45594000000E+02  0.51100000000E-03 0.  1.
    9900012    2    1    2    0    0  0.81380054584E+00  0.70240326286E+00 -0.48751317745E+00  0.90007614143E+02  0.89999873850E+02 0.  0.
        -12    1    1    2    0    0 -0.81380054584E+00 -0.70240326286E+00  0.48751317745E+00  0.11803858565E+01  0.00000000000E+00 0.  1.
         11    1    3    3    0    0 -0.53629488247E+01  0.11204774152E+02  0.69379784138E+01  0.14228272159E+02  0.51100000000E-03 0. -1.
        -11    1    3    3    0    0 -0.19262654173E+02  0.24030887448E+02  0.48213157025E+01  0.31173361748E+02  0.51100000000E-03 0.  1.
         12    1    3    3    0    0  0.25439403543E+02 -0.34533258337E+02 -0.12246807294E+02  0.44605980237E+02  0.00000000000E+00 0. -1.
</event>
<event>
 7    1  0.1716782E-015  0.9000776E+02  0.7816164E-02  0.1186339E+00
        -11   -1    0    0    0    0  0.00000000000E+00  0.00000000000E+00  0.45593999997E+02  0.45594000000E+02  0.51100000000E-03 0. -1.
         11   -1    0    0    0    0 -0.00000000000E+00 -0.00000000000E+00 -0.45593999997E+02  0.45594000000E+02  0.51100000000E-03 0.  1.
    9900012    2    1    2    0    0 -0.11221672824E+01  0.66384887444E-01 -0.35958345215E+00  0.90007759930E+02  0.90000021561E+02 0.  0.
        -12    1    1    2    0    0  0.11221672824E+01 -0.66384887444E-01  0.35958345215E+00  0.11802400697E+01  0.00000000000E+00 0.  1.
         11    1    3    3    0    0 -0.10648692479E+02 -0.13764230877E+01  0.90903430681E+01  0.14068529752E+02  0.51100000000E-03 0. -1.
        -11    1    3    3    0    0 -0.12532600648E+02  0.23578014526E+02 -0.28728129042E+02  0.39221094407E+02  0.51100000000E-03 0.  1.
         12    1    3    3    0    0  0.22059125844E+02 -0.22135206550E+02  0.19278202522E+02  0.36718135771E+02  0.00000000000E+00 0. -1.
</event>
<event>
 7    1  0.1716782E-015  0.9000768E+02  0.7816164E-02  0.1186339E+00
        -11   -1    0    0    0    0  0.00000000000E+00  0.00000000000E+00  0.45593999997E+02  0.45594000000E+02  0.51100000000E-03 0. -1.
         11   -1    0    0    0    0 -0.00000000000E+00 -0.00000000000E+00 -0.45593999997E+02  0.45594000000E+02  0.51100000000E-03 0.  1.
    9900012    2    1    2    0    0  0.90174945530E+00  0.10222459042E-01  0.76150431033E+00  0.90007684198E+02  0.89999944829E+02 0.  0.
        -12    1    1    2    0    0 -0.90174945530E+00 -0.10222459042E-01 -0.76150431033E+00  0.11803158024E+01  0.00000000000E+00 0.  1.
         11    1    3    3    0    0  0.30377278341E+01 -0.42632028776E+01 -0.78919042587E+01  0.94702081424E+01  0.51100000000E-03 0. -1.
        -11    1    3    3    0    0 -0.49499680193E+01 -0.23041392296E+02 -0.26803581251E+02  0.35690893943E+02  0.51100000000E-03 0.  1.
         12    1    3    3    0    0  0.28139896405E+01  0.27314817633E+02  0.35456989820E+02  0.44846582112E+02  0.00000000000E+00 0. -1.
</event>
<event>
 7    1  0.1839608E-015  0.9000775E+02  0.7816164E-02  0.1186339E+00
        -11   -1    0    0    0    0  0.00000000000E+00  0.00000000000E+00  0.45593999997E+02  0.45594000000E+02  0.51100000000E-03 0.  1.
         11   -1    0    0    0    0 -0.00000000000E+00 -0.00000000000E+00 -0.45593999997E+02  0.45594000000E+02  0.51100000000E-03 0. -1.
    9900012    2    1    2    0    0  0.45353993215E+00  0.37017278114E+00 -0.10248258417E+01  0.90007748178E+02  0.90000009654E+02 0.  0.
        -12    1    1    2    0    0 -0.45353993215E+00 -0.37017278114E+00  0.10248258417E+01  0.11802518222E+01  0.00000000000E+00 0.  1.
         11    1    3    3    0    0 -0.11043136906E+02 -0.26448224729E+02 -0.25400715802E+02  0.38296942797E+02  0.51100000000E-03 0. -1.
        -11    1    3    3    0    0 -0.11996388893E+01 -0.81729749538E+01  0.59219175531E+01  0.10163944157E+02  0.51100000000E-03 0.  1.
        -12    1    3    3    0    0  0.12696315727E+02  0.34991372464E+02  0.18453972407E+02  0.41546861224E+02  0.00000000000E+00 0.  1.
</event>
<event>
 7    1  0.1716782E-015  0.9000776E+02  0.7816164E-02  0.1186339E+00
        -11   -1    0    0    0    0  0.00000000000E+00  0.00000000000E+00  0.45593999997E+02  0.45594000000E+02  0.51100000000E-03 0. -1.
         11   -1    0    0    0    0 -0.00000000000E+00 -0.00000000000E+00 -0.45593999997E+02  0.45594000000E+02  0.51100000000E-03 0.  1.
    9900012    2    1    2    0    0 -0.26924943178E+00 -0.93001380817E+00 -0.67494820759E+00  0.90007755948E+02  0.90000017526E+02 0.  0.
        -12    1    1    2    0    0  0.26924943178E+00  0.93001380817E+00  0.67494820759E+00  0.11802440522E+01  0.00000000000E+00 0.  1.
         11    1    3    3    0    0 -0.85917997512E+01 -0.82633933434E+01  0.20615093708E+01  0.12097624298E+02  0.51100000000E-03 0. -1.
        -11    1    3    3    0    0  0.34820124520E+02 -0.15278689208E+02 -0.15147762744E+02  0.40930845727E+02  0.51100000000E-03 0.  1.
         12    1    3    3    0    0 -0.26497574201E+02  0.22612068743E+02  0.12411305166E+02  0.36979285922E+02  0.00000000000E+00 0. -1.
</event>
<event>
 7    1  0.1716782E-015  0.9000789E+02  0.7816164E-02  0.1186339E+00
        -11   -1    0    0    0    0  0.00000000000E+00  0.00000000000E+00  0.45593999997E+02  0.45594000000E+02  0.51100000000E-03 0. -1.
         11   -1    0    0    0    0 -0.00000000000E+00 -0.00000000000E+00 -0.45593999997E+02  0.45594000000E+02  0.51100000000E-03 0.  1.
    9900012    2    1    2    0    0  0.37596639081E+00  0.10429453477E+01  0.40444016265E+00  0.90007890865E+02  0.90000154224E+02 0.  0.
        -12    1    1    2    0    0 -0.37596639081E+00 -0.10429453477E+01 -0.40444016265E+00  0.11801091350E+01  0.00000000000E+00 0.  1.
         11    1    3    3    0    0 -0.75202141958E+01 -0.28692032617E+02  0.22604644773E+02  0.37292845464E+02  0.51100000000E-03 0. -1.
        -11    1    3    3    0    0 -0.56695285781E+01  0.26161496583E+01  0.78460522344E+01  0.10027378983E+02  0.51100000000E-03 0.  1.
        -12    1    3    3    0    0  0.13565709165E+02  0.27118828306E+02 -0.30046256845E+02  0.42687666418E+02  0.00000000000E+00 0.  1.
</event>
<event>
 7    1  0.1716782E-015  0.9000772E+02  0.7816164E-02  0.1186339E+00
        -11   -1    0    0    0    0  0.00000000000E+00  0.00000000000E+00  0.45593999997E+02  0.45594000000E+02  0.51100000000E-03 0. -1.
         11   -1    0    0    0    0 -0.00000000000E+00 -0.00000000000E+00 -0.45593999997E+02  0.45594000000E+02  0.51100000000E-03 0.  1.
    9900012    2    1    2    0    0  0.86140557707E+00  0.78452464000E+00 -0.18860829281E+00  0.90007715472E+02  0.89999976516E+02 0.  0.
        -12    1    1    2    0    0 -0.86140557707E+00 -0.78452464000E+00  0.18860829281E+00  0.11802845280E+01  0.00000000000E+00 0.  1.
         11    1    3    3    0    0 -0.11006182652E+00  0.80170076084E+00 -0.88259134181E+01  0.88629332414E+01  0.51100000000E-03 0. -1.
        -11    1    3    3    0    0 -0.23286202679E+02  0.20225581134E+02 -0.21408187408E+02  0.37545064333E+02  0.51100000000E-03 0.  1.
         12    1    3    3    0    0  0.24257670083E+02 -0.20242757255E+02  0.30045492534E+02  0.43599717897E+02  0.00000000000E+00 0. -1.
</event>
<event>
 7    1  0.1716782E-015  0.9000794E+02  0.7816164E-02  0.1186339E+00
        -11   -1    0    0    0    0  0.00000000000E+00  0.00000000000E+00  0.45593999997E+02  0.45594000000E+02  0.51100000000E-03 0. -1.
         11   -1    0    0    0    0 -0.00000000000E+00 -0.00000000000E+00 -0.45593999997E+02  0.45594000000E+02  0.51100000000E-03 0.  1.
    9900012    2    1    2    0    0  0.82869659382E+00  0.47087923095E+00  0.69575299608E+00  0.90007941728E+02  0.90000205758E+02 0.  0.
        -12    1    1    2    0    0 -0.82869659382E+00 -0.47087923095E+00 -0.69575299608E+00  0.11800582724E+01  0.00000000000E+00 0.  1.
         11    1    3    3    0    0 -0.32848673747E-01 -0.68343161123E+01 -0.44781062460E+01  0.81708256357E+01  0.51100000000E-03 0. -1.
        -11    1    3    3    0    0 -0.13369944959E+02  0.10235251455E+02 -0.35150255649E+02  0.38975072456E+02  0.51100000000E-03 0.  1.
         12    1    3    3    0    0  0.14231490226E+02 -0.29300561118E+01  0.40324114891E+02  0.42862043635E+02  0.00000000000E+00 0. -1.
</event>
<event>
 7    1  0.1716782E-015  0.9000755E+02  0.7816164E-02  0.1186339E+00
        -11   -1    0    0    0    0  0.00000000000E+00  0.00000000000E+00  0.45593999997E+02  0.45594000000E+02  0.51100000000E-03 0.  1.
         11   -1    0    0    0    0 -0.00000000000E+00 -0.00000000000E+00 -0.45593999997E+02  0.45594000000E+02  0.51100000000E-03 0. -1.
    9900012    2    1    2    0    0  0.88152229470E-01  0.11019110989E+01  0.41410276554E+00  0.90007550939E+02  0.89999809811E+02 0.  0.
        -12    1    1    2    0    0 -0.88152229470E-01 -0.11019110989E+01 -0.41410276554E+00  0.11804490611E+01  0.00000000000E+00 0.  1.
         11    1    3    3    0    0  0.35717205265E+01  0.40551700721E+01 -0.68837775112E+01  0.87514561598E+01  0.51100000000E-03 0. -1.
        -11    1    3    3    0    0  0.19200044241E+02  0.70697828571E+01  0.37171414776E+02  0.42430385400E+02  0.51100000000E-03 0.  1.
         12    1    3    3    0    0 -0.22683612538E+02 -0.10023041830E+02 -0.29873534499E+02  0.38825709379E+02  0.00000000000E+00 0. -1.
</event>
<event>
 7    1  0.1716782E-015  0.9000774E+02  0.7816164E-02  0.1186339E+00
        -11   -1    0    0    0    0  0.00000000000E+00  0.00000000000E+00  0.45593999997E+02  0.45594000000E+02  0.51100000000E-03 0. -1.
         11   -1    0    0    0    0 -0.00000000000E+00 -0.00000000000E+00 -0.45593999997E+02  0.45594000000E+02  0.51100000000E-03 0.  1.
    9900012    2    1    2    0    0 -0.48278070530E+00 -0.30081980583E-01  0.10765830057E+01  0.90007740239E+02  0.90000001610E+02 0.  0.
        -12    1    1    2    0    0  0.48278070530E+00  0.30081980583E-01 -0.10765830057E+01  0.11802597609E+01  0.00000000000E+00 0.  1.
         11    1    3    3    0    0 -0.28815076287E+01  0.11439798814E+02  0.29261014630E+01  0.12154593911E+02  0.51100000000E-03 0. -1.
        -11    1    3    3    0    0 -0.16904285014E+02 -0.77875359784E+01 -0.34813427334E+02  0.39476262379E+02  0.51100000000E-03 0.  1.
         12    1    3    3    0    0  0.19303011938E+02 -0.36823448159E+01  0.32963908876E+02  0.38376883949E+02  0.00000000000E+00 0. -1.
</event>
<event>
 7    1  0.1716782E-015  0.9000773E+02  0.7816164E-02  0.1186339E+00
        -11   -1    0    0    0    0  0.00000000000E+00  0.00000000000E+00  0.45593999997E+02  0.45594000000E+02  0.51100000000E-03 0.  1.
         11   -1    0    0    0    0 -0.00000000000E+00 -0.00000000000E+00 -0.45593999997E+02  0.45594000000E+02  0.51100000000E-03 0. -1.
    9900012    2    1    2    0    0 -0.44785284733E+00 -0.89495195086E+00 -0.62572072776E+00  0.90007729863E+02  0.89999991097E+02 0.  0.
        -12    1    1    2    0    0  0.44785284733E+00  0.89495195086E+00  0.62572072776E+00  0.11802701370E+01  0.00000000000E+00 0.  1.
         11    1    3    3    0    0  0.71755704783E+01  0.48682004460E+01 -0.30354739451E+00  0.86764237191E+01  0.51100000000E-03 0. -1.
        -11    1    3    3    0    0 -0.15015407822E+02  0.93158050172E+01  0.36670142519E+02  0.40705602167E+02  0.51100000000E-03 0.  1.
         12    1    3    3    0    0  0.73919844968E+01 -0.15078957414E+02 -0.36992315852E+02  0.40625703977E+02  0.00000000000E+00 0. -1.
</event>
<event>
 7    1  0.1716782E-015  0.9000775E+02  0.7816164E-02  0.1186339E+00
        -11   -1    0    0    0    0  0.00000000000E+00  0.00000000000E+00  0.45593999997E+02  0.45594000000E+02  0.51100000000E-03 0.  1.
         11   -1    0    0    0    0 -0.00000000000E+00 -0.00000000000E+00 -0.45593999997E+02  0.45594000000E+02  0.51100000000E-03 0. -1.
    9900012    2    1    2    0    0  0.11364995076E+01 -0.18691035280E-01 -0.31781135770E+00  0.90007752338E+02  0.90000013868E+02 0.  0.
        -12    1    1    2    0    0 -0.11364995076E+01  0.18691035280E-01  0.31781135770E+00  0.11802476625E+01  0.00000000000E+00 0.  1.
         11    1    3    3    0    0  0.16613020683E+02  0.32185702412E+02 -0.14703982395E+02  0.39091162614E+02  0.51100000000E-03 0. -1.
        -11    1    3    3    0    0  0.25463631306E+00  0.49209737149E+01  0.89691452198E+01  0.10233591168E+02  0.51100000000E-03 0.  1.
        -12    1    3    3    0    0 -0.15731157488E+02 -0.37125367162E+02  0.54170258177E+01  0.40682998556E+02  0.00000000000E+00 0.  1.
</event>
<event>
 7    1  0.1716782E-015  0.9000747E+02  0.7816164E-02  0.1186340E+00
        -11   -1    0    0    0    0  0.00000000000E+00  0.00000000000E+00  0.45593999997E+02  0.45594000000E+02  0.51100000000E-03 0.  1.
         11   -1    0    0    0    0 -0.00000000000E+00 -0.00000000000E+00 -0.45593999997E+02  0.45594000000E+02  0.51100000000E-03 0. -1.
    9900012    2    1    2    0    0  0.47261619057E+00 -0.96068643795E+00 -0.49736077047E+00  0.90007469513E+02  0.89999727310E+02 0.  0.
        -12    1    1    2    0    0 -0.47261619057E+00  0.96068643795E+00  0.49736077047E+00  0.11805304874E+01  0.00000000000E+00 0.  1.
         11    1    3    3    0    0 -0.11539296603E+02 -0.22013393794E+02 -0.32912457924E+02  0.41242875255E+02  0.51100000000E-03 0. -1.
        -11    1    3    3    0    0 -0.22845459241E+01  0.92860681295E+01 -0.19211977582E+01  0.97540357018E+01  0.51100000000E-03 0.  1.
        -12    1    3    3    0    0  0.14296458718E+02  0.11766639226E+02  0.34336294912E+02  0.39010558556E+02  0.00000000000E+00 0.  1.
</event>
<event>
 7    1  0.1716782E-015  0.9000777E+02  0.7816164E-02  0.1186339E+00
        -11   -1    0    0    0    0  0.00000000000E+00  0.00000000000E+00  0.45593999997E+02  0.45594000000E+02  0.51100000000E-03 0. -1.
         11   -1    0    0    0    0 -0.00000000000E+00 -0.00000000000E+00 -0.45593999997E+02  0.45594000000E+02  0.51100000000E-03 0.  1.
    9900012    2    1    2    0    0  0.43418082287E+00 -0.96562701686E+00  0.52152829282E+00  0.90007771089E+02  0.90000032867E+02 0.  0.
        -12    1    1    2    0    0 -0.43418082287E+00  0.96562701686E+00 -0.52152829282E+00  0.11802289112E+01  0.00000000000E+00 0.  1.
         11    1    3    3    0    0 -0.18696329191E+02  0.32020525832E+01  0.70075334082E+01  0.20221557573E+02  0.51100000000E-03 0. -1.
        -11    1    3    3    0    0  0.42069137042E+01 -0.48622302800E+01 -0.36072875781E+02  0.36641394264E+02  0.51100000000E-03 0.  1.
         12    1    3    3    0    0  0.14923596309E+02  0.69455067989E+00  0.29586870666E+02  0.33144819252E+02  0.00000000000E+00 0. -1.
</event>
<event>
 7    1  0.1716782E-015  0.9000788E+02  0.7816164E-02  0.1186339E+00
        -11   -1    0    0    0    0  0.00000000000E+00  0.00000000000E+00  0.45593999997E+02  0.45594000000E+02  0.51100000000E-03 0.  1.
         11   -1    0    0    0    0 -0.00000000000E+00 -0.00000000000E+00 -0.45593999997E+02  0.45594000000E+02  0.51100000000E-03 0. -1.
    9900012    2    1    2    0    0  0.89662503237E+00  0.66046655529E+00 -0.39054481070E+00  0.90007882307E+02  0.90000145554E+02 0.  0.
        -12    1    1    2    0    0 -0.89662503237E+00 -0.66046655529E+00  0.39054481070E+00  0.11801176926E+01  0.00000000000E+00 0.  1.
         11    1    3    3    0    0  0.13407682497E+02  0.13023207871E+02 -0.33083446020E+02  0.37998477522E+02  0.51100000000E-03 0. -1.
        -11    1    3    3    0    0 -0.53491308250E+01  0.52940112430E+01 -0.55040085519E+01  0.93238332259E+01  0.51100000000E-03 0.  1.
        -12    1    3    3    0    0 -0.71619266394E+01 -0.17656752558E+02  0.38196909761E+02  0.42685571560E+02  0.00000000000E+00 0.  1.
</event>
<event>
 7    1  0.1716782E-015  0.9000776E+02  0.7816164E-02  0.1186339E+00
        -11   -1    0    0    0    0  0.00000000000E+00  0.00000000000E+00  0.45593999997E+02  0.45594000000E+02  0.51100000000E-03 0.  1.
         11   -1    0    0    0    0 -0.00000000000E+00 -0.00000000000E+00 -0.45593999997E+02  0.45594000000E+02  0.51100000000E-03 0. -1.
    9900012    2    1    2    0    0 -0.96932215610E+00  0.21079014819E+00  0.63949270455E+00  0.90007758987E+02  0.90000020606E+02 0.  0.
        -12    1    1    2    0    0  0.96932215610E+00 -0.21079014819E+00 -0.63949270455E+00  0.11802410127E+01  0.00000000000E+00 0.  1.
         11    1    3    3    0    0  0.19229965955E+02  0.12017156415E+02 -0.31895742254E+02  0.39134920636E+02  0.51100000000E-03 0. -1.
        -11    1    3    3    0    0  0.73910691920E+01 -0.88245034182E+00  0.89908600927E+00  0.74976648578E+01  0.51100000000E-03 0.  1.
        -12    1    3    3    0    0 -0.27590357303E+02 -0.10923915925E+02  0.31636148950E+02  0.43375173494E+02  0.00000000000E+00 0.  1.
</event>
<event>
 7    1  0.1716782E-015  0.9000777E+02  0.7816164E-02  0.1186339E+00
        -11   -1    0    0    0    0  0.00000000000E+00  0.00000000000E+00  0.45593999997E+02  0.45594000000E+02  0.51100000000E-03 0.  1.
         11   -1    0    0    0    0 -0.00000000000E+00 -0.00000000000E+00 -0.45593999997E+02  0.45594000000E+02  0.51100000000E-03 0. -1.
    9900012    2    1    2    0    0  0.87901938646E+00 -0.29614717270E+00  0.72976571141E+00  0.90007772809E+02  0.90000034610E+02 0.  0.
        -12    1    1    2    0    0 -0.87901938646E+00  0.29614717270E+00 -0.72976571141E+00  0.11802271914E+01  0.00000000000E+00 0.  1.
         11    1    3    3    0    0 -0.73341597622E+01 -0.34218957525E+01 -0.12719256454E+01  0.81925005381E+01  0.51100000000E-03 0. -1.
        -11    1    3    3    0    0 -0.31857507773E+02  0.11331718524E+02  0.17502595191E+02  0.38074262762E+02  0.51100000000E-03 0.  1.
         12    1    3    3    0    0  0.40070686922E+02 -0.82059699441E+01 -0.15500903835E+02  0.43741009508E+02  0.00000000000E+00 0. -1.
</event>
<event>
 7    1  0.1716782E-015  0.9000769E+02  0.7816164E-02  0.1186339E+00
        -11   -1    0    0    0    0  0.00000000000E+00  0.00000000000E+00  0.45593999997E+02  0.45594000000E+02  0.51100000000E-03 0. -1.
         11   -1    0    0    0    0 -0.00000000000E+00 -0.00000000000E+00 -0.45593999997E+02  0.45594000000E+02  0.51100000000E-03 0.  1.
    9900012    2    1    2    0    0  0.77582909363E+00 -0.64678761424E+00 -0.61063782184E+00  0.90007693451E+02  0.89999954204E+02 0.  0.
        -12    1    1    2    0    0 -0.77582909363E+00  0.64678761424E+00  0.61063782184E+00  0.11803065491E+01  0.00000000000E+00 0.  1.
         11    1    3    3    0    0  0.37635895670E+02  0.13363733039E+02  0.37894390920E+01  0.40117450723E+02  0.51100000000E-03 0. -1.
        -11    1    3    3    0    0  0.23302005990E+01 -0.57162356661E+01 -0.74981841909E+01  0.97122577933E+01  0.51100000000E-03 0.  1.
        -12    1    3    3    0    0 -0.39190267175E+02 -0.82942849867E+01  0.30981072770E+01  0.40177984935E+02  0.00000000000E+00 0.  1.
</event>
<event>
 7    1  0.1716782E-015  0.9000777E+02  0.7816164E-02  0.1186339E+00
        -11   -1    0    0    0    0  0.00000000000E+00  0.00000000000E+00  0.45593999997E+02  0.45594000000E+02  0.51100000000E-03 0.  1.
         11   -1    0    0    0    0 -0.00000000000E+00 -0.00000000000E+00 -0.45593999997E+02  0.45594000000E+02  0.51100000000E-03 0. -1.
    9900012    2    1    2    0    0  0.70167800759E+00  0.49987423640E+00 -0.80667608914E+00  0.90007765874E+02  0.90000027584E+02 0.  0.
        -12    1    1    2    0    0 -0.70167800759E+00 -0.49987423640E+00  0.80667608914E+00  0.11802341256E+01  0.00000000000E+00 0.  1.
         11    1    3    3    0    0 -0.58668214178E+00 -0.33573437410E+01  0.81589280813E+01  0.88421751073E+01  0.51100000000E-03 0. -1.
        -11    1    3    3    0    0  0.33286781918E+01  0.45421194002E+01  0.35854409439E+02  0.36293933703E+02  0.51100000000E-03 0.  1.
         12    1    3    3    0    0 -0.20403180424E+01 -0.68490142283E+00 -0.44820013610E+02  0.44871657064E+02  0.00000000000E+00 0. -1.
</event>
<event>
 7    1  0.1716782E-015  0.9000767E+02  0.7816164E-02  0.1186339E+00
        -11   -1    0    0    0    0  0.00000000000E+00  0.00000000000E+00  0.45593999997E+02  0.45594000000E+02  0.51100000000E-03 0.  1.
         11   -1    0    0    0    0 -0.00000000000E+00 -0.00000000000E+00 -0.45593999997E+02  0.45594000000E+02  0.51100000000E-03 0. -1.
    9900012    2    1    2    0    0  0.11255547894E+01 -0.34445834266E+00  0.87430207453E-01  0.90007674123E+02  0.89999934622E+02 0.  0.
        -12    1    1    2    0    0 -0.11255547894E+01  0.34445834266E+00 -0.87430207453E-01  0.11803258766E+01  0.00000000000E+00 0.  1.
         11    1    3    3    0    0 -0.69343113629E+00  0.82337404180E+01  0.43522844318E+01  0.93390421376E+01  0.51100000000E-03 0. -1.
        -11    1    3    3    0    0  0.35984154116E+02  0.55048984830E+01  0.14547332795E+02  0.39201889578E+02  0.51100000000E-03 0.  1.
         12    1    3    3    0    0 -0.34165168191E+02 -0.14083097244E+02 -0.18812187019E+02  0.41466742408E+02  0.00000000000E+00 0. -1.
</event>
<event>
 7    1  0.1716782E-015  0.9000687E+02  0.7816164E-02  0.1186341E+00
        -11   -1    0    0    0    0  0.00000000000E+00  0.00000000000E+00  0.45593999997E+02  0.45594000000E+02  0.51100000000E-03 0.  1.
         11   -1    0    0    0    0 -0.00000000000E+00 -0.00000000000E+00 -0.45593999997E+02  0.45594000000E+02  0.51100000000E-03 0. -1.
    9900012    2    1    2    0    0  0.19840672335E+00  0.11462384685E+01  0.20452777794E+00  0.90006873645E+02  0.89999123573E+02 0.  0.
        -12    1    1    2    0    0 -0.19840672335E+00 -0.11462384685E+01 -0.20452777794E+00  0.11811263550E+01  0.00000000000E+00 0.  1.
         11    1    3    3    0    0  0.30036096617E+01 -0.71879655245E+01 -0.83945193587E+00  0.78353812412E+01  0.51100000000E-03 0. -1.
        -11    1    3    3    0    0 -0.82347835026E+01 -0.36240937639E+02 -0.14988996224E+01  0.37194944827E+02  0.51100000000E-03 0.  1.
         12    1    3    3    0    0  0.54295805643E+01  0.44575141632E+02  0.25428793362E+01  0.44976547577E+02  0.00000000000E+00 0. -1.
</event>
<event>
 7    1  0.1716782E-015  0.9000776E+02  0.7816164E-02  0.1186339E+00
        -11   -1    0    0    0    0  0.00000000000E+00  0.00000000000E+00  0.45593999997E+02  0.45594000000E+02  0.51100000000E-03 0.  1.
         11   -1    0    0    0    0 -0.00000000000E+00 -0.00000000000E+00 -0.45593999997E+02  0.45594000000E+02  0.51100000000E-03 0. -1.
    9900012    2    1    2    0    0 -0.41898091161E+00 -0.95994368277E+00 -0.54399177015E+00  0.90007761073E+02  0.90000022719E+02 0.  0.
        -12    1    1    2    0    0  0.41898091161E+00  0.95994368277E+00  0.54399177015E+00  0.11802389268E+01  0.00000000000E+00 0.  1.
         11    1    3    3    0    0 -0.84227739506E+01 -0.16360562561E+01  0.29529900539E+01  0.90741364116E+01  0.51100000000E-03 0. -1.
        -11    1    3    3    0    0  0.11655245827E+02 -0.37670657171E+02 -0.12516894394E+02  0.41371437158E+02  0.51100000000E-03 0.  1.
         12    1    3    3    0    0 -0.36514527877E+01  0.38346769745E+02  0.90199125698E+01  0.39562187504E+02  0.00000000000E+00 0. -1.
</event>
<event>
 7    1  0.1716782E-015  0.9000778E+02  0.7816164E-02  0.1186339E+00
        -11   -1    0    0    0    0  0.00000000000E+00  0.00000000000E+00  0.45593999997E+02  0.45594000000E+02  0.51100000000E-03 0. -1.
         11   -1    0    0    0    0 -0.00000000000E+00 -0.00000000000E+00 -0.45593999997E+02  0.45594000000E+02  0.51100000000E-03 0.  1.
    9900012    2    1    2    0    0  0.41066001618E+00 -0.64893720777E+00  0.89619477391E+00  0.90007777046E+02  0.90000038903E+02 0.  0.
        -12    1    1    2    0    0 -0.41066001618E+00  0.64893720777E+00 -0.89619477391E+00  0.11802229541E+01  0.00000000000E+00 0.  1.
         11    1    3    3    0    0  0.19719460710E+02 -0.10958406821E+02  0.26547124109E+02  0.34838105710E+02  0.51100000000E-03 0. -1.
        -11    1    3    3    0    0  0.13941306152E+02  0.18241313054E+01 -0.40913654967E+01  0.14643317388E+02  0.51100000000E-03 0.  1.
        -12    1    3    3    0    0 -0.33250106845E+02  0.84853383079E+01 -0.21559563838E+02  0.40526353948E+02  0.00000000000E+00 0.  1.
</event>
<event>
 7    1  0.1716782E-015  0.9000771E+02  0.7816164E-02  0.1186339E+00
        -11   -1    0    0    0    0  0.00000000000E+00  0.00000000000E+00  0.45593999997E+02  0.45594000000E+02  0.51100000000E-03 0.  1.
         11   -1    0    0    0    0 -0.00000000000E+00 -0.00000000000E+00 -0.45593999997E+02  0.45594000000E+02  0.51100000000E-03 0. -1.
    9900012    2    1    2    0    0 -0.54113101393E+00  0.10483801637E+01  0.34177234487E-01  0.90007706890E+02  0.89999967821E+02 0.  0.
        -12    1    1    2    0    0  0.54113101393E+00 -0.10483801637E+01 -0.34177234487E-01  0.11802931099E+01  0.00000000000E+00 0.  1.
         11    1    3    3    0    0  0.29880620859E+02  0.14633180821E+02  0.77902286421E+01  0.34171174203E+02  0.51100000000E-03 0. -1.
        -11    1    3    3    0    0  0.31978955475E+01  0.89508507658E+01  0.79805289046E+01  0.12411007502E+02  0.51100000000E-03 0.  1.
        -12    1    3    3    0    0 -0.33619647420E+02 -0.22535651423E+02 -0.15736580312E+02  0.43425525185E+02  0.00000000000E+00 0.  1.
</event>
<event>
 7    1  0.1716782E-015  0.9000779E+02  0.7816164E-02  0.1186339E+00
        -11   -1    0    0    0    0  0.00000000000E+00  0.00000000000E+00  0.45593999997E+02  0.45594000000E+02  0.51100000000E-03 0.  1.
         11   -1    0    0    0    0 -0.00000000000E+00 -0.00000000000E+00 -0.45593999997E+02  0.45594000000E+02  0.51100000000E-03 0. -1.
    9900012    2    1    2    0    0  0.10586867536E+01 -0.46163740140E+00 -0.24283715419E+00  0.90007789588E+02  0.90000051611E+02 0.  0.
        -12    1    1    2    0    0 -0.10586867536E+01  0.46163740140E+00  0.24283715419E+00  0.11802104118E+01  0.00000000000E+00 0.  1.
         11    1    3    3    0    0  0.37741664531E+01  0.24381751369E+02 -0.35116146198E+02  0.42916871465E+02  0.51100000000E-03 0. -1.
        -11    1    3    3    0    0 -0.14247477180E+01  0.31593000533E+01  0.53913908386E+01  0.64092260315E+01  0.51100000000E-03 0.  1.
        -12    1    3    3    0    0 -0.12907319814E+01 -0.28002688824E+02  0.29481918205E+02  0.40681692092E+02  0.00000000000E+00 0.  1.
</event>
<event>
 7    1  0.1716782E-015  0.9000770E+02  0.7816164E-02  0.1186339E+00
        -11   -1    0    0    0    0  0.00000000000E+00  0.00000000000E+00  0.45593999997E+02  0.45594000000E+02  0.51100000000E-03 0.  1.
         11   -1    0    0    0    0 -0.00000000000E+00 -0.00000000000E+00 -0.45593999997E+02  0.45594000000E+02  0.51100000000E-03 0. -1.
    9900012    2    1    2    0    0  0.39441393372E+00 -0.10683053857E+01 -0.31028319341E+00  0.90007697323E+02  0.89999958128E+02 0.  0.
        -12    1    1    2    0    0 -0.39441393372E+00  0.10683053857E+01  0.31028319341E+00  0.11803026766E+01  0.00000000000E+00 0.  1.
         11    1    3    3    0    0 -0.26529282386E+01  0.98849996293E+01  0.29914976921E+01  0.10663034494E+02  0.51100000000E-03 0. -1.
        -11    1    3    3    0    0 -0.37037049654E+02 -0.12567528040E+02 -0.30081030773E+01  0.39226706368E+02  0.51100000000E-03 0.  1.
         12    1    3    3    0    0  0.40084391826E+02  0.16142230253E+01 -0.29367780817E+00  0.40117956462E+02  0.00000000000E+00 0. -1.
</event>
<event>
 7    1  0.1716782E-015  0.9000780E+02  0.7816164E-02  0.1186339E+00
        -11   -1    0    0    0    0  0.00000000000E+00  0.00000000000E+00  0.45593999997E+02  0.45594000000E+02  0.51100000000E-03 0.  1.
         11   -1    0    0    0    0 -0.00000000000E+00 -0.00000000000E+00 -0.45593999997E+02  0.45594000000E+02  0.51100000000E-03 0. -1.
    9900012    2    1    2    0    0 -0.21124051079E+00 -0.10769076608E+01  0.43417656649E+00  0.90007804273E+02  0.90000066489E+02 0.  0.
        -12    1    1    2    0    0  0.21124051079E+00  0.10769076608E+01 -0.43417656649E+00  0.11801957271E+01  0.00000000000E+00 0.  1.
         11    1    3    3    0    0 -0.25320564988E+01  0.90596605367E+01 -0.69578796344E+01  0.11700463599E+02  0.51100000000E-03 0. -1.
        -11    1    3    3    0    0  0.22739565379E+02  0.25554332174E+02  0.13427342812E+02  0.36747860642E+02  0.51100000000E-03 0.  1.
         12    1    3    3    0    0 -0.20418749391E+02 -0.35690900372E+02 -0.60352866116E+01  0.41559480032E+02  0.00000000000E+00 0. -1.
</event>
<event>
 7    1  0.1716782E-015  0.9000770E+02  0.7816164E-02  0.1186339E+00
        -11   -1    0    0    0    0  0.00000000000E+00  0.00000000000E+00  0.45593999997E+02  0.45594000000E+02  0.51100000000E-03 0. -1.
         11   -1    0    0    0    0 -0.00000000000E+00 -0.00000000000E+00 -0.45593999997E+02  0.45594000000E+02  0.51100000000E-03 0.  1.
    9900012    2    1    2    0    0 -0.47183871758E+00  0.10710288034E+01 -0.15291236477E+00  0.90007696368E+02  0.89999957160E+02 0.  0.
        -12    1    1    2    0    0  0.47183871758E+00 -0.10710288034E+01  0.15291236477E+00  0.11803036323E+01  0.00000000000E+00 0.  1.
         11    1    3    3    0    0  0.79769997913E+00  0.81304477995E+01  0.19492567820E+01  0.83988159249E+01  0.51100000000E-03 0. -1.
        -11    1    3    3    0    0  0.32405235202E+02  0.14361162946E+01 -0.24178026206E+02  0.40456626775E+02  0.51100000000E-03 0.  1.
         12    1    3    3    0    0 -0.33674773899E+02 -0.84955352907E+01  0.22075857059E+02  0.41152253668E+02  0.00000000000E+00 0. -1.
</event>
<event>
 7    1  0.1716782E-015  0.9000773E+02  0.7816164E-02  0.1186339E+00
        -11   -1    0    0    0    0  0.00000000000E+00  0.00000000000E+00  0.45593999997E+02  0.45594000000E+02  0.51100000000E-03 0.  1.
         11   -1    0    0    0    0 -0.00000000000E+00 -0.00000000000E+00 -0.45593999997E+02  0.45594000000E+02  0.51100000000E-03 0. -1.
    9900012    2    1    2    0    0  0.83841947427E+00 -0.82252744539E+00 -0.11640228726E+00  0.90007725411E+02  0.89999986586E+02 0.  0.
        -12    1    1    2    0    0 -0.83841947427E+00  0.82252744539E+00  0.11640228726E+00  0.11802745891E+01  0.00000000000E+00 0.  1.
         11    1    3    3    0    0 -0.37918950027E+01  0.84733318667E+01 -0.12214508860E+01  0.93631064910E+01  0.51100000000E-03 0. -1.
        -11    1    3    3    0    0  0.27950561776E+02  0.18102414568E+02  0.21158876223E+02  0.39454142496E+02  0.51100000000E-03 0.  1.
         12    1    3    3    0    0 -0.23320247299E+02 -0.27398273880E+02 -0.20053827624E+02  0.41190476424E+02  0.00000000000E+00 0. -1.
</event>
<event>
 7    1  0.1716782E-015  0.9000770E+02  0.7816164E-02  0.1186339E+00
        -11   -1    0    0    0    0  0.00000000000E+00  0.00000000000E+00  0.45593999997E+02  0.45594000000E+02  0.51100000000E-03 0. -1.
         11   -1    0    0    0    0 -0.00000000000E+00 -0.00000000000E+00 -0.45593999997E+02  0.45594000000E+02  0.51100000000E-03 0.  1.
    9900012    2    1    2    0    0  0.48668129150E+00  0.60950615106E+00  0.88586473513E+00  0.90007698023E+02  0.89999958837E+02 0.  0.
        -12    1    1    2    0    0 -0.48668129150E+00 -0.60950615106E+00 -0.88586473513E+00  0.11803019769E+01  0.00000000000E+00 0.  1.
         11    1    3    3    0    0  0.40572924416E+01  0.88152087276E+01  0.21592540838E+01  0.99414237073E+01  0.51100000000E-03 0. -1.
        -11    1    3    3    0    0 -0.29324708844E+02 -0.27260672199E+01 -0.29347225665E+02  0.41576792153E+02  0.51100000000E-03 0.  1.
         12    1    3    3    0    0  0.25754097694E+02 -0.54796353567E+01  0.28073836316E+02  0.38489482163E+02  0.00000000000E+00 0. -1.
</event>
<event>
 7    1  0.1716782E-015  0.9000774E+02  0.7816164E-02  0.1186339E+00
        -11   -1    0    0    0    0  0.00000000000E+00  0.00000000000E+00  0.45593999997E+02  0.45594000000E+02  0.51100000000E-03 0.  1.
         11   -1    0    0    0    0 -0.00000000000E+00 -0.00000000000E+00 -0.45593999997E+02  0.45594000000E+02  0.51100000000E-03 0. -1.
    9900012    2    1    2    0    0  0.27443783010E+00 -0.62634907179E+00 -0.96197286449E+00  0.90007736862E+02  0.89999998189E+02 0.  0.
        -12    1    1    2    0    0 -0.27443783010E+00  0.62634907179E+00  0.96197286449E+00  0.11802631378E+01  0.00000000000E+00 0.  1.
         11    1    3    3    0    0  0.11358816132E+02 -0.11869887371E+01  0.27845528649E+01  0.11755227820E+02  0.51100000000E-03 0. -1.
        -11    1    3    3    0    0 -0.13489084329E+01 -0.37920064465E+02 -0.63602959250E+01  0.38473422093E+02  0.51100000000E-03 0.  1.
         12    1    3    3    0    0 -0.97354698686E+01  0.38480704130E+02  0.26137701956E+01  0.39779086950E+02  0.00000000000E+00 0. -1.
</event>
<event>
 7    1  0.1716782E-015  0.9000763E+02  0.7816164E-02  0.1186339E+00
        -11   -1    0    0    0    0  0.00000000000E+00  0.00000000000E+00  0.45593999997E+02  0.45594000000E+02  0.51100000000E-03 0.  1.
         11   -1    0    0    0    0 -0.00000000000E+00 -0.00000000000E+00 -0.45593999997E+02  0.45594000000E+02  0.51100000000E-03 0. -1.
    9900012    2    1    2    0    0  0.21996754408E+00 -0.44350238379E+00 -0.10715395037E+01  0.90007628451E+02  0.89999888347E+02 0.  0.
        -12    1    1    2    0    0 -0.21996754408E+00  0.44350238379E+00  0.10715395037E+01  0.11803715487E+01  0.00000000000E+00 0.  1.
         11    1    3    3    0    0  0.11864572063E+02  0.87662398611E+01 -0.12924265693E+02  0.19612538732E+02  0.51100000000E-03 0. -1.
        -11    1    3    3    0    0  0.18184737958E+02  0.14025851043E+02  0.21407166530E+02  0.31395476922E+02  0.51100000000E-03 0.  1.
         12    1    3    3    0    0 -0.29829342478E+02 -0.23235593288E+02 -0.95544403407E+01  0.38999612797E+02  0.00000000000E+00 0. -1.
</event>
<event>
 7    1  0.1716782E-015  0.9000780E+02  0.7816164E-02  0.1186339E+00
        -11   -1    0    0    0    0  0.00000000000E+00  0.00000000000E+00  0.45593999997E+02  0.45594000000E+02  0.51100000000E-03 0. -1.
         11   -1    0    0    0    0 -0.00000000000E+00 -0.00000000000E+00 -0.45593999997E+02  0.45594000000E+02  0.51100000000E-03 0.  1.
    9900012    2    1    2    0    0 -0.95034051940E+00  0.52397879770E+00  0.46386692969E+00  0.90007799419E+02  0.90000061571E+02 0.  0.
        -12    1    1    2    0    0  0.95034051940E+00 -0.52397879770E+00 -0.46386692969E+00  0.11802005811E+01  0.00000000000E+00 0.  1.
         11    1    3    3    0    0 -0.57678157580E+00  0.38084691738E+01  0.33271848670E+02  0.33494074530E+02  0.51100000000E-03 0. -1.
        -11    1    3    3    0    0  0.37269812382E+00 -0.47180268316E+01  0.11365072897E+02  0.12311115436E+02  0.51100000000E-03 0.  1.
        -12    1    3    3    0    0 -0.74625706742E+00  0.14335364556E+01 -0.44173054638E+02  0.44202609452E+02  0.00000000000E+00 0.  1.
</event>
<event>
 7    1  0.1716782E-015  0.9000778E+02  0.7816164E-02  0.1186339E+00
        -11   -1    0    0    0    0  0.00000000000E+00  0.00000000000E+00  0.45593999997E+02  0.45594000000E+02  0.51100000000E-03 0.  1.
         11   -1    0    0    0    0 -0.00000000000E+00 -0.00000000000E+00 -0.45593999997E+02  0.45594000000E+02  0.51100000000E-03 0. -1.
    9900012    2    1    2    0    0 -0.73553705641E+00  0.77242053795E+00 -0.50524495752E+00  0.90007779378E+02  0.90000041266E+02 0.  0.
        -12    1    1    2    0    0  0.73553705641E+00 -0.77242053795E+00  0.50524495752E+00  0.11802206217E+01  0.00000000000E+00 0.  1.
         11    1    3    3    0    0  0.41261188286E+01  0.62181796148E+01 -0.75813378559E+01  0.10638011950E+02  0.51100000000E-03 0. -1.
        -11    1    3    3    0    0 -0.88259785141E+01  0.26904493690E+02  0.28652336500E+02  0.40282825926E+02  0.51100000000E-03 0.  1.
         12    1    3    3    0    0  0.39643226290E+01 -0.32350252767E+02 -0.21576243602E+02  0.39086941501E+02  0.00000000000E+00 0. -1.
</event>
<event>
 7    1  0.1716782E-015  0.9000766E+02  0.7816164E-02  0.1186339E+00
        -11   -1    0    0    0    0  0.00000000000E+00  0.00000000000E+00  0.45593999997E+02  0.45594000000E+02  0.51100000000E-03 0. -1.
         11   -1    0    0    0    0 -0.00000000000E+00 -0.00000000000E+00 -0.45593999997E+02  0.45594000000E+02  0.51100000000E-03 0.  1.
    9900012    2    1    2    0    0 -0.33771751905E+00 -0.11235323699E+01  0.12974106690E+00  0.90007656468E+02  0.89999916733E+02 0.  0.
        -12    1    1    2    0    0  0.33771751905E+00  0.11235323699E+01 -0.12974106690E+00  0.11803435319E+01  0.00000000000E+00 0.  1.
         11    1    3    3    0    0 -0.12255127331E+01 -0.57370126275E+01  0.10103122007E+02  0.11682819433E+02  0.51100000000E-03 0. -1.
        -11    1    3    3    0    0  0.25920223965E+02  0.28740267162E+01 -0.34492369221E+02  0.43241664800E+02  0.51100000000E-03 0.  1.
         12    1    3    3    0    0 -0.25032428751E+02  0.17394535413E+01  0.24518988281E+02  0.35083172235E+02  0.00000000000E+00 0. -1.
</event>
<event>
 7    1  0.1716782E-015  0.9000766E+02  0.7816164E-02  0.1186339E+00
        -11   -1    0    0    0    0  0.00000000000E+00  0.00000000000E+00  0.45593999997E+02  0.45594000000E+02  0.51100000000E-03 0. -1.
         11   -1    0    0    0    0 -0.00000000000E+00 -0.00000000000E+00 -0.45593999997E+02  0.45594000000E+02  0.51100000000E-03 0.  1.
    9900012    2    1    2    0    0 -0.10400222211E+01  0.42200677501E+00  0.36533186000E+00  0.90007659665E+02  0.89999919973E+02 0.  0.
        -12    1    1    2    0    0  0.10400222211E+01 -0.42200677501E+00 -0.36533186000E+00  0.11803403350E+01  0.00000000000E+00 0.  1.
         11    1    3    3    0    0  0.32584430421E+02 -0.18057775243E+02  0.92820548530E+00  0.37265130059E+02  0.51100000000E-03 0. -1.
        -11    1    3    3    0    0 -0.60217275209E+01 -0.75171220847E+01  0.94831706046E+01  0.13516613916E+02  0.51100000000E-03 0.  1.
        -12    1    3    3    0    0 -0.27602725121E+02  0.25996904103E+02 -0.10046044230E+02  0.39225915690E+02  0.00000000000E+00 0.  1.
</event>
<event>
 7    1  0.1716782E-015  0.9000781E+02  0.7816164E-02  0.1186339E+00
        -11   -1    0    0    0    0  0.00000000000E+00  0.00000000000E+00  0.45593999997E+02  0.45594000000E+02  0.51100000000E-03 0.  1.
         11   -1    0    0    0    0 -0.00000000000E+00 -0.00000000000E+00 -0.45593999997E+02  0.45594000000E+02  0.51100000000E-03 0. -1.
    9900012    2    1    2    0    0  0.59388781707E+00  0.40467506845E-01 -0.10190737706E+01  0.90007808614E+02  0.90000070887E+02 0.  0.
        -12    1    1    2    0    0 -0.59388781707E+00 -0.40467506845E-01  0.10190737706E+01  0.11801913863E+01  0.00000000000E+00 0.  1.
         11    1    3    3    0    0  0.23092944053E+02  0.35100545603E+02 -0.57762636785E+01  0.42411055033E+02  0.51100000000E-03 0. -1.
        -11    1    3    3    0    0 -0.40382977907E+01  0.25311958474E+01 -0.20125310862E+01  0.51734981491E+01  0.51100000000E-03 0.  1.
        -12    1    3    3    0    0 -0.18460758445E+02 -0.37591273944E+02  0.67697209941E+01  0.42423255432E+02  0.00000000000E+00 0.  1.
</event>
<event>
 7    1  0.2340433E-015  0.9000772E+02  0.7816164E-02  0.1186339E+00
        -11   -1    0    0    0    0  0.00000000000E+00  0.00000000000E+00  0.45593999997E+02  0.45594000000E+02  0.51100000000E-03 0. -1.
         11   -1    0    0    0    0 -0.00000000000E+00 -0.00000000000E+00 -0.45593999997E+02  0.45594000000E+02  0.51100000000E-03 0.  1.
    9900012    2    1    2    0    0 -0.11416756620E+01  0.16972963269E+00  0.24665591396E+00  0.90007715879E+02  0.89999976929E+02 0.  0.
        -12    1    1    2    0    0  0.11416756620E+01 -0.16972963269E+00 -0.24665591396E+00  0.11802841206E+01  0.00000000000E+00 0.  1.
         11    1    3    3    0    0  0.24993516115E+02 -0.20997360335E+02  0.24886428588E+02  0.41047525101E+02  0.51100000000E-03 0. -1.
        -11    1    3    3    0    0  0.43038123867E+01  0.75131116018E+01 -0.28584876036E+01  0.91181466671E+01  0.51100000000E-03 0.  1.
        -12    1    3    3    0    0 -0.30439004163E+02  0.13653978366E+02 -0.21781285070E+02  0.39842044111E+02  0.00000000000E+00 0.  1.
</event>
<event>
 7    1  0.1716782E-015  0.9000771E+02  0.7816164E-02  0.1186339E+00
        -11   -1    0    0    0    0  0.00000000000E+00  0.00000000000E+00  0.45593999997E+02  0.45594000000E+02  0.51100000000E-03 0. -1.
         11   -1    0    0    0    0 -0.00000000000E+00 -0.00000000000E+00 -0.45593999997E+02  0.45594000000E+02  0.51100000000E-03 0.  1.
    9900012    2    1    2    0    0  0.67095688066E+00 -0.67645170823E+00  0.69664274100E+00  0.90007711409E+02  0.89999972400E+02 0.  0.
        -12    1    1    2    0    0 -0.67095688066E+00  0.67645170823E+00 -0.69664274100E+00  0.11802885909E+01  0.00000000000E+00 0.  1.
         11    1    3    3    0    0 -0.67848209020E+01  0.30319182659E+02  0.21725623194E+02  0.37911598953E+02  0.51100000000E-03 0. -1.
        -11    1    3    3    0    0  0.12908317245E+02 -0.21770541812E+01  0.38399423494E+01  0.13642191045E+02  0.51100000000E-03 0.  1.
        -12    1    3    3    0    0 -0.54525394622E+01 -0.28818580186E+02 -0.24868922803E+02  0.38453921411E+02  0.00000000000E+00 0.  1.
</event>
<event>
 7    1  0.1716782E-015  0.9000782E+02  0.7816164E-02  0.1186339E+00
        -11   -1    0    0    0    0  0.00000000000E+00  0.00000000000E+00  0.45593999997E+02  0.45594000000E+02  0.51100000000E-03 0.  1.
         11   -1    0    0    0    0 -0.00000000000E+00 -0.00000000000E+00 -0.45593999997E+02  0.45594000000E+02  0.51100000000E-03 0. -1.
    9900012    2    1    2    0    0 -0.56376390807E+00  0.97704622087E+00  0.34695336106E+00  0.90007819634E+02  0.90000082053E+02 0.  0.
        -12    1    1    2    0    0  0.56376390807E+00 -0.97704622087E+00 -0.34695336106E+00  0.11801803661E+01  0.00000000000E+00 0.  1.
         11    1    3    3    0    0 -0.14124736369E+02  0.33786073842E+02  0.12419389486E+02  0.38668439309E+02  0.51100000000E-03 0. -1.
        -11    1    3    3    0    0  0.13031793093E+02  0.19268149993E+01 -0.99976024345E+01  0.16537602667E+02  0.51100000000E-03 0.  1.
        -12    1    3    3    0    0  0.52917936770E+00 -0.34735842620E+02 -0.20748336904E+01  0.34801777658E+02  0.00000000000E+00 0.  1.
</event>
<event>
 7    1  0.1716782E-015  0.9000779E+02  0.7816164E-02  0.1186339E+00
        -11   -1    0    0    0    0  0.00000000000E+00  0.00000000000E+00  0.45593999997E+02  0.45594000000E+02  0.51100000000E-03 0.  1.
         11   -1    0    0    0    0 -0.00000000000E+00 -0.00000000000E+00 -0.45593999997E+02  0.45594000000E+02  0.51100000000E-03 0. -1.
    9900012    2    1    2    0    0  0.12733418864E+00  0.11730184047E+01  0.26680141268E-01  0.90007789000E+02  0.90000051015E+02 0.  0.
        -12    1    1    2    0    0 -0.12733418864E+00 -0.11730184047E+01 -0.26680141268E-01  0.11802109995E+01  0.00000000000E+00 0.  1.
         11    1    3    3    0    0 -0.80323888552E+01 -0.18458338907E+01  0.49243263019E+01  0.96008001366E+01  0.51100000000E-03 0. -1.
        -11    1    3    3    0    0  0.84481626174E+00  0.23654954271E+02  0.30608580895E+02  0.38693097585E+02  0.51100000000E-03 0.  1.
         12    1    3    3    0    0  0.73149067821E+01 -0.20636101975E+02 -0.35506227055E+02  0.41713891279E+02  0.00000000000E+00 0. -1.
</event>
<event>
 7    1  0.1716782E-015  0.9000780E+02  0.7816164E-02  0.1186339E+00
        -11   -1    0    0    0    0  0.00000000000E+00  0.00000000000E+00  0.45593999997E+02  0.45594000000E+02  0.51100000000E-03 0.  1.
         11   -1    0    0    0    0 -0.00000000000E+00 -0.00000000000E+00 -0.45593999997E+02  0.45594000000E+02  0.51100000000E-03 0. -1.
    9900012    2    1    2    0    0 -0.50198541644E+00 -0.45646945747E+00 -0.96566993181E+00  0.90007799957E+02  0.90000062117E+02 0.  0.
        -12    1    1    2    0    0  0.50198541644E+00  0.45646945747E+00  0.96566993181E+00  0.11802000428E+01  0.00000000000E+00 0.  1.
         11    1    3    3    0    0 -0.99230923381E+01  0.69117696231E+01  0.10740697854E+02  0.16174143301E+02  0.51100000000E-03 0. -1.
        -11    1    3    3    0    0  0.40624763850E+02 -0.89714608179E+01 -0.53133849128E+01  0.41941514118E+02  0.51100000000E-03 0.  1.
         12    1    3    3    0    0 -0.31203656928E+02  0.16032217373E+01 -0.63929828734E+01  0.31892142537E+02  0.00000000000E+00 0. -1.
</event>
<event>
 7    1  0.1716782E-015  0.9000774E+02  0.7816164E-02  0.1186339E+00
        -11   -1    0    0    0    0  0.00000000000E+00  0.00000000000E+00  0.45593999997E+02  0.45594000000E+02  0.51100000000E-03 0. -1.
         11   -1    0    0    0    0 -0.00000000000E+00 -0.00000000000E+00 -0.45593999997E+02  0.45594000000E+02  0.51100000000E-03 0.  1.
    9900012    2    1    2    0    0 -0.77829396300E+00  0.43556436846E+00  0.77301837743E+00  0.90007739341E+02  0.90000000700E+02 0.  0.
        -12    1    1    2    0    0  0.77829396300E+00 -0.43556436846E+00 -0.77301837743E+00  0.11802606592E+01  0.00000000000E+00 0.  1.
         11    1    3    3    0    0  0.24813842686E+01  0.55726402460E+01  0.72675806884E+01  0.94883779711E+01  0.51100000000E-03 0. -1.
        -11    1    3    3    0    0 -0.75631557376E+01  0.36780970633E+02 -0.78369968758E+01  0.38359609562E+02  0.51100000000E-03 0.  1.
         12    1    3    3    0    0  0.43034775061E+01 -0.41918046511E+02  0.13424345648E+01  0.42159751808E+02  0.00000000000E+00 0. -1.
</event>
<event>
 7    1  0.1716782E-015  0.9000776E+02  0.7816164E-02  0.1186339E+00
        -11   -1    0    0    0    0  0.00000000000E+00  0.00000000000E+00  0.45593999997E+02  0.45594000000E+02  0.51100000000E-03 0. -1.
         11   -1    0    0    0    0 -0.00000000000E+00 -0.00000000000E+00 -0.45593999997E+02  0.45594000000E+02  0.51100000000E-03 0.  1.
    9900012    2    1    2    0    0  0.43106199819E+00 -0.22481891451E+00  0.10754541399E+01  0.90007762906E+02  0.90000024577E+02 0.  0.
        -12    1    1    2    0    0 -0.43106199819E+00  0.22481891451E+00 -0.10754541399E+01  0.11802370938E+01  0.00000000000E+00 0.  1.
         11    1    3    3    0    0 -0.12148015227E+02  0.76245985184E+00  0.15020729259E+02  0.19333337185E+02  0.51100000000E-03 0. -1.
        -11    1    3    3    0    0 -0.10387283476E+02 -0.30115840984E+02 -0.99069435288E+01  0.33361760543E+02  0.51100000000E-03 0.  1.
         12    1    3    3    0    0  0.22966360700E+02  0.29128562218E+02 -0.40383315899E+01  0.37312665179E+02  0.00000000000E+00 0. -1.
</event>
<event>
 7    1  0.1716782E-015  0.9000742E+02  0.7816164E-02  0.1186340E+00
        -11   -1    0    0    0    0  0.00000000000E+00  0.00000000000E+00  0.45593999997E+02  0.45594000000E+02  0.51100000000E-03 0. -1.
         11   -1    0    0    0    0 -0.00000000000E+00 -0.00000000000E+00 -0.45593999997E+02  0.45594000000E+02  0.51100000000E-03 0.  1.
    9900012    2    1    2    0    0  0.40146097507E+00 -0.45089772051E+00 -0.10145348445E+01  0.90007423607E+02  0.89999680798E+02 0.  0.
        -12    1    1    2    0    0 -0.40146097507E+00  0.45089772051E+00  0.10145348445E+01  0.11805763930E+01  0.00000000000E+00 0.  1.
         11    1    3    3    0    0  0.15106036198E+02  0.16841594804E+02 -0.35262328894E+02  0.41895864765E+02  0.51100000000E-03 0. -1.
        -11    1    3    3    0    0 -0.42510834839E+01 -0.77140188275E+01 -0.21357457012E+01  0.90630683115E+01  0.51100000000E-03 0.  1.
        -12    1    3    3    0    0 -0.10453491739E+02 -0.95784736974E+01  0.36383539750E+02  0.39048490530E+02  0.00000000000E+00 0.  1.
</event>
<event>
 7    1  0.1716782E-015  0.9000787E+02  0.7816164E-02  0.1186339E+00
        -11   -1    0    0    0    0  0.00000000000E+00  0.00000000000E+00  0.45593999997E+02  0.45594000000E+02  0.51100000000E-03 0. -1.
         11   -1    0    0    0    0 -0.00000000000E+00 -0.00000000000E+00 -0.45593999997E+02  0.45594000000E+02  0.51100000000E-03 0.  1.
    9900012    2    1    2    0    0 -0.75803094275E+00 -0.13478536795E+00  0.89438758785E+00  0.90007869853E+02  0.90000132935E+02 0.  0.
        -12    1    1    2    0    0  0.75803094275E+00  0.13478536795E+00 -0.89438758785E+00  0.11801301466E+01  0.00000000000E+00 0.  1.
         11    1    3    3    0    0 -0.93748215748E+01 -0.22253064789E+01  0.40165256188E+00  0.96436815338E+01  0.51100000000E-03 0. -1.
        -11    1    3    3    0    0 -0.21083264285E+02  0.21988407823E+02 -0.22489122329E+02  0.37864953913E+02  0.51100000000E-03 0.  1.
         12    1    3    3    0    0  0.29700054917E+02 -0.19897886712E+02  0.22981857355E+02  0.42499234406E+02  0.00000000000E+00 0. -1.
</event>
<event>
 7    1  0.1716782E-015  0.9000784E+02  0.7816164E-02  0.1186339E+00
        -11   -1    0    0    0    0  0.00000000000E+00  0.00000000000E+00  0.45593999997E+02  0.45594000000E+02  0.51100000000E-03 0. -1.
         11   -1    0    0    0    0 -0.00000000000E+00 -0.00000000000E+00 -0.45593999997E+02  0.45594000000E+02  0.51100000000E-03 0.  1.
    9900012    2    1    2    0    0  0.10463380334E+01  0.48833112435E+00  0.24387552904E+00  0.90007844993E+02  0.90000107747E+02 0.  0.
        -12    1    1    2    0    0 -0.10463380334E+01 -0.48833112435E+00 -0.24387552904E+00  0.11801550071E+01  0.00000000000E+00 0.  1.
         11    1    3    3    0    0  0.41994827103E+01  0.35417833384E+02 -0.12198087856E+02  0.37694189529E+02  0.51100000000E-03 0. -1.
        -11    1    3    3    0    0 -0.22750021251E+00  0.36627630013E+01 -0.78122100042E+01  0.86312348225E+01  0.51100000000E-03 0.  1.
        -12    1    3    3    0    0 -0.29256444644E+01 -0.38592265260E+02  0.20254173389E+02  0.43682420642E+02  0.00000000000E+00 0.  1.
</event>
<event>
 7    1  0.1716782E-015  0.9000778E+02  0.7816164E-02  0.1186339E+00
        -11   -1    0    0    0    0  0.00000000000E+00  0.00000000000E+00  0.45593999997E+02  0.45594000000E+02  0.51100000000E-03 0. -1.
         11   -1    0    0    0    0 -0.00000000000E+00 -0.00000000000E+00 -0.45593999997E+02  0.45594000000E+02  0.51100000000E-03 0.  1.
    9900012    2    1    2    0    0  0.67986313361E+00  0.16001621910E+00  0.95137066719E+00  0.90007777471E+02  0.90000039334E+02 0.  0.
        -12    1    1    2    0    0 -0.67986313361E+00 -0.16001621910E+00 -0.95137066719E+00  0.11802225287E+01  0.00000000000E+00 0.  1.
         11    1    3    3    0    0  0.32634618674E+01 -0.16861779034E+02 -0.15834763268E+02  0.23360426014E+02  0.51100000000E-03 0. -1.
        -11    1    3    3    0    0 -0.23880859864E+02  0.24509391390E+02 -0.58062812986E+01  0.34709056987E+02  0.51100000000E-03 0.  1.
         12    1    3    3    0    0  0.21297261131E+02 -0.74875961367E+01  0.22592415233E+02  0.31938294470E+02  0.00000000000E+00 0. -1.
</event>
<event>
 7    1  0.1716782E-015  0.9000764E+02  0.7816164E-02  0.1186339E+00
        -11   -1    0    0    0    0  0.00000000000E+00  0.00000000000E+00  0.45593999997E+02  0.45594000000E+02  0.51100000000E-03 0.  1.
         11   -1    0    0    0    0 -0.00000000000E+00 -0.00000000000E+00 -0.45593999997E+02  0.45594000000E+02  0.51100000000E-03 0. -1.
    9900012    2    1    2    0    0 -0.19399028732E+00 -0.10450899358E+01 -0.51322213269E+00  0.90007643205E+02  0.89999903295E+02 0.  0.
        -12    1    1    2    0    0  0.19399028732E+00  0.10450899358E+01  0.51322213269E+00  0.11803567948E+01  0.00000000000E+00 0.  1.
         11    1    3    3    0    0  0.45559043251E+01  0.89324717877E+01 -0.12254204054E+02  0.15833850881E+02  0.51100000000E-03 0. -1.
        -11    1    3    3    0    0  0.19343620733E+02 -0.21227016801E+02  0.30299774290E+02  0.41747314017E+02  0.51100000000E-03 0.  1.
         12    1    3    3    0    0 -0.24093515345E+02  0.11249455077E+02 -0.18558792369E+02  0.32426478308E+02  0.00000000000E+00 0. -1.
</event>
<event>
 7    1  0.1716782E-015  0.9000733E+02  0.7816164E-02  0.1186340E+00
        -11   -1    0    0    0    0  0.00000000000E+00  0.00000000000E+00  0.45593999997E+02  0.45594000000E+02  0.51100000000E-03 0. -1.
         11   -1    0    0    0    0 -0.00000000000E+00 -0.00000000000E+00 -0.45593999997E+02  0.45594000000E+02  0.51100000000E-03 0.  1.
    9900012    2    1    2    0    0 -0.10095047018E+01  0.29438084747E+00  0.53685949563E+00  0.90007331569E+02  0.89999587545E+02 0.  0.
        -12    1    1    2    0    0  0.10095047018E+01 -0.29438084747E+00 -0.53685949563E+00  0.11806684311E+01  0.00000000000E+00 0.  1.
         11    1    3    3    0    0  0.34126120571E+02 -0.16814314244E+02  0.73380987359E+01  0.38744818519E+02  0.51100000000E-03 0. -1.
        -11    1    3    3    0    0  0.60704034699E-02 -0.77217599789E+01 -0.15510872657E+00  0.77233200762E+01  0.51100000000E-03 0.  1.
        -12    1    3    3    0    0 -0.35141695676E+02  0.24830455071E+02 -0.66461305137E+01  0.43539192974E+02  0.00000000000E+00 0.  1.
</event>
<event>
 7    1  0.1716782E-015  0.9000791E+02  0.7816164E-02  0.1186339E+00
        -11   -1    0    0    0    0  0.00000000000E+00  0.00000000000E+00  0.45593999997E+02  0.45594000000E+02  0.51100000000E-03 0.  1.
         11   -1    0    0    0    0 -0.00000000000E+00 -0.00000000000E+00 -0.45593999997E+02  0.45594000000E+02  0.51100000000E-03 0. -1.
    9900012    2    1    2    0    0 -0.85649234625E+00 -0.51847462642E+00 -0.62466684798E+00  0.90007913669E+02  0.90000177329E+02 0.  0.
        -12    1    1    2    0    0  0.85649234625E+00  0.51847462642E+00  0.62466684798E+00  0.11800863309E+01  0.00000000000E+00 0.  1.
         11    1    3    3    0    0  0.42574426473E-01 -0.16683128539E+01  0.72887891808E+01  0.74774011758E+01  0.51100000000E-03 0. -1.
        -11    1    3    3    0    0  0.33487346588E+02  0.18940292545E+02  0.10178076327E+02  0.39796109121E+02  0.51100000000E-03 0.  1.
         12    1    3    3    0    0 -0.34386413360E+02 -0.17790454317E+02 -0.18091532356E+02  0.42734403373E+02  0.00000000000E+00 0. -1.
</event>
<event>
 7    1  0.1716782E-015  0.9000774E+02  0.7816164E-02  0.1186339E+00
        -11   -1    0    0    0    0  0.00000000000E+00  0.00000000000E+00  0.45593999997E+02  0.45594000000E+02  0.51100000000E-03 0. -1.
         11   -1    0    0    0    0 -0.00000000000E+00 -0.00000000000E+00 -0.45593999997E+02  0.45594000000E+02  0.51100000000E-03 0.  1.
    9900012    2    1    2    0    0 -0.63561117012E+00 -0.14621724426E+00  0.98368874077E+00  0.90007735377E+02  0.89999996684E+02 0.  0.
        -12    1    1    2    0    0  0.63561117012E+00  0.14621724426E+00 -0.98368874077E+00  0.11802646232E+01  0.00000000000E+00 0.  1.
         11    1    3    3    0    0 -0.18434213982E+01  0.62175917301E+01 -0.93328863043E+01  0.11364832441E+02  0.51100000000E-03 0. -1.
        -11    1    3    3    0    0 -0.15805783703E+02  0.65158806583E+01 -0.29140453111E+02  0.33785285362E+02  0.51100000000E-03 0.  1.
         12    1    3    3    0    0  0.17013593931E+02 -0.12879689633E+02  0.39457028156E+02  0.44857617574E+02  0.00000000000E+00 0. -1.
</event>
<event>
 7    1  0.1716782E-015  0.9000789E+02  0.7816164E-02  0.1186339E+00
        -11   -1    0    0    0    0  0.00000000000E+00  0.00000000000E+00  0.45593999997E+02  0.45594000000E+02  0.51100000000E-03 0. -1.
         11   -1    0    0    0    0 -0.00000000000E+00 -0.00000000000E+00 -0.45593999997E+02  0.45594000000E+02  0.51100000000E-03 0.  1.
    9900012    2    1    2    0    0 -0.23263226138E+00 -0.10254169504E+01  0.53578489383E+00  0.90007888504E+02  0.90000151832E+02 0.  0.
        -12    1    1    2    0    0  0.23263226138E+00  0.10254169504E+01 -0.53578489383E+00  0.11801114963E+01  0.00000000000E+00 0.  1.
         11    1    3    3    0    0  0.27664166877E+02  0.10223043662E+02 -0.21500423319E+02  0.36497739024E+02  0.51100000000E-03 0. -1.
        -11    1    3    3    0    0  0.68363046745E+01  0.48938930360E+01 -0.15218713190E+01  0.85440823512E+01  0.51100000000E-03 0.  1.
        -12    1    3    3    0    0 -0.34733103813E+02 -0.16142353648E+02  0.23558079532E+02  0.44966067129E+02  0.00000000000E+00 0.  1.
</event>
<event>
 7    1  0.1716782E-015  0.9000775E+02  0.7816164E-02  0.1186339E+00
        -11   -1    0    0    0    0  0.00000000000E+00  0.00000000000E+00  0.45593999997E+02  0.45594000000E+02  0.51100000000E-03 0. -1.
         11   -1    0    0    0    0 -0.00000000000E+00 -0.00000000000E+00 -0.45593999997E+02  0.45594000000E+02  0.51100000000E-03 0.  1.
    9900012    2    1    2    0    0 -0.13641977074E+00 -0.67792865267E+00 -0.95644489430E+00  0.90007752379E+02  0.90000013910E+02 0.  0.
        -12    1    1    2    0    0  0.13641977074E+00  0.67792865267E+00  0.95644489430E+00  0.11802476214E+01  0.00000000000E+00 0.  1.
         11    1    3    3    0    0 -0.19625473883E+02 -0.18052093061E+02  0.67175835827E+01  0.27498422109E+02  0.51100000000E-03 0. -1.
        -11    1    3    3    0    0 -0.12290614585E+02 -0.70380581847E+01 -0.16221264077E+02  0.21534225744E+02  0.51100000000E-03 0.  1.
         12    1    3    3    0    0  0.31779668698E+02  0.24412222593E+02  0.85472356002E+01  0.40975104525E+02  0.00000000000E+00 0. -1.
</event>
<event>
 7    1  0.1716782E-015  0.9000782E+02  0.7816164E-02  0.1186339E+00
        -11   -1    0    0    0    0  0.00000000000E+00  0.00000000000E+00  0.45593999997E+02  0.45594000000E+02  0.51100000000E-03 0.  1.
         11   -1    0    0    0    0 -0.00000000000E+00 -0.00000000000E+00 -0.45593999997E+02  0.45594000000E+02  0.51100000000E-03 0. -1.
    9900012    2    1    2    0    0  0.34995328107E-01 -0.10040857999E+01  0.61920689129E+00  0.90007817751E+02  0.90000080145E+02 0.  0.
        -12    1    1    2    0    0 -0.34995328107E-01  0.10040857999E+01 -0.61920689129E+00  0.11801822490E+01  0.00000000000E+00 0.  1.
         11    1    3    3    0    0 -0.42400824590E+01 -0.16210119733E+02 -0.40919759053E+02  0.44217337801E+02  0.51100000000E-03 0. -1.
        -11    1    3    3    0    0 -0.35738080852E+00 -0.10480449810E+01  0.95234438218E+01  0.95876014630E+01  0.51100000000E-03 0.  1.
        -12    1    3    3    0    0  0.46324585957E+01  0.16254078914E+02  0.32015522122E+02  0.36202878487E+02  0.00000000000E+00 0.  1.
</event>
<event>
 7    1  0.1716782E-015  0.9000781E+02  0.7816164E-02  0.1186339E+00
        -11   -1    0    0    0    0  0.00000000000E+00  0.00000000000E+00  0.45593999997E+02  0.45594000000E+02  0.51100000000E-03 0.  1.
         11   -1    0    0    0    0 -0.00000000000E+00 -0.00000000000E+00 -0.45593999997E+02  0.45594000000E+02  0.51100000000E-03 0. -1.
    9900012    2    1    2    0    0  0.18717096103E+00  0.84717347084E+00 -0.80006487988E+00  0.90007813714E+02  0.90000076055E+02 0.  0.
        -12    1    1    2    0    0 -0.18717096103E+00 -0.84717347084E+00  0.80006487988E+00  0.11801862863E+01  0.00000000000E+00 0.  1.
         11    1    3    3    0    0 -0.33343344484E+01 -0.71864451068E+01 -0.26378196590E+01  0.83499025325E+01  0.51100000000E-03 0. -1.
        -11    1    3    3    0    0  0.52223420316E+01 -0.34532367029E+02 -0.11901476880E+02  0.36897186629E+02  0.51100000000E-03 0.  1.
         12    1    3    3    0    0 -0.17008366222E+01  0.42565985607E+02  0.13739231659E+02  0.44760724553E+02  0.00000000000E+00 0. -1.
</event>
<event>
 7    1  0.1716782E-015  0.9000776E+02  0.7816164E-02  0.1186339E+00
        -11   -1    0    0    0    0  0.00000000000E+00  0.00000000000E+00  0.45593999997E+02  0.45594000000E+02  0.51100000000E-03 0.  1.
         11   -1    0    0    0    0 -0.00000000000E+00 -0.00000000000E+00 -0.45593999997E+02  0.45594000000E+02  0.51100000000E-03 0. -1.
    9900012    2    1    2    0    0  0.95254080625E+00  0.49865974274E+00 -0.48679924150E+00  0.90007758911E+02  0.90000020529E+02 0.  0.
        -12    1    1    2    0    0 -0.95254080625E+00 -0.49865974274E+00  0.48679924150E+00  0.11802410890E+01  0.00000000000E+00 0.  1.
         11    1    3    3    0    0  0.29712653233E+02 -0.33583460907E+01 -0.20562624618E+01  0.29972461797E+02  0.51100000000E-03 0. -1.
        -11    1    3    3    0    0  0.14982074355E+02  0.20077183131E+01 -0.46486800568E+01  0.15814667601E+02  0.51100000000E-03 0.  1.
        -12    1    3    3    0    0 -0.43742186781E+02  0.18492875203E+01  0.62181432771E+01  0.44220629513E+02  0.00000000000E+00 0.  1.
</event>
<event>
 7    1  0.1716782E-015  0.9000768E+02  0.7816164E-02  0.1186339E+00
        -11   -1    0    0    0    0  0.00000000000E+00  0.00000000000E+00  0.45593999997E+02  0.45594000000E+02  0.51100000000E-03 0. -1.
         11   -1    0    0    0    0 -0.00000000000E+00 -0.00000000000E+00 -0.45593999997E+02  0.45594000000E+02  0.51100000000E-03 0.  1.
    9900012    2    1    2    0    0 -0.10396792059E+00 -0.17858189459E+00  0.11620949785E+01  0.90007675654E+02  0.89999936173E+02 0.  0.
        -12    1    1    2    0    0  0.10396792059E+00  0.17858189459E+00 -0.11620949785E+01  0.11803243455E+01  0.00000000000E+00 0.  1.
         11    1    3    3    0    0 -0.17120369955E+02 -0.96595815549E+01  0.30783750086E+02  0.36524701954E+02  0.51100000000E-03 0. -1.
        -11    1    3    3    0    0  0.10263535798E+02  0.10076424799E+02  0.71705547957E+01  0.16071445490E+02  0.51100000000E-03 0.  1.
        -12    1    3    3    0    0  0.67528662362E+01 -0.59542513839E+00 -0.36792209903E+02  0.37411528210E+02  0.00000000000E+00 0.  1.
</event>
<event>
 7    1  0.1716782E-015  0.9000830E+02  0.7816164E-02  0.1186338E+00
        -11   -1    0    0    0    0  0.00000000000E+00  0.00000000000E+00  0.45593999997E+02  0.45594000000E+02  0.51100000000E-03 0.  1.
         11   -1    0    0    0    0 -0.00000000000E+00 -0.00000000000E+00 -0.45593999997E+02  0.45594000000E+02  0.51100000000E-03 0. -1.
    9900012    2    1    2    0    0 -0.81017355552E+00 -0.63232077170E+00 -0.57920301104E+00  0.90008302210E+02  0.90000570997E+02 0.  0.
        -12    1    1    2    0    0  0.81017355552E+00  0.63232077170E+00  0.57920301104E+00  0.11796977903E+01  0.00000000000E+00 0.  1.
         11    1    3    3    0    0 -0.48750631567E+01  0.75454064524E+01 -0.37020570987E+01  0.97162043174E+01  0.51100000000E-03 0. -1.
        -11    1    3    3    0    0  0.20052915160E+02 -0.17664891553E+02  0.34609738455E+02  0.43726442757E+02  0.51100000000E-03 0.  1.
         12    1    3    3    0    0 -0.15988025559E+02  0.94871643291E+01 -0.31486884367E+02  0.36565655135E+02  0.00000000000E+00 0. -1.
</event>
<event>
 7    1  0.1716782E-015  0.9000771E+02  0.7816164E-02  0.1186339E+00
        -11   -1    0    0    0    0  0.00000000000E+00  0.00000000000E+00  0.45593999997E+02  0.45594000000E+02  0.51100000000E-03 0.  1.
         11   -1    0    0    0    0 -0.00000000000E+00 -0.00000000000E+00 -0.45593999997E+02  0.45594000000E+02  0.51100000000E-03 0. -1.
    9900012    2    1    2    0    0  0.60344145738E+00 -0.87829473091E+00 -0.50747367532E+00  0.90007714967E+02  0.89999976005E+02 0.  0.
        -12    1    1    2    0    0 -0.60344145738E+00  0.87829473091E+00  0.50747367532E+00  0.11802850325E+01  0.00000000000E+00 0.  1.
         11    1    3    3    0    0 -0.41304118236E+01 -0.38000726952E+01 -0.76088415243E+01  0.94549100431E+01  0.51100000000E-03 0. -1.
        -11    1    3    3    0    0 -0.10255952096E+02  0.18124866168E+02 -0.30724656006E+02  0.37117378867E+02  0.51100000000E-03 0.  1.
         12    1    3    3    0    0  0.14989805377E+02 -0.15203088204E+02  0.37826023855E+02  0.43435426058E+02  0.00000000000E+00 0. -1.
</event>
<event>
 7    1  0.3068079E-015  0.9000777E+02  0.7816164E-02  0.1186339E+00
        -11   -1    0    0    0    0  0.00000000000E+00  0.00000000000E+00  0.45593999997E+02  0.45594000000E+02  0.51100000000E-03 0. -1.
         11   -1    0    0    0    0 -0.00000000000E+00 -0.00000000000E+00 -0.45593999997E+02  0.45594000000E+02  0.51100000000E-03 0.  1.
    9900012    2    1    2    0    0  0.10715443246E+01  0.18807511897E+00  0.45755560310E+00  0.90007772641E+02  0.90000034439E+02 0.  0.
        -12    1    1    2    0    0 -0.10715443246E+01 -0.18807511897E+00 -0.45755560310E+00  0.11802273594E+01  0.00000000000E+00 0.  1.
         11    1    3    3    0    0 -0.96707647359E+01 -0.56163408805E+01  0.37802855439E+02  0.39422364910E+02  0.51100000000E-03 0. -1.
        -11    1    3    3    0    0  0.70512505778E+01 -0.64867462782E+01  0.14793832346E+01  0.96946679677E+01  0.51100000000E-03 0.  1.
        -12    1    3    3    0    0  0.36910584828E+01  0.12291162278E+02 -0.38824683071E+02  0.40890739763E+02  0.00000000000E+00 0.  1.
</event>
<event>
 7    1  0.1716782E-015  0.9000777E+02  0.7816164E-02  0.1186339E+00
        -11   -1    0    0    0    0  0.00000000000E+00  0.00000000000E+00  0.45593999997E+02  0.45594000000E+02  0.51100000000E-03 0.  1.
         11   -1    0    0    0    0 -0.00000000000E+00 -0.00000000000E+00 -0.45593999997E+02  0.45594000000E+02  0.51100000000E-03 0. -1.
    9900012    2    1    2    0    0 -0.66340025034E+00  0.81466862749E+00 -0.53773186495E+00  0.90007771029E+02  0.90000032807E+02 0.  0.
        -12    1    1    2    0    0  0.66340025034E+00 -0.81466862749E+00  0.53773186495E+00  0.11802289707E+01  0.00000000000E+00 0.  1.
         11    1    3    3    0    0  0.16743204696E+01  0.23147423672E+02  0.13507094206E+01  0.23247171610E+02  0.51100000000E-03 0. -1.
        -11    1    3    3    0    0  0.20290297257E+02 -0.15036638401E+02  0.21679519539E+02  0.33283602943E+02  0.51100000000E-03 0.  1.
         12    1    3    3    0    0 -0.22628017977E+02 -0.72961166431E+01 -0.23567960824E+02  0.33476996476E+02  0.00000000000E+00 0. -1.
</event>
<event>
 7    1  0.1716782E-015  0.9000768E+02  0.7816164E-02  0.1186339E+00
        -11   -1    0    0    0    0  0.00000000000E+00  0.00000000000E+00  0.45593999997E+02  0.45594000000E+02  0.51100000000E-03 0. -1.
         11   -1    0    0    0    0 -0.00000000000E+00 -0.00000000000E+00 -0.45593999997E+02  0.45594000000E+02  0.51100000000E-03 0.  1.
    9900012    2    1    2    0    0  0.51285711372E+00  0.19741542934E+00  0.10445826625E+01  0.90007683005E+02  0.89999943620E+02 0.  0.
        -12    1    1    2    0    0 -0.51285711372E+00 -0.19741542934E+00 -0.10445826625E+01  0.11803169954E+01  0.00000000000E+00 0.  1.
         11    1    3    3    0    0  0.29733423374E+02  0.25230540489E+02 -0.10748073451E+02  0.40449693721E+02  0.51100000000E-03 0. -1.
        -11    1    3    3    0    0  0.42239706769E+01 -0.61924246961E+01 -0.34555636545E+01  0.82540276428E+01  0.51100000000E-03 0.  1.
        -12    1    3    3    0    0 -0.33444536937E+02 -0.18840700364E+02  0.15248219768E+02  0.41303961641E+02  0.00000000000E+00 0.  1.
</event>
<event>
 7    1  0.1716782E-015  0.9000774E+02  0.7816164E-02  0.1186339E+00
        -11   -1    0    0    0    0  0.00000000000E+00  0.00000000000E+00  0.45593999997E+02  0.45594000000E+02  0.51100000000E-03 0.  1.
         11   -1    0    0    0    0 -0.00000000000E+00 -0.00000000000E+00 -0.45593999997E+02  0.45594000000E+02  0.51100000000E-03 0. -1.
    9900012    2    1    2    0    0  0.46006745415E+00  0.19542415702E+00 -0.10691871055E+01  0.90007739974E+02  0.90000001341E+02 0.  0.
        -12    1    1    2    0    0 -0.46006745415E+00 -0.19542415702E+00  0.10691871055E+01  0.11802600265E+01  0.00000000000E+00 0.  1.
         11    1    3    3    0    0 -0.15295351933E+02 -0.12604126443E+02  0.10873947475E+02  0.22606515169E+02  0.51100000000E-03 0. -1.
        -11    1    3    3    0    0 -0.24074175860E+02  0.10412224835E+02 -0.21590761864E+01  0.26318092249E+02  0.51100000000E-03 0.  1.
         12    1    3    3    0    0  0.39829595248E+02  0.23873257654E+01 -0.97840583941E+01  0.41083132555E+02  0.00000000000E+00 0. -1.
</event>
<event>
 7    1  0.1716782E-015  0.9000778E+02  0.7816164E-02  0.1186339E+00
        -11   -1    0    0    0    0  0.00000000000E+00  0.00000000000E+00  0.45593999997E+02  0.45594000000E+02  0.51100000000E-03 0.  1.
         11   -1    0    0    0    0 -0.00000000000E+00 -0.00000000000E+00 -0.45593999997E+02  0.45594000000E+02  0.51100000000E-03 0. -1.
    9900012    2    1    2    0    0 -0.11613039604E+01 -0.15362116566E+00  0.14388099253E+00  0.90007776254E+02  0.90000038100E+02 0.  0.
        -12    1    1    2    0    0  0.11613039604E+01  0.15362116566E+00 -0.14388099253E+00  0.11802237461E+01  0.00000000000E+00 0.  1.
         11    1    3    3    0    0 -0.39095506574E+02 -0.12805176295E+02  0.47888127306E+01  0.41416951865E+02  0.51100000000E-03 0. -1.
        -11    1    3    3    0    0 -0.62136673166E+00  0.66801319344E+01  0.50403530243E+01  0.83913895242E+01  0.51100000000E-03 0.  1.
        -12    1    3    3    0    0  0.38555569345E+02  0.59714231947E+01 -0.96852847624E+01  0.40199434864E+02  0.00000000000E+00 0.  1.
</event>
<event>
 7    1  0.1716782E-015  0.9000781E+02  0.7816164E-02  0.1186339E+00
        -11   -1    0    0    0    0  0.00000000000E+00  0.00000000000E+00  0.45593999997E+02  0.45594000000E+02  0.51100000000E-03 0.  1.
         11   -1    0    0    0    0 -0.00000000000E+00 -0.00000000000E+00 -0.45593999997E+02  0.45594000000E+02  0.51100000000E-03 0. -1.
    9900012    2    1    2    0    0 -0.54954681896E+00  0.57050665110E+00 -0.87484728910E+00  0.90007814708E+02  0.90000077062E+02 0.  0.
        -12    1    1    2    0    0  0.54954681896E+00 -0.57050665110E+00  0.87484728910E+00  0.11801852924E+01  0.00000000000E+00 0.  1.
         11    1    3    3    0    0 -0.73579905595E+01 -0.48581799867E+01  0.59788470007E+01  0.10653100468E+02  0.51100000000E-03 0. -1.
        -11    1    3    3    0    0 -0.29266468639E+01 -0.25131182061E+02  0.23983526393E+02  0.34861886240E+02  0.51100000000E-03 0.  1.
         12    1    3    3    0    0  0.97350906045E+01  0.30559868699E+02 -0.30837220683E+02  0.44492828000E+02  0.00000000000E+00 0. -1.
</event>
<event>
 7    1  0.1716782E-015  0.9000774E+02  0.7816164E-02  0.1186339E+00
        -11   -1    0    0    0    0  0.00000000000E+00  0.00000000000E+00  0.45593999997E+02  0.45594000000E+02  0.51100000000E-03 0. -1.
         11   -1    0    0    0    0 -0.00000000000E+00 -0.00000000000E+00 -0.45593999997E+02  0.45594000000E+02  0.51100000000E-03 0.  1.
    9900012    2    1    2    0    0 -0.67640588393E+00 -0.76037661641E+00 -0.59776764430E+00  0.90007735760E+02  0.89999997072E+02 0.  0.
        -12    1    1    2    0    0  0.67640588393E+00  0.76037661641E+00  0.59776764430E+00  0.11802642396E+01  0.00000000000E+00 0.  1.
         11    1    3    3    0    0  0.51165200341E+00  0.68037914723E+01 -0.39765848167E+01  0.78972522586E+01  0.51100000000E-03 0. -1.
        -11    1    3    3    0    0 -0.11950463669E+02 -0.53553685335E+01 -0.37531505354E+02  0.39750565385E+02  0.51100000000E-03 0.  1.
         12    1    3    3    0    0  0.10762405781E+02 -0.22087995551E+01  0.40910322526E+02  0.42359918117E+02  0.00000000000E+00 0. -1.
</event>
<event>
 7    1  0.1716782E-015  0.9000769E+02  0.7816164E-02  0.1186339E+00
        -11   -1    0    0    0    0  0.00000000000E+00  0.00000000000E+00  0.45593999997E+02  0.45594000000E+02  0.51100000000E-03 0. -1.
         11   -1    0    0    0    0 -0.00000000000E+00 -0.00000000000E+00 -0.45593999997E+02  0.45594000000E+02  0.51100000000E-03 0.  1.
    9900012    2    1    2    0    0 -0.16170639786E+00 -0.57964630960E+00  0.10153832874E+01  0.90007685625E+02  0.89999946275E+02 0.  0.
        -12    1    1    2    0    0  0.16170639786E+00  0.57964630960E+00 -0.10153832874E+01  0.11803143749E+01  0.00000000000E+00 0.  1.
         11    1    3    3    0    0  0.25647712810E+02  0.22969585159E+02  0.89863957282E+01  0.35583174721E+02  0.51100000000E-03 0. -1.
        -11    1    3    3    0    0  0.48772162666E+01 -0.75555064729E+00 -0.14793028517E+02  0.15594607666E+02  0.51100000000E-03 0.  1.
        -12    1    3    3    0    0 -0.30686635475E+02 -0.22793680821E+02  0.68220160758E+01  0.38829903238E+02  0.00000000000E+00 0.  1.
</event>
<event>
 7    1  0.1716782E-015  0.9000777E+02  0.7816164E-02  0.1186339E+00
        -11   -1    0    0    0    0  0.00000000000E+00  0.00000000000E+00  0.45593999997E+02  0.45594000000E+02  0.51100000000E-03 0. -1.
         11   -1    0    0    0    0 -0.00000000000E+00 -0.00000000000E+00 -0.45593999997E+02  0.45594000000E+02  0.51100000000E-03 0.  1.
    9900012    2    1    2    0    0 -0.74533610693E-01  0.48764426366E+00  0.10721951312E+01  0.90007765029E+02  0.90000026728E+02 0.  0.
        -12    1    1    2    0    0  0.74533610693E-01 -0.48764426366E+00 -0.10721951312E+01  0.11802349709E+01  0.00000000000E+00 0.  1.
         11    1    3    3    0    0  0.27439768003E+02  0.32137304533E+02  0.81434997085E+01  0.43035610818E+02  0.51100000000E-03 0. -1.
        -11    1    3    3    0    0 -0.12637833150E+01 -0.72274216351E+01  0.52916123980E+01  0.90462110184E+01  0.51100000000E-03 0.  1.
        -12    1    3    3    0    0 -0.26250518299E+02 -0.24422238635E+02 -0.12362916975E+02  0.37925943192E+02  0.00000000000E+00 0.  1.
</event>
<event>
 7    1  0.1716782E-015  0.9000791E+02  0.7816164E-02  0.1186339E+00
        -11   -1    0    0    0    0  0.00000000000E+00  0.00000000000E+00  0.45593999997E+02  0.45594000000E+02  0.51100000000E-03 0. -1.
         11   -1    0    0    0    0 -0.00000000000E+00 -0.00000000000E+00 -0.45593999997E+02  0.45594000000E+02  0.51100000000E-03 0.  1.
    9900012    2    1    2    0    0  0.45247449012E+00  0.10709584334E+01  0.20232734195E+00  0.90007906155E+02  0.90000169716E+02 0.  0.
        -12    1    1    2    0    0 -0.45247449012E+00 -0.10709584334E+01 -0.20232734195E+00  0.11800938453E+01  0.00000000000E+00 0.  1.
         11    1    3    3    0    0 -0.64480654544E+01  0.42436253243E+01 -0.37183025248E+01  0.85680615034E+01  0.51100000000E-03 0. -1.
        -11    1    3    3    0    0  0.17028080083E+02  0.16039260420E+02 -0.31895106184E+02  0.39553902271E+02  0.51100000000E-03 0.  1.
         12    1    3    3    0    0 -0.10127540139E+02 -0.19211927311E+02  0.35815736050E+02  0.41885942380E+02  0.00000000000E+00 0. -1.
</event>
<event>
 7    1  0.1716782E-015  0.9000774E+02  0.7816164E-02  0.1186339E+00
        -11   -1    0    0    0    0  0.00000000000E+00  0.00000000000E+00  0.45593999997E+02  0.45594000000E+02  0.51100000000E-03 0.  1.
         11   -1    0    0    0    0 -0.00000000000E+00 -0.00000000000E+00 -0.45593999997E+02  0.45594000000E+02  0.51100000000E-03 0. -1.
    9900012    2    1    2    0    0 -0.39869846585E+00  0.98428267592E+00 -0.51502392959E+00  0.90007736258E+02  0.89999997577E+02 0.  0.
        -12    1    1    2    0    0  0.39869846585E+00 -0.98428267592E+00  0.51502392959E+00  0.11802637421E+01  0.00000000000E+00 0.  1.
         11    1    3    3    0    0  0.83329922214E+01  0.10392723891E+02 -0.14520382537E+01  0.13399846439E+02  0.51100000000E-03 0. -1.
        -11    1    3    3    0    0  0.73154250808E+01 -0.15371264020E+02  0.34757031910E+02  0.38701969835E+02  0.51100000000E-03 0.  1.
         12    1    3    3    0    0 -0.16047115768E+02  0.59628228044E+01 -0.33820017586E+02  0.37905919983E+02  0.00000000000E+00 0. -1.
</event>
<event>
 7    1  0.1716782E-015  0.9000774E+02  0.7816164E-02  0.1186339E+00
        -11   -1    0    0    0    0  0.00000000000E+00  0.00000000000E+00  0.45593999997E+02  0.45594000000E+02  0.51100000000E-03 0.  1.
         11   -1    0    0    0    0 -0.00000000000E+00 -0.00000000000E+00 -0.45593999997E+02  0.45594000000E+02  0.51100000000E-03 0. -1.
    9900012    2    1    2    0    0  0.26888657334E+00 -0.37239752395E+00 -0.10872089696E+01  0.90007744414E+02  0.90000005840E+02 0.  0.
        -12    1    1    2    0    0 -0.26888657334E+00  0.37239752395E+00  0.10872089696E+01  0.11802555862E+01  0.00000000000E+00 0.  1.
         11    1    3    3    0    0 -0.47600309487E+01  0.48736462071E+00  0.89204533391E+01  0.10122742066E+02  0.51100000000E-03 0. -1.
        -11    1    3    3    0    0  0.35704433396E+02  0.42200164228E+01  0.15996446950E+02  0.39351002758E+02  0.51100000000E-03 0.  1.
         12    1    3    3    0    0 -0.30675515874E+02 -0.50797785674E+01 -0.26004109259E+02  0.40533999590E+02  0.00000000000E+00 0. -1.
</event>
<event>
 7    1  0.1716782E-015  0.9000769E+02  0.7816164E-02  0.1186339E+00
        -11   -1    0    0    0    0  0.00000000000E+00  0.00000000000E+00  0.45593999997E+02  0.45594000000E+02  0.51100000000E-03 0.  1.
         11   -1    0    0    0    0 -0.00000000000E+00 -0.00000000000E+00 -0.45593999997E+02  0.45594000000E+02  0.51100000000E-03 0. -1.
    9900012    2    1    2    0    0  0.94832278658E+00 -0.69912025610E+00 -0.71096121422E-01  0.90007686525E+02  0.89999947187E+02 0.  0.
        -12    1    1    2    0    0 -0.94832278658E+00  0.69912025610E+00  0.71096121422E-01  0.11803134747E+01  0.00000000000E+00 0.  1.
         11    1    3    3    0    0  0.11847422987E+01  0.37490116304E+02 -0.15082926154E+02  0.40427801034E+02  0.51100000000E-03 0. -1.
        -11    1    3    3    0    0 -0.40040573116E+01 -0.64979142014E+01 -0.73616066899E+01  0.10604179235E+02  0.51100000000E-03 0.  1.
        -12    1    3    3    0    0  0.37676377995E+01 -0.31691322359E+02  0.22373436722E+02  0.38975706257E+02  0.00000000000E+00 0.  1.
</event>
<event>
 7    1  0.1716782E-015  0.9000777E+02  0.7816164E-02  0.1186339E+00
        -11   -1    0    0    0    0  0.00000000000E+00  0.00000000000E+00  0.45593999997E+02  0.45594000000E+02  0.51100000000E-03 0.  1.
         11   -1    0    0    0    0 -0.00000000000E+00 -0.00000000000E+00 -0.45593999997E+02  0.45594000000E+02  0.51100000000E-03 0. -1.
    9900012    2    1    2    0    0  0.68130637488E+00  0.29006938342E+00 -0.91903647462E+00  0.90007768385E+02  0.90000030128E+02 0.  0.
        -12    1    1    2    0    0 -0.68130637488E+00 -0.29006938342E+00  0.91903647462E+00  0.11802316151E+01  0.00000000000E+00 0.  1.
         11    1    3    3    0    0  0.16810681055E+02  0.28506420242E+02 -0.19606672359E+02  0.38466044686E+02  0.51100000000E-03 0. -1.
        -11    1    3    3    0    0 -0.69235236993E+01  0.75110201522E+01  0.68597075991E-01  0.10215444678E+02  0.51100000000E-03 0.  1.
        -12    1    3    3    0    0 -0.92058509811E+01 -0.35727371010E+02  0.18619038808E+02  0.41326279021E+02  0.00000000000E+00 0.  1.
</event>
<event>
 7    1  0.1716782E-015  0.9000774E+02  0.7816164E-02  0.1186339E+00
        -11   -1    0    0    0    0  0.00000000000E+00  0.00000000000E+00  0.45593999997E+02  0.45594000000E+02  0.51100000000E-03 0.  1.
         11   -1    0    0    0    0 -0.00000000000E+00 -0.00000000000E+00 -0.45593999997E+02  0.45594000000E+02  0.51100000000E-03 0. -1.
    9900012    2    1    2    0    0  0.20331476618E+00  0.11072202299E+01  0.35458241122E+00  0.90007744850E+02  0.90000006282E+02 0.  0.
        -12    1    1    2    0    0 -0.20331476618E+00 -0.11072202299E+01 -0.35458241122E+00  0.11802551495E+01  0.00000000000E+00 0.  1.
         11    1    3    3    0    0 -0.51598544975E+01 -0.79682016646E+01  0.22915795088E+01  0.97656373632E+01  0.51100000000E-03 0. -1.
        -11    1    3    3    0    0 -0.49082011612E+01 -0.34682855543E+02  0.22454210113E+01  0.35100325113E+02  0.51100000000E-03 0.  1.
         12    1    3    3    0    0  0.10271370425E+02  0.43758277437E+02 -0.41824181088E+01  0.45141782374E+02  0.00000000000E+00 0. -1.
</event>
<event>
 7    1  0.1716782E-015  0.9000773E+02  0.7816164E-02  0.1186339E+00
        -11   -1    0    0    0    0  0.00000000000E+00  0.00000000000E+00  0.45593999997E+02  0.45594000000E+02  0.51100000000E-03 0. -1.
         11   -1    0    0    0    0 -0.00000000000E+00 -0.00000000000E+00 -0.45593999997E+02  0.45594000000E+02  0.51100000000E-03 0.  1.
    9900012    2    1    2    0    0  0.48751336929E+00 -0.99713371636E+00  0.40136672191E+00  0.90007728769E+02  0.89999989989E+02 0.  0.
        -12    1    1    2    0    0 -0.48751336929E+00  0.99713371636E+00 -0.40136672191E+00  0.11802712311E+01  0.00000000000E+00 0.  1.
         11    1    3    3    0    0  0.33159767986E+01  0.20416217753E+02  0.30778606494E+02  0.37082883753E+02  0.51100000000E-03 0. -1.
        -11    1    3    3    0    0 -0.42166042540E+01 -0.41779300554E+01  0.85047578399E+01  0.10371391284E+02  0.51100000000E-03 0.  1.
        -12    1    3    3    0    0  0.13881408246E+01 -0.17235421414E+02 -0.38881997612E+02  0.42553453732E+02  0.00000000000E+00 0.  1.
</event>
<event>
 7    1  0.1716782E-015  0.9000783E+02  0.7816164E-02  0.1186339E+00
        -11   -1    0    0    0    0  0.00000000000E+00  0.00000000000E+00  0.45593999997E+02  0.45594000000E+02  0.51100000000E-03 0.  1.
         11   -1    0    0    0    0 -0.00000000000E+00 -0.00000000000E+00 -0.45593999997E+02  0.45594000000E+02  0.51100000000E-03 0. -1.
    9900012    2    1    2    0    0  0.44582121578E+00  0.52979937885E+00 -0.95569854168E+00  0.90007828978E+02  0.90000091521E+02 0.  0.
        -12    1    1    2    0    0 -0.44582121578E+00 -0.52979937885E+00  0.95569854168E+00  0.11801710219E+01  0.00000000000E+00 0.  1.
         11    1    3    3    0    0 -0.48658260801E+01  0.58014458975E+01 -0.50260693850E+01  0.90881467675E+01  0.51100000000E-03 0. -1.
        -11    1    3    3    0    0  0.86683739294E+01  0.15243623890E+02  0.37588909715E+02  0.41478125678E+02  0.51100000000E-03 0.  1.
         12    1    3    3    0    0 -0.33567266335E+01 -0.20515270409E+02 -0.33518538872E+02  0.39441556533E+02  0.00000000000E+00 0. -1.
</event>
<event>
 7    1  0.1716782E-015  0.9000774E+02  0.7816164E-02  0.1186339E+00
        -11   -1    0    0    0    0  0.00000000000E+00  0.00000000000E+00  0.45593999997E+02  0.45594000000E+02  0.51100000000E-03 0. -1.
         11   -1    0    0    0    0 -0.00000000000E+00 -0.00000000000E+00 -0.45593999997E+02  0.45594000000E+02  0.51100000000E-03 0.  1.
    9900012    2    1    2    0    0 -0.10697963267E+00  0.11568138162E+01  0.20823259547E+00  0.90007735766E+02  0.89999997079E+02 0.  0.
        -12    1    1    2    0    0  0.10697963267E+00 -0.11568138162E+01 -0.20823259547E+00  0.11802642335E+01  0.00000000000E+00 0.  1.
         11    1    3    3    0    0  0.90194605092E+01  0.17920108181E+02 -0.38231123291E+01  0.20422956036E+02  0.51100000000E-03 0. -1.
        -11    1    3    3    0    0  0.20287053995E+01 -0.73267722614E+01 -0.30846799712E+02  0.31769833020E+02  0.51100000000E-03 0.  1.
         12    1    3    3    0    0 -0.11155145541E+02 -0.94365221036E+01  0.34878144636E+02  0.37814946711E+02  0.00000000000E+00 0. -1.
</event>
<event>
 7    1  0.1716782E-015  0.9000775E+02  0.7816164E-02  0.1186339E+00
        -11   -1    0    0    0    0  0.00000000000E+00  0.00000000000E+00  0.45593999997E+02  0.45594000000E+02  0.51100000000E-03 0. -1.
         11   -1    0    0    0    0 -0.00000000000E+00 -0.00000000000E+00 -0.45593999997E+02  0.45594000000E+02  0.51100000000E-03 0.  1.
    9900012    2    1    2    0    0  0.90024463193E+00 -0.16347036197E+00  0.74553575914E+00  0.90007751499E+02  0.90000013019E+02 0.  0.
        -12    1    1    2    0    0 -0.90024463193E+00  0.16347036197E+00 -0.74553575914E+00  0.11802485013E+01  0.00000000000E+00 0.  1.
         11    1    3    3    0    0  0.13112069169E+02 -0.24721542619E+02 -0.22689160872E+02  0.36026088445E+02  0.51100000000E-03 0. -1.
        -11    1    3    3    0    0 -0.16277132262E+01 -0.27455354281E+01 -0.94347128795E+01  0.99599810499E+01  0.51100000000E-03 0.  1.
        -12    1    3    3    0    0 -0.10584111311E+02  0.27303607685E+02  0.32869409511E+02  0.44021682004E+02  0.00000000000E+00 0.  1.
</event>
<event>
 7    1  0.1716782E-015  0.9000775E+02  0.7816164E-02  0.1186339E+00
        -11   -1    0    0    0    0  0.00000000000E+00  0.00000000000E+00  0.45593999997E+02  0.45594000000E+02  0.51100000000E-03 0. -1.
         11   -1    0    0    0    0 -0.00000000000E+00 -0.00000000000E+00 -0.45593999997E+02  0.45594000000E+02  0.51100000000E-03 0.  1.
    9900012    2    1    2    0    0  0.29701210471E+00 -0.97778798306E+00  0.59050309634E+00  0.90007754501E+02  0.90000016061E+02 0.  0.
        -12    1    1    2    0    0 -0.29701210471E+00  0.97778798306E+00 -0.59050309634E+00  0.11802454986E+01  0.00000000000E+00 0.  1.
         11    1    3    3    0    0 -0.28399307217E+02 -0.20593404565E+02 -0.19622291945E+02  0.40195065660E+02  0.51100000000E-03 0. -1.
        -11    1    3    3    0    0 -0.16556938857E+01 -0.40320926913E+01  0.85670714096E+01  0.96121697089E+01  0.51100000000E-03 0.  1.
        -12    1    3    3    0    0  0.30352013208E+02  0.23647709273E+02  0.11645723632E+02  0.40200519132E+02  0.00000000000E+00 0.  1.
</event>
<event>
 7    1  0.1716782E-015  0.9000792E+02  0.7816164E-02  0.1186339E+00
        -11   -1    0    0    0    0  0.00000000000E+00  0.00000000000E+00  0.45593999997E+02  0.45594000000E+02  0.51100000000E-03 0.  1.
         11   -1    0    0    0    0 -0.00000000000E+00 -0.00000000000E+00 -0.45593999997E+02  0.45594000000E+02  0.51100000000E-03 0. -1.
    9900012    2    1    2    0    0 -0.72409028236E+00  0.12152751109E-01 -0.93174242044E+00  0.90007915950E+02  0.90000179641E+02 0.  0.
        -12    1    1    2    0    0  0.72409028236E+00 -0.12152751109E-01  0.93174242044E+00  0.11800840497E+01  0.00000000000E+00 0.  1.
         11    1    3    3    0    0 -0.54123658641E+01 -0.42196182862E+01  0.38662287506E+01  0.78769669125E+01  0.51100000000E-03 0. -1.
        -11    1    3    3    0    0 -0.20930251153E+02  0.19317151937E+00 -0.35947985397E+02  0.41597720886E+02  0.51100000000E-03 0.  1.
         12    1    3    3    0    0  0.25618526735E+02  0.40385995179E+01  0.31150014226E+02  0.40533228152E+02  0.00000000000E+00 0. -1.
</event>
<event>
 7    1  0.1716782E-015  0.9000769E+02  0.7816164E-02  0.1186339E+00
        -11   -1    0    0    0    0  0.00000000000E+00  0.00000000000E+00  0.45593999997E+02  0.45594000000E+02  0.51100000000E-03 0. -1.
         11   -1    0    0    0    0 -0.00000000000E+00 -0.00000000000E+00 -0.45593999997E+02  0.45594000000E+02  0.51100000000E-03 0.  1.
    9900012    2    1    2    0    0  0.90151689756E+00  0.73694453132E-01  0.75826791305E+00  0.90007689102E+02  0.89999949798E+02 0.  0.
        -12    1    1    2    0    0 -0.90151689756E+00 -0.73694453132E-01 -0.75826791305E+00  0.11803108984E+01  0.00000000000E+00 0.  1.
         11    1    3    3    0    0  0.39855949036E+02  0.40325763945E+01  0.67772165547E+01  0.40628672270E+02  0.51100000000E-03 0. -1.
        -11    1    3    3    0    0 -0.23000652614E+01 -0.52519720686E+01  0.82308195261E+01  0.10030947171E+02  0.51100000000E-03 0.  1.
        -12    1    3    3    0    0 -0.36654366877E+02  0.12930901272E+01 -0.14249768168E+02  0.39348069661E+02  0.00000000000E+00 0.  1.
</event>
<event>
 7    1  0.1716782E-015  0.9000775E+02  0.7816164E-02  0.1186339E+00
        -11   -1    0    0    0    0  0.00000000000E+00  0.00000000000E+00  0.45593999997E+02  0.45594000000E+02  0.51100000000E-03 0.  1.
         11   -1    0    0    0    0 -0.00000000000E+00 -0.00000000000E+00 -0.45593999997E+02  0.45594000000E+02  0.51100000000E-03 0. -1.
    9900012    2    1    2    0    0  0.10060116481E+01 -0.57119520986E+00 -0.23383356199E+00  0.90007745138E+02  0.90000006574E+02 0.  0.
        -12    1    1    2    0    0 -0.10060116481E+01  0.57119520986E+00  0.23383356199E+00  0.11802548617E+01  0.00000000000E+00 0.  1.
         11    1    3    3    0    0  0.47213912305E+01 -0.17631029160E+01  0.83209123101E+01  0.97281883708E+01  0.51100000000E-03 0. -1.
        -11    1    3    3    0    0  0.20985373276E+02  0.27247755068E+02  0.14807698689E+02  0.37444545511E+02  0.51100000000E-03 0.  1.
         12    1    3    3    0    0 -0.24700752858E+02 -0.26055847362E+02 -0.23362444561E+02  0.42835011257E+02  0.00000000000E+00 0. -1.
</event>
<event>
 7    1  0.1716782E-015  0.9000777E+02  0.7816164E-02  0.1186339E+00
        -11   -1    0    0    0    0  0.00000000000E+00  0.00000000000E+00  0.45593999997E+02  0.45594000000E+02  0.51100000000E-03 0.  1.
         11   -1    0    0    0    0 -0.00000000000E+00 -0.00000000000E+00 -0.45593999997E+02  0.45594000000E+02  0.51100000000E-03 0. -1.
    9900012    2    1    2    0    0 -0.69892517487E+00  0.94694581829E+00 -0.87990779001E-01  0.90007769023E+02  0.90000030774E+02 0.  0.
        -12    1    1    2    0    0  0.69892517487E+00 -0.94694581829E+00  0.87990779001E-01  0.11802309774E+01  0.00000000000E+00 0.  1.
         11    1    3    3    0    0 -0.84563240691E+01  0.28775369561E+01  0.50812410837E+01  0.10276606780E+02  0.51100000000E-03 0. -1.
        -11    1    3    3    0    0 -0.19018630892E+02 -0.15607085396E+02  0.26433228192E+02  0.36111009242E+02  0.51100000000E-03 0.  1.
         12    1    3    3    0    0  0.26776029786E+02  0.13676494259E+02 -0.31602460054E+02  0.43620153001E+02  0.00000000000E+00 0. -1.
</event>
<event>
 7    1  0.1716782E-015  0.9000773E+02  0.7816164E-02  0.1186339E+00
        -11   -1    0    0    0    0  0.00000000000E+00  0.00000000000E+00  0.45593999997E+02  0.45594000000E+02  0.51100000000E-03 0. -1.
         11   -1    0    0    0    0 -0.00000000000E+00 -0.00000000000E+00 -0.45593999997E+02  0.45594000000E+02  0.51100000000E-03 0.  1.
    9900012    2    1    2    0    0 -0.67443715465E+00 -0.79507590168E+00  0.55319808435E+00  0.90007729147E+02  0.89999990372E+02 0.  0.
        -12    1    1    2    0    0  0.67443715465E+00  0.79507590168E+00 -0.55319808435E+00  0.11802708526E+01  0.00000000000E+00 0.  1.
         11    1    3    3    0    0  0.79597834199E+01 -0.61940058020E+01 -0.37933773001E+01  0.10775600752E+02  0.51100000000E-03 0. -1.
        -11    1    3    3    0    0  0.27332392054E+02 -0.16115231622E+02  0.16271640146E+02  0.35658471909E+02  0.51100000000E-03 0.  1.
         12    1    3    3    0    0 -0.35966612628E+02  0.21514161523E+02 -0.11925064761E+02  0.43573656486E+02  0.00000000000E+00 0. -1.
</event>
<event>
 7    1  0.1716782E-015  0.9000773E+02  0.7816164E-02  0.1186339E+00
        -11   -1    0    0    0    0  0.00000000000E+00  0.00000000000E+00  0.45593999997E+02  0.45594000000E+02  0.51100000000E-03 0.  1.
         11   -1    0    0    0    0 -0.00000000000E+00 -0.00000000000E+00 -0.45593999997E+02  0.45594000000E+02  0.51100000000E-03 0. -1.
    9900012    2    1    2    0    0  0.30758026785E+00 -0.51851780271E+00 -0.10146785132E+01  0.90007729345E+02  0.89999990573E+02 0.  0.
        -12    1    1    2    0    0 -0.30758026785E+00  0.51851780271E+00  0.10146785132E+01  0.11802706546E+01  0.00000000000E+00 0.  1.
         11    1    3    3    0    0 -0.51832386390E+01 -0.12319264727E+02 -0.86277891885E+01  0.15908142341E+02  0.51100000000E-03 0. -1.
        -11    1    3    3    0    0  0.93954983442E+01 -0.25721847436E+02 -0.13859358274E+02  0.30691540148E+02  0.51100000000E-03 0.  1.
         12    1    3    3    0    0 -0.39046794374E+01  0.37522594360E+02  0.21472468949E+02  0.43408046856E+02  0.00000000000E+00 0. -1.
</event>
<event>
 7    1  0.1716782E-015  0.9000775E+02  0.7816164E-02  0.1186339E+00
        -11   -1    0    0    0    0  0.00000000000E+00  0.00000000000E+00  0.45593999997E+02  0.45594000000E+02  0.51100000000E-03 0.  1.
         11   -1    0    0    0    0 -0.00000000000E+00 -0.00000000000E+00 -0.45593999997E+02  0.45594000000E+02  0.51100000000E-03 0. -1.
    9900012    2    1    2    0    0  0.10302703060E+01  0.62864643398E-01 -0.57233994338E+00  0.90007753467E+02  0.90000015013E+02 0.  0.
        -12    1    1    2    0    0 -0.10302703060E+01 -0.62864643398E-01  0.57233994338E+00  0.11802465326E+01  0.00000000000E+00 0.  1.
         11    1    3    3    0    0  0.26299182072E+00  0.87660107574E+01  0.36805114081E+01  0.95109554611E+01  0.51100000000E-03 0. -1.
        -11    1    3    3    0    0  0.12790316145E+02  0.32361134818E+02 -0.12398961619E+02  0.36940079633E+02  0.51100000000E-03 0.  1.
         12    1    3    3    0    0 -0.12023037660E+02 -0.41064280932E+02  0.81461102675E+01  0.43556718374E+02  0.00000000000E+00 0. -1.
</event>
<event>
 7    1  0.1716782E-015  0.9000774E+02  0.7816164E-02  0.1186339E+00
        -11   -1    0    0    0    0  0.00000000000E+00  0.00000000000E+00  0.45593999997E+02  0.45594000000E+02  0.51100000000E-03 0. -1.
         11   -1    0    0    0    0 -0.00000000000E+00 -0.00000000000E+00 -0.45593999997E+02  0.45594000000E+02  0.51100000000E-03 0.  1.
    9900012    2    1    2    0    0  0.71885168205E+00 -0.19942877077E+00  0.91460522372E+00  0.90007736347E+02  0.89999997667E+02 0.  0.
        -12    1    1    2    0    0 -0.71885168205E+00  0.19942877077E+00 -0.91460522372E+00  0.11802636530E+01  0.00000000000E+00 0.  1.
         11    1    3    3    0    0 -0.30550326305E+01  0.60700580233E+01 -0.68196390041E+01  0.96273727042E+01  0.51100000000E-03 0. -1.
        -11    1    3    3    0    0 -0.37361766423E+02  0.18832194298E+01 -0.15026845003E+01  0.37439366536E+02  0.51100000000E-03 0.  1.
         12    1    3    3    0    0  0.41135650735E+02 -0.81527062238E+01  0.92369287281E+01  0.42940997107E+02  0.00000000000E+00 0. -1.
</event>
<event>
 7    1  0.1716782E-015  0.9000782E+02  0.7816164E-02  0.1186339E+00
        -11   -1    0    0    0    0  0.00000000000E+00  0.00000000000E+00  0.45593999997E+02  0.45594000000E+02  0.51100000000E-03 0. -1.
         11   -1    0    0    0    0 -0.00000000000E+00 -0.00000000000E+00 -0.45593999997E+02  0.45594000000E+02  0.51100000000E-03 0.  1.
    9900012    2    1    2    0    0  0.40760203628E+00  0.88656122985E+00 -0.66385673297E+00  0.90007815270E+02  0.90000077632E+02 0.  0.
        -12    1    1    2    0    0 -0.40760203628E+00 -0.88656122985E+00  0.66385673297E+00  0.11801847297E+01  0.00000000000E+00 0.  1.
         11    1    3    3    0    0  0.34289266139E+02  0.34707780743E+01  0.20460707761E+02  0.40080427083E+02  0.51100000000E-03 0. -1.
        -11    1    3    3    0    0 -0.36047747658E+01  0.85848385999E+01  0.28362776186E+01  0.97333614897E+01  0.51100000000E-03 0.  1.
        -12    1    3    3    0    0 -0.30276889337E+02 -0.11169055444E+02 -0.23960842113E+02  0.40194026698E+02  0.00000000000E+00 0.  1.
</event>
<event>
 7    1  0.1716782E-015  0.9000773E+02  0.7816164E-02  0.1186339E+00
        -11   -1    0    0    0    0  0.00000000000E+00  0.00000000000E+00  0.45593999997E+02  0.45594000000E+02  0.51100000000E-03 0.  1.
         11   -1    0    0    0    0 -0.00000000000E+00 -0.00000000000E+00 -0.45593999997E+02  0.45594000000E+02  0.51100000000E-03 0. -1.
    9900012    2    1    2    0    0  0.50696480810E+00 -0.10536603946E+01  0.16066524907E+00  0.90007734409E+02  0.89999995703E+02 0.  0.
        -12    1    1    2    0    0 -0.50696480810E+00  0.10536603946E+01 -0.16066524907E+00  0.11802655914E+01  0.00000000000E+00 0.  1.
         11    1    3    3    0    0  0.19221560737E+01 -0.44505150943E+01  0.60191569104E+01  0.77286492189E+01  0.51100000000E-03 0. -1.
        -11    1    3    3    0    0  0.21625344780E+02 -0.28209336821E+02  0.14256253680E+02  0.38297036308E+02  0.51100000000E-03 0.  1.
         12    1    3    3    0    0 -0.23040536046E+02  0.31606191520E+02 -0.20114745341E+02  0.43982048882E+02  0.00000000000E+00 0. -1.
</event>
<event>
 7    1  0.2130211E-015  0.9000825E+02  0.7816164E-02  0.1186338E+00
        -11   -1    0    0    0    0  0.00000000000E+00  0.00000000000E+00  0.45593999997E+02  0.45594000000E+02  0.51100000000E-03 0. -1.
         11   -1    0    0    0    0 -0.00000000000E+00 -0.00000000000E+00 -0.45593999997E+02  0.45594000000E+02  0.51100000000E-03 0.  1.
    9900012    2    1    2    0    0 -0.98815259370E+00  0.44086116665E+00  0.47010398625E+00  0.90008253470E+02  0.90000521614E+02 0.  0.
        -12    1    1    2    0    0  0.98815259370E+00 -0.44086116665E+00 -0.47010398625E+00  0.11797465298E+01  0.00000000000E+00 0.  1.
         11    1    3    3    0    0  0.51322245135E+00  0.17383674244E+02  0.37959249197E+02  0.41753564248E+02  0.51100000000E-03 0. -1.
        -11    1    3    3    0    0 -0.15625526707E+01  0.65603682751E+01 -0.65551933588E+01  0.94048159464E+01  0.51100000000E-03 0.  1.
        -12    1    3    3    0    0  0.61177625612E-01 -0.23503181352E+02 -0.30933951852E+02  0.38849873276E+02  0.00000000000E+00 0.  1.
</event>
<event>
 7    1  0.1716782E-015  0.9000776E+02  0.7816164E-02  0.1186339E+00
        -11   -1    0    0    0    0  0.00000000000E+00  0.00000000000E+00  0.45593999997E+02  0.45594000000E+02  0.51100000000E-03 0.  1.
         11   -1    0    0    0    0 -0.00000000000E+00 -0.00000000000E+00 -0.45593999997E+02  0.45594000000E+02  0.51100000000E-03 0. -1.
    9900012    2    1    2    0    0  0.64994871111E+00  0.43234005638E+00 -0.88521874860E+00  0.90007761260E+02  0.90000022908E+02 0.  0.
        -12    1    1    2    0    0 -0.64994871111E+00 -0.43234005638E+00  0.88521874860E+00  0.11802387404E+01  0.00000000000E+00 0.  1.
         11    1    3    3    0    0  0.72733255293E+01  0.43946436609E+01 -0.43162160359E+02  0.43990751804E+02  0.51100000000E-03 0. -1.
        -11    1    3    3    0    0  0.20556687280E+01 -0.59461804832E+01  0.61089333862E+01  0.87693730469E+01  0.51100000000E-03 0.  1.
        -12    1    3    3    0    0 -0.86790455462E+01  0.19838768788E+01  0.36168008225E+02  0.37247636408E+02  0.00000000000E+00 0.  1.
</event>
<event>
 7    1  0.1716782E-015  0.9000770E+02  0.7816164E-02  0.1186339E+00
        -11   -1    0    0    0    0  0.00000000000E+00  0.00000000000E+00  0.45593999997E+02  0.45594000000E+02  0.51100000000E-03 0.  1.
         11   -1    0    0    0    0 -0.00000000000E+00 -0.00000000000E+00 -0.45593999997E+02  0.45594000000E+02  0.51100000000E-03 0. -1.
    9900012    2    1    2    0    0  0.49678056273E+00 -0.98543001010E+00 -0.41863621939E+00  0.90007695160E+02  0.89999955936E+02 0.  0.
        -12    1    1    2    0    0 -0.49678056273E+00  0.98543001010E+00  0.41863621939E+00  0.11803048405E+01  0.00000000000E+00 0.  1.
         11    1    3    3    0    0  0.26793288985E+02 -0.64948309643E+01  0.25548146760E+02  0.37586845664E+02  0.51100000000E-03 0. -1.
        -11    1    3    3    0    0 -0.24463293259E+01  0.13661342834E+01  0.92620711977E+01  0.96766116582E+01  0.51100000000E-03 0.  1.
        -12    1    3    3    0    0 -0.23850179096E+02  0.41432666709E+01 -0.35228854177E+02  0.42744237837E+02  0.00000000000E+00 0.  1.
</event>
<event>
 7    1  0.1716782E-015  0.9000771E+02  0.7816164E-02  0.1186339E+00
        -11   -1    0    0    0    0  0.00000000000E+00  0.00000000000E+00  0.45593999997E+02  0.45594000000E+02  0.51100000000E-03 0.  1.
         11   -1    0    0    0    0 -0.00000000000E+00 -0.00000000000E+00 -0.45593999997E+02  0.45594000000E+02  0.51100000000E-03 0. -1.
    9900012    2    1    2    0    0 -0.11184493432E+01 -0.37700448100E+00  0.54352124543E-02  0.90007707302E+02  0.89999968238E+02 0.  0.
        -12    1    1    2    0    0  0.11184493432E+01  0.37700448100E+00 -0.54352124543E-02  0.11802926982E+01  0.00000000000E+00 0.  1.
         11    1    3    3    0    0  0.26800322680E+01 -0.30156432583E+01  0.12401729694E+02  0.13041456088E+02  0.51100000000E-03 0. -1.
        -11    1    3    3    0    0 -0.12281264785E+01 -0.54401674824E+01  0.31636715940E+02  0.32124531322E+02  0.51100000000E-03 0.  1.
         12    1    3    3    0    0 -0.25703551327E+01  0.80788062597E+01 -0.44033010422E+02  0.44841719892E+02  0.00000000000E+00 0. -1.
</event>
<event>
 7    1  0.1716782E-015  0.9000789E+02  0.7816164E-02  0.1186339E+00
        -11   -1    0    0    0    0  0.00000000000E+00  0.00000000000E+00  0.45593999997E+02  0.45594000000E+02  0.51100000000E-03 0.  1.
         11   -1    0    0    0    0 -0.00000000000E+00 -0.00000000000E+00 -0.45593999997E+02  0.45594000000E+02  0.51100000000E-03 0. -1.
    9900012    2    1    2    0    0  0.49668043928E+00  0.97109375902E+00  0.45049070075E+00  0.90007891353E+02  0.90000154719E+02 0.  0.
        -12    1    1    2    0    0 -0.49668043928E+00 -0.97109375902E+00 -0.45049070075E+00  0.11801086471E+01  0.00000000000E+00 0.  1.
         11    1    3    3    0    0 -0.12503798867E+02 -0.27925969987E+01 -0.37813978718E+02  0.39925437641E+02  0.51100000000E-03 0. -1.
        -11    1    3    3    0    0  0.40272045052E+01 -0.89964954653E+01  0.12758593699E+01  0.99389699756E+01  0.51100000000E-03 0.  1.
        -12    1    3    3    0    0  0.89732748006E+01  0.12760186223E+02  0.36988610049E+02  0.40143483736E+02  0.00000000000E+00 0.  1.
</event>
<event>
 7    1  0.1716782E-015  0.9000767E+02  0.7816164E-02  0.1186339E+00
        -11   -1    0    0    0    0  0.00000000000E+00  0.00000000000E+00  0.45593999997E+02  0.45594000000E+02  0.51100000000E-03 0.  1.
         11   -1    0    0    0    0 -0.00000000000E+00 -0.00000000000E+00 -0.45593999997E+02  0.45594000000E+02  0.51100000000E-03 0. -1.
    9900012    2    1    2    0    0 -0.56754954195E-01  0.52892240989E+00 -0.10536560625E+01  0.90007673292E+02  0.89999933779E+02 0.  0.
        -12    1    1    2    0    0  0.56754954195E-01 -0.52892240989E+00  0.10536560625E+01  0.11803267084E+01  0.00000000000E+00 0.  1.
         11    1    3    3    0    0  0.95342134534E+01  0.34389925936E+00  0.32306261269E+01  0.10072558677E+02  0.51100000000E-03 0. -1.
        -11    1    3    3    0    0 -0.26756495753E+02  0.88548578769E+01  0.29664311225E+02  0.40918088100E+02  0.51100000000E-03 0.  1.
         12    1    3    3    0    0  0.17165527346E+02 -0.86698347263E+01 -0.33948593414E+02  0.39017026515E+02  0.00000000000E+00 0. -1.
</event>
<event>
 7    1  0.1716782E-015  0.9000769E+02  0.7816164E-02  0.1186339E+00
        -11   -1    0    0    0    0  0.00000000000E+00  0.00000000000E+00  0.45593999997E+02  0.45594000000E+02  0.51100000000E-03 0.  1.
         11   -1    0    0    0    0 -0.00000000000E+00 -0.00000000000E+00 -0.45593999997E+02  0.45594000000E+02  0.51100000000E-03 0. -1.
    9900012    2    1    2    0    0 -0.74937405289E+00 -0.89738247711E+00  0.16206444822E+00  0.90007694249E+02  0.89999955013E+02 0.  0.
        -12    1    1    2    0    0  0.74937405289E+00  0.89738247711E+00 -0.16206444822E+00  0.11803057514E+01  0.00000000000E+00 0.  1.
         11    1    3    3    0    0  0.96700177622E+00 -0.95173448356E+01  0.72674889100E+01  0.12013797920E+02  0.51100000000E-03 0. -1.
        -11    1    3    3    0    0  0.30652444871E+02  0.44494616922E+01  0.18881564035E+02  0.36275109188E+02  0.51100000000E-03 0.  1.
         12    1    3    3    0    0 -0.32368820700E+02  0.41705006664E+01 -0.25986988496E+02  0.41718787140E+02  0.00000000000E+00 0. -1.
</event>
<event>
 7    1  0.1716782E-015  0.9000749E+02  0.7816164E-02  0.1186340E+00
        -11   -1    0    0    0    0  0.00000000000E+00  0.00000000000E+00  0.45593999997E+02  0.45594000000E+02  0.51100000000E-03 0.  1.
         11   -1    0    0    0    0 -0.00000000000E+00 -0.00000000000E+00 -0.45593999997E+02  0.45594000000E+02  0.51100000000E-03 0. -1.
    9900012    2    1    2    0    0 -0.66159682650E+00  0.91314460274E+00  0.34935466765E+00  0.90007494977E+02  0.89999753110E+02 0.  0.
        -12    1    1    2    0    0  0.66159682650E+00 -0.91314460274E+00 -0.34935466765E+00  0.11805050234E+01  0.00000000000E+00 0.  1.
         11    1    3    3    0    0 -0.13473796231E+02 -0.19628244491E+02  0.95824449916E+01  0.25663873810E+02  0.51100000000E-03 0. -1.
        -11    1    3    3    0    0  0.10713267779E+02  0.13348850683E+02  0.24445276653E+02  0.29841874472E+02  0.51100000000E-03 0.  1.
         12    1    3    3    0    0  0.20989316253E+01  0.71925384101E+01 -0.33678366977E+02  0.34501746695E+02  0.00000000000E+00 0. -1.
</event>
<event>
 7    1  0.1716782E-015  0.9000705E+02  0.7816164E-02  0.1186340E+00
        -11   -1    0    0    0    0  0.00000000000E+00  0.00000000000E+00  0.45593999997E+02  0.45594000000E+02  0.51100000000E-03 0.  1.
         11   -1    0    0    0    0 -0.00000000000E+00 -0.00000000000E+00 -0.45593999997E+02  0.45594000000E+02  0.51100000000E-03 0. -1.
    9900012    2    1    2    0    0 -0.11748942515E+01  0.52254183191E-01 -0.10737245268E+00  0.90007052988E+02  0.89999305285E+02 0.  0.
        -12    1    1    2    0    0  0.11748942515E+01 -0.52254183191E-01  0.10737245268E+00  0.11809470122E+01  0.00000000000E+00 0.  1.
         11    1    3    3    0    0  0.11277173123E+02 -0.49757384176E+01 -0.90179880454E+01  0.15272744190E+02  0.51100000000E-03 0. -1.
        -11    1    3    3    0    0  0.23346488601E+02  0.19700292195E+02 -0.93585829439E+01  0.31949070684E+02  0.51100000000E-03 0.  1.
         12    1    3    3    0    0 -0.35798555976E+02 -0.14672299594E+02  0.18269198537E+02  0.42785238114E+02  0.00000000000E+00 0. -1.
</event>
<event>
 7    1  0.1716782E-015  0.9000772E+02  0.7816164E-02  0.1186339E+00
        -11   -1    0    0    0    0  0.00000000000E+00  0.00000000000E+00  0.45593999997E+02  0.45594000000E+02  0.51100000000E-03 0. -1.
         11   -1    0    0    0    0 -0.00000000000E+00 -0.00000000000E+00 -0.45593999997E+02  0.45594000000E+02  0.51100000000E-03 0.  1.
    9900012    2    1    2    0    0 -0.43781013989E+00 -0.59026292762E+00  0.92355908064E+00  0.90007724855E+02  0.89999986023E+02 0.  0.
        -12    1    1    2    0    0  0.43781013989E+00  0.59026292762E+00 -0.92355908064E+00  0.11802751449E+01  0.00000000000E+00 0.  1.
         11    1    3    3    0    0 -0.18763381971E+01  0.36030787036E+00 -0.91329296576E+01  0.93306415204E+01  0.51100000000E-03 0. -1.
        -11    1    3    3    0    0  0.17679048025E+01 -0.31738031936E+02 -0.20076185794E+02  0.37596294962E+02  0.51100000000E-03 0.  1.
         12    1    3    3    0    0 -0.32937674532E+00  0.30787461138E+02  0.30132674532E+02  0.43080788373E+02  0.00000000000E+00 0. -1.
</event>
<event>
 7    1  0.1716782E-015  0.9000768E+02  0.7816164E-02  0.1186339E+00
        -11   -1    0    0    0    0  0.00000000000E+00  0.00000000000E+00  0.45593999997E+02  0.45594000000E+02  0.51100000000E-03 0. -1.
         11   -1    0    0    0    0 -0.00000000000E+00 -0.00000000000E+00 -0.45593999997E+02  0.45594000000E+02  0.51100000000E-03 0.  1.
    9900012    2    1    2    0    0 -0.35110590770E+00 -0.82143726890E+00 -0.77144651055E+00  0.90007676204E+02  0.89999936730E+02 0.  0.
        -12    1    1    2    0    0  0.35110590770E+00  0.82143726890E+00  0.77144651055E+00  0.11803237962E+01  0.00000000000E+00 0.  1.
         11    1    3    3    0    0 -0.16503611398E+01  0.92678002018E+01  0.22223518171E+01  0.96723658084E+01  0.51100000000E-03 0. -1.
        -11    1    3    3    0    0  0.20270220228E+02  0.16563872597E+02 -0.28614343649E+02  0.38781753006E+02  0.51100000000E-03 0.  1.
         12    1    3    3    0    0 -0.18970964996E+02 -0.26653110067E+02  0.25620545321E+02  0.41553557389E+02  0.00000000000E+00 0. -1.
</event>
<event>
 7    1  0.1716782E-015  0.9000766E+02  0.7816164E-02  0.1186339E+00
        -11   -1    0    0    0    0  0.00000000000E+00  0.00000000000E+00  0.45593999997E+02  0.45594000000E+02  0.51100000000E-03 0. -1.
         11   -1    0    0    0    0 -0.00000000000E+00 -0.00000000000E+00 -0.45593999997E+02  0.45594000000E+02  0.51100000000E-03 0.  1.
    9900012    2    1    2    0    0 -0.86417474746E+00  0.15333349376E+00  0.78923514312E+00  0.90007660530E+02  0.89999920848E+02 0.  0.
        -12    1    1    2    0    0  0.86417474746E+00 -0.15333349376E+00 -0.78923514312E+00  0.11803394705E+01  0.00000000000E+00 0.  1.
         11    1    3    3    0    0  0.11509433051E+02 -0.35529251621E+02  0.60183076067E+01  0.37828756213E+02  0.51100000000E-03 0. -1.
        -11    1    3    3    0    0  0.36096621664E+01 -0.54773877788E+01 -0.46144445402E+01  0.80202578830E+01  0.51100000000E-03 0.  1.
        -12    1    3    3    0    0 -0.15983269964E+02  0.41159972894E+02 -0.61462792340E+00  0.44158646434E+02  0.00000000000E+00 0.  1.
</event>
<event>
 7    1  0.1716782E-015  0.9000778E+02  0.7816164E-02  0.1186339E+00
        -11   -1    0    0    0    0  0.00000000000E+00  0.00000000000E+00  0.45593999997E+02  0.45594000000E+02  0.51100000000E-03 0.  1.
         11   -1    0    0    0    0 -0.00000000000E+00 -0.00000000000E+00 -0.45593999997E+02  0.45594000000E+02  0.51100000000E-03 0. -1.
    9900012    2    1    2    0    0  0.16120813695E-02 -0.30608627409E+00 -0.11398371397E+01  0.90007779635E+02  0.90000041526E+02 0.  0.
        -12    1    1    2    0    0 -0.16120813695E-02  0.30608627409E+00  0.11398371397E+01  0.11802203655E+01  0.00000000000E+00 0.  1.
         11    1    3    3    0    0 -0.68204274010E+01  0.31050358650E+02 -0.10908567081E+02  0.33610115118E+02  0.51100000000E-03 0. -1.
        -11    1    3    3    0    0 -0.37510902507E+00  0.10154012004E+02 -0.55395763664E+01  0.11572880935E+02  0.51100000000E-03 0.  1.
        -12    1    3    3    0    0  0.71971485074E+01 -0.41510456929E+02  0.15308306307E+02  0.44824783581E+02  0.00000000000E+00 0.  1.
</event>
<event>
 7    1  0.1716782E-015  0.9000773E+02  0.7816164E-02  0.1186339E+00
        -11   -1    0    0    0    0  0.00000000000E+00  0.00000000000E+00  0.45593999997E+02  0.45594000000E+02  0.51100000000E-03 0.  1.
         11   -1    0    0    0    0 -0.00000000000E+00 -0.00000000000E+00 -0.45593999997E+02  0.45594000000E+02  0.51100000000E-03 0. -1.
    9900012    2    1    2    0    0 -0.39222266879E-01  0.86238498120E+00 -0.80485521165E+00  0.90007729627E+02  0.89999990858E+02 0.  0.
        -12    1    1    2    0    0  0.39222266879E-01 -0.86238498120E+00  0.80485521165E+00  0.11802703732E+01  0.00000000000E+00 0.  1.
         11    1    3    3    0    0  0.11334791057E+02 -0.49404967532E-01  0.80349542323E+01  0.13893898622E+02  0.51100000000E-03 0. -1.
        -11    1    3    3    0    0 -0.68827523852E+01  0.15828890170E+01  0.33142506650E+02  0.33886628120E+02  0.51100000000E-03 0.  1.
         12    1    3    3    0    0 -0.44912609383E+01 -0.67109906826E+00 -0.41982316094E+02  0.42227202884E+02  0.00000000000E+00 0. -1.
</event>
<event>
 7    1  0.1716782E-015  0.9000779E+02  0.7816164E-02  0.1186339E+00
        -11   -1    0    0    0    0  0.00000000000E+00  0.00000000000E+00  0.45593999997E+02  0.45594000000E+02  0.51100000000E-03 0. -1.
         11   -1    0    0    0    0 -0.00000000000E+00 -0.00000000000E+00 -0.45593999997E+02  0.45594000000E+02  0.51100000000E-03 0.  1.
    9900012    2    1    2    0    0  0.38306101486E+00 -0.46661447464E+00  0.10141187394E+01  0.90007787465E+02  0.90000049460E+02 0.  0.
        -12    1    1    2    0    0 -0.38306101486E+00  0.46661447464E+00 -0.10141187394E+01  0.11802125346E+01  0.00000000000E+00 0.  1.
         11    1    3    3    0    0 -0.14888626753E+01 -0.87290503566E+01  0.54191886460E+01  0.10381745423E+02  0.51100000000E-03 0. -1.
        -11    1    3    3    0    0 -0.28568425180E+02  0.12407662093E+02 -0.27216000827E+02  0.41362007896E+02  0.51100000000E-03 0.  1.
         12    1    3    3    0    0  0.30440348870E+02 -0.41452262113E+01  0.22810930920E+02  0.38264034146E+02  0.00000000000E+00 0. -1.
</event>
<event>
 7    1  0.1716782E-015  0.9000774E+02  0.7816164E-02  0.1186339E+00
        -11   -1    0    0    0    0  0.00000000000E+00  0.00000000000E+00  0.45593999997E+02  0.45594000000E+02  0.51100000000E-03 0. -1.
         11   -1    0    0    0    0 -0.00000000000E+00 -0.00000000000E+00 -0.45593999997E+02  0.45594000000E+02  0.51100000000E-03 0.  1.
    9900012    2    1    2    0    0  0.26043414839E+00  0.95826230422E+00  0.63789455421E+00  0.90007744921E+02  0.90000006354E+02 0.  0.
        -12    1    1    2    0    0 -0.26043414839E+00 -0.95826230422E+00 -0.63789455421E+00  0.11802550791E+01  0.00000000000E+00 0.  1.
         11    1    3    3    0    0  0.14411750347E+02  0.30351313266E+02 -0.64389119718E+01  0.34210529851E+02  0.51100000000E-03 0. -1.
        -11    1    3    3    0    0  0.46760455559E+01  0.10354684910E+02  0.17170063497E+01  0.11490561896E+02  0.51100000000E-03 0.  1.
        -12    1    3    3    0    0 -0.18827361754E+02 -0.39747735872E+02  0.53598001763E+01  0.44306653174E+02  0.00000000000E+00 0.  1.
</event>
<event>
 7    1  0.1716782E-015  0.9000772E+02  0.7816164E-02  0.1186339E+00
        -11   -1    0    0    0    0  0.00000000000E+00  0.00000000000E+00  0.45593999997E+02  0.45594000000E+02  0.51100000000E-03 0.  1.
         11   -1    0    0    0    0 -0.00000000000E+00 -0.00000000000E+00 -0.45593999997E+02  0.45594000000E+02  0.51100000000E-03 0. -1.
    9900012    2    1    2    0    0 -0.63052664956E-01  0.49224986447E+00 -0.10708772298E+01  0.90007718843E+02  0.89999979932E+02 0.  0.
        -12    1    1    2    0    0  0.63052664956E-01 -0.49224986447E+00  0.10708772298E+01  0.11802811568E+01  0.00000000000E+00 0.  1.
         11    1    3    3    0    0  0.53754709559E+01 -0.27460449289E+01  0.70176965914E+01  0.92565931346E+01  0.51100000000E-03 0. -1.
        -11    1    3    3    0    0 -0.26130847152E+02  0.32753737196E+02 -0.14095861490E+02  0.44207711822E+02  0.51100000000E-03 0.  1.
         12    1    3    3    0    0  0.20692323531E+02 -0.29515442402E+02  0.60072876691E+01  0.36543413886E+02  0.00000000000E+00 0. -1.
</event>
<event>
 7    1  0.1716782E-015  0.9000775E+02  0.7816164E-02  0.1186339E+00
        -11   -1    0    0    0    0  0.00000000000E+00  0.00000000000E+00  0.45593999997E+02  0.45594000000E+02  0.51100000000E-03 0. -1.
         11   -1    0    0    0    0 -0.00000000000E+00 -0.00000000000E+00 -0.45593999997E+02  0.45594000000E+02  0.51100000000E-03 0.  1.
    9900012    2    1    2    0    0  0.37321653791E+00  0.10852229083E+01  0.27566357814E+00  0.90007750131E+02  0.90000011633E+02 0.  0.
        -12    1    1    2    0    0 -0.37321653791E+00 -0.10852229083E+01 -0.27566357814E+00  0.11802498690E+01  0.00000000000E+00 0.  1.
         11    1    3    3    0    0 -0.32477607157E+01 -0.55336127035E+01  0.56833878107E+01  0.85714477474E+01  0.51100000000E-03 0. -1.
        -11    1    3    3    0    0 -0.33899194456E+01 -0.35043533725E+02  0.97815377604E+01  0.36540652581E+02  0.51100000000E-03 0.  1.
         12    1    3    3    0    0  0.70108966992E+01  0.41662369337E+02 -0.15189261993E+02  0.44895649803E+02  0.00000000000E+00 0. -1.
</event>
<event>
 7    1  0.1716782E-015  0.9000776E+02  0.7816164E-02  0.1186339E+00
        -11   -1    0    0    0    0  0.00000000000E+00  0.00000000000E+00  0.45593999997E+02  0.45594000000E+02  0.51100000000E-03 0.  1.
         11   -1    0    0    0    0 -0.00000000000E+00 -0.00000000000E+00 -0.45593999997E+02  0.45594000000E+02  0.51100000000E-03 0. -1.
    9900012    2    1    2    0    0  0.11771212229E+00  0.11166124975E+01  0.36372873365E+00  0.90007755023E+02  0.90000016590E+02 0.  0.
        -12    1    1    2    0    0 -0.11771212229E+00 -0.11166124975E+01 -0.36372873365E+00  0.11802449767E+01  0.00000000000E+00 0.  1.
         11    1    3    3    0    0  0.60024938938E+01 -0.20570139546E+01 -0.32872934913E+02  0.33479711609E+02  0.51100000000E-03 0. -1.
        -11    1    3    3    0    0 -0.27876742216E+01  0.20515023635E+02  0.21731625518E+01  0.20817299490E+02  0.51100000000E-03 0.  1.
         12    1    3    3    0    0 -0.30971075499E+01 -0.17341397183E+02  0.31063501095E+02  0.35710743925E+02  0.00000000000E+00 0. -1.
</event>
<event>
 7    1  0.1716782E-015  0.9000782E+02  0.7816164E-02  0.1186339E+00
        -11   -1    0    0    0    0  0.00000000000E+00  0.00000000000E+00  0.45593999997E+02  0.45594000000E+02  0.51100000000E-03 0.  1.
         11   -1    0    0    0    0 -0.00000000000E+00 -0.00000000000E+00 -0.45593999997E+02  0.45594000000E+02  0.51100000000E-03 0. -1.
    9900012    2    1    2    0    0  0.13390635918E+00 -0.11511293281E+01 -0.22315231213E+00  0.90007819252E+02  0.90000081666E+02 0.  0.
        -12    1    1    2    0    0 -0.13390635918E+00  0.11511293281E+01  0.22315231213E+00  0.11801807478E+01  0.00000000000E+00 0.  1.
         11    1    3    3    0    0 -0.28094768970E+02  0.19659361942E+02  0.21057230004E+02  0.40239451924E+02  0.51100000000E-03 0. -1.
        -11    1    3    3    0    0  0.34897968763E+01  0.58014993949E+01  0.14307054485E+01  0.69197540280E+01  0.51100000000E-03 0.  1.
        -12    1    3    3    0    0  0.24738878453E+02 -0.26611990665E+02 -0.22711087765E+02  0.42848613300E+02  0.00000000000E+00 0.  1.
</event>
<event>
 7    1  0.1716782E-015  0.9000775E+02  0.7816164E-02  0.1186339E+00
        -11   -1    0    0    0    0  0.00000000000E+00  0.00000000000E+00  0.45593999997E+02  0.45594000000E+02  0.51100000000E-03 0.  1.
         11   -1    0    0    0    0 -0.00000000000E+00 -0.00000000000E+00 -0.45593999997E+02  0.45594000000E+02  0.51100000000E-03 0. -1.
    9900012    2    1    2    0    0 -0.75056037469E+00  0.81857107059E+00  0.39948034237E+00  0.90007752561E+02  0.90000014095E+02 0.  0.
        -12    1    1    2    0    0  0.75056037469E+00 -0.81857107059E+00 -0.39948034237E+00  0.11802474391E+01  0.00000000000E+00 0.  1.
         11    1    3    3    0    0 -0.27004818784E+02  0.26346425000E+02 -0.18669305767E+02  0.42094385919E+02  0.51100000000E-03 0. -1.
        -11    1    3    3    0    0 -0.11312734761E+01 -0.85251322839E+01 -0.27035948696E+01  0.90148258783E+01  0.51100000000E-03 0.  1.
        -12    1    3    3    0    0  0.27385531886E+02 -0.17002721645E+02  0.21772380979E+02  0.38898540763E+02  0.00000000000E+00 0.  1.
</event>
<event>
 7    1  0.1716782E-015  0.9000774E+02  0.7816164E-02  0.1186339E+00
        -11   -1    0    0    0    0  0.00000000000E+00  0.00000000000E+00  0.45593999997E+02  0.45594000000E+02  0.51100000000E-03 0. -1.
         11   -1    0    0    0    0 -0.00000000000E+00 -0.00000000000E+00 -0.45593999997E+02  0.45594000000E+02  0.51100000000E-03 0.  1.
    9900012    2    1    2    0    0 -0.32978313606E+00  0.23056256821E+00  0.11095521630E+01  0.90007736463E+02  0.89999997784E+02 0.  0.
        -12    1    1    2    0    0  0.32978313606E+00 -0.23056256821E+00 -0.11095521630E+01  0.11802635371E+01  0.00000000000E+00 0.  1.
         11    1    3    3    0    0  0.58000835881E+01  0.59935774671E+01  0.29193850105E+01  0.88366707296E+01  0.51100000000E-03 0. -1.
        -11    1    3    3    0    0  0.56547351312E+01 -0.17569345985E+02 -0.37488307382E+02  0.41785537430E+02  0.51100000000E-03 0.  1.
         12    1    3    3    0    0 -0.11784601855E+02  0.11806331086E+02  0.35678474534E+02  0.39385528303E+02  0.00000000000E+00 0. -1.
</event>
<event>
 7    1  0.1716782E-015  0.9000769E+02  0.7816164E-02  0.1186339E+00
        -11   -1    0    0    0    0  0.00000000000E+00  0.00000000000E+00  0.45593999997E+02  0.45594000000E+02  0.51100000000E-03 0.  1.
         11   -1    0    0    0    0 -0.00000000000E+00 -0.00000000000E+00 -0.45593999997E+02  0.45594000000E+02  0.51100000000E-03 0. -1.
    9900012    2    1    2    0    0 -0.10707573138E+01 -0.49640224354E+00  0.14368112854E-01  0.90007685273E+02  0.89999945918E+02 0.  0.
        -12    1    1    2    0    0  0.10707573138E+01  0.49640224354E+00 -0.14368112854E-01  0.11803147271E+01  0.00000000000E+00 0.  1.
         11    1    3    3    0    0  0.58484672078E+01  0.30790306814E+02  0.24061383184E+02  0.39511994677E+02  0.51100000000E-03 0. -1.
        -11    1    3    3    0    0 -0.59620908669E+01 -0.57327192369E+01  0.65997417787E+01  0.10581454964E+02  0.51100000000E-03 0.  1.
        -12    1    3    3    0    0 -0.95713365467E+00 -0.25553989821E+02 -0.30646756850E+02  0.39914235631E+02  0.00000000000E+00 0.  1.
</event>
<event>
 7    1  0.1716782E-015  0.9000773E+02  0.7816164E-02  0.1186339E+00
        -11   -1    0    0    0    0  0.00000000000E+00  0.00000000000E+00  0.45593999997E+02  0.45594000000E+02  0.51100000000E-03 0. -1.
         11   -1    0    0    0    0 -0.00000000000E+00 -0.00000000000E+00 -0.45593999997E+02  0.45594000000E+02  0.51100000000E-03 0.  1.
    9900012    2    1    2    0    0  0.10404116784E+00  0.41730420174E+00  0.10991193547E+01  0.90007732777E+02  0.89999994050E+02 0.  0.
        -12    1    1    2    0    0 -0.10404116784E+00 -0.41730420174E+00 -0.10991193547E+01  0.11802672229E+01  0.00000000000E+00 0.  1.
         11    1    3    3    0    0  0.36370268993E+01  0.34730294369E+01 -0.97680934700E+01  0.10986607686E+02  0.51100000000E-03 0. -1.
        -11    1    3    3    0    0 -0.30808886473E+02 -0.24143959482E+02 -0.76544174886E+01  0.39883685543E+02  0.51100000000E-03 0.  1.
         12    1    3    3    0    0  0.27275900742E+02  0.21088234246E+02  0.18521630313E+02  0.39137439548E+02  0.00000000000E+00 0. -1.
</event>
<event>
 7    1  0.1716782E-015  0.9000775E+02  0.7816164E-02  0.1186339E+00
        -11   -1    0    0    0    0  0.00000000000E+00  0.00000000000E+00  0.45593999997E+02  0.45594000000E+02  0.51100000000E-03 0.  1.
         11   -1    0    0    0    0 -0.00000000000E+00 -0.00000000000E+00 -0.45593999997E+02  0.45594000000E+02  0.51100000000E-03 0. -1.
    9900012    2    1    2    0    0  0.20434475618E+00  0.81064378792E+00 -0.83312596191E+00  0.90007746214E+02  0.90000007664E+02 0.  0.
        -12    1    1    2    0    0 -0.20434475618E+00 -0.81064378792E+00  0.83312596191E+00  0.11802537857E+01  0.00000000000E+00 0.  1.
         11    1    3    3    0    0  0.21237700383E+02 -0.27292174646E+02 -0.22054629159E+01  0.34652081920E+02  0.51100000000E-03 0. -1.
        -11    1    3    3    0    0  0.85566637982E+01  0.10848406634E+02  0.13208963494E+02  0.19114945428E+02  0.51100000000E-03 0.  1.
         12    1    3    3    0    0 -0.29590019425E+02  0.17254411799E+02 -0.11836626540E+02  0.36240718867E+02  0.00000000000E+00 0. -1.
</event>
<event>
 7    1  0.1716782E-015  0.9000770E+02  0.7816164E-02  0.1186339E+00
        -11   -1    0    0    0    0  0.00000000000E+00  0.00000000000E+00  0.45593999997E+02  0.45594000000E+02  0.51100000000E-03 0. -1.
         11   -1    0    0    0    0 -0.00000000000E+00 -0.00000000000E+00 -0.45593999997E+02  0.45594000000E+02  0.51100000000E-03 0.  1.
    9900012    2    1    2    0    0 -0.38373112959E+00 -0.10125035170E+01 -0.46977320486E+00  0.90007703505E+02  0.89999964391E+02 0.  0.
        -12    1    1    2    0    0  0.38373112959E+00  0.10125035170E+01  0.46977320486E+00  0.11802964949E+01  0.00000000000E+00 0.  1.
         11    1    3    3    0    0 -0.47640266145E+01  0.76404022819E+01  0.56066061158E+01  0.10606871783E+02  0.51100000000E-03 0. -1.
        -11    1    3    3    0    0 -0.85726224367E+01  0.32864494689E+02 -0.10834157880E+02  0.35650299351E+02  0.51100000000E-03 0.  1.
         12    1    3    3    0    0  0.12952917922E+02 -0.41517400488E+02  0.47577785592E+01  0.43750532371E+02  0.00000000000E+00 0. -1.
</event>
<event>
 7    1  0.1716782E-015  0.9000764E+02  0.7816164E-02  0.1186339E+00
        -11   -1    0    0    0    0  0.00000000000E+00  0.00000000000E+00  0.45593999997E+02  0.45594000000E+02  0.51100000000E-03 0. -1.
         11   -1    0    0    0    0 -0.00000000000E+00 -0.00000000000E+00 -0.45593999997E+02  0.45594000000E+02  0.51100000000E-03 0.  1.
    9900012    2    1    2    0    0 -0.40464594713E+00  0.11062163724E+01 -0.76082022343E-01  0.90007643495E+02  0.89999903589E+02 0.  0.
        -12    1    1    2    0    0  0.40464594713E+00 -0.11062163724E+01  0.76082022343E-01  0.11803565051E+01  0.00000000000E+00 0.  1.
         11    1    3    3    0    0 -0.11373862243E+02  0.13155815664E+02  0.31409047714E+02  0.35902207546E+02  0.51100000000E-03 0. -1.
        -11    1    3    3    0    0  0.13786115858E+01  0.10920201892E+02  0.31544109180E+01  0.11449964531E+02  0.51100000000E-03 0.  1.
        -12    1    3    3    0    0  0.95906047104E+01 -0.22969801183E+02 -0.34639540655E+02  0.42655471418E+02  0.00000000000E+00 0.  1.
</event>
<event>
 7    1  0.1716782E-015  0.9000777E+02  0.7816164E-02  0.1186339E+00
        -11   -1    0    0    0    0  0.00000000000E+00  0.00000000000E+00  0.45593999997E+02  0.45594000000E+02  0.51100000000E-03 0. -1.
         11   -1    0    0    0    0 -0.00000000000E+00 -0.00000000000E+00 -0.45593999997E+02  0.45594000000E+02  0.51100000000E-03 0.  1.
    9900012    2    1    2    0    0  0.45936944578E+00 -0.10705855532E+01  0.18913316872E+00  0.90007769061E+02  0.90000030812E+02 0.  0.
        -12    1    1    2    0    0 -0.45936944578E+00  0.10705855532E+01 -0.18913316872E+00  0.11802309392E+01  0.00000000000E+00 0.  1.
         11    1    3    3    0    0  0.13130529464E+02  0.32775006985E+02 -0.12057926878E+02  0.37309589756E+02  0.51100000000E-03 0. -1.
        -11    1    3    3    0    0  0.42643464308E+01  0.46924953909E+01 -0.40885679587E+01  0.75445710077E+01  0.51100000000E-03 0.  1.
        -12    1    3    3    0    0 -0.16935506449E+02 -0.38538087929E+02  0.16335628005E+02  0.45153608297E+02  0.00000000000E+00 0.  1.
</event>
<event>
 7    1  0.1716782E-015  0.9000776E+02  0.7816164E-02  0.1186339E+00
        -11   -1    0    0    0    0  0.00000000000E+00  0.00000000000E+00  0.45593999997E+02  0.45594000000E+02  0.51100000000E-03 0.  1.
         11   -1    0    0    0    0 -0.00000000000E+00 -0.00000000000E+00 -0.45593999997E+02  0.45594000000E+02  0.51100000000E-03 0. -1.
    9900012    2    1    2    0    0 -0.86889936824E-01 -0.11644643708E+01 -0.17160503956E+00  0.90007756202E+02  0.90000017784E+02 0.  0.
        -12    1    1    2    0    0  0.86889936824E-01  0.11644643708E+01  0.17160503956E+00  0.11802437975E+01  0.00000000000E+00 0.  1.
         11    1    3    3    0    0 -0.43489716996E+01 -0.81100747268E+01  0.11116961236E+01  0.92694517341E+01  0.51100000000E-03 0. -1.
        -11    1    3    3    0    0  0.50040165354E+01  0.32978359710E+02  0.26541453849E+02  0.42627000402E+02  0.51100000000E-03 0.  1.
         12    1    3    3    0    0 -0.74193477256E+00 -0.26032749354E+02 -0.27824755012E+02  0.38111304066E+02  0.00000000000E+00 0. -1.
</event>
<event>
 7    1  0.1716782E-015  0.9000770E+02  0.7816164E-02  0.1186339E+00
        -11   -1    0    0    0    0  0.00000000000E+00  0.00000000000E+00  0.45593999997E+02  0.45594000000E+02  0.51100000000E-03 0. -1.
         11   -1    0    0    0    0 -0.00000000000E+00 -0.00000000000E+00 -0.45593999997E+02  0.45594000000E+02  0.51100000000E-03 0.  1.
    9900012    2    1    2    0    0  0.10542044641E+01 -0.42311123148E-01  0.52912471173E+00  0.90007699088E+02  0.89999959916E+02 0.  0.
        -12    1    1    2    0    0 -0.10542044641E+01  0.42311123148E-01 -0.52912471173E+00  0.11803009124E+01  0.00000000000E+00 0.  1.
         11    1    3    3    0    0  0.46933311670E+00  0.72635249482E+01 -0.70695250348E+01  0.10146785339E+02  0.51100000000E-03 0. -1.
        -11    1    3    3    0    0 -0.49918692871E+01 -0.11670908083E+02 -0.34712796534E+02  0.36960886054E+02  0.51100000000E-03 0.  1.
         12    1    3    3    0    0  0.55767406345E+01  0.43650720120E+01  0.42311446280E+02  0.42900027694E+02  0.00000000000E+00 0. -1.
</event>
<event>
 7    1  0.1716782E-015  0.9000774E+02  0.7816164E-02  0.1186339E+00
        -11   -1    0    0    0    0  0.00000000000E+00  0.00000000000E+00  0.45593999997E+02  0.45594000000E+02  0.51100000000E-03 0.  1.
         11   -1    0    0    0    0 -0.00000000000E+00 -0.00000000000E+00 -0.45593999997E+02  0.45594000000E+02  0.51100000000E-03 0. -1.
    9900012    2    1    2    0    0 -0.10654874334E+01 -0.33674588945E+00 -0.37992988056E+00  0.90007742410E+02  0.90000003810E+02 0.  0.
        -12    1    1    2    0    0  0.10654874334E+01  0.33674588945E+00  0.37992988056E+00  0.11802575901E+01  0.00000000000E+00 0.  1.
         11    1    3    3    0    0  0.25729565405E+01  0.77361725422E+00 -0.10646903350E+02  0.10980671210E+02  0.51100000000E-03 0. -1.
        -11    1    3    3    0    0  0.23431136223E+02 -0.21404714339E+02 -0.16608474450E+02  0.35819287604E+02  0.51100000000E-03 0.  1.
         12    1    3    3    0    0 -0.27069580197E+02  0.20294351195E+02  0.26875447919E+02  0.43207783596E+02  0.00000000000E+00 0. -1.
</event>
<event>
 7    1  0.1716782E-015  0.9000773E+02  0.7816164E-02  0.1186339E+00
        -11   -1    0    0    0    0  0.00000000000E+00  0.00000000000E+00  0.45593999997E+02  0.45594000000E+02  0.51100000000E-03 0. -1.
         11   -1    0    0    0    0 -0.00000000000E+00 -0.00000000000E+00 -0.45593999997E+02  0.45594000000E+02  0.51100000000E-03 0.  1.
    9900012    2    1    2    0    0 -0.10266462388E+01 -0.20313635013E+00  0.54569109922E+00  0.90007726450E+02  0.89999987639E+02 0.  0.
        -12    1    1    2    0    0  0.10266462388E+01  0.20313635013E+00 -0.54569109922E+00  0.11802735497E+01  0.00000000000E+00 0.  1.
         11    1    3    3    0    0 -0.14683017173E+01  0.29572438334E+01  0.66600934037E+01  0.74335755482E+01  0.51100000000E-03 0. -1.
        -11    1    3    3    0    0  0.39534657046E+02 -0.38722059277E+01 -0.15028110628E+02  0.42471486857E+02  0.51100000000E-03 0.  1.
         12    1    3    3    0    0 -0.39093001568E+02  0.71182574410E+00  0.89137083234E+01  0.40102664045E+02  0.00000000000E+00 0. -1.
</event>
<event>
 7    1  0.1716782E-015  0.9000780E+02  0.7816164E-02  0.1186339E+00
        -11   -1    0    0    0    0  0.00000000000E+00  0.00000000000E+00  0.45593999997E+02  0.45594000000E+02  0.51100000000E-03 0.  1.
         11   -1    0    0    0    0 -0.00000000000E+00 -0.00000000000E+00 -0.45593999997E+02  0.45594000000E+02  0.51100000000E-03 0. -1.
    9900012    2    1    2    0    0  0.89943016650E+00  0.54079856037E+00  0.53984818499E+00  0.90007799267E+02  0.90000061417E+02 0.  0.
        -12    1    1    2    0    0 -0.89943016650E+00 -0.54079856037E+00 -0.53984818499E+00  0.11802007330E+01  0.00000000000E+00 0.  1.
         11    1    3    3    0    0 -0.26392813122E+01  0.77857512985E+01 -0.13636996778E+01  0.83332710384E+01  0.51100000000E-03 0. -1.
        -11    1    3    3    0    0 -0.27492778843E+02 -0.25029038392E+02 -0.17379931444E+02  0.41041048581E+02  0.51100000000E-03 0.  1.
         12    1    3    3    0    0  0.31031490322E+02  0.17784085654E+02  0.19283479306E+02  0.40633479648E+02  0.00000000000E+00 0. -1.
</event>
<event>
 7    1  0.1716782E-015  0.9000774E+02  0.7816164E-02  0.1186339E+00
        -11   -1    0    0    0    0  0.00000000000E+00  0.00000000000E+00  0.45593999997E+02  0.45594000000E+02  0.51100000000E-03 0.  1.
         11   -1    0    0    0    0 -0.00000000000E+00 -0.00000000000E+00 -0.45593999997E+02  0.45594000000E+02  0.51100000000E-03 0. -1.
    9900012    2    1    2    0    0  0.78608548886E-01  0.11768720871E+01 -0.42521310518E-01  0.90007739319E+02  0.90000000678E+02 0.  0.
        -12    1    1    2    0    0 -0.78608548886E-01 -0.11768720871E+01  0.42521310518E-01  0.11802606810E+01  0.00000000000E+00 0.  1.
         11    1    3    3    0    0 -0.15176272267E+02  0.70300642687E+01 -0.28250362710E+02  0.32830230537E+02  0.51100000000E-03 0. -1.
        -11    1    3    3    0    0 -0.74033953484E+01  0.21905184921E+01 -0.96323834128E+01  0.12344692966E+02  0.51100000000E-03 0.  1.
        -12    1    3    3    0    0  0.22658276165E+02 -0.80437106737E+01  0.37840224813E+02  0.44832815816E+02  0.00000000000E+00 0.  1.
</event>
<event>
 7    1  0.1716782E-015  0.9000773E+02  0.7816164E-02  0.1186339E+00
        -11   -1    0    0    0    0  0.00000000000E+00  0.00000000000E+00  0.45593999997E+02  0.45594000000E+02  0.51100000000E-03 0.  1.
         11   -1    0    0    0    0 -0.00000000000E+00 -0.00000000000E+00 -0.45593999997E+02  0.45594000000E+02  0.51100000000E-03 0. -1.
    9900012    2    1    2    0    0  0.63383269764E+00  0.58227450733E+00  0.80761696531E+00  0.90007731957E+02  0.89999993219E+02 0.  0.
        -12    1    1    2    0    0 -0.63383269764E+00 -0.58227450733E+00 -0.80761696531E+00  0.11802680429E+01  0.00000000000E+00 0.  1.
         11    1    3    3    0    0 -0.10266717780E+02 -0.15288296754E+01 -0.26783480956E+01  0.10719904987E+02  0.51100000000E-03 0. -1.
        -11    1    3    3    0    0 -0.30717857690E+02 -0.13175621755E+02 -0.59708806689E+01  0.33953427013E+02  0.51100000000E-03 0.  1.
         12    1    3    3    0    0  0.41618408168E+02  0.15286725938E+02  0.94568457298E+01  0.45334399957E+02  0.00000000000E+00 0. -1.
</event>
<event>
 7    1  0.1716782E-015  0.9000770E+02  0.7816164E-02  0.1186339E+00
        -11   -1    0    0    0    0  0.00000000000E+00  0.00000000000E+00  0.45593999997E+02  0.45594000000E+02  0.51100000000E-03 0. -1.
         11   -1    0    0    0    0 -0.00000000000E+00 -0.00000000000E+00 -0.45593999997E+02  0.45594000000E+02  0.51100000000E-03 0.  1.
    9900012    2    1    2    0    0  0.59505916651E+00  0.79837570356E+00  0.63373448547E+00  0.90007695559E+02  0.89999956340E+02 0.  0.
        -12    1    1    2    0    0 -0.59505916651E+00 -0.79837570356E+00 -0.63373448547E+00  0.11803044411E+01  0.00000000000E+00 0.  1.
         11    1    3    3    0    0  0.19964048381E+02 -0.80174511243E+01  0.36119233487E+02  0.42040953583E+02  0.51100000000E-03 0. -1.
        -11    1    3    3    0    0 -0.52616272442E+01  0.92306506181E+01 -0.96033975795E+00  0.10668265314E+02  0.51100000000E-03 0.  1.
        -12    1    3    3    0    0 -0.14107361970E+02 -0.41482379017E+00 -0.34525159243E+02  0.37298476662E+02  0.00000000000E+00 0.  1.
</event>
<event>
 7    1  0.1716782E-015  0.9000788E+02  0.7816164E-02  0.1186339E+00
        -11   -1    0    0    0    0  0.00000000000E+00  0.00000000000E+00  0.45593999997E+02  0.45594000000E+02  0.51100000000E-03 0.  1.
         11   -1    0    0    0    0 -0.00000000000E+00 -0.00000000000E+00 -0.45593999997E+02  0.45594000000E+02  0.51100000000E-03 0. -1.
    9900012    2    1    2    0    0  0.50741349446E+00  0.87920367159E+00 -0.60184989703E+00  0.90007876765E+02  0.90000139939E+02 0.  0.
        -12    1    1    2    0    0 -0.50741349446E+00 -0.87920367159E+00  0.60184989703E+00  0.11801232347E+01  0.00000000000E+00 0.  1.
         11    1    3    3    0    0  0.31373504215E+02  0.15416444392E+02 -0.11621855693E+02  0.36837902416E+02  0.51100000000E-03 0. -1.
        -11    1    3    3    0    0  0.72596808333E+01  0.47551290318E+01 -0.11186907628E+01  0.87501821235E+01  0.51100000000E-03 0.  1.
        -12    1    3    3    0    0 -0.38125771554E+02 -0.19292369753E+02  0.12138696558E+02  0.44419792226E+02  0.00000000000E+00 0.  1.
</event>
<event>
 7    1  0.1716782E-015  0.9000772E+02  0.7816164E-02  0.1186339E+00
        -11   -1    0    0    0    0  0.00000000000E+00  0.00000000000E+00  0.45593999997E+02  0.45594000000E+02  0.51100000000E-03 0.  1.
         11   -1    0    0    0    0 -0.00000000000E+00 -0.00000000000E+00 -0.45593999997E+02  0.45594000000E+02  0.51100000000E-03 0. -1.
    9900012    2    1    2    0    0  0.10883458233E+01 -0.39273463228E+00 -0.23305673722E+00  0.90007723522E+02  0.89999984672E+02 0.  0.
        -12    1    1    2    0    0 -0.10883458233E+01  0.39273463228E+00  0.23305673722E+00  0.11802764783E+01  0.00000000000E+00 0.  1.
         11    1    3    3    0    0 -0.67709660039E+00  0.99121996422E+00  0.11581576057E+02  0.11643619757E+02  0.51100000000E-03 0. -1.
        -11    1    3    3    0    0  0.79815049004E+01  0.29343822294E+02  0.17801323969E+02  0.35237075114E+02  0.51100000000E-03 0.  1.
         12    1    3    3    0    0 -0.62160624767E+01 -0.30727776890E+02 -0.29615956763E+02  0.43127028651E+02  0.00000000000E+00 0. -1.
</event>
<event>
 7    1  0.1716782E-015  0.9000776E+02  0.7816164E-02  0.1186339E+00
        -11   -1    0    0    0    0  0.00000000000E+00  0.00000000000E+00  0.45593999997E+02  0.45594000000E+02  0.51100000000E-03 0. -1.
         11   -1    0    0    0    0 -0.00000000000E+00 -0.00000000000E+00 -0.45593999997E+02  0.45594000000E+02  0.51100000000E-03 0.  1.
    9900012    2    1    2    0    0 -0.77706452069E+00  0.32084126087E+00  0.82837054848E+00  0.90007760130E+02  0.90000021764E+02 0.  0.
        -12    1    1    2    0    0  0.77706452069E+00 -0.32084126087E+00 -0.82837054848E+00  0.11802398695E+01  0.00000000000E+00 0.  1.
         11    1    3    3    0    0  0.64704409448E+01  0.52483481319E+01 -0.55502503991E+01  0.10010846312E+02  0.51100000000E-03 0. -1.
        -11    1    3    3    0    0  0.33915492995E+02 -0.87221956890E+01  0.14442172320E+02  0.37880254808E+02  0.51100000000E-03 0.  1.
         12    1    3    3    0    0 -0.41162998460E+02  0.37946888179E+01 -0.80635513720E+01  0.42116659011E+02  0.00000000000E+00 0. -1.
</event>
<event>
 7    1  0.1716782E-015  0.9000801E+02  0.7816164E-02  0.1186339E+00
        -11   -1    0    0    0    0  0.00000000000E+00  0.00000000000E+00  0.45593999997E+02  0.45594000000E+02  0.51100000000E-03 0.  1.
         11   -1    0    0    0    0 -0.00000000000E+00 -0.00000000000E+00 -0.45593999997E+02  0.45594000000E+02  0.51100000000E-03 0. -1.
    9900012    2    1    2    0    0  0.73060383860E+00 -0.91945715596E+00  0.11488550456E+00  0.90008007581E+02  0.90000272480E+02 0.  0.
        -12    1    1    2    0    0 -0.73060383860E+00  0.91945715596E+00 -0.11488550456E+00  0.11799924194E+01  0.00000000000E+00 0.  1.
         11    1    3    3    0    0  0.37249309949E+01  0.14083813591E+02 -0.30963540256E+02  0.34219435145E+02  0.51100000000E-03 0. -1.
        -11    1    3    3    0    0  0.32772570300E+01  0.36351446815E+01 -0.95052718743E+01  0.10691346228E+02  0.51100000000E-03 0.  1.
        -12    1    3    3    0    0 -0.62715841863E+01 -0.18638415428E+02  0.40583697635E+02  0.45097226208E+02  0.00000000000E+00 0.  1.
</event>
<event>
 7    1  0.1716782E-015  0.9000773E+02  0.7816164E-02  0.1186339E+00
        -11   -1    0    0    0    0  0.00000000000E+00  0.00000000000E+00  0.45593999997E+02  0.45594000000E+02  0.51100000000E-03 0.  1.
         11   -1    0    0    0    0 -0.00000000000E+00 -0.00000000000E+00 -0.45593999997E+02  0.45594000000E+02  0.51100000000E-03 0. -1.
    9900012    2    1    2    0    0 -0.42867724926E+00  0.58896536729E+00  0.92865551648E+00  0.90007726533E+02  0.89999987724E+02 0.  0.
        -12    1    1    2    0    0  0.42867724926E+00 -0.58896536729E+00 -0.92865551648E+00  0.11802734667E+01  0.00000000000E+00 0.  1.
         11    1    3    3    0    0  0.11703587288E+01 -0.15750946514E+02  0.19729183980E+02  0.25272569248E+02  0.51100000000E-03 0. -1.
        -11    1    3    3    0    0 -0.15633578489E+02  0.17109586630E+02  0.15354404178E+02  0.27801159310E+02  0.51100000000E-03 0.  1.
         12    1    3    3    0    0  0.14034542511E+02 -0.76967474896E+00 -0.34154932641E+02  0.36933997975E+02  0.00000000000E+00 0. -1.
</event>
<event>
 7    1  0.1716782E-015  0.9000783E+02  0.7816164E-02  0.1186339E+00
        -11   -1    0    0    0    0  0.00000000000E+00  0.00000000000E+00  0.45593999997E+02  0.45594000000E+02  0.51100000000E-03 0.  1.
         11   -1    0    0    0    0 -0.00000000000E+00 -0.00000000000E+00 -0.45593999997E+02  0.45594000000E+02  0.51100000000E-03 0. -1.
    9900012    2    1    2    0    0 -0.76593096997E+00  0.11032594738E+00  0.89105700702E+00  0.90007828548E+02  0.90000091085E+02 0.  0.
        -12    1    1    2    0    0  0.76593096997E+00 -0.11032594738E+00 -0.89105700702E+00  0.11801714516E+01  0.00000000000E+00 0.  1.
         11    1    3    3    0    0 -0.33862362607E+01  0.17279762350E+01 -0.77754181385E+01  0.86550346834E+01  0.51100000000E-03 0. -1.
        -11    1    3    3    0    0 -0.31357114529E+02  0.10204586881E+02  0.25450371242E+02  0.41654815107E+02  0.51100000000E-03 0.  1.
         12    1    3    3    0    0  0.33977419820E+02 -0.11822237169E+02 -0.16783896097E+02  0.39697978758E+02  0.00000000000E+00 0. -1.
</event>
<event>
 7    1  0.1716782E-015  0.9000772E+02  0.7816164E-02  0.1186339E+00
        -11   -1    0    0    0    0  0.00000000000E+00  0.00000000000E+00  0.45593999997E+02  0.45594000000E+02  0.51100000000E-03 0. -1.
         11   -1    0    0    0    0 -0.00000000000E+00 -0.00000000000E+00 -0.45593999997E+02  0.45594000000E+02  0.51100000000E-03 0.  1.
    9900012    2    1    2    0    0  0.10373296072E+01 -0.14158100027E+00 -0.54495272195E+00  0.90007715559E+02  0.89999976604E+02 0.  0.
        -12    1    1    2    0    0 -0.10373296072E+01  0.14158100027E+00  0.54495272195E+00  0.11802844415E+01  0.00000000000E+00 0.  1.
         11    1    3    3    0    0  0.77778438569E+01  0.41177253353E+01 -0.20803283320E+01  0.90431345909E+01  0.51100000000E-03 0. -1.
        -11    1    3    3    0    0 -0.54256127582E+01  0.68469873154E+01 -0.38457557184E+02  0.39437320065E+02  0.51100000000E-03 0.  1.
         12    1    3    3    0    0 -0.13149014914E+01 -0.11106293651E+02  0.39992932794E+02  0.41527260902E+02  0.00000000000E+00 0. -1.
</event>
<event>
 7    1  0.1716782E-015  0.9000774E+02  0.7816164E-02  0.1186339E+00
        -11   -1    0    0    0    0  0.00000000000E+00  0.00000000000E+00  0.45593999997E+02  0.45594000000E+02  0.51100000000E-03 0. -1.
         11   -1    0    0    0    0 -0.00000000000E+00 -0.00000000000E+00 -0.45593999997E+02  0.45594000000E+02  0.51100000000E-03 0.  1.
    9900012    2    1    2    0    0 -0.97923647562E+00  0.65065963365E+00  0.10363793165E+00  0.90007744581E+02  0.90000006009E+02 0.  0.
        -12    1    1    2    0    0  0.97923647562E+00 -0.65065963365E+00 -0.10363793165E+00  0.11802554194E+01  0.00000000000E+00 0.  1.
         11    1    3    3    0    0 -0.16031407736E+02 -0.23602556696E+02  0.29201635346E+02  0.40826734179E+02  0.51100000000E-03 0. -1.
        -11    1    3    3    0    0 -0.32882927466E+01  0.10489386226E+02  0.13378496915E+01  0.11073840103E+02  0.51100000000E-03 0.  1.
        -12    1    3    3    0    0  0.18340464006E+02  0.13763830104E+02 -0.30435847106E+02  0.38107170298E+02  0.00000000000E+00 0.  1.
</event>
<event>
 7    1  0.1716782E-015  0.9000781E+02  0.7816164E-02  0.1186339E+00
        -11   -1    0    0    0    0  0.00000000000E+00  0.00000000000E+00  0.45593999997E+02  0.45594000000E+02  0.51100000000E-03 0.  1.
         11   -1    0    0    0    0 -0.00000000000E+00 -0.00000000000E+00 -0.45593999997E+02  0.45594000000E+02  0.51100000000E-03 0. -1.
    9900012    2    1    2    0    0 -0.46197645624E+00 -0.97082429342E+00 -0.48675564345E+00  0.90007808019E+02  0.90000070285E+02 0.  0.
        -12    1    1    2    0    0  0.46197645624E+00  0.97082429342E+00  0.48675564345E+00  0.11801919807E+01  0.00000000000E+00 0.  1.
         11    1    3    3    0    0 -0.65836152026E+01 -0.38471975186E+01 -0.79676151939E+01  0.11028499899E+02  0.51100000000E-03 0. -1.
        -11    1    3    3    0    0 -0.25002524711E+02  0.26481170890E+02 -0.74259809431E+01  0.37168855872E+02  0.51100000000E-03 0.  1.
         12    1    3    3    0    0  0.31124163457E+02 -0.23604797665E+02  0.14906840494E+02  0.41810452248E+02  0.00000000000E+00 0. -1.
</event>
<event>
 7    1  0.1716782E-015  0.9000778E+02  0.7816164E-02  0.1186339E+00
        -11   -1    0    0    0    0  0.00000000000E+00  0.00000000000E+00  0.45593999997E+02  0.45594000000E+02  0.51100000000E-03 0. -1.
         11   -1    0    0    0    0 -0.00000000000E+00 -0.00000000000E+00 -0.45593999997E+02  0.45594000000E+02  0.51100000000E-03 0.  1.
    9900012    2    1    2    0    0  0.69829382426E+00 -0.70833702796E+00  0.63527011555E+00  0.90007778101E+02  0.90000039972E+02 0.  0.
        -12    1    1    2    0    0 -0.69829382426E+00  0.70833702796E+00 -0.63527011555E+00  0.11802218986E+01  0.00000000000E+00 0.  1.
         11    1    3    3    0    0 -0.74389917773E+01 -0.62578704039E+01  0.12389466296E+01  0.97997208974E+01  0.51100000000E-03 0. -1.
        -11    1    3    3    0    0 -0.18456058447E+02 -0.10322071204E+02 -0.30532347476E+02  0.37140213920E+02  0.51100000000E-03 0.  1.
         12    1    3    3    0    0  0.26593344049E+02  0.15871604580E+02  0.29928670962E+02  0.43067843284E+02  0.00000000000E+00 0. -1.
</event>
<event>
 7    1  0.1716782E-015  0.9000774E+02  0.7816164E-02  0.1186339E+00
        -11   -1    0    0    0    0  0.00000000000E+00  0.00000000000E+00  0.45593999997E+02  0.45594000000E+02  0.51100000000E-03 0.  1.
         11   -1    0    0    0    0 -0.00000000000E+00 -0.00000000000E+00 -0.45593999997E+02  0.45594000000E+02  0.51100000000E-03 0. -1.
    9900012    2    1    2    0    0  0.67909345729E+00 -0.39569982641E+00 -0.88049355080E+00  0.90007739364E+02  0.90000000723E+02 0.  0.
        -12    1    1    2    0    0 -0.67909345729E+00  0.39569982641E+00  0.88049355080E+00  0.11802606362E+01  0.00000000000E+00 0.  1.
         11    1    3    3    0    0 -0.34097499194E+01 -0.85687687678E+01 -0.16290880369E+01  0.93650478270E+01  0.51100000000E-03 0. -1.
        -11    1    3    3    0    0  0.22424172175E+01  0.19579917335E+02  0.37366293675E+02  0.42245017470E+02  0.51100000000E-03 0.  1.
         12    1    3    3    0    0  0.18464261593E+01 -0.11406848393E+02 -0.36617699189E+02  0.38397674066E+02  0.00000000000E+00 0. -1.
</event>
<event>
 7    1  0.1716782E-015  0.9000776E+02  0.7816164E-02  0.1186339E+00
        -11   -1    0    0    0    0  0.00000000000E+00  0.00000000000E+00  0.45593999997E+02  0.45594000000E+02  0.51100000000E-03 0.  1.
         11   -1    0    0    0    0 -0.00000000000E+00 -0.00000000000E+00 -0.45593999997E+02  0.45594000000E+02  0.51100000000E-03 0. -1.
    9900012    2    1    2    0    0 -0.11596875758E+00  0.10388725219E+01 -0.54795781994E+00  0.90007761616E+02  0.90000023270E+02 0.  0.
        -12    1    1    2    0    0  0.11596875758E+00 -0.10388725219E+01  0.54795781994E+00  0.11802383835E+01  0.00000000000E+00 0.  1.
         11    1    3    3    0    0  0.24450813826E+02 -0.21556084789E+02 -0.29664532121E+01  0.32730825426E+02  0.51100000000E-03 0. -1.
        -11    1    3    3    0    0  0.10547398049E+02 -0.56892607842E+01  0.22189761854E+01  0.12187663823E+02  0.51100000000E-03 0.  1.
        -12    1    3    3    0    0 -0.35114180633E+02  0.28284218095E+02  0.19951920677E+00  0.45089272368E+02  0.00000000000E+00 0.  1.
</event>
<event>
 7    1  0.1716782E-015  0.9000783E+02  0.7816164E-02  0.1186339E+00
        -11   -1    0    0    0    0  0.00000000000E+00  0.00000000000E+00  0.45593999997E+02  0.45594000000E+02  0.51100000000E-03 0.  1.
         11   -1    0    0    0    0 -0.00000000000E+00 -0.00000000000E+00 -0.45593999997E+02  0.45594000000E+02  0.51100000000E-03 0. -1.
    9900012    2    1    2    0    0  0.10048194648E+01  0.94200144373E-01 -0.61177493540E+00  0.90007828658E+02  0.90000091197E+02 0.  0.
        -12    1    1    2    0    0 -0.10048194648E+01 -0.94200144373E-01  0.61177493540E+00  0.11801713416E+01  0.00000000000E+00 0.  1.
         11    1    3    3    0    0 -0.74986462764E+01  0.36964849917E+01 -0.27354854554E+01  0.87963957512E+01  0.51100000000E-03 0. -1.
        -11    1    3    3    0    0 -0.24474529751E+02 -0.90861474249E+01  0.28484061496E+02  0.38638095723E+02  0.51100000000E-03 0.  1.
         12    1    3    3    0    0  0.32977995492E+02  0.54838625776E+01 -0.26360350975E+02  0.42573337184E+02  0.00000000000E+00 0. -1.
</event>
<event>
 7    1  0.1716782E-015  0.9000780E+02  0.7816164E-02  0.1186339E+00
        -11   -1    0    0    0    0  0.00000000000E+00  0.00000000000E+00  0.45593999997E+02  0.45594000000E+02  0.51100000000E-03 0.  1.
         11   -1    0    0    0    0 -0.00000000000E+00 -0.00000000000E+00 -0.45593999997E+02  0.45594000000E+02  0.51100000000E-03 0. -1.
    9900012    2    1    2    0    0  0.56248578775E+00  0.10370575746E+01  0.31534264027E-01  0.90007799558E+02  0.90000061712E+02 0.  0.
        -12    1    1    2    0    0 -0.56248578775E+00 -0.10370575746E+01 -0.31534264027E-01  0.11802004424E+01  0.00000000000E+00 0.  1.
         11    1    3    3    0    0 -0.58548183212E+01  0.34393650364E+02  0.99750456416E+01  0.36286410938E+02  0.51100000000E-03 0. -1.
        -11    1    3    3    0    0 -0.23634276352E+01  0.91185386061E+01 -0.17986315062E+01  0.95900266972E+01  0.51100000000E-03 0.  1.
        -12    1    3    3    0    0  0.87807317441E+01 -0.42475131395E+02 -0.81448798714E+01  0.44131361923E+02  0.00000000000E+00 0.  1.
</event>
<event>
 7    1  0.1716782E-015  0.9000774E+02  0.7816164E-02  0.1186339E+00
        -11   -1    0    0    0    0  0.00000000000E+00  0.00000000000E+00  0.45593999997E+02  0.45594000000E+02  0.51100000000E-03 0. -1.
         11   -1    0    0    0    0 -0.00000000000E+00 -0.00000000000E+00 -0.45593999997E+02  0.45594000000E+02  0.51100000000E-03 0.  1.
    9900012    2    1    2    0    0 -0.23379098581E+00  0.11006135156E+01  0.35638992191E+00  0.90007736423E+02  0.89999997743E+02 0.  0.
        -12    1    1    2    0    0  0.23379098581E+00 -0.11006135156E+01 -0.35638992191E+00  0.11802635774E+01  0.00000000000E+00 0.  1.
         11    1    3    3    0    0 -0.28739161294E+02  0.71529018164E+01  0.25198187353E+02  0.38885113378E+02  0.51100000000E-03 0. -1.
        -11    1    3    3    0    0 -0.49353511246E+01  0.69007709191E+01 -0.23966421762E+01  0.88160208701E+01  0.51100000000E-03 0.  1.
        -12    1    3    3    0    0  0.33440721433E+02 -0.12953059220E+02 -0.22445155255E+02  0.42306602174E+02  0.00000000000E+00 0.  1.
</event>
<event>
 7    1  0.1716782E-015  0.9000769E+02  0.7816164E-02  0.1186339E+00
        -11   -1    0    0    0    0  0.00000000000E+00  0.00000000000E+00  0.45593999997E+02  0.45594000000E+02  0.51100000000E-03 0. -1.
         11   -1    0    0    0    0 -0.00000000000E+00 -0.00000000000E+00 -0.45593999997E+02  0.45594000000E+02  0.51100000000E-03 0.  1.
    9900012    2    1    2    0    0 -0.10586373092E+01  0.38195529331E+00 -0.35569896977E+00  0.90007693025E+02  0.89999953773E+02 0.  0.
        -12    1    1    2    0    0  0.10586373092E+01 -0.38195529331E+00  0.35569896977E+00  0.11803069752E+01  0.00000000000E+00 0.  1.
         11    1    3    3    0    0 -0.30389753663E+02 -0.70919210685E+01  0.17351345299E+02  0.35705765026E+02  0.51100000000E-03 0. -1.
        -11    1    3    3    0    0 -0.83561590150E+01  0.16989391580E+01  0.50395479595E+01  0.99049902395E+01  0.51100000000E-03 0.  1.
        -12    1    3    3    0    0  0.37687275369E+02  0.57749372038E+01 -0.22746592229E+02  0.44396937760E+02  0.00000000000E+00 0.  1.
</event>
<event>
 7    1  0.1716782E-015  0.9000781E+02  0.7816164E-02  0.1186339E+00
        -11   -1    0    0    0    0  0.00000000000E+00  0.00000000000E+00  0.45593999997E+02  0.45594000000E+02  0.51100000000E-03 0. -1.
         11   -1    0    0    0    0 -0.00000000000E+00 -0.00000000000E+00 -0.45593999997E+02  0.45594000000E+02  0.51100000000E-03 0.  1.
    9900012    2    1    2    0    0  0.58656648244E+00 -0.72959380173E+00  0.71867031557E+00  0.90007807483E+02  0.90000069742E+02 0.  0.
        -12    1    1    2    0    0 -0.58656648244E+00  0.72959380173E+00 -0.71867031557E+00  0.11801925166E+01  0.00000000000E+00 0.  1.
         11    1    3    3    0    0 -0.88544134448E+01 -0.89355691656E+01  0.32850715295E+02  0.35176903352E+02  0.51100000000E-03 0. -1.
        -11    1    3    3    0    0  0.15143597062E+01  0.24261679326E+01  0.10604230665E+02  0.10983136365E+02  0.51100000000E-03 0.  1.
        -12    1    3    3    0    0  0.79266202211E+01  0.57798074312E+01 -0.42736275645E+02  0.43847767766E+02  0.00000000000E+00 0.  1.
</event>
<event>
 7    1  0.1716782E-015  0.9000800E+02  0.7816164E-02  0.1186339E+00
        -11   -1    0    0    0    0  0.00000000000E+00  0.00000000000E+00  0.45593999997E+02  0.45594000000E+02  0.51100000000E-03 0.  1.
         11   -1    0    0    0    0 -0.00000000000E+00 -0.00000000000E+00 -0.45593999997E+02  0.45594000000E+02  0.51100000000E-03 0. -1.
    9900012    2    1    2    0    0  0.45777965874E+00  0.10649233263E+01  0.22085879875E+00  0.90007998934E+02  0.90000263720E+02 0.  0.
        -12    1    1    2    0    0 -0.45777965874E+00 -0.10649233263E+01 -0.22085879875E+00  0.11800010660E+01  0.00000000000E+00 0.  1.
         11    1    3    3    0    0  0.31276210360E+02  0.16175677436E+02 -0.78452390629E+01  0.36074944923E+02  0.51100000000E-03 0. -1.
        -11    1    3    3    0    0 -0.64428559301E+01  0.12283734533E+02 -0.53781713286E+01  0.14877004192E+02  0.51100000000E-03 0.  1.
        -12    1    3    3    0    0 -0.24375574771E+02 -0.27394488643E+02  0.13444269190E+02  0.39056049819E+02  0.00000000000E+00 0.  1.
</event>
<event>
 7    1  0.1716782E-015  0.9000774E+02  0.7816164E-02  0.1186339E+00
        -11   -1    0    0    0    0  0.00000000000E+00  0.00000000000E+00  0.45593999997E+02  0.45594000000E+02  0.51100000000E-03 0. -1.
         11   -1    0    0    0    0 -0.00000000000E+00 -0.00000000000E+00 -0.45593999997E+02  0.45594000000E+02  0.51100000000E-03 0.  1.
    9900012    2    1    2    0    0  0.77983249979E+00 -0.22406839183E+00  0.85713171558E+00  0.90007737254E+02  0.89999998586E+02 0.  0.
        -12    1    1    2    0    0 -0.77983249979E+00  0.22406839183E+00 -0.85713171558E+00  0.11802627461E+01  0.00000000000E+00 0.  1.
         11    1    3    3    0    0  0.34386562070E+01  0.18530668561E+02 -0.18144663918E+01  0.18934157557E+02  0.51100000000E-03 0. -1.
        -11    1    3    3    0    0 -0.18482251262E+02 -0.30301702589E+02 -0.20296390597E+02  0.40886798151E+02  0.51100000000E-03 0.  1.
         12    1    3    3    0    0  0.15823427555E+02  0.11546965636E+02  0.22967988704E+02  0.30186781546E+02  0.00000000000E+00 0. -1.
</event>
<event>
 7    1  0.1716782E-015  0.9000775E+02  0.7816164E-02  0.1186339E+00
        -11   -1    0    0    0    0  0.00000000000E+00  0.00000000000E+00  0.45593999997E+02  0.45594000000E+02  0.51100000000E-03 0.  1.
         11   -1    0    0    0    0 -0.00000000000E+00 -0.00000000000E+00 -0.45593999997E+02  0.45594000000E+02  0.51100000000E-03 0. -1.
    9900012    2    1    2    0    0 -0.79965769544E-05  0.66573663369E+00 -0.97456936577E+00  0.90007749724E+02  0.90000011220E+02 0.  0.
        -12    1    1    2    0    0  0.79965769518E-05 -0.66573663369E+00  0.97456936577E+00  0.11802502761E+01  0.00000000000E+00 0.  1.
         11    1    3    3    0    0 -0.13912233882E+02 -0.37358075009E+02 -0.77756641930E+01  0.40615723234E+02  0.51100000000E-03 0. -1.
        -11    1    3    3    0    0 -0.23860686214E+01  0.20143514570E+01 -0.68878050929E+01  0.75625917857E+01  0.51100000000E-03 0.  1.
        -12    1    3    3    0    0  0.16298294506E+02  0.36009460185E+02  0.13688899920E+02  0.41829434704E+02  0.00000000000E+00 0.  1.
</event>
<event>
 7    1  0.1716782E-015  0.9000692E+02  0.7816164E-02  0.1186341E+00
        -11   -1    0    0    0    0  0.00000000000E+00  0.00000000000E+00  0.45593999997E+02  0.45594000000E+02  0.51100000000E-03 0. -1.
         11   -1    0    0    0    0 -0.00000000000E+00 -0.00000000000E+00 -0.45593999997E+02  0.45594000000E+02  0.51100000000E-03 0.  1.
    9900012    2    1    2    0    0 -0.71060848582E+00 -0.93603790742E+00  0.11760208975E+00  0.90006915060E+02  0.89999165535E+02 0.  0.
        -12    1    1    2    0    0  0.71060848582E+00  0.93603790742E+00 -0.11760208975E+00  0.11810849401E+01  0.00000000000E+00 0.  1.
         11    1    3    3    0    0 -0.26571243051E+02  0.34046017206E+02 -0.53925289184E-01  0.43187557850E+02  0.51100000000E-03 0. -1.
        -11    1    3    3    0    0  0.31171272294E+01 -0.65629432577E+01 -0.65763012890E+01  0.97998186347E+01  0.51100000000E-03 0.  1.
        -12    1    3    3    0    0  0.22743507335E+02 -0.28419111856E+02  0.67478286679E+01  0.37019538575E+02  0.00000000000E+00 0.  1.
</event>
<event>
 7    1  0.1716782E-015  0.9000774E+02  0.7816164E-02  0.1186339E+00
        -11   -1    0    0    0    0  0.00000000000E+00  0.00000000000E+00  0.45593999997E+02  0.45594000000E+02  0.51100000000E-03 0. -1.
         11   -1    0    0    0    0 -0.00000000000E+00 -0.00000000000E+00 -0.45593999997E+02  0.45594000000E+02  0.51100000000E-03 0.  1.
    9900012    2    1    2    0    0  0.29511940779E+00 -0.54701861054E+00  0.10033436441E+01  0.90007735922E+02  0.89999997236E+02 0.  0.
        -12    1    1    2    0    0 -0.29511940779E+00  0.54701861054E+00 -0.10033436441E+01  0.11802640778E+01  0.00000000000E+00 0.  1.
         11    1    3    3    0    0  0.75039210914E+01  0.44243636740E+01  0.40753459983E+00  0.87206599737E+01  0.51100000000E-03 0. -1.
        -11    1    3    3    0    0 -0.22961419731E+02 -0.28016113029E+02 -0.24515955963E+02  0.43739701444E+02  0.51100000000E-03 0.  1.
         12    1    3    3    0    0  0.15752618047E+02  0.23044730745E+02  0.25111765007E+02  0.37547374505E+02  0.00000000000E+00 0. -1.
</event>
<event>
 8    1  0.1716782E-015  0.9000760E+02  0.7816164E-02  0.1186339E+00
        -11   -1    0    0    0    0  0.00000000000E+00  0.00000000000E+00  0.45593999997E+02  0.45594000000E+02  0.51100000000E-03 0. -1.
         11   -1    0    0    0    0 -0.00000000000E+00 -0.00000000000E+00 -0.45593999997E+02  0.45594000000E+02  0.51100000000E-03 0.  1.
    9900012    2    1    2    0    0  0.10322681092E+01 -0.12558884957E+00  0.55855957637E+00  0.90007602267E+02  0.89999861817E+02 0.  0.
         23    2    3    3    0    0 -0.15123878108E+02 -0.17536488879E+02 -0.60883389139E+01  0.65343017130E+02  0.60797877313E+02 0.  0.
        -12    1    1    2    0    0 -0.10322681092E+01  0.12558884957E+00 -0.55855957637E+00  0.11803977333E+01  0.00000000000E+00 0.  1.
         11    1    4    4    0    0 -0.38484548996E+02 -0.78099140392E+01 -0.75820418066E+01  0.39994282428E+02  0.51100000000E-03 0. -1.
        -11    1    4    4    0    0  0.23360670888E+02 -0.97265748395E+01  0.14937028927E+01  0.25348734703E+02  0.51100000000E-03 0.  1.
        -12    1    3    3    0    0  0.16156146217E+02  0.17410900029E+02  0.66468984903E+01  0.24664585136E+02  0.00000000000E+00 0.  1.
</event>
<event>
 7    1  0.1716782E-015  0.9000766E+02  0.7816164E-02  0.1186339E+00
        -11   -1    0    0    0    0  0.00000000000E+00  0.00000000000E+00  0.45593999997E+02  0.45594000000E+02  0.51100000000E-03 0. -1.
         11   -1    0    0    0    0 -0.00000000000E+00 -0.00000000000E+00 -0.45593999997E+02  0.45594000000E+02  0.51100000000E-03 0.  1.
    9900012    2    1    2    0    0 -0.45124819131E+00  0.94660038938E+00  0.54178362778E+00  0.90007658216E+02  0.89999918505E+02 0.  0.
        -12    1    1    2    0    0  0.45124819131E+00 -0.94660038938E+00 -0.54178362778E+00  0.11803417838E+01  0.00000000000E+00 0.  1.
         11    1    3    3    0    0 -0.18337699106E+02  0.28768633781E+02  0.11934721003E+02  0.36143368186E+02  0.51100000000E-03 0. -1.
        -11    1    3    3    0    0  0.20145200644E+01 -0.36982873834E+00 -0.20711993654E+02  0.20813018660E+02  0.51100000000E-03 0.  1.
        -12    1    3    3    0    0  0.15871930851E+02 -0.27452204653E+02  0.93190562784E+01  0.33051271370E+02  0.00000000000E+00 0.  1.
</event>
<event>
 7    1  0.1716782E-015  0.9000785E+02  0.7816164E-02  0.1186339E+00
        -11   -1    0    0    0    0  0.00000000000E+00  0.00000000000E+00  0.45593999997E+02  0.45594000000E+02  0.51100000000E-03 0.  1.
         11   -1    0    0    0    0 -0.00000000000E+00 -0.00000000000E+00 -0.45593999997E+02  0.45594000000E+02  0.51100000000E-03 0. -1.
    9900012    2    1    2    0    0 -0.89616103947E-01  0.71328764621E+00 -0.93591325883E+00  0.90007854272E+02  0.90000117148E+02 0.  0.
        -12    1    1    2    0    0  0.89616103947E-01 -0.71328764621E+00  0.93591325883E+00  0.11801457285E+01  0.00000000000E+00 0.  1.
         11    1    3    3    0    0 -0.46741163206E+01 -0.73761203873E+01 -0.47299873117E+01  0.99311276085E+01  0.51100000000E-03 0. -1.
        -11    1    3    3    0    0 -0.22542632410E+02  0.34538273967E+02 -0.38604928050E+01  0.41424220567E+02  0.51100000000E-03 0.  1.
         12    1    3    3    0    0  0.27127132627E+02 -0.26448865934E+02  0.76545668579E+01  0.38652506096E+02  0.00000000000E+00 0. -1.
</event>
<event>
 7    1  0.1716782E-015  0.9000783E+02  0.7816164E-02  0.1186339E+00
        -11   -1    0    0    0    0  0.00000000000E+00  0.00000000000E+00  0.45593999997E+02  0.45594000000E+02  0.51100000000E-03 0. -1.
         11   -1    0    0    0    0 -0.00000000000E+00 -0.00000000000E+00 -0.45593999997E+02  0.45594000000E+02  0.51100000000E-03 0.  1.
    9900012    2    1    2    0    0  0.29926352388E+00 -0.16853769868E+00  0.11290908474E+01  0.90007826388E+02  0.90000088896E+02 0.  0.
        -12    1    1    2    0    0 -0.29926352388E+00  0.16853769868E+00 -0.11290908474E+01  0.11801736119E+01  0.00000000000E+00 0.  1.
         11    1    3    3    0    0  0.30194807919E+02  0.55973459838E+01  0.31499588840E+02  0.43991826567E+02  0.51100000000E-03 0. -1.
        -11    1    3    3    0    0 -0.25761197787E+01  0.40927713075E+01 -0.14978322901E+01  0.50626743842E+01  0.51100000000E-03 0.  1.
        -12    1    3    3    0    0 -0.27319424617E+02 -0.98586549900E+01 -0.28872665702E+02  0.40953325437E+02  0.00000000000E+00 0.  1.
</event>
<event>
 7    1  0.1716782E-015  0.9000777E+02  0.7816164E-02  0.1186339E+00
        -11   -1    0    0    0    0  0.00000000000E+00  0.00000000000E+00  0.45593999997E+02  0.45594000000E+02  0.51100000000E-03 0.  1.
         11   -1    0    0    0    0 -0.00000000000E+00 -0.00000000000E+00 -0.45593999997E+02  0.45594000000E+02  0.51100000000E-03 0. -1.
    9900012    2    1    2    0    0 -0.46143341589E+00 -0.67157555810E+00 -0.85381585726E+00  0.90007772884E+02  0.90000034686E+02 0.  0.
        -12    1    1    2    0    0  0.46143341589E+00  0.67157555810E+00  0.85381585726E+00  0.11802271161E+01  0.00000000000E+00 0.  1.
         11    1    3    3    0    0 -0.30740250149E+02  0.20848529400E+01  0.20999061098E+02  0.37286326693E+02  0.51100000000E-03 0. -1.
        -11    1    3    3    0    0  0.65706638309E+01  0.87989731344E+01  0.74707740665E+01  0.13281867971E+02  0.51100000000E-03 0.  1.
        -12    1    3    3    0    0  0.23708152902E+02 -0.11555401632E+02 -0.29323651022E+02  0.39439578220E+02  0.00000000000E+00 0.  1.
</event>
<event>
 7    1  0.1716782E-015  0.9000797E+02  0.7816164E-02  0.1186339E+00
        -11   -1    0    0    0    0  0.00000000000E+00  0.00000000000E+00  0.45593999997E+02  0.45594000000E+02  0.51100000000E-03 0. -1.
         11   -1    0    0    0    0 -0.00000000000E+00 -0.00000000000E+00 -0.45593999997E+02  0.45594000000E+02  0.51100000000E-03 0.  1.
    9900012    2    1    2    0    0  0.23694498184E-01 -0.70033026073E+00  0.94944282809E+00  0.90007972209E+02  0.90000236642E+02 0.  0.
        -12    1    1    2    0    0 -0.23694498184E-01  0.70033026073E+00 -0.94944282809E+00  0.11800277908E+01  0.00000000000E+00 0.  1.
         11    1    3    3    0    0  0.87646004621E+00  0.42025255789E+01 -0.69232933835E+01  0.81462503637E+01  0.51100000000E-03 0. -1.
        -11    1    3    3    0    0  0.31548413771E+02  0.62787170903E+01 -0.19831606042E+02  0.37789116135E+02  0.51100000000E-03 0.  1.
         12    1    3    3    0    0 -0.32401179319E+02 -0.11181572930E+02  0.27704342253E+02  0.44072605711E+02  0.00000000000E+00 0. -1.
</event>
<event>
 7    1  0.1716782E-015  0.9000760E+02  0.7816164E-02  0.1186339E+00
        -11   -1    0    0    0    0  0.00000000000E+00  0.00000000000E+00  0.45593999997E+02  0.45594000000E+02  0.51100000000E-03 0.  1.
         11   -1    0    0    0    0 -0.00000000000E+00 -0.00000000000E+00 -0.45593999997E+02  0.45594000000E+02  0.51100000000E-03 0. -1.
    9900012    2    1    2    0    0 -0.73796268424E+00  0.59474460455E-02  0.92126263736E+00  0.90007597890E+02  0.89999857382E+02 0.  0.
        -12    1    1    2    0    0  0.73796268424E+00 -0.59474460455E-02 -0.92126263736E+00  0.11804021105E+01  0.00000000000E+00 0.  1.
         11    1    3    3    0    0  0.13670025365E+02 -0.20114437569E+01  0.30206286467E+01  0.14143539060E+02  0.51100000000E-03 0. -1.
        -11    1    3    3    0    0 -0.45731071876E+01 -0.15300326074E+02  0.32347423312E+02  0.36074493517E+02  0.51100000000E-03 0.  1.
         12    1    3    3    0    0 -0.98348808618E+01  0.17317717276E+02 -0.34446789321E+02  0.39789565313E+02  0.00000000000E+00 0. -1.
</event>
<event>
 7    1  0.1716782E-015  0.9000766E+02  0.7816164E-02  0.1186339E+00
        -11   -1    0    0    0    0  0.00000000000E+00  0.00000000000E+00  0.45593999997E+02  0.45594000000E+02  0.51100000000E-03 0. -1.
         11   -1    0    0    0    0 -0.00000000000E+00 -0.00000000000E+00 -0.45593999997E+02  0.45594000000E+02  0.51100000000E-03 0.  1.
    9900012    2    1    2    0    0  0.44471148596E+00 -0.93894416157E+00  0.56018608885E+00  0.90007664074E+02  0.89999924440E+02 0.  0.
        -12    1    1    2    0    0 -0.44471148596E+00  0.93894416157E+00 -0.56018608885E+00  0.11803359261E+01  0.00000000000E+00 0.  1.
         11    1    3    3    0    0 -0.15723848124E+01 -0.30778682781E+01 -0.86660818904E+01  0.93298790308E+01  0.51100000000E-03 0. -1.
        -11    1    3    3    0    0 -0.48502348356E+01 -0.23730046228E+02 -0.26588780842E+02  0.35966694856E+02  0.51100000000E-03 0.  1.
         12    1    3    3    0    0  0.68673311340E+01  0.25868970345E+02  0.35815048821E+02  0.44711090187E+02  0.00000000000E+00 0. -1.
</event>
<event>
 7    1  0.1716782E-015  0.9000774E+02  0.7816164E-02  0.1186339E+00
        -11   -1    0    0    0    0  0.00000000000E+00  0.00000000000E+00  0.45593999997E+02  0.45594000000E+02  0.51100000000E-03 0. -1.
         11   -1    0    0    0    0 -0.00000000000E+00 -0.00000000000E+00 -0.45593999997E+02  0.45594000000E+02  0.51100000000E-03 0.  1.
    9900012    2    1    2    0    0  0.87077160384E+00  0.79641520906E+00  0.22349372060E-01  0.90007737374E+02  0.89999998708E+02 0.  0.
        -12    1    1    2    0    0 -0.87077160384E+00 -0.79641520906E+00 -0.22349372060E-01  0.11802626257E+01  0.00000000000E+00 0.  1.
         11    1    3    3    0    0  0.62055012408E+01  0.49397779196E+01  0.11547817727E+02  0.14009344955E+02  0.51100000000E-03 0. -1.
        -11    1    3    3    0    0 -0.28320204071E+02 -0.29498967052E+02 -0.59261999686E+01  0.41320005592E+02  0.51100000000E-03 0.  1.
         12    1    3    3    0    0  0.22985474434E+02  0.25355604342E+02 -0.55992683866E+01  0.34678386828E+02  0.00000000000E+00 0. -1.
</event>
<event>
 7    1  0.1716782E-015  0.9000773E+02  0.7816164E-02  0.1186339E+00
        -11   -1    0    0    0    0  0.00000000000E+00  0.00000000000E+00  0.45593999997E+02  0.45594000000E+02  0.51100000000E-03 0. -1.
         11   -1    0    0    0    0 -0.00000000000E+00 -0.00000000000E+00 -0.45593999997E+02  0.45594000000E+02  0.51100000000E-03 0.  1.
    9900012    2    1    2    0    0 -0.20414692481E+00  0.79002597127E+00  0.85277087549E+00  0.90007730892E+02  0.89999992139E+02 0.  0.
        -12    1    1    2    0    0  0.20414692481E+00 -0.79002597127E+00 -0.85277087549E+00  0.11802691084E+01  0.00000000000E+00 0.  1.
         11    1    3    3    0    0  0.13051847553E+01  0.50100473727E+01  0.11299081842E+02  0.12428730131E+02  0.51100000000E-03 0. -1.
        -11    1    3    3    0    0  0.37018655746E+02 -0.31317682824E+01 -0.11894171376E+02  0.39008462656E+02  0.51100000000E-03 0.  1.
         12    1    3    3    0    0 -0.38527987426E+02 -0.10882531191E+01  0.14478604092E+01  0.38570538105E+02  0.00000000000E+00 0. -1.
</event>
<event>
 7    1  0.1716782E-015  0.9000768E+02  0.7816164E-02  0.1186339E+00
        -11   -1    0    0    0    0  0.00000000000E+00  0.00000000000E+00  0.45593999997E+02  0.45594000000E+02  0.51100000000E-03 0.  1.
         11   -1    0    0    0    0 -0.00000000000E+00 -0.00000000000E+00 -0.45593999997E+02  0.45594000000E+02  0.51100000000E-03 0. -1.
    9900012    2    1    2    0    0  0.51243975117E+00 -0.89578064689E+00  0.57284074587E+00  0.90007676321E+02  0.89999936849E+02 0.  0.
        -12    1    1    2    0    0 -0.51243975117E+00  0.89578064689E+00 -0.57284074587E+00  0.11803236785E+01  0.00000000000E+00 0.  1.
         11    1    3    3    0    0 -0.33128700392E+02  0.51512923380E+01  0.71692488981E+01  0.34284759477E+02  0.51100000000E-03 0. -1.
        -11    1    3    3    0    0 -0.42057971795E+01  0.12453960370E+02 -0.47481138492E+00  0.13153528231E+02  0.51100000000E-03 0.  1.
        -12    1    3    3    0    0  0.37846937322E+02 -0.18501033355E+02 -0.61215967673E+01  0.42569388613E+02  0.00000000000E+00 0.  1.
</event>
<event>
 7    1  0.1716782E-015  0.9000784E+02  0.7816164E-02  0.1186339E+00
        -11   -1    0    0    0    0  0.00000000000E+00  0.00000000000E+00  0.45593999997E+02  0.45594000000E+02  0.51100000000E-03 0. -1.
         11   -1    0    0    0    0 -0.00000000000E+00 -0.00000000000E+00 -0.45593999997E+02  0.45594000000E+02  0.51100000000E-03 0.  1.
    9900012    2    1    2    0    0 -0.27080125348E+00 -0.33511565526E+00  0.10987005223E+01  0.90007839562E+02  0.90000102244E+02 0.  0.
        -12    1    1    2    0    0  0.27080125348E+00  0.33511565526E+00 -0.10987005223E+01  0.11801604379E+01  0.00000000000E+00 0.  1.
         11    1    3    3    0    0  0.83873211099E+01  0.20146491959E+01  0.63845024715E+00  0.86494847108E+01  0.51100000000E-03 0. -1.
        -11    1    3    3    0    0  0.30485940004E+02  0.19554669950E+02 -0.31625385477E+01  0.36356282883E+02  0.51100000000E-03 0.  1.
         12    1    3    3    0    0 -0.39144062367E+02 -0.21904434801E+02  0.36227888229E+01  0.45002071968E+02  0.00000000000E+00 0. -1.
</event>
<event>
 7    1  0.1716782E-015  0.9000768E+02  0.7816164E-02  0.1186339E+00
        -11   -1    0    0    0    0  0.00000000000E+00  0.00000000000E+00  0.45593999997E+02  0.45594000000E+02  0.51100000000E-03 0. -1.
         11   -1    0    0    0    0 -0.00000000000E+00 -0.00000000000E+00 -0.45593999997E+02  0.45594000000E+02  0.51100000000E-03 0.  1.
    9900012    2    1    2    0    0  0.49913621832E+00 -0.72785139964E+00  0.78373973920E+00  0.90007681143E+02  0.89999941734E+02 0.  0.
        -12    1    1    2    0    0 -0.49913621832E+00  0.72785139964E+00 -0.78373973920E+00  0.11803188566E+01  0.00000000000E+00 0.  1.
         11    1    3    3    0    0 -0.30385108502E+01  0.99579126429E+01 -0.10516603666E+01  0.10464156066E+02  0.51100000000E-03 0. -1.
        -11    1    3    3    0    0  0.29499700392E+02 -0.31255430459E+00 -0.26559124994E+02  0.39695303678E+02  0.51100000000E-03 0.  1.
         12    1    3    3    0    0 -0.25962053323E+02 -0.10373209738E+02  0.28394525100E+02  0.39848221399E+02  0.00000000000E+00 0. -1.
</event>
<event>
 7    1  0.1716782E-015  0.9000773E+02  0.7816164E-02  0.1186339E+00
        -11   -1    0    0    0    0  0.00000000000E+00  0.00000000000E+00  0.45593999997E+02  0.45594000000E+02  0.51100000000E-03 0.  1.
         11   -1    0    0    0    0 -0.00000000000E+00 -0.00000000000E+00 -0.45593999997E+02  0.45594000000E+02  0.51100000000E-03 0. -1.
    9900012    2    1    2    0    0 -0.19189615359E+00 -0.11368423576E+01  0.25258006001E+00  0.90007732502E+02  0.89999993771E+02 0.  0.
        -12    1    1    2    0    0  0.19189615359E+00  0.11368423576E+01 -0.25258006001E+00  0.11802674978E+01  0.00000000000E+00 0.  1.
         11    1    3    3    0    0 -0.63292446821E+01 -0.34588863027E+02  0.99394111588E+01  0.36540945228E+02  0.51100000000E-03 0. -1.
        -11    1    3    3    0    0  0.25238395263E+00 -0.51983997067E+01  0.87973172736E+01  0.10221538468E+02  0.51100000000E-03 0.  1.
        -12    1    3    3    0    0  0.58849645759E+01  0.38650420376E+02 -0.18484148372E+02  0.43245248806E+02  0.00000000000E+00 0.  1.
</event>
<event>
 7    1  0.1716782E-015  0.9000772E+02  0.7816164E-02  0.1186339E+00
        -11   -1    0    0    0    0  0.00000000000E+00  0.00000000000E+00  0.45593999997E+02  0.45594000000E+02  0.51100000000E-03 0.  1.
         11   -1    0    0    0    0 -0.00000000000E+00 -0.00000000000E+00 -0.45593999997E+02  0.45594000000E+02  0.51100000000E-03 0. -1.
    9900012    2    1    2    0    0  0.20861782051E+00  0.10678481058E+01  0.45741986264E+00  0.90007722955E+02  0.89999984098E+02 0.  0.
        -12    1    1    2    0    0 -0.20861782051E+00 -0.10678481058E+01 -0.45741986264E+00  0.11802770449E+01  0.00000000000E+00 0.  1.
         11    1    3    3    0    0  0.15499645041E+00 -0.83358619424E+01  0.58188764356E+01  0.10167100937E+02  0.51100000000E-03 0. -1.
        -11    1    3    3    0    0 -0.10712088554E+02 -0.82951559036E+01  0.33315582920E+02  0.35965073588E+02  0.51100000000E-03 0.  1.
         12    1    3    3    0    0  0.10765709924E+02  0.17698865952E+02 -0.38677039493E+02  0.43875548430E+02  0.00000000000E+00 0. -1.
</event>
<event>
 7    1  0.3268327E-015  0.9000773E+02  0.7816164E-02  0.1186339E+00
        -11   -1    0    0    0    0  0.00000000000E+00  0.00000000000E+00  0.45593999997E+02  0.45594000000E+02  0.51100000000E-03 0. -1.
         11   -1    0    0    0    0 -0.00000000000E+00 -0.00000000000E+00 -0.45593999997E+02  0.45594000000E+02  0.51100000000E-03 0.  1.
    9900012    2    1    2    0    0  0.50154281546E+00 -0.24036687366E+00  0.10410134249E+01  0.90007732920E+02  0.89999994194E+02 0.  0.
        -12    1    1    2    0    0 -0.50154281546E+00  0.24036687366E+00 -0.10410134249E+01  0.11802670801E+01  0.00000000000E+00 0.  1.
         11    1    3    3    0    0  0.18710992954E+02 -0.16406269982E+02  0.29463300880E+02  0.38566216447E+02  0.51100000000E-03 0. -1.
        -11    1    3    3    0    0  0.59074451182E+01  0.58543572650E+01  0.44139767329E+01  0.94156570493E+01  0.51100000000E-03 0.  1.
        -12    1    3    3    0    0 -0.24116895257E+02  0.10311545843E+02 -0.32836264188E+02  0.42025859424E+02  0.00000000000E+00 0.  1.
</event>
<event>
 7    1  0.1716782E-015  0.9000774E+02  0.7816164E-02  0.1186339E+00
        -11   -1    0    0    0    0  0.00000000000E+00  0.00000000000E+00  0.45593999997E+02  0.45594000000E+02  0.51100000000E-03 0.  1.
         11   -1    0    0    0    0 -0.00000000000E+00 -0.00000000000E+00 -0.45593999997E+02  0.45594000000E+02  0.51100000000E-03 0. -1.
    9900012    2    1    2    0    0  0.47537894315E+00 -0.85691368802E+00 -0.65782889134E+00  0.90007735174E+02  0.89999996479E+02 0.  0.
        -12    1    1    2    0    0 -0.47537894315E+00  0.85691368802E+00  0.65782889134E+00  0.11802648256E+01  0.00000000000E+00 0.  1.
         11    1    3    3    0    0 -0.34663027436E+01 -0.29109010322E+02 -0.29008630950E+02  0.41241367660E+02  0.51100000000E-03 0. -1.
        -11    1    3    3    0    0 -0.85929516673E+01  0.18372789364E+01  0.12047007006E+01  0.88693695540E+01  0.51100000000E-03 0.  1.
        -12    1    3    3    0    0  0.12534633354E+02  0.26414817698E+02  0.27146101358E+02  0.39896997960E+02  0.00000000000E+00 0.  1.
</event>
<event>
 7    1  0.1716782E-015  0.9000779E+02  0.7816164E-02  0.1186339E+00
        -11   -1    0    0    0    0  0.00000000000E+00  0.00000000000E+00  0.45593999997E+02  0.45594000000E+02  0.51100000000E-03 0. -1.
         11   -1    0    0    0    0 -0.00000000000E+00 -0.00000000000E+00 -0.45593999997E+02  0.45594000000E+02  0.51100000000E-03 0.  1.
    9900012    2    1    2    0    0  0.40963026334E-02  0.81251893459E+00 -0.85597340806E+00  0.90007790580E+02  0.90000052616E+02 0.  0.
        -12    1    1    2    0    0 -0.40963026334E-02 -0.81251893459E+00  0.85597340806E+00  0.11802094196E+01  0.00000000000E+00 0.  1.
         11    1    3    3    0    0  0.31367268039E+01  0.10462133994E+02  0.30460718959E+01  0.11339041273E+02  0.51100000000E-03 0. -1.
        -11    1    3    3    0    0  0.19211892751E+02  0.27901041363E+02  0.44972112771E+01  0.34172940198E+02  0.51100000000E-03 0.  1.
         12    1    3    3    0    0 -0.22344523253E+02 -0.37550656422E+02 -0.83992565810E+01  0.44495809109E+02  0.00000000000E+00 0. -1.
</event>
<event>
 7    1  0.1716782E-015  0.9000774E+02  0.7816164E-02  0.1186339E+00
        -11   -1    0    0    0    0  0.00000000000E+00  0.00000000000E+00  0.45593999997E+02  0.45594000000E+02  0.51100000000E-03 0.  1.
         11   -1    0    0    0    0 -0.00000000000E+00 -0.00000000000E+00 -0.45593999997E+02  0.45594000000E+02  0.51100000000E-03 0. -1.
    9900012    2    1    2    0    0  0.10614757168E+00 -0.96857191354E+00 -0.66605014937E+00  0.90007736614E+02  0.89999997937E+02 0.  0.
        -12    1    1    2    0    0 -0.10614757168E+00  0.96857191354E+00  0.66605014937E+00  0.11802633859E+01  0.00000000000E+00 0.  1.
         11    1    3    3    0    0 -0.30943352398E+02 -0.70738374533E+01 -0.10093799402E+02  0.33307882259E+02  0.51100000000E-03 0. -1.
        -11    1    3    3    0    0 -0.91089590321E+01 -0.16789778742E+01 -0.79972954701E+01  0.12237190709E+02  0.51100000000E-03 0.  1.
        -12    1    3    3    0    0  0.40158459002E+02  0.77842434140E+01  0.17425044722E+02  0.44462663646E+02  0.00000000000E+00 0.  1.
</event>
<event>
 7    1  0.1716782E-015  0.9000833E+02  0.7816164E-02  0.1186338E+00
        -11   -1    0    0    0    0  0.00000000000E+00  0.00000000000E+00  0.45593999997E+02  0.45594000000E+02  0.51100000000E-03 0.  1.
         11   -1    0    0    0    0 -0.00000000000E+00 -0.00000000000E+00 -0.45593999997E+02  0.45594000000E+02  0.51100000000E-03 0. -1.
    9900012    2    1    2    0    0 -0.45715933714E+00  0.10581213315E+01  0.25100554364E+00  0.90008330896E+02  0.90000600062E+02 0.  0.
        -12    1    1    2    0    0  0.45715933714E+00 -0.10581213315E+01 -0.25100554364E+00  0.11796691039E+01  0.00000000000E+00 0.  1.
         11    1    3    3    0    0 -0.34976594600E+02 -0.14194160169E+02  0.75288383341E+01  0.38490515191E+02  0.51100000000E-03 0. -1.
        -11    1    3    3    0    0 -0.27710589768E+01  0.77993444196E+01 -0.10481028813E+02  0.13355167782E+02  0.51100000000E-03 0.  1.
        -12    1    3    3    0    0  0.37290494240E+02  0.74529370808E+01  0.32031960230E+01  0.38162647924E+02  0.00000000000E+00 0.  1.
</event>
<event>
 7    1  0.1716782E-015  0.9000771E+02  0.7816164E-02  0.1186339E+00
        -11   -1    0    0    0    0  0.00000000000E+00  0.00000000000E+00  0.45593999997E+02  0.45594000000E+02  0.51100000000E-03 0.  1.
         11   -1    0    0    0    0 -0.00000000000E+00 -0.00000000000E+00 -0.45593999997E+02  0.45594000000E+02  0.51100000000E-03 0. -1.
    9900012    2    1    2    0    0  0.11433777539E+01 -0.29246939435E+00 -0.14963160949E-01  0.90007714047E+02  0.89999975072E+02 0.  0.
        -12    1    1    2    0    0 -0.11433777539E+01  0.29246939435E+00  0.14963160949E-01  0.11802859531E+01  0.00000000000E+00 0.  1.
         11    1    3    3    0    0 -0.89029685446E+01  0.39918068745E+01  0.21596568645E-01  0.97569379265E+01  0.51100000000E-03 0. -1.
        -11    1    3    3    0    0  0.25212181286E+01  0.39566223164E+01  0.39188887289E+02  0.39468725445E+02  0.51100000000E-03 0.  1.
         12    1    3    3    0    0  0.75251281699E+01 -0.82408985852E+01 -0.39225447019E+02  0.40782050676E+02  0.00000000000E+00 0. -1.
</event>
<event>
 7    1  0.1716782E-015  0.9000779E+02  0.7816164E-02  0.1186339E+00
        -11   -1    0    0    0    0  0.00000000000E+00  0.00000000000E+00  0.45593999997E+02  0.45594000000E+02  0.51100000000E-03 0. -1.
         11   -1    0    0    0    0 -0.00000000000E+00 -0.00000000000E+00 -0.45593999997E+02  0.45594000000E+02  0.51100000000E-03 0.  1.
    9900012    2    1    2    0    0  0.23480465855E+00 -0.10653429185E+01  0.45034520217E+00  0.90007788340E+02  0.90000050346E+02 0.  0.
        -12    1    1    2    0    0 -0.23480465855E+00  0.10653429185E+01 -0.45034520217E+00  0.11802116602E+01  0.00000000000E+00 0.  1.
         11    1    3    3    0    0 -0.30061772901E+02 -0.12857686951E+02 -0.15176880293E+02  0.36046747417E+02  0.51100000000E-03 0. -1.
        -11    1    3    3    0    0 -0.89918019977E+01 -0.32380840129E+01  0.35667320503E+01  0.10200944516E+02  0.51100000000E-03 0.  1.
        -12    1    3    3    0    0  0.39288379557E+02  0.15030428045E+02  0.12060493444E+02  0.43760096407E+02  0.00000000000E+00 0.  1.
</event>
<event>
 7    1  0.1716782E-015  0.9000839E+02  0.7816164E-02  0.1186338E+00
        -11   -1    0    0    0    0  0.00000000000E+00  0.00000000000E+00  0.45593999997E+02  0.45594000000E+02  0.51100000000E-03 0. -1.
         11   -1    0    0    0    0 -0.00000000000E+00 -0.00000000000E+00 -0.45593999997E+02  0.45594000000E+02  0.51100000000E-03 0.  1.
    9900012    2    1    2    0    0 -0.11441912334E+01 -0.20709313771E+00  0.19852739237E+00  0.90008392323E+02  0.90000662299E+02 0.  0.
        -12    1    1    2    0    0  0.11441912334E+01  0.20709313771E+00 -0.19852739237E+00  0.11796076771E+01  0.00000000000E+00 0.  1.
         11    1    3    3    0    0 -0.29606994729E+02 -0.38013676673E+01  0.20674003113E+02  0.36310314485E+02  0.51100000000E-03 0. -1.
        -11    1    3    3    0    0 -0.87990916853E+01 -0.31668914936E+01  0.21338805390E+01  0.95920103542E+01  0.51100000000E-03 0.  1.
        -12    1    3    3    0    0  0.37261895181E+02  0.67611660232E+01 -0.22609356259E+02  0.44106067484E+02  0.00000000000E+00 0.  1.
</event>
<event>
 7    1  0.1716782E-015  0.9000768E+02  0.7816164E-02  0.1186339E+00
        -11   -1    0    0    0    0  0.00000000000E+00  0.00000000000E+00  0.45593999997E+02  0.45594000000E+02  0.51100000000E-03 0.  1.
         11   -1    0    0    0    0 -0.00000000000E+00 -0.00000000000E+00 -0.45593999997E+02  0.45594000000E+02  0.51100000000E-03 0. -1.
    9900012    2    1    2    0    0  0.95878442939E+00 -0.68828558175E+00 -0.12497567486E-01  0.90007677666E+02  0.89999938211E+02 0.  0.
        -12    1    1    2    0    0 -0.95878442939E+00  0.68828558175E+00  0.12497567486E-01  0.11803223345E+01  0.00000000000E+00 0.  1.
         11    1    3    3    0    0  0.13487305039E+02  0.30896509205E+02 -0.12645277953E+02  0.36005620853E+02  0.51100000000E-03 0. -1.
        -11    1    3    3    0    0  0.10392269183E+02  0.13535838286E+01  0.88112723967E+01  0.13691967333E+02  0.51100000000E-03 0.  1.
        -12    1    3    3    0    0 -0.22920789792E+02 -0.32938378615E+02  0.38215079888E+01  0.40310089479E+02  0.00000000000E+00 0.  1.
</event>
<event>
 7    1  0.1716782E-015  0.9000752E+02  0.7816164E-02  0.1186339E+00
        -11   -1    0    0    0    0  0.00000000000E+00  0.00000000000E+00  0.45593999997E+02  0.45594000000E+02  0.51100000000E-03 0.  1.
         11   -1    0    0    0    0 -0.00000000000E+00 -0.00000000000E+00 -0.45593999997E+02  0.45594000000E+02  0.51100000000E-03 0. -1.
    9900012    2    1    2    0    0  0.81162380757E+00 -0.11793390497E+00 -0.84905674238E+00  0.90007517487E+02  0.89999775918E+02 0.  0.
        -12    1    1    2    0    0 -0.81162380757E+00  0.11793390497E+00  0.84905674238E+00  0.11804825127E+01  0.00000000000E+00 0.  1.
         11    1    3    3    0    0 -0.39785714082E+02 -0.97058588096E+01 -0.76510057965E+01  0.41661068519E+02  0.51100000000E-03 0. -1.
        -11    1    3    3    0    0  0.70907838953E+01  0.11477451623E+02  0.60309523656E+01  0.14777804258E+02  0.51100000000E-03 0.  1.
        -12    1    3    3    0    0  0.33506553994E+02 -0.18895267180E+01  0.77099668861E+00  0.33568644710E+02  0.00000000000E+00 0.  1.
</event>
<event>
 7    1  0.1716782E-015  0.9000752E+02  0.7816164E-02  0.1186339E+00
        -11   -1    0    0    0    0  0.00000000000E+00  0.00000000000E+00  0.45593999997E+02  0.45594000000E+02  0.51100000000E-03 0.  1.
         11   -1    0    0    0    0 -0.00000000000E+00 -0.00000000000E+00 -0.45593999997E+02  0.45594000000E+02  0.51100000000E-03 0. -1.
    9900012    2    1    2    0    0  0.53148306330E-01  0.90137250339E+00 -0.76041747763E+00  0.90007520490E+02  0.89999778961E+02 0.  0.
        -12    1    1    2    0    0 -0.53148306330E-01 -0.90137250339E+00  0.76041747763E+00  0.11804795096E+01  0.00000000000E+00 0.  1.
         11    1    3    3    0    0  0.12300270276E+02  0.48287943649E+01 -0.55747501989E+00  0.13225909516E+02  0.51100000000E-03 0. -1.
        -11    1    3    3    0    0 -0.12115336180E+02 -0.28987741412E+02  0.25810700775E+02  0.40660334451E+02  0.51100000000E-03 0.  1.
         12    1    3    3    0    0 -0.13178578949E+00  0.25060319550E+02 -0.26013643232E+02  0.36121276523E+02  0.00000000000E+00 0. -1.
</event>
<event>
 7    1  0.1716782E-015  0.9000805E+02  0.7816164E-02  0.1186338E+00
        -11   -1    0    0    0    0  0.00000000000E+00  0.00000000000E+00  0.45593999997E+02  0.45594000000E+02  0.51100000000E-03 0.  1.
         11   -1    0    0    0    0 -0.00000000000E+00 -0.00000000000E+00 -0.45593999997E+02  0.45594000000E+02  0.51100000000E-03 0. -1.
    9900012    2    1    2    0    0 -0.17306464538E+00  0.43502130572E+00 -0.10830891564E+01  0.90008052108E+02  0.90000317595E+02 0.  0.
        -12    1    1    2    0    0  0.17306464538E+00 -0.43502130572E+00  0.10830891564E+01  0.11799478924E+01  0.00000000000E+00 0.  1.
         11    1    3    3    0    0  0.62680539284E+01 -0.16056920078E+01  0.10256577903E+02  0.12127000347E+02  0.51100000000E-03 0. -1.
        -11    1    3    3    0    0  0.19636018553E+02  0.29599181909E+02  0.62424762735E+01  0.36064571322E+02  0.51100000000E-03 0.  1.
         12    1    3    3    0    0 -0.26077137127E+02 -0.27558468596E+02 -0.17582143333E+02  0.41816480439E+02  0.00000000000E+00 0. -1.
</event>
<event>
 7    1  0.1716782E-015  0.9000740E+02  0.7816164E-02  0.1186340E+00
        -11   -1    0    0    0    0  0.00000000000E+00  0.00000000000E+00  0.45593999997E+02  0.45594000000E+02  0.51100000000E-03 0.  1.
         11   -1    0    0    0    0 -0.00000000000E+00 -0.00000000000E+00 -0.45593999997E+02  0.45594000000E+02  0.51100000000E-03 0. -1.
    9900012    2    1    2    0    0  0.10155910463E+01 -0.52516340564E+00 -0.29424973722E+00  0.90007404945E+02  0.89999661890E+02 0.  0.
        -12    1    1    2    0    0 -0.10155910463E+01  0.52516340564E+00  0.29424973722E+00  0.11805950550E+01  0.00000000000E+00 0.  1.
         11    1    3    3    0    0 -0.59255967773E+01 -0.76092871993E+01  0.99404171110E+00  0.96954663649E+01  0.51100000000E-03 0. -1.
        -11    1    3    3    0    0  0.25787685845E+02  0.12711895246E+01  0.32306213117E+02  0.41355919411E+02  0.51100000000E-03 0.  1.
         12    1    3    3    0    0 -0.18846498022E+02  0.58129342690E+01 -0.33594504566E+02  0.38956019169E+02  0.00000000000E+00 0. -1.
</event>
<event>
 7    1  0.1716782E-015  0.9000780E+02  0.7816164E-02  0.1186339E+00
        -11   -1    0    0    0    0  0.00000000000E+00  0.00000000000E+00  0.45593999997E+02  0.45594000000E+02  0.51100000000E-03 0.  1.
         11   -1    0    0    0    0 -0.00000000000E+00 -0.00000000000E+00 -0.45593999997E+02  0.45594000000E+02  0.51100000000E-03 0. -1.
    9900012    2    1    2    0    0 -0.10889329558E+01 -0.76340615220E-02  0.45501623333E+00  0.90007799579E+02  0.90000061733E+02 0.  0.
        -12    1    1    2    0    0  0.10889329558E+01  0.76340615220E-02 -0.45501623333E+00  0.11802004210E+01  0.00000000000E+00 0.  1.
         11    1    3    3    0    0  0.29944818224E+02  0.21044440530E+02 -0.54513157574E+01  0.37003749261E+02  0.51100000000E-03 0. -1.
        -11    1    3    3    0    0  0.65899532522E+01  0.34428479490E+01 -0.12592746509E+01  0.75409852654E+01  0.51100000000E-03 0.  1.
        -12    1    3    3    0    0 -0.37623704432E+02 -0.24494922540E+02  0.71656066416E+01  0.45463065052E+02  0.00000000000E+00 0.  1.
</event>
<event>
 7    1  0.1716782E-015  0.9000773E+02  0.7816164E-02  0.1186339E+00
        -11   -1    0    0    0    0  0.00000000000E+00  0.00000000000E+00  0.45593999997E+02  0.45594000000E+02  0.51100000000E-03 0.  1.
         11   -1    0    0    0    0 -0.00000000000E+00 -0.00000000000E+00 -0.45593999997E+02  0.45594000000E+02  0.51100000000E-03 0. -1.
    9900012    2    1    2    0    0  0.11654504736E+01 -0.17096757635E+00 -0.74389029940E-01  0.90007729503E+02  0.89999990732E+02 0.  0.
        -12    1    1    2    0    0 -0.11654504736E+01  0.17096757635E+00  0.74389029940E-01  0.11802704971E+01  0.00000000000E+00 0.  1.
         11    1    3    3    0    0  0.92364077614E+01  0.12965159405E+02  0.38219569073E+02  0.41402198578E+02  0.51100000000E-03 0. -1.
        -11    1    3    3    0    0 -0.48858585226E+01 -0.10703767207E+02 -0.18128891052E+01  0.11904991101E+02  0.51100000000E-03 0.  1.
        -12    1    3    3    0    0 -0.31850987652E+01 -0.24323597734E+01 -0.36481068997E+02  0.36700539824E+02  0.00000000000E+00 0.  1.
</event>
<event>
 7    1  0.1716782E-015  0.9000769E+02  0.7816164E-02  0.1186339E+00
        -11   -1    0    0    0    0  0.00000000000E+00  0.00000000000E+00  0.45593999997E+02  0.45594000000E+02  0.51100000000E-03 0. -1.
         11   -1    0    0    0    0 -0.00000000000E+00 -0.00000000000E+00 -0.45593999997E+02  0.45594000000E+02  0.51100000000E-03 0.  1.
    9900012    2    1    2    0    0 -0.10292288995E+01  0.51842488427E+00 -0.25504674129E+00  0.90007692697E+02  0.89999953441E+02 0.  0.
        -12    1    1    2    0    0  0.10292288995E+01 -0.51842488427E+00  0.25504674129E+00  0.11803073025E+01  0.00000000000E+00 0.  1.
         11    1    3    3    0    0 -0.61188953572E+01 -0.34292581843E+02 -0.65129679765E+01  0.35437844206E+02  0.51100000000E-03 0. -1.
        -11    1    3    3    0    0  0.23074524737E+01 -0.88524910412E+01 -0.34086186912E+01  0.97626644005E+01  0.51100000000E-03 0.  1.
        -12    1    3    3    0    0  0.27822139841E+01  0.43663497768E+02  0.96665399264E+01  0.44807184091E+02  0.00000000000E+00 0.  1.
</event>
<event>
 7    1  0.1716782E-015  0.9000745E+02  0.7816164E-02  0.1186340E+00
        -11   -1    0    0    0    0  0.00000000000E+00  0.00000000000E+00  0.45593999997E+02  0.45594000000E+02  0.51100000000E-03 0. -1.
         11   -1    0    0    0    0 -0.00000000000E+00 -0.00000000000E+00 -0.45593999997E+02  0.45594000000E+02  0.51100000000E-03 0.  1.
    9900012    2    1    2    0    0 -0.10205902925E+01  0.15905146795E+00 -0.57165303269E+00  0.90007453896E+02  0.89999711487E+02 0.  0.
        -12    1    1    2    0    0  0.10205902925E+01 -0.15905146795E+00  0.57165303269E+00  0.11805461043E+01  0.00000000000E+00 0.  1.
         11    1    3    3    0    0  0.18072107388E+01  0.16364201032E+02 -0.19342059502E+02  0.25400164411E+02  0.51100000000E-03 0. -1.
        -11    1    3    3    0    0  0.25788633108E+02 -0.19235540405E+02  0.44959588522E+01  0.32484969732E+02  0.51100000000E-03 0.  1.
        -12    1    3    3    0    0 -0.28616434140E+02  0.30303908411E+01  0.14274447617E+02  0.32122319753E+02  0.00000000000E+00 0.  1.
</event>
<event>
 7    1  0.1716782E-015  0.9000772E+02  0.7816164E-02  0.1186339E+00
        -11   -1    0    0    0    0  0.00000000000E+00  0.00000000000E+00  0.45593999997E+02  0.45594000000E+02  0.51100000000E-03 0. -1.
         11   -1    0    0    0    0 -0.00000000000E+00 -0.00000000000E+00 -0.45593999997E+02  0.45594000000E+02  0.51100000000E-03 0.  1.
    9900012    2    1    2    0    0 -0.88203212124E+00 -0.49472319166E+00  0.60855185149E+00  0.90007717383E+02  0.89999978453E+02 0.  0.
        -12    1    1    2    0    0  0.88203212124E+00  0.49472319166E+00 -0.60855185149E+00  0.11802826167E+01  0.00000000000E+00 0.  1.
         11    1    3    3    0    0 -0.45195736449E+00 -0.21854303242E+01 -0.96188459094E+01  0.98743388665E+01  0.51100000000E-03 0. -1.
        -11    1    3    3    0    0  0.20077955512E+02 -0.31521208764E+02  0.16040373382E+02  0.40669453869E+02  0.51100000000E-03 0.  1.
         12    1    3    3    0    0 -0.20508030269E+02  0.33211915897E+02 -0.58129756212E+01  0.39463924648E+02  0.00000000000E+00 0. -1.
</event>
<event>
 7    1  0.1716782E-015  0.9000769E+02  0.7816164E-02  0.1186339E+00
        -11   -1    0    0    0    0  0.00000000000E+00  0.00000000000E+00  0.45593999997E+02  0.45594000000E+02  0.51100000000E-03 0.  1.
         11   -1    0    0    0    0 -0.00000000000E+00 -0.00000000000E+00 -0.45593999997E+02  0.45594000000E+02  0.51100000000E-03 0. -1.
    9900012    2    1    2    0    0 -0.76370931556E+00 -0.65979150634E+00 -0.61201814111E+00  0.90007685230E+02  0.89999945875E+02 0.  0.
        -12    1    1    2    0    0  0.76370931556E+00  0.65979150634E+00  0.61201814111E+00  0.11803147697E+01  0.00000000000E+00 0.  1.
         11    1    3    3    0    0  0.12810240974E+01  0.23029070707E+01  0.95639488436E+01  0.99203589379E+01  0.51100000000E-03 0. -1.
        -11    1    3    3    0    0 -0.28672518948E+02  0.37712713984E+01  0.23047952445E+02  0.36980318319E+02  0.51100000000E-03 0.  1.
         12    1    3    3    0    0  0.26627785535E+02 -0.67339699754E+01 -0.33223919430E+02  0.43107007973E+02  0.00000000000E+00 0. -1.
</event>
<event>
 7    1  0.1716782E-015  0.9000702E+02  0.7816164E-02  0.1186340E+00
        -11   -1    0    0    0    0  0.00000000000E+00  0.00000000000E+00  0.45593999997E+02  0.45594000000E+02  0.51100000000E-03 0. -1.
         11   -1    0    0    0    0 -0.00000000000E+00 -0.00000000000E+00 -0.45593999997E+02  0.45594000000E+02  0.51100000000E-03 0.  1.
    9900012    2    1    2    0    0  0.78594571007E+00  0.86660774633E+00  0.16122814258E+00  0.90007019831E+02  0.89999271690E+02 0.  0.
        -12    1    1    2    0    0 -0.78594571007E+00 -0.86660774633E+00 -0.16122814258E+00  0.11809801688E+01  0.00000000000E+00 0.  1.
         11    1    3    3    0    0  0.45393575627E+01 -0.59709793795E+01  0.21102047366E+02  0.22395418396E+02  0.51100000000E-03 0. -1.
        -11    1    3    3    0    0 -0.10213397238E+02 -0.23384479901E+02  0.64449722750E+01  0.26318910526E+02  0.51100000000E-03 0.  1.
        -12    1    3    3    0    0  0.64599853858E+01  0.30222067027E+02 -0.27385791498E+02  0.41292690909E+02  0.00000000000E+00 0.  1.
</event>
<event>
 7    1  0.1716782E-015  0.9000771E+02  0.7816164E-02  0.1186339E+00
        -11   -1    0    0    0    0  0.00000000000E+00  0.00000000000E+00  0.45593999997E+02  0.45594000000E+02  0.51100000000E-03 0.  1.
         11   -1    0    0    0    0 -0.00000000000E+00 -0.00000000000E+00 -0.45593999997E+02  0.45594000000E+02  0.51100000000E-03 0. -1.
    9900012    2    1    2    0    0  0.42025149462E+00 -0.63478265508E+00 -0.90195728702E+00  0.90007708813E+02  0.89999969770E+02 0.  0.
        -12    1    1    2    0    0 -0.42025149462E+00  0.63478265508E+00  0.90195728702E+00  0.11802911868E+01  0.00000000000E+00 0.  1.
         11    1    3    3    0    0 -0.17296145713E+01 -0.12689309836E+01  0.79797768734E+01  0.82630860831E+01  0.51100000000E-03 0. -1.
        -11    1    3    3    0    0  0.23556927207E+02 -0.30795538121E+02  0.88759343490E+01  0.39775321475E+02  0.51100000000E-03 0.  1.
         12    1    3    3    0    0 -0.21407061141E+02  0.31429686449E+02 -0.17757668509E+02  0.41969301256E+02  0.00000000000E+00 0. -1.
</event>
<event>
 7    1  0.1716782E-015  0.9000772E+02  0.7816164E-02  0.1186339E+00
        -11   -1    0    0    0    0  0.00000000000E+00  0.00000000000E+00  0.45593999997E+02  0.45594000000E+02  0.51100000000E-03 0.  1.
         11   -1    0    0    0    0 -0.00000000000E+00 -0.00000000000E+00 -0.45593999997E+02  0.45594000000E+02  0.51100000000E-03 0. -1.
    9900012    2    1    2    0    0  0.19680919310E+00  0.11487949338E+01 -0.18600668897E+00  0.90007719463E+02  0.89999980560E+02 0.  0.
        -12    1    1    2    0    0 -0.19680919310E+00 -0.11487949338E+01  0.18600668897E+00  0.11802805373E+01  0.00000000000E+00 0.  1.
         11    1    3    3    0    0 -0.13808155083E-01 -0.90469786404E+01 -0.35475379084E+01  0.97176663175E+01  0.51100000000E-03 0. -1.
        -11    1    3    3    0    0 -0.18695223807E+02 -0.85793829912E+01 -0.30756202591E+02  0.37000827069E+02  0.51100000000E-03 0.  1.
         12    1    3    3    0    0  0.18905841156E+02  0.18775156565E+02  0.34117733811E+02  0.43289226076E+02  0.00000000000E+00 0. -1.
</event>
<event>
 7    1  0.1716782E-015  0.9000809E+02  0.7816164E-02  0.1186338E+00
        -11   -1    0    0    0    0  0.00000000000E+00  0.00000000000E+00  0.45593999997E+02  0.45594000000E+02  0.51100000000E-03 0. -1.
         11   -1    0    0    0    0 -0.00000000000E+00 -0.00000000000E+00 -0.45593999997E+02  0.45594000000E+02  0.51100000000E-03 0.  1.
    9900012    2    1    2    0    0 -0.29116864595E+00 -0.11181589712E+01  0.23899398824E+00  0.90008094584E+02  0.90000360631E+02 0.  0.
        -12    1    1    2    0    0  0.29116864595E+00  0.11181589712E+01 -0.23899398824E+00  0.11799054164E+01  0.00000000000E+00 0.  1.
         11    1    3    3    0    0  0.35562450595E+02  0.12524783417E+02  0.66468524486E+01  0.38284967542E+02  0.51100000000E-03 0. -1.
        -11    1    3    3    0    0  0.49808113319E+01 -0.57375352189E+01 -0.66991551330E+01  0.10129485262E+02  0.51100000000E-03 0.  1.
        -12    1    3    3    0    0 -0.40834430573E+02 -0.79054071691E+01  0.29129667265E+00  0.41593641780E+02  0.00000000000E+00 0.  1.
</event>
<event>
 7    1  0.1716782E-015  0.9000804E+02  0.7816164E-02  0.1186338E+00
        -11   -1    0    0    0    0  0.00000000000E+00  0.00000000000E+00  0.45593999997E+02  0.45594000000E+02  0.51100000000E-03 0.  1.
         11   -1    0    0    0    0 -0.00000000000E+00 -0.00000000000E+00 -0.45593999997E+02  0.45594000000E+02  0.51100000000E-03 0. -1.
    9900012    2    1    2    0    0  0.71368846930E+00  0.27235007352E+00 -0.89932805978E+00  0.90008035275E+02  0.90000300540E+02 0.  0.
        -12    1    1    2    0    0 -0.71368846930E+00 -0.27235007352E+00  0.89932805978E+00  0.11799647253E+01  0.00000000000E+00 0.  1.
         11    1    3    3    0    0 -0.12033020675E+02  0.22219511140E+02 -0.30252981663E+02  0.39417548904E+02  0.51100000000E-03 0. -1.
        -11    1    3    3    0    0 -0.13044082983E+01  0.29887587741E+01 -0.49415987942E+01  0.59206046078E+01  0.51100000000E-03 0.  1.
        -12    1    3    3    0    0  0.14051117442E+02 -0.24935919840E+02  0.34295252398E+02  0.44669881763E+02  0.00000000000E+00 0.  1.
</event>
<event>
 7    1  0.1716782E-015  0.9000771E+02  0.7816164E-02  0.1186339E+00
        -11   -1    0    0    0    0  0.00000000000E+00  0.00000000000E+00  0.45593999997E+02  0.45594000000E+02  0.51100000000E-03 0.  1.
         11   -1    0    0    0    0 -0.00000000000E+00 -0.00000000000E+00 -0.45593999997E+02  0.45594000000E+02  0.51100000000E-03 0. -1.
    9900012    2    1    2    0    0  0.22367700255E+00 -0.13529744236E+00 -0.11509807646E+01  0.90007706172E+02  0.89999967094E+02 0.  0.
        -12    1    1    2    0    0 -0.22367700255E+00  0.13529744236E+00  0.11509807646E+01  0.11802938278E+01  0.00000000000E+00 0.  1.
         11    1    3    3    0    0 -0.22317110534E+02  0.17568679235E+02 -0.25328354192E+02  0.38055714931E+02  0.51100000000E-03 0. -1.
        -11    1    3    3    0    0 -0.32457549118E+01 -0.40750585244E+01 -0.73456815545E+01  0.90055574334E+01  0.51100000000E-03 0.  1.
        -12    1    3    3    0    0  0.25786542448E+02 -0.13628918152E+02  0.31523054982E+02  0.42946433808E+02  0.00000000000E+00 0.  1.
</event>
<event>
 7    1  0.1716782E-015  0.9000773E+02  0.7816164E-02  0.1186339E+00
        -11   -1    0    0    0    0  0.00000000000E+00  0.00000000000E+00  0.45593999997E+02  0.45594000000E+02  0.51100000000E-03 0.  1.
         11   -1    0    0    0    0 -0.00000000000E+00 -0.00000000000E+00 -0.45593999997E+02  0.45594000000E+02  0.51100000000E-03 0. -1.
    9900012    2    1    2    0    0  0.84835946489E+00 -0.81920468671E+00  0.47124278832E-01  0.90007732743E+02  0.89999994015E+02 0.  0.
        -12    1    1    2    0    0 -0.84835946489E+00  0.81920468671E+00 -0.47124278832E-01  0.11802672570E+01  0.00000000000E+00 0.  1.
         11    1    3    3    0    0  0.12731569841E+02  0.78647318839E+01  0.11712063177E+02  0.19003139276E+02  0.51100000000E-03 0. -1.
        -11    1    3    3    0    0  0.21997676394E+02  0.12102509220E+02  0.84042001294E+01  0.26476387145E+02  0.51100000000E-03 0.  1.
         12    1    3    3    0    0 -0.33880886770E+02 -0.20786445790E+02 -0.20069139028E+02  0.44528206322E+02  0.00000000000E+00 0. -1.
</event>
<event>
 7    1  0.1716782E-015  0.9000775E+02  0.7816164E-02  0.1186339E+00
        -11   -1    0    0    0    0  0.00000000000E+00  0.00000000000E+00  0.45593999997E+02  0.45594000000E+02  0.51100000000E-03 0.  1.
         11   -1    0    0    0    0 -0.00000000000E+00 -0.00000000000E+00 -0.45593999997E+02  0.45594000000E+02  0.51100000000E-03 0. -1.
    9900012    2    1    2    0    0 -0.10755937145E+01 -0.48343807541E+00  0.48687549414E-01  0.90007752277E+02  0.90000013807E+02 0.  0.
        -12    1    1    2    0    0  0.10755937145E+01  0.48343807541E+00 -0.48687549414E-01  0.11802477235E+01  0.00000000000E+00 0.  1.
         11    1    3    3    0    0 -0.25345510055E+01 -0.20091224946E+02  0.22902437135E+02  0.30571275662E+02  0.51100000000E-03 0. -1.
        -11    1    3    3    0    0 -0.99837477612E+00 -0.13633759887E+01  0.15533644367E+02  0.15625288921E+02  0.51100000000E-03 0.  1.
         12    1    3    3    0    0  0.24573320671E+01  0.20971162860E+02 -0.38387393953E+02  0.43811187693E+02  0.00000000000E+00 0. -1.
</event>
<event>
 7    1  0.1716782E-015  0.9000776E+02  0.7816164E-02  0.1186339E+00
        -11   -1    0    0    0    0  0.00000000000E+00  0.00000000000E+00  0.45593999997E+02  0.45594000000E+02  0.51100000000E-03 0.  1.
         11   -1    0    0    0    0 -0.00000000000E+00 -0.00000000000E+00 -0.45593999997E+02  0.45594000000E+02  0.51100000000E-03 0. -1.
    9900012    2    1    2    0    0  0.20535248334E-01 -0.11799044555E+01 -0.19257284147E-01  0.90007759743E+02  0.90000021372E+02 0.  0.
        -12    1    1    2    0    0 -0.20535248334E-01  0.11799044555E+01  0.19257284147E-01  0.11802402567E+01  0.00000000000E+00 0.  1.
         11    1    3    3    0    0 -0.28950316481E+02 -0.35076537340E+01  0.28745207812E+02  0.40947666985E+02  0.51100000000E-03 0. -1.
        -11    1    3    3    0    0 -0.25643420010E+01  0.60514323138E+01 -0.10615151594E+02  0.12485076154E+02  0.51100000000E-03 0.  1.
        -12    1    3    3    0    0  0.31535193731E+02 -0.37236830353E+01 -0.18149313503E+02  0.36575016604E+02  0.00000000000E+00 0.  1.
</event>
<event>
 7    1  0.1716782E-015  0.9000772E+02  0.7816164E-02  0.1186339E+00
        -11   -1    0    0    0    0  0.00000000000E+00  0.00000000000E+00  0.45593999997E+02  0.45594000000E+02  0.51100000000E-03 0.  1.
         11   -1    0    0    0    0 -0.00000000000E+00 -0.00000000000E+00 -0.45593999997E+02  0.45594000000E+02  0.51100000000E-03 0. -1.
    9900012    2    1    2    0    0  0.17265116675E+00  0.96506631601E+00 -0.65719783938E+00  0.90007715958E+02  0.89999977009E+02 0.  0.
        -12    1    1    2    0    0 -0.17265116675E+00 -0.96506631601E+00  0.65719783938E+00  0.11802840420E+01  0.00000000000E+00 0.  1.
         11    1    3    3    0    0 -0.89873574022E+01 -0.60154861970E+01 -0.47811015124E+00  0.10825306316E+02  0.51100000000E-03 0. -1.
        -11    1    3    3    0    0 -0.17894222201E+02 -0.10942302914E+02  0.28831239802E+02  0.35653577240E+02  0.51100000000E-03 0.  1.
         12    1    3    3    0    0  0.27054230770E+02  0.17922855427E+02 -0.29010327490E+02  0.43528832402E+02  0.00000000000E+00 0. -1.
</event>
<event>
 7    1  0.1716782E-015  0.9000787E+02  0.7816164E-02  0.1186339E+00
        -11   -1    0    0    0    0  0.00000000000E+00  0.00000000000E+00  0.45593999997E+02  0.45594000000E+02  0.51100000000E-03 0. -1.
         11   -1    0    0    0    0 -0.00000000000E+00 -0.00000000000E+00 -0.45593999997E+02  0.45594000000E+02  0.51100000000E-03 0.  1.
    9900012    2    1    2    0    0 -0.47656526395E+00  0.61309539650E+00  0.88864983405E+00  0.90007873336E+02  0.90000136464E+02 0.  0.
        -12    1    1    2    0    0  0.47656526395E+00 -0.61309539650E+00 -0.88864983405E+00  0.11801266642E+01  0.00000000000E+00 0.  1.
         11    1    3    3    0    0  0.50033025142E+01 -0.70137411504E+01  0.46220067788E+01  0.97769395978E+01  0.51100000000E-03 0. -1.
        -11    1    3    3    0    0 -0.21795706201E+02 -0.30609608864E+02 -0.80698252391E+01  0.38433358469E+02  0.51100000000E-03 0.  1.
         12    1    3    3    0    0  0.16315838422E+02  0.38236445411E+02  0.43364682943E+01  0.41797575269E+02  0.00000000000E+00 0. -1.
</event>
<event>
 7    1  0.1716782E-015  0.9000772E+02  0.7816164E-02  0.1186339E+00
        -11   -1    0    0    0    0  0.00000000000E+00  0.00000000000E+00  0.45593999997E+02  0.45594000000E+02  0.51100000000E-03 0. -1.
         11   -1    0    0    0    0 -0.00000000000E+00 -0.00000000000E+00 -0.45593999997E+02  0.45594000000E+02  0.51100000000E-03 0.  1.
    9900012    2    1    2    0    0 -0.54538329222E+00  0.10007270484E+01  0.30684816418E+00  0.90007723186E+02  0.89999984332E+02 0.  0.
        -12    1    1    2    0    0  0.54538329222E+00 -0.10007270484E+01 -0.30684816418E+00  0.11802768136E+01  0.00000000000E+00 0.  1.
         11    1    3    3    0    0 -0.69087196994E+01  0.19689618024E+01 -0.69408185269E+01  0.99891030903E+01  0.51100000000E-03 0. -1.
        -11    1    3    3    0    0  0.26924640351E+01  0.13924834039E+02 -0.33554376213E+02  0.36428649837E+02  0.51100000000E-03 0.  1.
         12    1    3    3    0    0  0.36708723720E+01 -0.14893068793E+02  0.40802042904E+02  0.43589970259E+02  0.00000000000E+00 0. -1.
</event>
<event>
 7    1  0.1747126E-015  0.9000742E+02  0.7816164E-02  0.1186340E+00
        -11   -1    0    0    0    0  0.00000000000E+00  0.00000000000E+00  0.45593999997E+02  0.45594000000E+02  0.51100000000E-03 0. -1.
         11   -1    0    0    0    0 -0.00000000000E+00 -0.00000000000E+00 -0.45593999997E+02  0.45594000000E+02  0.51100000000E-03 0.  1.
    9900012    2    1    2    0    0 -0.40079026054E-03 -0.10152500408E+01  0.60253416852E+00  0.90007415302E+02  0.89999672383E+02 0.  0.
        -12    1    1    2    0    0  0.40079026054E-03  0.10152500408E+01 -0.60253416852E+00  0.11805846984E+01  0.00000000000E+00 0.  1.
         11    1    3    3    0    0 -0.91918150977E+01  0.14744566256E+02  0.34077454540E+02  0.38251334710E+02  0.51100000000E-03 0. -1.
        -11    1    3    3    0    0 -0.15875909522E+00  0.89786227257E+01  0.14464340230E+00  0.89811910388E+01  0.51100000000E-03 0.  1.
        -12    1    3    3    0    0  0.93501734027E+01 -0.24738439022E+02 -0.33619563774E+02  0.42774889553E+02  0.00000000000E+00 0.  1.
</event>
<event>
 7    1  0.1716782E-015  0.9000774E+02  0.7816164E-02  0.1186339E+00
        -11   -1    0    0    0    0  0.00000000000E+00  0.00000000000E+00  0.45593999997E+02  0.45594000000E+02  0.51100000000E-03 0.  1.
         11   -1    0    0    0    0 -0.00000000000E+00 -0.00000000000E+00 -0.45593999997E+02  0.45594000000E+02  0.51100000000E-03 0. -1.
    9900012    2    1    2    0    0  0.36259775224E-01 -0.85739782833E+00  0.81029300420E+00  0.90007737080E+02  0.89999998410E+02 0.  0.
        -12    1    1    2    0    0 -0.36259775224E-01  0.85739782833E+00 -0.81029300420E+00  0.11802629199E+01  0.00000000000E+00 0.  1.
         11    1    3    3    0    0  0.10764785889E+01 -0.85303850877E+01  0.33008407254E+01  0.92098765275E+01  0.51100000000E-03 0. -1.
        -11    1    3    3    0    0 -0.37323720237E+02  0.19904409819E+02 -0.39259693772E+01  0.42481276562E+02  0.51100000000E-03 0.  1.
         12    1    3    3    0    0  0.36283501423E+02 -0.12231422560E+02  0.14354216560E+01  0.38316583990E+02  0.00000000000E+00 0. -1.
</event>
<event>
 7    1  0.1716782E-015  0.9000763E+02  0.7816164E-02  0.1186339E+00
        -11   -1    0    0    0    0  0.00000000000E+00  0.00000000000E+00  0.45593999997E+02  0.45594000000E+02  0.51100000000E-03 0.  1.
         11   -1    0    0    0    0 -0.00000000000E+00 -0.00000000000E+00 -0.45593999997E+02  0.45594000000E+02  0.51100000000E-03 0. -1.
    9900012    2    1    2    0    0 -0.47396355645E+00  0.82242888728E+00 -0.70160654304E+00  0.90007626132E+02  0.89999885997E+02 0.  0.
        -12    1    1    2    0    0  0.47396355645E+00 -0.82242888728E+00  0.70160654304E+00  0.11803738682E+01  0.00000000000E+00 0.  1.
         11    1    3    3    0    0 -0.77595062559E+01  0.33718272324E+01 -0.38902729382E+01  0.93120019338E+01  0.51100000000E-03 0. -1.
        -11    1    3    3    0    0 -0.30306808755E+00  0.34690055827E+02  0.18976082341E+02  0.39542174003E+02  0.51100000000E-03 0.  1.
         12    1    3    3    0    0  0.75886107870E+01 -0.37239454172E+02 -0.15787415946E+02  0.41153450195E+02  0.00000000000E+00 0. -1.
</event>
<event>
 7    1  0.1716782E-015  0.9000762E+02  0.7816164E-02  0.1186339E+00
        -11   -1    0    0    0    0  0.00000000000E+00  0.00000000000E+00  0.45593999997E+02  0.45594000000E+02  0.51100000000E-03 0.  1.
         11   -1    0    0    0    0 -0.00000000000E+00 -0.00000000000E+00 -0.45593999997E+02  0.45594000000E+02  0.51100000000E-03 0. -1.
    9900012    2    1    2    0    0 -0.33633509343E+00 -0.10440414856E+01  0.43605186908E+00  0.90007624995E+02  0.89999884845E+02 0.  0.
        -12    1    1    2    0    0  0.33633509343E+00  0.10440414856E+01 -0.43605186908E+00  0.11803750045E+01  0.00000000000E+00 0.  1.
         11    1    3    3    0    0  0.10906139365E+02  0.13145159846E+01 -0.18861498900E+01  0.11145823873E+02  0.51100000000E-03 0. -1.
        -11    1    3    3    0    0  0.24448698805E+02 -0.21759137086E+02  0.15419386982E+02  0.36179502694E+02  0.51100000000E-03 0.  1.
         12    1    3    3    0    0 -0.35691173264E+02  0.19400579616E+02 -0.13097185223E+02  0.42682298429E+02  0.00000000000E+00 0. -1.
</event>
<event>
 7    1  0.1716782E-015  0.9000782E+02  0.7816164E-02  0.1186339E+00
        -11   -1    0    0    0    0  0.00000000000E+00  0.00000000000E+00  0.45593999997E+02  0.45594000000E+02  0.51100000000E-03 0.  1.
         11   -1    0    0    0    0 -0.00000000000E+00 -0.00000000000E+00 -0.45593999997E+02  0.45594000000E+02  0.51100000000E-03 0. -1.
    9900012    2    1    2    0    0  0.44203923316E+00  0.10487767348E+01  0.31223008204E+00  0.90007822493E+02  0.90000084950E+02 0.  0.
        -12    1    1    2    0    0 -0.44203923316E+00 -0.10487767348E+01 -0.31223008204E+00  0.11801775067E+01  0.00000000000E+00 0.  1.
         11    1    3    3    0    0  0.96724909768E+00 -0.65076023713E+01 -0.50803236966E+01  0.83122890086E+01  0.51100000000E-03 0. -1.
        -11    1    3    3    0    0  0.36023818481E+02 -0.13963087212E+02 -0.17960861486E+01  0.38676985769E+02  0.51100000000E-03 0.  1.
         12    1    3    3    0    0 -0.36549028345E+02  0.21519466318E+02  0.71886399272E+01  0.43018547716E+02  0.00000000000E+00 0. -1.
</event>
<event>
 7    1  0.1716782E-015  0.9000764E+02  0.7816164E-02  0.1186339E+00
        -11   -1    0    0    0    0  0.00000000000E+00  0.00000000000E+00  0.45593999997E+02  0.45594000000E+02  0.51100000000E-03 0.  1.
         11   -1    0    0    0    0 -0.00000000000E+00 -0.00000000000E+00 -0.45593999997E+02  0.45594000000E+02  0.51100000000E-03 0. -1.
    9900012    2    1    2    0    0  0.79175531784E-01 -0.11773204998E+01  0.29852579247E-01  0.90007642639E+02  0.89999902721E+02 0.  0.
        -12    1    1    2    0    0 -0.79175531784E-01  0.11773204998E+01 -0.29852579247E-01  0.11803573613E+01  0.00000000000E+00 0.  1.
         11    1    3    3    0    0  0.19856272460E+01 -0.72327976888E+01  0.47200334670E+01  0.88619859038E+01  0.51100000000E-03 0. -1.
        -11    1    3    3    0    0 -0.34636839448E+02  0.20730893314E+02  0.11232623980E+02  0.41900506277E+02  0.51100000000E-03 0.  1.
         12    1    3    3    0    0  0.32730387734E+02 -0.14675416125E+02 -0.15922804868E+02  0.39245150458E+02  0.00000000000E+00 0. -1.
</event>
<event>
 7    1  0.1716782E-015  0.9000773E+02  0.7816164E-02  0.1186339E+00
        -11   -1    0    0    0    0  0.00000000000E+00  0.00000000000E+00  0.45593999997E+02  0.45594000000E+02  0.51100000000E-03 0. -1.
         11   -1    0    0    0    0 -0.00000000000E+00 -0.00000000000E+00 -0.45593999997E+02  0.45594000000E+02  0.51100000000E-03 0.  1.
    9900012    2    1    2    0    0  0.86639496211E+00 -0.61680496840E+00  0.51180759002E+00  0.90007730705E+02  0.89999991950E+02 0.  0.
        -12    1    1    2    0    0 -0.86639496211E+00  0.61680496840E+00 -0.51180759002E+00  0.11802692950E+01  0.00000000000E+00 0.  1.
         11    1    3    3    0    0  0.87571837194E+01  0.25462452546E+02  0.19461502694E+02  0.33223107075E+02  0.51100000000E-03 0. -1.
        -11    1    3    3    0    0  0.10389004847E+01  0.66728053997E+01  0.10069402591E+02  0.12124294409E+02  0.51100000000E-03 0.  1.
        -12    1    3    3    0    0 -0.89296892421E+01 -0.32752062914E+02 -0.29019097695E+02  0.44660329221E+02  0.00000000000E+00 0.  1.
</event>
<event>
 7    1  0.1716782E-015  0.9000774E+02  0.7816164E-02  0.1186339E+00
        -11   -1    0    0    0    0  0.00000000000E+00  0.00000000000E+00  0.45593999997E+02  0.45594000000E+02  0.51100000000E-03 0. -1.
         11   -1    0    0    0    0 -0.00000000000E+00 -0.00000000000E+00 -0.45593999997E+02  0.45594000000E+02  0.51100000000E-03 0.  1.
    9900012    2    1    2    0    0 -0.43681432607E+00 -0.62561771364E+00  0.90044519116E+00  0.90007743324E+02  0.90000004736E+02 0.  0.
        -12    1    1    2    0    0  0.43681432607E+00  0.62561771364E+00 -0.90044519116E+00  0.11802566761E+01  0.00000000000E+00 0.  1.
         11    1    3    3    0    0 -0.33369503637E+01  0.11033524375E+02  0.33352691208E+02  0.35288467081E+02  0.51100000000E-03 0. -1.
        -11    1    3    3    0    0  0.21038881149E+00 -0.83191124413E+00  0.10401656995E+02  0.10436992300E+02  0.51100000000E-03 0.  1.
        -12    1    3    3    0    0  0.26897472262E+01 -0.10827230844E+02 -0.42853903012E+02  0.44282283943E+02  0.00000000000E+00 0.  1.
</event>
<event>
 7    1  0.1716782E-015  0.9000759E+02  0.7816164E-02  0.1186339E+00
        -11   -1    0    0    0    0  0.00000000000E+00  0.00000000000E+00  0.45593999997E+02  0.45594000000E+02  0.51100000000E-03 0. -1.
         11   -1    0    0    0    0 -0.00000000000E+00 -0.00000000000E+00 -0.45593999997E+02  0.45594000000E+02  0.51100000000E-03 0.  1.
    9900012    2    1    2    0    0  0.71160950548E-01  0.11398372963E+01  0.29843813279E+00  0.90007594027E+02  0.89999853468E+02 0.  0.
        -12    1    1    2    0    0 -0.71160950548E-01 -0.11398372963E+01 -0.29843813279E+00  0.11804059734E+01  0.00000000000E+00 0.  1.
         11    1    3    3    0    0  0.11208225100E+02 -0.11164214382E+02  0.28700552884E+02  0.32771721480E+02  0.51100000000E-03 0. -1.
        -11    1    3    3    0    0  0.18567964491E+01 -0.45314763199E+01  0.11233894770E+02  0.12254891376E+02  0.51100000000E-03 0.  1.
        -12    1    3    3    0    0 -0.12993860599E+02  0.16835527998E+02 -0.39636009521E+02  0.44980981170E+02  0.00000000000E+00 0.  1.
</event>
<event>
 7    1  0.1716782E-015  0.9000772E+02  0.7816164E-02  0.1186339E+00
        -11   -1    0    0    0    0  0.00000000000E+00  0.00000000000E+00  0.45593999997E+02  0.45594000000E+02  0.51100000000E-03 0. -1.
         11   -1    0    0    0    0 -0.00000000000E+00 -0.00000000000E+00 -0.45593999997E+02  0.45594000000E+02  0.51100000000E-03 0.  1.
    9900012    2    1    2    0    0 -0.97368278446E-01 -0.62926918689E+00  0.99378264062E+00  0.90007718581E+02  0.89999979666E+02 0.  0.
        -12    1    1    2    0    0  0.97368278446E-01  0.62926918689E+00 -0.99378264062E+00  0.11802814190E+01  0.00000000000E+00 0.  1.
         11    1    3    3    0    0 -0.79922347600E+01 -0.12001987423E+02  0.14401201046E+02  0.20379355004E+02  0.51100000000E-03 0. -1.
        -11    1    3    3    0    0  0.14899533330E+02 -0.19075291342E+02 -0.26377406642E+02  0.35799866126E+02  0.51100000000E-03 0.  1.
        -12    1    3    3    0    0 -0.70046668480E+01  0.30448009578E+02  0.12969988237E+02  0.33828497451E+02  0.00000000000E+00 0.  1.
</event>
<event>
 7    1  0.1716782E-015  0.9000777E+02  0.7816164E-02  0.1186339E+00
        -11   -1    0    0    0    0  0.00000000000E+00  0.00000000000E+00  0.45593999997E+02  0.45594000000E+02  0.51100000000E-03 0.  1.
         11   -1    0    0    0    0 -0.00000000000E+00 -0.00000000000E+00 -0.45593999997E+02  0.45594000000E+02  0.51100000000E-03 0. -1.
    9900012    2    1    2    0    0 -0.65075751339E+00  0.75854735473E+00 -0.62774505309E+00  0.90007769818E+02  0.90000031580E+02 0.  0.
        -12    1    1    2    0    0  0.65075751339E+00 -0.75854735473E+00  0.62774505309E+00  0.11802301819E+01  0.00000000000E+00 0.  1.
         11    1    3    3    0    0 -0.37205502828E+02 -0.14702268553E+02 -0.79095882008E+01  0.40779501309E+02  0.51100000000E-03 0. -1.
        -11    1    3    3    0    0  0.54057286117E+01 -0.57627562940E+01 -0.52740025514E+01  0.94998086875E+01  0.51100000000E-03 0.  1.
        -12    1    3    3    0    0  0.31149016703E+02  0.21223572202E+02  0.12555845699E+02  0.39728459821E+02  0.00000000000E+00 0.  1.
</event>
<event>
 7    1  0.1716782E-015  0.9000774E+02  0.7816164E-02  0.1186339E+00
        -11   -1    0    0    0    0  0.00000000000E+00  0.00000000000E+00  0.45593999997E+02  0.45594000000E+02  0.51100000000E-03 0.  1.
         11   -1    0    0    0    0 -0.00000000000E+00 -0.00000000000E+00 -0.45593999997E+02  0.45594000000E+02  0.51100000000E-03 0. -1.
    9900012    2    1    2    0    0  0.10101074197E+01  0.11762145094E+00 -0.59904491201E+00  0.90007742989E+02  0.90000004397E+02 0.  0.
        -12    1    1    2    0    0 -0.10101074197E+01 -0.11762145094E+00  0.59904491201E+00  0.11802570109E+01  0.00000000000E+00 0.  1.
         11    1    3    3    0    0  0.28034434670E+01  0.42475918448E+02 -0.81609357962E+01  0.43343555653E+02  0.51100000000E-03 0. -1.
        -11    1    3    3    0    0  0.22042268480E+01 -0.10841952143E+02 -0.54507715127E+01  0.12333590419E+02  0.51100000000E-03 0.  1.
        -12    1    3    3    0    0 -0.39975628952E+01 -0.31516344854E+02  0.13012662397E+02  0.34330596918E+02  0.00000000000E+00 0.  1.
</event>
<event>
 7    1  0.1716782E-015  0.9000759E+02  0.7816164E-02  0.1186339E+00
        -11   -1    0    0    0    0  0.00000000000E+00  0.00000000000E+00  0.45593999997E+02  0.45594000000E+02  0.51100000000E-03 0.  1.
         11   -1    0    0    0    0 -0.00000000000E+00 -0.00000000000E+00 -0.45593999997E+02  0.45594000000E+02  0.51100000000E-03 0. -1.
    9900012    2    1    2    0    0  0.20337544137E+00 -0.11442370784E+01 -0.20669773355E+00  0.90007591590E+02  0.89999850999E+02 0.  0.
        -12    1    1    2    0    0 -0.20337544137E+00  0.11442370784E+01  0.20669773355E+00  0.11804084102E+01  0.00000000000E+00 0.  1.
         11    1    3    3    0    0  0.25535731296E+02  0.10520612840E+02  0.31470416035E+02  0.41870561891E+02  0.51100000000E-03 0. -1.
        -11    1    3    3    0    0 -0.76961449121E+00 -0.95555831711E+01 -0.24379046219E+01  0.98916558478E+01  0.51100000000E-03 0.  1.
        -12    1    3    3    0    0 -0.24562741364E+02 -0.21092667475E+01 -0.29239209147E+02  0.38245373851E+02  0.00000000000E+00 0.  1.
</event>
<event>
 7    1  0.1716782E-015  0.9000786E+02  0.7816164E-02  0.1186339E+00
        -11   -1    0    0    0    0  0.00000000000E+00  0.00000000000E+00  0.45593999997E+02  0.45594000000E+02  0.51100000000E-03 0. -1.
         11   -1    0    0    0    0 -0.00000000000E+00 -0.00000000000E+00 -0.45593999997E+02  0.45594000000E+02  0.51100000000E-03 0.  1.
    9900012    2    1    2    0    0 -0.59063898219E+00  0.56855245969E-01  0.10201160515E+01  0.90007862853E+02  0.90000125843E+02 0.  0.
        -12    1    1    2    0    0  0.59063898219E+00 -0.56855245969E-01 -0.10201160515E+01  0.11801371466E+01  0.00000000000E+00 0.  1.
         11    1    3    3    0    0  0.17045629062E+02  0.27384321131E+02  0.20968928438E+02  0.38472723767E+02  0.51100000000E-03 0. -1.
        -11    1    3    3    0    0  0.94242399756E+01 -0.66489677825E+00 -0.51948977624E+01  0.10781713679E+02  0.51100000000E-03 0.  1.
        -12    1    3    3    0    0 -0.27060508020E+02 -0.26662569107E+02 -0.14753914624E+02  0.40753425407E+02  0.00000000000E+00 0.  1.
</event>
<event>
 7    1  0.1716782E-015  0.9000777E+02  0.7816164E-02  0.1186339E+00
        -11   -1    0    0    0    0  0.00000000000E+00  0.00000000000E+00  0.45593999997E+02  0.45594000000E+02  0.51100000000E-03 0.  1.
         11   -1    0    0    0    0 -0.00000000000E+00 -0.00000000000E+00 -0.45593999997E+02  0.45594000000E+02  0.51100000000E-03 0. -1.
    9900012    2    1    2    0    0  0.67072949465E+00  0.48895184182E+00 -0.83904253272E+00  0.90007769374E+02  0.90000031130E+02 0.  0.
        -12    1    1    2    0    0 -0.67072949465E+00 -0.48895184182E+00  0.83904253272E+00  0.11802306259E+01  0.00000000000E+00 0.  1.
         11    1    3    3    0    0  0.82285103067E+01  0.21736837562E+01  0.20268270972E+01  0.87487891324E+01  0.51100000000E-03 0. -1.
        -11    1    3    3    0    0 -0.19926465868E+02 -0.16883713896E+02  0.31974761140E+02  0.41285701970E+02  0.51100000000E-03 0.  1.
         12    1    3    3    0    0  0.12368685056E+02  0.15198981982E+02 -0.34840630770E+02  0.39973278272E+02  0.00000000000E+00 0. -1.
</event>
<event>
 7    1  0.1716782E-015  0.9000771E+02  0.7816164E-02  0.1186339E+00
        -11   -1    0    0    0    0  0.00000000000E+00  0.00000000000E+00  0.45593999997E+02  0.45594000000E+02  0.51100000000E-03 0.  1.
         11   -1    0    0    0    0 -0.00000000000E+00 -0.00000000000E+00 -0.45593999997E+02  0.45594000000E+02  0.51100000000E-03 0. -1.
    9900012    2    1    2    0    0  0.33904075001E+00 -0.87196948071E+00  0.71959193707E+00  0.90007706832E+02  0.89999967763E+02 0.  0.
        -12    1    1    2    0    0 -0.33904075001E+00  0.87196948071E+00 -0.71959193707E+00  0.11802931675E+01  0.00000000000E+00 0.  1.
         11    1    3    3    0    0  0.63458868238E+01  0.42787816926E+01  0.39296365214E+01  0.86035048558E+01  0.51100000000E-03 0. -1.
        -11    1    3    3    0    0  0.70540723961E+01 -0.34320202541E+01  0.37657496030E+02  0.38465903185E+02  0.51100000000E-03 0.  1.
         12    1    3    3    0    0 -0.13060918470E+02 -0.17187309192E+01 -0.40867540614E+02  0.42938298791E+02  0.00000000000E+00 0. -1.
</event>
<event>
 7    1  0.1716782E-015  0.9000769E+02  0.7816164E-02  0.1186339E+00
        -11   -1    0    0    0    0  0.00000000000E+00  0.00000000000E+00  0.45593999997E+02  0.45594000000E+02  0.51100000000E-03 0. -1.
         11   -1    0    0    0    0 -0.00000000000E+00 -0.00000000000E+00 -0.45593999997E+02  0.45594000000E+02  0.51100000000E-03 0.  1.
    9900012    2    1    2    0    0  0.71160818575E+00  0.17880463624E+00  0.92453901896E+00  0.90007690843E+02  0.89999951562E+02 0.  0.
        -12    1    1    2    0    0 -0.71160818575E+00 -0.17880463624E+00 -0.92453901896E+00  0.11803091568E+01  0.00000000000E+00 0.  1.
         11    1    3    3    0    0 -0.54817205150E+01 -0.14117723812E+02  0.14240369083E+02  0.20788157622E+02  0.51100000000E-03 0. -1.
        -11    1    3    3    0    0  0.19026844132E+02 -0.15887638823E+02  0.12234814270E+02  0.27642875131E+02  0.51100000000E-03 0.  1.
         12    1    3    3    0    0 -0.12833515432E+02  0.30184167271E+02 -0.25550644334E+02  0.41576658091E+02  0.00000000000E+00 0. -1.
</event>
<event>
 7    1  0.1716782E-015  0.9000773E+02  0.7816164E-02  0.1186339E+00
        -11   -1    0    0    0    0  0.00000000000E+00  0.00000000000E+00  0.45593999997E+02  0.45594000000E+02  0.51100000000E-03 0. -1.
         11   -1    0    0    0    0 -0.00000000000E+00 -0.00000000000E+00 -0.45593999997E+02  0.45594000000E+02  0.51100000000E-03 0.  1.
    9900012    2    1    2    0    0  0.32020415232E+00 -0.31419696942E+00  0.10916935212E+01  0.90007726651E+02  0.89999987843E+02 0.  0.
        -12    1    1    2    0    0 -0.32020415232E+00  0.31419696942E+00 -0.10916935212E+01  0.11802733493E+01  0.00000000000E+00 0.  1.
         11    1    3    3    0    0  0.15771608473E+02  0.35718758750E+02  0.65331139210E+01  0.39588570803E+02  0.51100000000E-03 0. -1.
        -11    1    3    3    0    0  0.16321887244E+00 -0.59843439083E+01  0.11190931910E+02  0.12691570812E+02  0.51100000000E-03 0.  1.
        -12    1    3    3    0    0 -0.15614623193E+02 -0.30048611811E+02 -0.16632352310E+02  0.37727585035E+02  0.00000000000E+00 0.  1.
</event>
<event>
 7    1  0.1716782E-015  0.9000759E+02  0.7816164E-02  0.1186339E+00
        -11   -1    0    0    0    0  0.00000000000E+00  0.00000000000E+00  0.45593999997E+02  0.45594000000E+02  0.51100000000E-03 0.  1.
         11   -1    0    0    0    0 -0.00000000000E+00 -0.00000000000E+00 -0.45593999997E+02  0.45594000000E+02  0.51100000000E-03 0. -1.
    9900012    2    1    2    0    0  0.70974619889E+00 -0.65942698647E+00 -0.67437513196E+00  0.90007590988E+02  0.89999850389E+02 0.  0.
        -12    1    1    2    0    0 -0.70974619889E+00  0.65942698647E+00  0.67437513196E+00  0.11804090121E+01  0.00000000000E+00 0.  1.
         11    1    3    3    0    0  0.37194971837E+02  0.14273910903E+01  0.49112053789E+01  0.37544950576E+02  0.51100000000E-03 0. -1.
        -11    1    3    3    0    0  0.44471812823E+01  0.44185432968E+01  0.67574703938E+01  0.92176110033E+01  0.51100000000E-03 0.  1.
        -12    1    3    3    0    0 -0.40932406920E+02 -0.65053613736E+01 -0.12343050905E+02  0.43245029408E+02  0.00000000000E+00 0.  1.
</event>
<event>
 7    1  0.1716782E-015  0.9000775E+02  0.7816164E-02  0.1186339E+00
        -11   -1    0    0    0    0  0.00000000000E+00  0.00000000000E+00  0.45593999997E+02  0.45594000000E+02  0.51100000000E-03 0. -1.
         11   -1    0    0    0    0 -0.00000000000E+00 -0.00000000000E+00 -0.45593999997E+02  0.45594000000E+02  0.51100000000E-03 0.  1.
    9900012    2    1    2    0    0 -0.14295414164E-01 -0.50967134325E+00  0.10644368050E+01  0.90007747930E+02  0.90000009403E+02 0.  0.
        -12    1    1    2    0    0  0.14295414164E-01  0.50967134325E+00 -0.10644368050E+01  0.11802520700E+01  0.00000000000E+00 0.  1.
         11    1    3    3    0    0  0.19774814983E+02 -0.45911062205E+01 -0.57306294632E+01  0.21094114777E+02  0.51100000000E-03 0. -1.
        -11    1    3    3    0    0  0.21718302692E+02 -0.54591129532E+01 -0.80709497256E+01  0.23803924378E+02  0.51100000000E-03 0.  1.
         12    1    3    3    0    0 -0.41507413089E+02  0.95405478305E+01  0.14866015994E+02  0.45109708775E+02  0.00000000000E+00 0. -1.
</event>
<event>
 7    1  0.1716782E-015  0.9000785E+02  0.7816164E-02  0.1186339E+00
        -11   -1    0    0    0    0  0.00000000000E+00  0.00000000000E+00  0.45593999997E+02  0.45594000000E+02  0.51100000000E-03 0. -1.
         11   -1    0    0    0    0 -0.00000000000E+00 -0.00000000000E+00 -0.45593999997E+02  0.45594000000E+02  0.51100000000E-03 0.  1.
    9900012    2    1    2    0    0 -0.26370736454E+00  0.10440613929E+01  0.48285860183E+00  0.90007848232E+02  0.90000111029E+02 0.  0.
        -12    1    1    2    0    0  0.26370736454E+00 -0.10440613929E+01 -0.48285860183E+00  0.11801517680E+01  0.00000000000E+00 0.  1.
         11    1    3    3    0    0  0.72726910976E+00 -0.38881200510E+02 -0.14076264979E+02  0.41357199004E+02  0.51100000000E-03 0. -1.
        -11    1    3    3    0    0 -0.64230311358E+01  0.31737767565E+00  0.16445048693E+01  0.66378049148E+01  0.51100000000E-03 0.  1.
        -12    1    3    3    0    0  0.54320546615E+01  0.39607884227E+02  0.12914618711E+02  0.42012844313E+02  0.00000000000E+00 0.  1.
</event>
<event>
 7    1  0.1716782E-015  0.9000742E+02  0.7816164E-02  0.1186340E+00
        -11   -1    0    0    0    0  0.00000000000E+00  0.00000000000E+00  0.45593999997E+02  0.45594000000E+02  0.51100000000E-03 0.  1.
         11   -1    0    0    0    0 -0.00000000000E+00 -0.00000000000E+00 -0.45593999997E+02  0.45594000000E+02  0.51100000000E-03 0. -1.
    9900012    2    1    2    0    0  0.95980923659E+00  0.42601163329E+00  0.53948531518E+00  0.90007422138E+02  0.89999679310E+02 0.  0.
        -12    1    1    2    0    0 -0.95980923659E+00 -0.42601163329E+00 -0.53948531518E+00  0.11805778617E+01  0.00000000000E+00 0.  1.
         11    1    3    3    0    0  0.71190509909E+01 -0.18205928173E+02  0.57326557587E+00  0.19556721129E+02  0.51100000000E-03 0. -1.
        -11    1    3    3    0    0  0.30726136397E+02  0.54546165443E+01 -0.16362981758E+01  0.31249412339E+02  0.51100000000E-03 0.  1.
         12    1    3    3    0    0 -0.36885378151E+02  0.13177323262E+02  0.16025179151E+01  0.39201288670E+02  0.00000000000E+00 0. -1.
</event>
<event>
 7    1  0.1716782E-015  0.9000766E+02  0.7816164E-02  0.1186339E+00
        -11   -1    0    0    0    0  0.00000000000E+00  0.00000000000E+00  0.45593999997E+02  0.45594000000E+02  0.51100000000E-03 0.  1.
         11   -1    0    0    0    0 -0.00000000000E+00 -0.00000000000E+00 -0.45593999997E+02  0.45594000000E+02  0.51100000000E-03 0. -1.
    9900012    2    1    2    0    0 -0.49569086517E+00 -0.83499235278E-01 -0.10679495218E+01  0.90007662024E+02  0.89999922363E+02 0.  0.
        -12    1    1    2    0    0  0.49569086517E+00  0.83499235278E-01  0.10679495218E+01  0.11803379759E+01  0.00000000000E+00 0.  1.
         11    1    3    3    0    0 -0.25843571718E+01  0.77359514110E+01 -0.59975403528E+01  0.10123948675E+02  0.51100000000E-03 0. -1.
        -11    1    3    3    0    0  0.37754845077E+02  0.10927329933E+02  0.11823191788E+00  0.39304565197E+02  0.51100000000E-03 0.  1.
         12    1    3    3    0    0 -0.35666178771E+02 -0.18746780579E+02  0.48113589131E+01  0.40579148152E+02  0.00000000000E+00 0. -1.
</event>
<event>
 7    1  0.1716782E-015  0.9000765E+02  0.7816164E-02  0.1186339E+00
        -11   -1    0    0    0    0  0.00000000000E+00  0.00000000000E+00  0.45593999997E+02  0.45594000000E+02  0.51100000000E-03 0. -1.
         11   -1    0    0    0    0 -0.00000000000E+00 -0.00000000000E+00 -0.45593999997E+02  0.45594000000E+02  0.51100000000E-03 0.  1.
    9900012    2    1    2    0    0 -0.10286412116E+01  0.38475565878E+00  0.43254425866E+00  0.90007646581E+02  0.89999906715E+02 0.  0.
        -12    1    1    2    0    0  0.10286412116E+01 -0.38475565878E+00 -0.43254425866E+00  0.11803534194E+01  0.00000000000E+00 0.  1.
         11    1    3    3    0    0 -0.13309025899E+02  0.14374186189E+02 -0.30715191790E+02  0.36430350066E+02  0.51100000000E-03 0. -1.
        -11    1    3    3    0    0 -0.91185775347E+01 -0.21616282039E+01 -0.44638301226E+01  0.10380119092E+02  0.51100000000E-03 0.  1.
        -12    1    3    3    0    0  0.21398962222E+02 -0.11827802327E+02  0.35611566171E+02  0.43197177422E+02  0.00000000000E+00 0.  1.
</event>
<event>
 7    1  0.1716782E-015  0.9000767E+02  0.7816164E-02  0.1186339E+00
        -11   -1    0    0    0    0  0.00000000000E+00  0.00000000000E+00  0.45593999997E+02  0.45594000000E+02  0.51100000000E-03 0.  1.
         11   -1    0    0    0    0 -0.00000000000E+00 -0.00000000000E+00 -0.45593999997E+02  0.45594000000E+02  0.51100000000E-03 0. -1.
    9900012    2    1    2    0    0  0.41331138590E+00 -0.51666553187E+00  0.97745633526E+00  0.90007665106E+02  0.89999925486E+02 0.  0.
        -12    1    1    2    0    0 -0.41331138590E+00  0.51666553187E+00 -0.97745633526E+00  0.11803348935E+01  0.00000000000E+00 0.  1.
         11    1    3    3    0    0 -0.28661325792E+02  0.60510888585E+01 -0.14448391337E+02  0.32662567030E+02  0.51100000000E-03 0. -1.
        -11    1    3    3    0    0 -0.27124136961E+01  0.42132113096E+01 -0.12636799042E+02  0.13594007058E+02  0.51100000000E-03 0.  1.
        -12    1    3    3    0    0  0.31787050874E+02 -0.10780965700E+02  0.28062646714E+02  0.43751091018E+02  0.00000000000E+00 0.  1.
</event>
<event>
 7    1  0.1716782E-015  0.9000771E+02  0.7816164E-02  0.1186339E+00
        -11   -1    0    0    0    0  0.00000000000E+00  0.00000000000E+00  0.45593999997E+02  0.45594000000E+02  0.51100000000E-03 0.  1.
         11   -1    0    0    0    0 -0.00000000000E+00 -0.00000000000E+00 -0.45593999997E+02  0.45594000000E+02  0.51100000000E-03 0. -1.
    9900012    2    1    2    0    0 -0.86032606683E+00 -0.51316684782E+00  0.62417021424E+00  0.90007707828E+02  0.89999968771E+02 0.  0.
        -12    1    1    2    0    0  0.86032606683E+00  0.51316684782E+00 -0.62417021424E+00  0.11802921720E+01  0.00000000000E+00 0.  1.
         11    1    3    3    0    0 -0.24505422824E+02  0.10175140242E+01 -0.27330279051E+02  0.36721863185E+02  0.51100000000E-03 0. -1.
        -11    1    3    3    0    0 -0.90785775309E+01 -0.72790907561E+01  0.39186667531E+01  0.12278504860E+02  0.51100000000E-03 0.  1.
        -12    1    3    3    0    0  0.32723674288E+02  0.57484098841E+01  0.24035782512E+02  0.41007339782E+02  0.00000000000E+00 0.  1.
</event>
<event>
 7    1  0.1716782E-015  0.9000768E+02  0.7816164E-02  0.1186339E+00
        -11   -1    0    0    0    0  0.00000000000E+00  0.00000000000E+00  0.45593999997E+02  0.45594000000E+02  0.51100000000E-03 0. -1.
         11   -1    0    0    0    0 -0.00000000000E+00 -0.00000000000E+00 -0.45593999997E+02  0.45594000000E+02  0.51100000000E-03 0.  1.
    9900012    2    1    2    0    0  0.10487543075E+01  0.50620851608E+00  0.19240123122E+00  0.90007681868E+02  0.89999942469E+02 0.  0.
        -12    1    1    2    0    0 -0.10487543075E+01 -0.50620851608E+00 -0.19240123122E+00  0.11803181321E+01  0.00000000000E+00 0.  1.
         11    1    3    3    0    0  0.22186384123E+02  0.10299480834E+02  0.27627933183E+02  0.36900103497E+02  0.51100000000E-03 0. -1.
        -11    1    3    3    0    0  0.36446386683E+01  0.46417339365E+01  0.64312230370E+01  0.87286720051E+01  0.51100000000E-03 0.  1.
        -12    1    3    3    0    0 -0.24782268483E+02 -0.14435006254E+02 -0.33866754989E+02  0.44378906366E+02  0.00000000000E+00 0.  1.
</event>
<event>
 7    1  0.1716782E-015  0.9000795E+02  0.7816164E-02  0.1186339E+00
        -11   -1    0    0    0    0  0.00000000000E+00  0.00000000000E+00  0.45593999997E+02  0.45594000000E+02  0.51100000000E-03 0.  1.
         11   -1    0    0    0    0 -0.00000000000E+00 -0.00000000000E+00 -0.45593999997E+02  0.45594000000E+02  0.51100000000E-03 0. -1.
    9900012    2    1    2    0    0  0.11523176107E+01 -0.14142558025E+00  0.21139515088E+00  0.90007947043E+02  0.90000211144E+02 0.  0.
        -12    1    1    2    0    0 -0.11523176107E+01  0.14142558025E+00 -0.21139515088E+00  0.11800529566E+01  0.00000000000E+00 0.  1.
         11    1    3    3    0    0 -0.95061580689E+01  0.52685210203E+01  0.66087680936E+00  0.10888577198E+02  0.51100000000E-03 0. -1.
        -11    1    3    3    0    0  0.30104690122E+02  0.22031488868E+02  0.17264616014E+02  0.41106518163E+02  0.51100000000E-03 0.  1.
         12    1    3    3    0    0 -0.19446214442E+02 -0.27441435469E+02 -0.17714097672E+02  0.38012851683E+02  0.00000000000E+00 0. -1.
</event>
<event>
 7    1  0.1716782E-015  0.9000772E+02  0.7816164E-02  0.1186339E+00
        -11   -1    0    0    0    0  0.00000000000E+00  0.00000000000E+00  0.45593999997E+02  0.45594000000E+02  0.51100000000E-03 0.  1.
         11   -1    0    0    0    0 -0.00000000000E+00 -0.00000000000E+00 -0.45593999997E+02  0.45594000000E+02  0.51100000000E-03 0. -1.
    9900012    2    1    2    0    0 -0.11318224266E+01 -0.24159335030E+00 -0.23169259874E+00  0.90007715792E+02  0.89999976840E+02 0.  0.
        -12    1    1    2    0    0  0.11318224266E+01  0.24159335030E+00  0.23169259874E+00  0.11802842084E+01  0.00000000000E+00 0.  1.
         11    1    3    3    0    0  0.53550450015E+01  0.13758683379E+00  0.73830824146E+01  0.91216962955E+01  0.51100000000E-03 0. -1.
        -11    1    3    3    0    0  0.24517694143E+02 -0.15297464452E+02  0.21334400884E+02  0.35920556874E+02  0.51100000000E-03 0.  1.
         12    1    3    3    0    0 -0.31004561571E+02  0.14918284268E+02 -0.28949175898E+02  0.44965462623E+02  0.00000000000E+00 0. -1.
</event>
<event>
 7    1  0.1716782E-015  0.9000768E+02  0.7816164E-02  0.1186339E+00
        -11   -1    0    0    0    0  0.00000000000E+00  0.00000000000E+00  0.45593999997E+02  0.45594000000E+02  0.51100000000E-03 0.  1.
         11   -1    0    0    0    0 -0.00000000000E+00 -0.00000000000E+00 -0.45593999997E+02  0.45594000000E+02  0.51100000000E-03 0. -1.
    9900012    2    1    2    0    0 -0.48644147014E+00 -0.79665758809E+00 -0.72240761439E+00  0.90007677426E+02  0.89999937968E+02 0.  0.
        -12    1    1    2    0    0  0.48644147014E+00  0.79665758809E+00  0.72240761439E+00  0.11803225736E+01  0.00000000000E+00 0.  1.
         11    1    3    3    0    0  0.34856788812E+02 -0.10857611010E+02 -0.22224075873E+02  0.42740998956E+02  0.51100000000E-03 0. -1.
        -11    1    3    3    0    0 -0.60356020646E+01 -0.56201414454E+01  0.12422911154E+01  0.83401300724E+01  0.51100000000E-03 0.  1.
        -12    1    3    3    0    0 -0.29307628217E+02  0.15681094867E+02  0.20259377143E+02  0.38926548398E+02  0.00000000000E+00 0.  1.
</event>
<event>
 7    1  0.1716782E-015  0.9000767E+02  0.7816164E-02  0.1186339E+00
        -11   -1    0    0    0    0  0.00000000000E+00  0.00000000000E+00  0.45593999997E+02  0.45594000000E+02  0.51100000000E-03 0. -1.
         11   -1    0    0    0    0 -0.00000000000E+00 -0.00000000000E+00 -0.45593999997E+02  0.45594000000E+02  0.51100000000E-03 0.  1.
    9900012    2    1    2    0    0  0.56345681318E+00 -0.10355615189E+01 -0.57506435035E-01  0.90007670288E+02  0.89999930735E+02 0.  0.
        -12    1    1    2    0    0 -0.56345681318E+00  0.10355615189E+01  0.57506435035E-01  0.11803297124E+01  0.00000000000E+00 0.  1.
         11    1    3    3    0    0 -0.14335743811E+02 -0.12457167838E+02  0.31096913229E+02  0.36437790737E+02  0.51100000000E-03 0. -1.
        -11    1    3    3    0    0  0.61520533241E+01 -0.82297376824E+01  0.50566006220E+01  0.11451879869E+02  0.51100000000E-03 0.  1.
        -12    1    3    3    0    0  0.87471473001E+01  0.19651344002E+02 -0.36211020286E+02  0.42117999681E+02  0.00000000000E+00 0.  1.
</event>
<event>
 7    1  0.1716782E-015  0.9000760E+02  0.7816164E-02  0.1186339E+00
        -11   -1    0    0    0    0  0.00000000000E+00  0.00000000000E+00  0.45593999997E+02  0.45594000000E+02  0.51100000000E-03 0. -1.
         11   -1    0    0    0    0 -0.00000000000E+00 -0.00000000000E+00 -0.45593999997E+02  0.45594000000E+02  0.51100000000E-03 0.  1.
    9900012    2    1    2    0    0  0.95330268573E+00  0.28519259057E+00  0.63500167467E+00  0.90007598394E+02  0.89999857893E+02 0.  0.
        -12    1    1    2    0    0 -0.95330268573E+00 -0.28519259057E+00 -0.63500167467E+00  0.11804016059E+01  0.00000000000E+00 0.  1.
         11    1    3    3    0    0 -0.19459939701E+02 -0.30404372299E+02  0.88689866692E+01  0.37172221253E+02  0.51100000000E-03 0. -1.
        -11    1    3    3    0    0  0.66313648894E+01 -0.80938407810E+01  0.14187998430E+01  0.10559273277E+02  0.51100000000E-03 0.  1.
        -12    1    3    3    0    0  0.13781877498E+02  0.38783405671E+02 -0.96527848375E+01  0.42276103864E+02  0.00000000000E+00 0.  1.
</event>
<event>
 7    1  0.1716782E-015  0.9000772E+02  0.7816164E-02  0.1186339E+00
        -11   -1    0    0    0    0  0.00000000000E+00  0.00000000000E+00  0.45593999997E+02  0.45594000000E+02  0.51100000000E-03 0.  1.
         11   -1    0    0    0    0 -0.00000000000E+00 -0.00000000000E+00 -0.45593999997E+02  0.45594000000E+02  0.51100000000E-03 0. -1.
    9900012    2    1    2    0    0 -0.98408423453E+00 -0.58786143167E+00  0.28117177429E+00  0.90007720198E+02  0.89999981305E+02 0.  0.
        -12    1    1    2    0    0  0.98408423453E+00  0.58786143167E+00 -0.28117177429E+00  0.11802798016E+01  0.00000000000E+00 0.  1.
         11    1    3    3    0    0  0.10831239541E+02  0.22632483854E+02 -0.32698995154E+02  0.41216129849E+02  0.51100000000E-03 0. -1.
        -11    1    3    3    0    0 -0.36329270785E+01  0.51255240377E+01  0.40740359138E+01  0.74877850335E+01  0.51100000000E-03 0.  1.
        -12    1    3    3    0    0 -0.81823966968E+01 -0.28345869323E+02  0.28906131014E+02  0.41303805316E+02  0.00000000000E+00 0.  1.
</event>
<event>
 7    1  0.1716782E-015  0.9000810E+02  0.7816164E-02  0.1186338E+00
        -11   -1    0    0    0    0  0.00000000000E+00  0.00000000000E+00  0.45593999997E+02  0.45594000000E+02  0.51100000000E-03 0.  1.
         11   -1    0    0    0    0 -0.00000000000E+00 -0.00000000000E+00 -0.45593999997E+02  0.45594000000E+02  0.51100000000E-03 0. -1.
    9900012    2    1    2    0    0  0.14456989931E+00 -0.95718287708E+00 -0.67458018211E+00  0.90008102573E+02  0.90000368726E+02 0.  0.
        -12    1    1    2    0    0 -0.14456989931E+00  0.95718287708E+00  0.67458018211E+00  0.11798974269E+01  0.00000000000E+00 0.  1.
         11    1    3    3    0    0  0.15950748879E+02 -0.14587845668E+02 -0.34355151861E+02  0.40589507151E+02  0.51100000000E-03 0. -1.
        -11    1    3    3    0    0 -0.92682757955E+01  0.59655628482E+01 -0.29644740084E+01  0.11413894284E+02  0.51100000000E-03 0.  1.
        -12    1    3    3    0    0 -0.65379031846E+01  0.76650999423E+01  0.36645045688E+02  0.38004701139E+02  0.00000000000E+00 0.  1.
</event>
<event>
 7    1  0.1716782E-015  0.9000748E+02  0.7816164E-02  0.1186340E+00
        -11   -1    0    0    0    0  0.00000000000E+00  0.00000000000E+00  0.45593999997E+02  0.45594000000E+02  0.51100000000E-03 0.  1.
         11   -1    0    0    0    0 -0.00000000000E+00 -0.00000000000E+00 -0.45593999997E+02  0.45594000000E+02  0.51100000000E-03 0. -1.
    9900012    2    1    2    0    0  0.10738352499E+01  0.36918879353E+00 -0.32282189186E+00  0.90007476183E+02  0.89999734068E+02 0.  0.
        -12    1    1    2    0    0 -0.10738352499E+01 -0.36918879353E+00  0.32282189186E+00  0.11805238172E+01  0.00000000000E+00 0.  1.
         11    1    3    3    0    0 -0.42631634467E+01  0.81634643589E+01 -0.62054705910E+01  0.11105159991E+02  0.51100000000E-03 0. -1.
        -11    1    3    3    0    0 -0.48401904691E+01  0.33071152913E+02 -0.83463802639E+01  0.34449828193E+02  0.51100000000E-03 0.  1.
         12    1    3    3    0    0  0.10177189166E+02 -0.40865428478E+02  0.14229028963E+02  0.44452487998E+02  0.00000000000E+00 0. -1.
</event>
<event>
 7    1  0.1716782E-015  0.9000777E+02  0.7816164E-02  0.1186339E+00
        -11   -1    0    0    0    0  0.00000000000E+00  0.00000000000E+00  0.45593999997E+02  0.45594000000E+02  0.51100000000E-03 0. -1.
         11   -1    0    0    0    0 -0.00000000000E+00 -0.00000000000E+00 -0.45593999997E+02  0.45594000000E+02  0.51100000000E-03 0.  1.
    9900012    2    1    2    0    0  0.44568095816E+00 -0.10563143113E+01  0.28021980821E+00  0.90007765031E+02  0.90000026730E+02 0.  0.
        -12    1    1    2    0    0 -0.44568095816E+00  0.10563143113E+01 -0.28021980821E+00  0.11802349688E+01  0.00000000000E+00 0.  1.
         11    1    3    3    0    0  0.23437686574E+01  0.35323917723E+02 -0.50299708016E+01  0.35757139446E+02  0.51100000000E-03 0. -1.
        -11    1    3    3    0    0  0.26395574453E+01  0.31315650932E+01 -0.10639165435E+02  0.11400254596E+02  0.51100000000E-03 0.  1.
        -12    1    3    3    0    0 -0.45376451446E+01 -0.39511797128E+02  0.15949356044E+02  0.42850370990E+02  0.00000000000E+00 0.  1.
</event>
<event>
 7    1  0.1716782E-015  0.9000762E+02  0.7816164E-02  0.1186339E+00
        -11   -1    0    0    0    0  0.00000000000E+00  0.00000000000E+00  0.45593999997E+02  0.45594000000E+02  0.51100000000E-03 0.  1.
         11   -1    0    0    0    0 -0.00000000000E+00 -0.00000000000E+00 -0.45593999997E+02  0.45594000000E+02  0.51100000000E-03 0. -1.
    9900012    2    1    2    0    0 -0.11723816313E+01 -0.13491007050E+00  0.24696112173E-01  0.90007623232E+02  0.89999883059E+02 0.  0.
        -12    1    1    2    0    0  0.11723816313E+01  0.13491007050E+00 -0.24696112173E-01  0.11803767680E+01  0.00000000000E+00 0.  1.
         11    1    3    3    0    0 -0.69401452005E+01 -0.93927170993E+01 -0.40407222741E+01  0.12357839078E+02  0.51100000000E-03 0. -1.
        -11    1    3    3    0    0 -0.31102116906E+02 -0.67049281148E+01 -0.12510192869E+02  0.34187756038E+02  0.51100000000E-03 0.  1.
         12    1    3    3    0    0  0.36869880475E+02  0.15962735144E+02  0.16575611255E+02  0.43462028116E+02  0.00000000000E+00 0. -1.
</event>
<event>
 7    1  0.1716782E-015  0.9000774E+02  0.7816164E-02  0.1186339E+00
        -11   -1    0    0    0    0  0.00000000000E+00  0.00000000000E+00  0.45593999997E+02  0.45594000000E+02  0.51100000000E-03 0.  1.
         11   -1    0    0    0    0 -0.00000000000E+00 -0.00000000000E+00 -0.45593999997E+02  0.45594000000E+02  0.51100000000E-03 0. -1.
    9900012    2    1    2    0    0 -0.14853829046E+00 -0.48102578124E+00 -0.10675076906E+01  0.90007736430E+02  0.89999997751E+02 0.  0.
        -12    1    1    2    0    0  0.14853829046E+00  0.48102578124E+00  0.10675076906E+01  0.11802635703E+01  0.00000000000E+00 0.  1.
         11    1    3    3    0    0 -0.10235366060E+01  0.10195984869E+02 -0.55978454847E+01  0.11676540968E+02  0.51100000000E-03 0. -1.
        -11    1    3    3    0    0 -0.27170056479E+02 -0.12862398641E+02  0.28462863028E+02  0.41397920720E+02  0.51100000000E-03 0.  1.
         12    1    3    3    0    0  0.28045054795E+02  0.21853879907E+01 -0.23932525234E+02  0.36933274742E+02  0.00000000000E+00 0. -1.
</event>
<event>
 7    1  0.1716782E-015  0.9000730E+02  0.7816164E-02  0.1186340E+00
        -11   -1    0    0    0    0  0.00000000000E+00  0.00000000000E+00  0.45593999997E+02  0.45594000000E+02  0.51100000000E-03 0. -1.
         11   -1    0    0    0    0 -0.00000000000E+00 -0.00000000000E+00 -0.45593999997E+02  0.45594000000E+02  0.51100000000E-03 0.  1.
    9900012    2    1    2    0    0  0.24250304425E+00  0.32463576100E+00  0.11089919190E+01  0.90007297167E+02  0.89999552688E+02 0.  0.
        -12    1    1    2    0    0 -0.24250304425E+00 -0.32463576100E+00 -0.11089919190E+01  0.11807028332E+01  0.00000000000E+00 0.  1.
         11    1    3    3    0    0 -0.11296201661E+02  0.85477840444E+01 -0.71698799677E+01  0.15876900297E+02  0.51100000000E-03 0. -1.
        -11    1    3    3    0    0 -0.71290291751E+01 -0.24964757735E+02 -0.22552093111E+02  0.34389810841E+02  0.51100000000E-03 0.  1.
         12    1    3    3    0    0  0.18667733880E+02  0.16741609451E+02  0.30830964997E+02  0.39740586029E+02  0.00000000000E+00 0. -1.
</event>
<event>
 7    1  0.1716782E-015  0.9000777E+02  0.7816164E-02  0.1186339E+00
        -11   -1    0    0    0    0  0.00000000000E+00  0.00000000000E+00  0.45593999997E+02  0.45594000000E+02  0.51100000000E-03 0. -1.
         11   -1    0    0    0    0 -0.00000000000E+00 -0.00000000000E+00 -0.45593999997E+02  0.45594000000E+02  0.51100000000E-03 0.  1.
    9900012    2    1    2    0    0 -0.73504909398E+00  0.76039619477E+00 -0.52388047316E+00  0.90007766848E+02  0.90000028570E+02 0.  0.
        -12    1    1    2    0    0  0.73504909398E+00 -0.76039619477E+00  0.52388047316E+00  0.11802331523E+01  0.00000000000E+00 0.  1.
         11    1    3    3    0    0  0.67631572563E+01  0.33760994270E+02 -0.22595932994E+02  0.41183992258E+02  0.51100000000E-03 0. -1.
        -11    1    3    3    0    0 -0.75343890791E+01  0.18399099970E+01  0.83009843556E+01  0.11360397402E+02  0.51100000000E-03 0.  1.
        -12    1    3    3    0    0  0.36182728842E-01 -0.34840508072E+02  0.13771068166E+02  0.37463377188E+02  0.00000000000E+00 0.  1.
</event>
<event>
 7    1  0.1716782E-015  0.9000775E+02  0.7816164E-02  0.1186339E+00
        -11   -1    0    0    0    0  0.00000000000E+00  0.00000000000E+00  0.45593999997E+02  0.45594000000E+02  0.51100000000E-03 0. -1.
         11   -1    0    0    0    0 -0.00000000000E+00 -0.00000000000E+00 -0.45593999997E+02  0.45594000000E+02  0.51100000000E-03 0.  1.
    9900012    2    1    2    0    0 -0.10878596059E+01 -0.41713419003E+00 -0.18855986632E+00  0.90007748214E+02  0.90000009691E+02 0.  0.
        -12    1    1    2    0    0  0.10878596059E+01  0.41713419003E+00  0.18855986632E+00  0.11802517858E+01  0.00000000000E+00 0.  1.
         11    1    3    3    0    0 -0.25890898501E+01  0.40676319601E+01 -0.85993879875E+01  0.98589294568E+01  0.51100000000E-03 0. -1.
        -11    1    3    3    0    0  0.35073664114E+02 -0.28232242645E+01 -0.15952601480E+02  0.38634414760E+02  0.51100000000E-03 0.  1.
         12    1    3    3    0    0 -0.33572433869E+02 -0.16615418856E+01  0.24363429601E+02  0.41514403998E+02  0.00000000000E+00 0. -1.
</event>
<event>
 7    1  0.1716782E-015  0.9000779E+02  0.7816164E-02  0.1186339E+00
        -11   -1    0    0    0    0  0.00000000000E+00  0.00000000000E+00  0.45593999997E+02  0.45594000000E+02  0.51100000000E-03 0. -1.
         11   -1    0    0    0    0 -0.00000000000E+00 -0.00000000000E+00 -0.45593999997E+02  0.45594000000E+02  0.51100000000E-03 0.  1.
    9900012    2    1    2    0    0 -0.11605648688E+01 -0.27749425955E-01 -0.21265147842E+00  0.90007787521E+02  0.90000049516E+02 0.  0.
        -12    1    1    2    0    0  0.11605648688E+01  0.27749425955E-01  0.21265147842E+00  0.11802124794E+01  0.00000000000E+00 0.  1.
         11    1    3    3    0    0  0.12448879125E+02 -0.19704241037E+02  0.32920891299E+02  0.40336296192E+02  0.51100000000E-03 0. -1.
        -11    1    3    3    0    0 -0.71314171329E+01 -0.56390880522E+01 -0.25453558260E+01  0.94411472251E+01  0.51100000000E-03 0.  1.
        -12    1    3    3    0    0 -0.64780268605E+01  0.25315579663E+02 -0.30588186952E+02  0.40230344103E+02  0.00000000000E+00 0.  1.
</event>
<event>
 7    1  0.1716782E-015  0.9000720E+02  0.7816164E-02  0.1186340E+00
        -11   -1    0    0    0    0  0.00000000000E+00  0.00000000000E+00  0.45593999997E+02  0.45594000000E+02  0.51100000000E-03 0. -1.
         11   -1    0    0    0    0 -0.00000000000E+00 -0.00000000000E+00 -0.45593999997E+02  0.45594000000E+02  0.51100000000E-03 0.  1.
    9900012    2    1    2    0    0  0.71377875330E+00 -0.93116618720E+00  0.13318533195E+00  0.90007199886E+02  0.89999454123E+02 0.  0.
        -12    1    1    2    0    0 -0.71377875330E+00  0.93116618720E+00 -0.13318533195E+00  0.11808001141E+01  0.00000000000E+00 0.  1.
         11    1    3    3    0    0  0.17159218198E+02 -0.23831585525E+02  0.23870171806E+02  0.37844000055E+02  0.51100000000E-03 0. -1.
        -11    1    3    3    0    0 -0.17573146348E+01 -0.34241466155E+01  0.77001481657E+01  0.86084386973E+01  0.51100000000E-03 0.  1.
        -12    1    3    3    0    0 -0.14688124810E+02  0.26324565953E+02 -0.31437134640E+02  0.43554761134E+02  0.00000000000E+00 0.  1.
</event>
<event>
 7    1  0.1716782E-015  0.9000772E+02  0.7816164E-02  0.1186339E+00
        -11   -1    0    0    0    0  0.00000000000E+00  0.00000000000E+00  0.45593999997E+02  0.45594000000E+02  0.51100000000E-03 0. -1.
         11   -1    0    0    0    0 -0.00000000000E+00 -0.00000000000E+00 -0.45593999997E+02  0.45594000000E+02  0.51100000000E-03 0.  1.
    9900012    2    1    2    0    0 -0.10999511686E+01 -0.34878148603E+00  0.24805263636E+00  0.90007715624E+02  0.89999976670E+02 0.  0.
        -12    1    1    2    0    0  0.10999511686E+01  0.34878148603E+00 -0.24805263636E+00  0.11802843762E+01  0.00000000000E+00 0.  1.
         11    1    3    3    0    0 -0.15902973417E+02 -0.66282316372E+00  0.33047368582E+02  0.36680682498E+02  0.51100000000E-03 0. -1.
        -11    1    3    3    0    0 -0.28507337308E+00 -0.19172411782E+01  0.88046158142E+01  0.90154500974E+01  0.51100000000E-03 0.  1.
        -12    1    3    3    0    0  0.15088095621E+02  0.22312828559E+01 -0.41603931760E+02  0.44311583029E+02  0.00000000000E+00 0.  1.
</event>
<event>
 7    1  0.1716782E-015  0.9000772E+02  0.7816164E-02  0.1186339E+00
        -11   -1    0    0    0    0  0.00000000000E+00  0.00000000000E+00  0.45593999997E+02  0.45594000000E+02  0.51100000000E-03 0. -1.
         11   -1    0    0    0    0 -0.00000000000E+00 -0.00000000000E+00 -0.45593999997E+02  0.45594000000E+02  0.51100000000E-03 0.  1.
    9900012    2    1    2    0    0 -0.74159151071E+00 -0.64290081653E+00 -0.65557561710E+00  0.90007720873E+02  0.89999981988E+02 0.  0.
        -12    1    1    2    0    0  0.74159151071E+00  0.64290081653E+00  0.65557561710E+00  0.11802791273E+01  0.00000000000E+00 0.  1.
         11    1    3    3    0    0 -0.27796064361E+01 -0.93538816368E+01 -0.33252286493E+01  0.10309144458E+02  0.51100000000E-03 0. -1.
        -11    1    3    3    0    0  0.18673936249E+02  0.17532522820E+02 -0.31550868742E+02  0.40639421380E+02  0.51100000000E-03 0.  1.
         12    1    3    3    0    0 -0.16635921323E+02 -0.88215419996E+01  0.34220521775E+02  0.39059155035E+02  0.00000000000E+00 0. -1.
</event>
<event>
 7    1  0.1716782E-015  0.9000780E+02  0.7816164E-02  0.1186339E+00
        -11   -1    0    0    0    0  0.00000000000E+00  0.00000000000E+00  0.45593999997E+02  0.45594000000E+02  0.51100000000E-03 0.  1.
         11   -1    0    0    0    0 -0.00000000000E+00 -0.00000000000E+00 -0.45593999997E+02  0.45594000000E+02  0.51100000000E-03 0. -1.
    9900012    2    1    2    0    0 -0.11624566645E+01 -0.10427652924E+00  0.17522084910E+00  0.90007796019E+02  0.90000058126E+02 0.  0.
        -12    1    1    2    0    0  0.11624566645E+01  0.10427652924E+00 -0.17522084910E+00  0.11802039812E+01  0.00000000000E+00 0.  1.
         11    1    3    3    0    0  0.86404218877E+01 -0.50359179285E+01  0.62193939504E+01  0.11777020895E+02  0.51100000000E-03 0. -1.
        -11    1    3    3    0    0  0.50275240797E+01  0.20738620902E+02  0.29614218300E+02  0.36501620801E+02  0.51100000000E-03 0.  1.
         12    1    3    3    0    0 -0.14830402632E+02 -0.15806979502E+02 -0.35658391402E+02  0.41729154324E+02  0.00000000000E+00 0. -1.
</event>
<event>
 7    1  0.1716782E-015  0.9000781E+02  0.7816164E-02  0.1186339E+00
        -11   -1    0    0    0    0  0.00000000000E+00  0.00000000000E+00  0.45593999997E+02  0.45594000000E+02  0.51100000000E-03 0.  1.
         11   -1    0    0    0    0 -0.00000000000E+00 -0.00000000000E+00 -0.45593999997E+02  0.45594000000E+02  0.51100000000E-03 0. -1.
    9900012    2    1    2    0    0 -0.11255535612E+01  0.32955204899E+00 -0.13178470973E+00  0.90007812480E+02  0.90000074805E+02 0.  0.
        -12    1    1    2    0    0  0.11255535612E+01 -0.32955204899E+00  0.13178470973E+00  0.11801875198E+01  0.00000000000E+00 0.  1.
         11    1    3    3    0    0 -0.31177139488E+02 -0.40490339931E+01 -0.19383161294E+02  0.36933936224E+02  0.51100000000E-03 0. -1.
        -11    1    3    3    0    0 -0.61627617005E+01  0.69725438919E+01 -0.38169864290E+01  0.10058100505E+02  0.51100000000E-03 0.  1.
        -12    1    3    3    0    0  0.36214347628E+02 -0.25939578498E+01  0.23068363014E+02  0.43015775752E+02  0.00000000000E+00 0.  1.
</event>
<event>
 7    1  0.1716782E-015  0.9000778E+02  0.7816164E-02  0.1186339E+00
        -11   -1    0    0    0    0  0.00000000000E+00  0.00000000000E+00  0.45593999997E+02  0.45594000000E+02  0.51100000000E-03 0.  1.
         11   -1    0    0    0    0 -0.00000000000E+00 -0.00000000000E+00 -0.45593999997E+02  0.45594000000E+02  0.51100000000E-03 0. -1.
    9900012    2    1    2    0    0 -0.91892569054E+00  0.73378515078E+00 -0.10022576085E+00  0.90007783801E+02  0.90000045748E+02 0.  0.
        -12    1    1    2    0    0  0.91892569054E+00 -0.73378515078E+00  0.10022576085E+00  0.11802161986E+01  0.00000000000E+00 0.  1.
         11    1    3    3    0    0 -0.11576827798E+02 -0.75799222857E+00 -0.13749831983E+02  0.17990424506E+02  0.51100000000E-03 0. -1.
        -11    1    3    3    0    0  0.20917041640E+02 -0.29943871431E+02  0.13525032186E+02  0.38949769744E+02  0.51100000000E-03 0.  1.
         12    1    3    3    0    0 -0.10259139533E+02  0.31435648810E+02  0.12457403638E+00  0.33067589552E+02  0.00000000000E+00 0. -1.
</event>
<event>
 7    1  0.1716782E-015  0.9000770E+02  0.7816164E-02  0.1186339E+00
        -11   -1    0    0    0    0  0.00000000000E+00  0.00000000000E+00  0.45593999997E+02  0.45594000000E+02  0.51100000000E-03 0.  1.
         11   -1    0    0    0    0 -0.00000000000E+00 -0.00000000000E+00 -0.45593999997E+02  0.45594000000E+02  0.51100000000E-03 0. -1.
    9900012    2    1    2    0    0 -0.49599882993E+00 -0.80122389670E+00 -0.71073428351E+00  0.90007695889E+02  0.89999956675E+02 0.  0.
        -12    1    1    2    0    0  0.49599882993E+00  0.80122389670E+00  0.71073428351E+00  0.11803041107E+01  0.00000000000E+00 0.  1.
         11    1    3    3    0    0 -0.23376288095E+01  0.65493245742E+01 -0.73624762266E+01  0.10127399334E+02  0.51100000000E-03 0. -1.
        -11    1    3    3    0    0 -0.32898805117E+02  0.17124872362E+02  0.22649194588E+01  0.37158074385E+02  0.51100000000E-03 0.  1.
         12    1    3    3    0    0  0.34740435097E+02 -0.24475420833E+02  0.43868224842E+01  0.42722222170E+02  0.00000000000E+00 0. -1.
</event>
<event>
 7    1  0.1716782E-015  0.9000771E+02  0.7816164E-02  0.1186339E+00
        -11   -1    0    0    0    0  0.00000000000E+00  0.00000000000E+00  0.45593999997E+02  0.45594000000E+02  0.51100000000E-03 0. -1.
         11   -1    0    0    0    0 -0.00000000000E+00 -0.00000000000E+00 -0.45593999997E+02  0.45594000000E+02  0.51100000000E-03 0.  1.
    9900012    2    1    2    0    0  0.56418246856E+00  0.97182988669E+00  0.36100666178E+00  0.90007711477E+02  0.89999972469E+02 0.  0.
        -12    1    1    2    0    0 -0.56418246856E+00 -0.97182988669E+00 -0.36100666178E+00  0.11802885225E+01  0.00000000000E+00 0.  1.
         11    1    3    3    0    0 -0.18406576980E+01 -0.83058703545E+01 -0.45367122355E+01  0.96414346067E+01  0.51100000000E-03 0. -1.
        -11    1    3    3    0    0 -0.33495683318E+02 -0.63057931803E+01 -0.14071611793E+02  0.36874572368E+02  0.51100000000E-03 0.  1.
         12    1    3    3    0    0  0.35900523485E+02  0.15583493421E+02  0.18969330691E+02  0.43491704503E+02  0.00000000000E+00 0. -1.
</event>
<event>
 7    1  0.1716782E-015  0.9000771E+02  0.7816164E-02  0.1186339E+00
        -11   -1    0    0    0    0  0.00000000000E+00  0.00000000000E+00  0.45593999997E+02  0.45594000000E+02  0.51100000000E-03 0. -1.
         11   -1    0    0    0    0 -0.00000000000E+00 -0.00000000000E+00 -0.45593999997E+02  0.45594000000E+02  0.51100000000E-03 0.  1.
    9900012    2    1    2    0    0 -0.89676164821E+00 -0.74965916014E+00 -0.16404887619E+00  0.90007710907E+02  0.89999971891E+02 0.  0.
        -12    1    1    2    0    0  0.89676164821E+00  0.74965916014E+00  0.16404887619E+00  0.11802890933E+01  0.00000000000E+00 0.  1.
         11    1    3    3    0    0  0.21398933073E+02  0.10939950716E+01  0.26657544129E+01  0.21592068190E+02  0.51100000000E-03 0. -1.
        -11    1    3    3    0    0  0.88676063573E+01  0.19999612471E+02 -0.17104590187E+02  0.27770234915E+02  0.51100000000E-03 0.  1.
         12    1    3    3    0    0 -0.31163301078E+02 -0.21843266703E+02  0.14274786898E+02  0.40645407801E+02  0.00000000000E+00 0. -1.
</event>
<event>
 7    1  0.1716782E-015  0.9000776E+02  0.7816164E-02  0.1186339E+00
        -11   -1    0    0    0    0  0.00000000000E+00  0.00000000000E+00  0.45593999997E+02  0.45594000000E+02  0.51100000000E-03 0. -1.
         11   -1    0    0    0    0 -0.00000000000E+00 -0.00000000000E+00 -0.45593999997E+02  0.45594000000E+02  0.51100000000E-03 0.  1.
    9900012    2    1    2    0    0 -0.69890369977E+00 -0.21528921970E+00  0.92635936390E+00  0.90007763795E+02  0.90000025477E+02 0.  0.
        -12    1    1    2    0    0  0.69890369977E+00  0.21528921970E+00 -0.92635936390E+00  0.11802362055E+01  0.00000000000E+00 0.  1.
         11    1    3    3    0    0  0.15775243414E+01  0.12711459274E+01  0.94384932521E+01  0.96534734758E+01  0.51100000000E-03 0. -1.
        -11    1    3    3    0    0  0.22249875984E+02 -0.28952555536E+02 -0.20189207227E+02  0.41724232073E+02  0.51100000000E-03 0.  1.
         12    1    3    3    0    0 -0.24526304025E+02  0.27466120389E+02  0.11677073339E+02  0.38630058246E+02  0.00000000000E+00 0. -1.
</event>
<event>
 7    1  0.1716782E-015  0.9000770E+02  0.7816164E-02  0.1186339E+00
        -11   -1    0    0    0    0  0.00000000000E+00  0.00000000000E+00  0.45593999997E+02  0.45594000000E+02  0.51100000000E-03 0. -1.
         11   -1    0    0    0    0 -0.00000000000E+00 -0.00000000000E+00 -0.45593999997E+02  0.45594000000E+02  0.51100000000E-03 0.  1.
    9900012    2    1    2    0    0 -0.51938563274E+00  0.24188569336E+00  0.10319082493E+01  0.90007701411E+02  0.89999962270E+02 0.  0.
        -12    1    1    2    0    0  0.51938563274E+00 -0.24188569336E+00 -0.10319082493E+01  0.11802985890E+01  0.00000000000E+00 0.  1.
         11    1    3    3    0    0  0.26457755662E+02 -0.24304018159E+02  0.24377821736E+02  0.43416314056E+02  0.51100000000E-03 0. -1.
        -11    1    3    3    0    0 -0.80674547868E+01  0.93029851891E+01  0.80430155621E+00  0.12340026800E+02  0.51100000000E-03 0.  1.
        -12    1    3    3    0    0 -0.18909686508E+02  0.15242918664E+02 -0.24150215043E+02  0.34251360555E+02  0.00000000000E+00 0.  1.
</event>
<event>
 7    1  0.1716782E-015  0.9000772E+02  0.7816164E-02  0.1186339E+00
        -11   -1    0    0    0    0  0.00000000000E+00  0.00000000000E+00  0.45593999997E+02  0.45594000000E+02  0.51100000000E-03 0. -1.
         11   -1    0    0    0    0 -0.00000000000E+00 -0.00000000000E+00 -0.45593999997E+02  0.45594000000E+02  0.51100000000E-03 0.  1.
    9900012    2    1    2    0    0 -0.54646205685E+00 -0.75086288040E-01  0.10434544739E+01  0.90007722080E+02  0.89999983211E+02 0.  0.
        -12    1    1    2    0    0  0.54646205685E+00  0.75086288040E-01 -0.10434544739E+01  0.11802779204E+01  0.00000000000E+00 0.  1.
         11    1    3    3    0    0  0.34446190734E+01  0.76445268580E+01 -0.83013914481E+01  0.11799037744E+02  0.51100000000E-03 0. -1.
        -11    1    3    3    0    0 -0.32166347689E+01  0.16415260824E+02 -0.28658229215E+02  0.33182851433E+02  0.51100000000E-03 0.  1.
         12    1    3    3    0    0 -0.77444636134E+00 -0.24134873970E+02  0.38003075137E+02  0.45025832903E+02  0.00000000000E+00 0. -1.
</event>
<event>
 7    1  0.1716782E-015  0.9000769E+02  0.7816164E-02  0.1186339E+00
        -11   -1    0    0    0    0  0.00000000000E+00  0.00000000000E+00  0.45593999997E+02  0.45594000000E+02  0.51100000000E-03 0. -1.
         11   -1    0    0    0    0 -0.00000000000E+00 -0.00000000000E+00 -0.45593999997E+02  0.45594000000E+02  0.51100000000E-03 0.  1.
    9900012    2    1    2    0    0 -0.52294751021E+00  0.30774770375E+00  0.10123942528E+01  0.90007692891E+02  0.89999953638E+02 0.  0.
        -12    1    1    2    0    0  0.52294751021E+00 -0.30774770375E+00 -0.10123942528E+01  0.11803071086E+01  0.00000000000E+00 0.  1.
         11    1    3    3    0    0  0.62152197385E+01  0.62922210025E+01 -0.97872141069E+00  0.88982524915E+01  0.51100000000E-03 0. -1.
        -11    1    3    3    0    0  0.32756453578E+02  0.14956907022E+02  0.47485460445E+01  0.36321385002E+02  0.51100000000E-03 0.  1.
         12    1    3    3    0    0 -0.39494620827E+02 -0.20941380320E+02 -0.27574303810E+01  0.44788055398E+02  0.00000000000E+00 0. -1.
</event>
<event>
 7    1  0.1716782E-015  0.9000771E+02  0.7816164E-02  0.1186339E+00
        -11   -1    0    0    0    0  0.00000000000E+00  0.00000000000E+00  0.45593999997E+02  0.45594000000E+02  0.51100000000E-03 0.  1.
         11   -1    0    0    0    0 -0.00000000000E+00 -0.00000000000E+00 -0.45593999997E+02  0.45594000000E+02  0.51100000000E-03 0. -1.
    9900012    2    1    2    0    0  0.66551387401E+00 -0.32849427216E+00 -0.91775674497E+00  0.90007705695E+02  0.89999966610E+02 0.  0.
        -12    1    1    2    0    0 -0.66551387401E+00  0.32849427216E+00  0.91775674497E+00  0.11802943049E+01  0.00000000000E+00 0.  1.
         11    1    3    3    0    0 -0.19388430535E+01  0.57120899183E+01  0.73669829478E+01  0.95215293748E+01  0.51100000000E-03 0. -1.
        -11    1    3    3    0    0  0.11645820479E+02 -0.80500253382E+01  0.34194275191E+02  0.37009140745E+02  0.51100000000E-03 0.  1.
         12    1    3    3    0    0 -0.90414635516E+01  0.20094411478E+01 -0.42479014884E+02  0.43477035575E+02  0.00000000000E+00 0. -1.
</event>
<event>
 7    1  0.1716782E-015  0.9000776E+02  0.7816164E-02  0.1186339E+00
        -11   -1    0    0    0    0  0.00000000000E+00  0.00000000000E+00  0.45593999997E+02  0.45594000000E+02  0.51100000000E-03 0. -1.
         11   -1    0    0    0    0 -0.00000000000E+00 -0.00000000000E+00 -0.45593999997E+02  0.45594000000E+02  0.51100000000E-03 0.  1.
    9900012    2    1    2    0    0  0.59500212921E+00 -0.96174585657E+00  0.33762739149E+00  0.90007756431E+02  0.90000018016E+02 0.  0.
        -12    1    1    2    0    0 -0.59500212921E+00  0.96174585657E+00 -0.33762739149E+00  0.11802435689E+01  0.00000000000E+00 0.  1.
         11    1    3    3    0    0 -0.46375784208E+01  0.26495601001E+02  0.32887593818E+02  0.42486678305E+02  0.51100000000E-03 0. -1.
        -11    1    3    3    0    0 -0.97042265123E+00 -0.93329179463E+01  0.41693920564E+00  0.93924925380E+01  0.51100000000E-03 0.  1.
        -12    1    3    3    0    0  0.62030032012E+01 -0.18124428911E+02 -0.32966905632E+02  0.38128585589E+02  0.00000000000E+00 0.  1.
</event>
<event>
 7    1  0.1716782E-015  0.9000775E+02  0.7816164E-02  0.1186339E+00
        -11   -1    0    0    0    0  0.00000000000E+00  0.00000000000E+00  0.45593999997E+02  0.45594000000E+02  0.51100000000E-03 0.  1.
         11   -1    0    0    0    0 -0.00000000000E+00 -0.00000000000E+00 -0.45593999997E+02  0.45594000000E+02  0.51100000000E-03 0. -1.
    9900012    2    1    2    0    0  0.66108525284E+00  0.35731190603E+00 -0.91010708699E+00  0.90007745612E+02  0.90000007054E+02 0.  0.
        -12    1    1    2    0    0 -0.66108525284E+00 -0.35731190603E+00  0.91010708699E+00  0.11802543876E+01  0.00000000000E+00 0.  1.
         11    1    3    3    0    0  0.28569640560E+01 -0.17088991442E+01  0.91357731557E+01  0.97234217905E+01  0.51100000000E-03 0. -1.
        -11    1    3    3    0    0  0.10024146938E+01 -0.67181824848E+00  0.35010687054E+02  0.35031477035E+02  0.51100000000E-03 0.  1.
         12    1    3    3    0    0 -0.31982934970E+01  0.27380292987E+01 -0.45056567297E+02  0.45252846787E+02  0.00000000000E+00 0. -1.
</event>
<event>
 7    1  0.1716782E-015  0.9000786E+02  0.7816164E-02  0.1186339E+00
        -11   -1    0    0    0    0  0.00000000000E+00  0.00000000000E+00  0.45593999997E+02  0.45594000000E+02  0.51100000000E-03 0. -1.
         11   -1    0    0    0    0 -0.00000000000E+00 -0.00000000000E+00 -0.45593999997E+02  0.45594000000E+02  0.51100000000E-03 0.  1.
    9900012    2    1    2    0    0  0.97997694337E+00  0.65515660772E+00  0.56154020903E-01  0.90007856676E+02  0.90000119584E+02 0.  0.
        -12    1    1    2    0    0 -0.97997694337E+00 -0.65515660772E+00 -0.56154020903E-01  0.11801433236E+01  0.00000000000E+00 0.  1.
         11    1    3    3    0    0 -0.82897178196E+01 -0.21397335801E+02 -0.35958046206E+02  0.42656142443E+02  0.51100000000E-03 0. -1.
        -11    1    3    3    0    0  0.23870148410E+01 -0.29783798743E+01  0.95316411766E+01  0.10267461727E+02  0.51100000000E-03 0.  1.
        -12    1    3    3    0    0  0.68826799219E+01  0.25030872283E+02  0.26482559050E+02  0.37084252507E+02  0.00000000000E+00 0.  1.
</event>
<event>
 7    1  0.1716782E-015  0.9000771E+02  0.7816164E-02  0.1186339E+00
        -11   -1    0    0    0    0  0.00000000000E+00  0.00000000000E+00  0.45593999997E+02  0.45594000000E+02  0.51100000000E-03 0. -1.
         11   -1    0    0    0    0 -0.00000000000E+00 -0.00000000000E+00 -0.45593999997E+02  0.45594000000E+02  0.51100000000E-03 0.  1.
    9900012    2    1    2    0    0 -0.28601135792E+00 -0.11395915765E+00  0.11394311256E+01  0.90007706614E+02  0.89999967542E+02 0.  0.
        -12    1    1    2    0    0  0.28601135792E+00  0.11395915765E+00 -0.11394311256E+01  0.11802933858E+01  0.00000000000E+00 0.  1.
         11    1    3    3    0    0  0.22262203795E+02 -0.13653769648E+02  0.14013519619E+02  0.29637980292E+02  0.51100000000E-03 0. -1.
        -11    1    3    3    0    0  0.14641577992E+02 -0.32407042420E+01  0.50256144802E+01  0.15815649568E+02  0.51100000000E-03 0.  1.
        -12    1    3    3    0    0 -0.37189793146E+02  0.16780514732E+02 -0.17899702973E+02  0.44554076754E+02  0.00000000000E+00 0.  1.
</event>
<event>
 7    1  0.1716782E-015  0.9000770E+02  0.7816164E-02  0.1186339E+00
        -11   -1    0    0    0    0  0.00000000000E+00  0.00000000000E+00  0.45593999997E+02  0.45594000000E+02  0.51100000000E-03 0. -1.
         11   -1    0    0    0    0 -0.00000000000E+00 -0.00000000000E+00 -0.45593999997E+02  0.45594000000E+02  0.51100000000E-03 0.  1.
    9900012    2    1    2    0    0  0.57061762838E-01 -0.66338588197E+00 -0.97456724837E+00  0.90007695719E+02  0.89999956503E+02 0.  0.
        -12    1    1    2    0    0 -0.57061762838E-01  0.66338588197E+00  0.97456724837E+00  0.11803042806E+01  0.00000000000E+00 0.  1.
         11    1    3    3    0    0  0.12379552450E+00  0.10545981632E+01 -0.91655629009E+01  0.92268654574E+01  0.51100000000E-03 0. -1.
        -11    1    3    3    0    0 -0.38745328176E+02 -0.95829475543E+01 -0.21754845294E+01  0.39972066152E+02  0.51100000000E-03 0.  1.
         12    1    3    3    0    0  0.38678594414E+02  0.78649635091E+01  0.10366480182E+02  0.40808764110E+02  0.00000000000E+00 0. -1.
</event>
<event>
 7    1  0.1716782E-015  0.9000772E+02  0.7816164E-02  0.1186339E+00
        -11   -1    0    0    0    0  0.00000000000E+00  0.00000000000E+00  0.45593999997E+02  0.45594000000E+02  0.51100000000E-03 0.  1.
         11   -1    0    0    0    0 -0.00000000000E+00 -0.00000000000E+00 -0.45593999997E+02  0.45594000000E+02  0.51100000000E-03 0. -1.
    9900012    2    1    2    0    0 -0.23972125187E+00 -0.49289766622E-01 -0.11546296684E+01  0.90007718072E+02  0.89999979150E+02 0.  0.
        -12    1    1    2    0    0  0.23972125187E+00  0.49289766622E-01  0.11546296684E+01  0.11802819285E+01  0.00000000000E+00 0.  1.
         11    1    3    3    0    0 -0.91386412906E+00  0.36282565616E+01 -0.85039012851E+01  0.92906259558E+01  0.51100000000E-03 0. -1.
        -11    1    3    3    0    0  0.15128762469E+02  0.25966931014E+02  0.28597133033E+02  0.41484418498E+02  0.51100000000E-03 0.  1.
         12    1    3    3    0    0 -0.14454619592E+02 -0.29644477342E+02 -0.21247861416E+02  0.39232673618E+02  0.00000000000E+00 0. -1.
</event>
<event>
 7    1  0.1716782E-015  0.9000787E+02  0.7816164E-02  0.1186339E+00
        -11   -1    0    0    0    0  0.00000000000E+00  0.00000000000E+00  0.45593999997E+02  0.45594000000E+02  0.51100000000E-03 0. -1.
         11   -1    0    0    0    0 -0.00000000000E+00 -0.00000000000E+00 -0.45593999997E+02  0.45594000000E+02  0.51100000000E-03 0.  1.
    9900012    2    1    2    0    0  0.75120397553E+00  0.69328141784E+00  0.58970232460E+00  0.90007874850E+02  0.90000137998E+02 0.  0.
        -12    1    1    2    0    0 -0.75120397553E+00 -0.69328141784E+00 -0.58970232460E+00  0.11801251496E+01  0.00000000000E+00 0.  1.
         11    1    3    3    0    0 -0.66822529447E+01 -0.20377699745E+01  0.67330787570E+01  0.97025440321E+01  0.51100000000E-03 0. -1.
        -11    1    3    3    0    0  0.23699769784E+02 -0.30522838340E+02 -0.16265704137E+02  0.41927268925E+02  0.51100000000E-03 0.  1.
         12    1    3    3    0    0 -0.16266312864E+02  0.33253889733E+02  0.10122327704E+02  0.38378061893E+02  0.00000000000E+00 0. -1.
</event>
<event>
 7    1  0.1716782E-015  0.9000775E+02  0.7816164E-02  0.1186339E+00
        -11   -1    0    0    0    0  0.00000000000E+00  0.00000000000E+00  0.45593999997E+02  0.45594000000E+02  0.51100000000E-03 0.  1.
         11   -1    0    0    0    0 -0.00000000000E+00 -0.00000000000E+00 -0.45593999997E+02  0.45594000000E+02  0.51100000000E-03 0. -1.
    9900012    2    1    2    0    0 -0.11070362304E+01  0.13646865983E+00  0.38578589933E+00  0.90007752708E+02  0.90000014244E+02 0.  0.
        -12    1    1    2    0    0  0.11070362304E+01 -0.13646865983E+00 -0.38578589933E+00  0.11802472922E+01  0.00000000000E+00 0.  1.
         11    1    3    3    0    0 -0.35878069059E+01  0.12365400243E+02 -0.62755174296E+01  0.14323323666E+02  0.51100000000E-03 0. -1.
        -11    1    3    3    0    0 -0.22120860173E+02 -0.80269521156E+01 -0.25680902578E+02  0.34832071034E+02  0.51100000000E-03 0.  1.
         12    1    3    3    0    0  0.24601630848E+02 -0.42019794677E+01  0.32342205907E+02  0.40852358008E+02  0.00000000000E+00 0. -1.
</event>
<event>
 7    1  0.1716782E-015  0.9000752E+02  0.7816164E-02  0.1186339E+00
        -11   -1    0    0    0    0  0.00000000000E+00  0.00000000000E+00  0.45593999997E+02  0.45594000000E+02  0.51100000000E-03 0. -1.
         11   -1    0    0    0    0 -0.00000000000E+00 -0.00000000000E+00 -0.45593999997E+02  0.45594000000E+02  0.51100000000E-03 0.  1.
    9900012    2    1    2    0    0 -0.93189647288E+00  0.41917437268E+00  0.59109221439E+00  0.90007522047E+02  0.89999780538E+02 0.  0.
        -12    1    1    2    0    0  0.93189647288E+00 -0.41917437268E+00 -0.59109221439E+00  0.11804779527E+01  0.00000000000E+00 0.  1.
         11    1    3    3    0    0 -0.89907723117E+01 -0.18288991642E+01 -0.36656044023E+01  0.98800564173E+01  0.51100000000E-03 0. -1.
        -11    1    3    3    0    0  0.82844521909E+01 -0.24689165767E+02 -0.27908727746E+02  0.38171771494E+02  0.51100000000E-03 0.  1.
         12    1    3    3    0    0 -0.22557635209E+00  0.26937239303E+02  0.32165424363E+02  0.41955694136E+02  0.00000000000E+00 0. -1.
</event>
<event>
 7    1  0.1716782E-015  0.9000772E+02  0.7816164E-02  0.1186339E+00
        -11   -1    0    0    0    0  0.00000000000E+00  0.00000000000E+00  0.45593999997E+02  0.45594000000E+02  0.51100000000E-03 0. -1.
         11   -1    0    0    0    0 -0.00000000000E+00 -0.00000000000E+00 -0.45593999997E+02  0.45594000000E+02  0.51100000000E-03 0.  1.
    9900012    2    1    2    0    0 -0.63729774264E+00  0.98506055258E+00 -0.12868932661E+00  0.90007723063E+02  0.89999984208E+02 0.  0.
        -12    1    1    2    0    0  0.63729774264E+00 -0.98506055258E+00  0.12868932661E+00  0.11802769369E+01  0.00000000000E+00 0.  1.
         11    1    3    3    0    0  0.11818720169E+02  0.37790244226E+01  0.35723892598E+02  0.37817451985E+02  0.51100000000E-03 0. -1.
        -11    1    3    3    0    0  0.93860589068E+01  0.51389588550E+00  0.75842527739E+00  0.94306627522E+01  0.51100000000E-03 0.  1.
        -12    1    3    3    0    0 -0.21842076819E+02 -0.33078597555E+01 -0.36611007202E+02  0.42759608326E+02  0.00000000000E+00 0.  1.
</event>
<event>
 7    1  0.1716782E-015  0.9000775E+02  0.7816164E-02  0.1186339E+00
        -11   -1    0    0    0    0  0.00000000000E+00  0.00000000000E+00  0.45593999997E+02  0.45594000000E+02  0.51100000000E-03 0.  1.
         11   -1    0    0    0    0 -0.00000000000E+00 -0.00000000000E+00 -0.45593999997E+02  0.45594000000E+02  0.51100000000E-03 0. -1.
    9900012    2    1    2    0    0  0.99043984790E+00  0.55781248673E+00 -0.31758332301E+00  0.90007752132E+02  0.90000013660E+02 0.  0.
        -12    1    1    2    0    0 -0.99043984790E+00 -0.55781248673E+00  0.31758332301E+00  0.11802478679E+01  0.00000000000E+00 0.  1.
         11    1    3    3    0    0 -0.62797253469E+01 -0.52139816643E+01 -0.21767530158E+01  0.84474143488E+01  0.51100000000E-03 0. -1.
        -11    1    3    3    0    0 -0.14303649120E+02 -0.30327891102E+01  0.36779668555E+02  0.39579492255E+02  0.51100000000E-03 0.  1.
         12    1    3    3    0    0  0.21573814314E+02  0.88045832612E+01 -0.34920498862E+02  0.41980845528E+02  0.00000000000E+00 0. -1.
</event>
<event>
 7    1  0.1716782E-015  0.9000791E+02  0.7816164E-02  0.1186339E+00
        -11   -1    0    0    0    0  0.00000000000E+00  0.00000000000E+00  0.45593999997E+02  0.45594000000E+02  0.51100000000E-03 0.  1.
         11   -1    0    0    0    0 -0.00000000000E+00 -0.00000000000E+00 -0.45593999997E+02  0.45594000000E+02  0.51100000000E-03 0. -1.
    9900012    2    1    2    0    0 -0.69459114221E+00 -0.66759076390E+00  0.68153459382E+00  0.90007905222E+02  0.90000168771E+02 0.  0.
        -12    1    1    2    0    0  0.69459114221E+00  0.66759076390E+00 -0.68153459382E+00  0.11800947782E+01  0.00000000000E+00 0.  1.
         11    1    3    3    0    0  0.62765615429E+01 -0.24180092864E+02 -0.26706969538E+02  0.36569582140E+02  0.51100000000E-03 0. -1.
        -11    1    3    3    0    0  0.28808871348E+00 -0.67877945972E+01 -0.50459539963E+01  0.84627892917E+01  0.51100000000E-03 0.  1.
        -12    1    3    3    0    0 -0.72592413985E+01  0.30300296697E+02  0.32434458128E+02  0.44975533790E+02  0.00000000000E+00 0.  1.
</event>
<event>
 7    1  0.1716782E-015  0.9000778E+02  0.7816164E-02  0.1186339E+00
        -11   -1    0    0    0    0  0.00000000000E+00  0.00000000000E+00  0.45593999997E+02  0.45594000000E+02  0.51100000000E-03 0.  1.
         11   -1    0    0    0    0 -0.00000000000E+00 -0.00000000000E+00 -0.45593999997E+02  0.45594000000E+02  0.51100000000E-03 0. -1.
    9900012    2    1    2    0    0  0.35993960440E+00  0.65315083024E+00 -0.91473881033E+00  0.90007784080E+02  0.90000046030E+02 0.  0.
        -12    1    1    2    0    0 -0.35993960440E+00 -0.65315083024E+00  0.91473881033E+00  0.11802159196E+01  0.00000000000E+00 0.  1.
         11    1    3    3    0    0  0.22967305524E+02 -0.31217041649E+02  0.16240215048E+02  0.42020773403E+02  0.51100000000E-03 0. -1.
        -11    1    3    3    0    0  0.20056753594E+01  0.25299599657E+01 -0.79772088478E+01  0.86057708741E+01  0.51100000000E-03 0.  1.
        -12    1    3    3    0    0 -0.24613041279E+02  0.29340232514E+02 -0.91777450105E+01  0.39381239803E+02  0.00000000000E+00 0.  1.
</event>
<event>
 7    1  0.1716782E-015  0.9000779E+02  0.7816164E-02  0.1186339E+00
        -11   -1    0    0    0    0  0.00000000000E+00  0.00000000000E+00  0.45593999997E+02  0.45594000000E+02  0.51100000000E-03 0. -1.
         11   -1    0    0    0    0 -0.00000000000E+00 -0.00000000000E+00 -0.45593999997E+02  0.45594000000E+02  0.51100000000E-03 0.  1.
    9900012    2    1    2    0    0  0.74689175090E+00  0.66064849382E+00  0.63134617187E+00  0.90007787431E+02  0.90000049425E+02 0.  0.
        -12    1    1    2    0    0 -0.74689175090E+00 -0.66064849382E+00 -0.63134617187E+00  0.11802125693E+01  0.00000000000E+00 0.  1.
         11    1    3    3    0    0  0.35221696456E+02 -0.13064631229E+02  0.19546967526E+01  0.37617460441E+02  0.51100000000E-03 0. -1.
        -11    1    3    3    0    0  0.53458410149E+01  0.15989819454E+01  0.79799639160E+01  0.97372780479E+01  0.51100000000E-03 0.  1.
        -12    1    3    3    0    0 -0.39820645720E+02  0.12126297777E+02 -0.93033144968E+01  0.42653048941E+02  0.00000000000E+00 0.  1.
</event>
<event>
 7    1  0.1716782E-015  0.9000779E+02  0.7816164E-02  0.1186339E+00
        -11   -1    0    0    0    0  0.00000000000E+00  0.00000000000E+00  0.45593999997E+02  0.45594000000E+02  0.51100000000E-03 0.  1.
         11   -1    0    0    0    0 -0.00000000000E+00 -0.00000000000E+00 -0.45593999997E+02  0.45594000000E+02  0.51100000000E-03 0. -1.
    9900012    2    1    2    0    0  0.44405075740E+00  0.80191543519E+00 -0.74340195695E+00  0.90007789887E+02  0.90000051914E+02 0.  0.
        -12    1    1    2    0    0 -0.44405075740E+00 -0.80191543519E+00  0.74340195695E+00  0.11802101126E+01  0.00000000000E+00 0.  1.
         11    1    3    3    0    0 -0.95405591929E+01  0.22882664767E+01 -0.48270593984E+01  0.10934300887E+02  0.51100000000E-03 0. -1.
        -11    1    3    3    0    0 -0.26814779687E+01 -0.36928715648E+02 -0.10847717462E+02  0.38582293062E+02  0.51100000000E-03 0.  1.
         12    1    3    3    0    0  0.12666087919E+02  0.35442364606E+02  0.14931374904E+02  0.40491195939E+02  0.00000000000E+00 0. -1.
</event>
<event>
 7    1  0.1716782E-015  0.9000781E+02  0.7816164E-02  0.1186339E+00
        -11   -1    0    0    0    0  0.00000000000E+00  0.00000000000E+00  0.45593999997E+02  0.45594000000E+02  0.51100000000E-03 0.  1.
         11   -1    0    0    0    0 -0.00000000000E+00 -0.00000000000E+00 -0.45593999997E+02  0.45594000000E+02  0.51100000000E-03 0. -1.
    9900012    2    1    2    0    0  0.13073912608E-01  0.10236588506E+01  0.58720577961E+00  0.90007805526E+02  0.90000067759E+02 0.  0.
        -12    1    1    2    0    0 -0.13073912608E-01 -0.10236588506E+01 -0.58720577961E+00  0.11801944743E+01  0.00000000000E+00 0.  1.
         11    1    3    3    0    0 -0.14120902626E+02 -0.34935970753E+02 -0.62337076283E+01  0.38193992387E+02  0.51100000000E-03 0. -1.
        -11    1    3    3    0    0  0.45339592404E+01 -0.55026463956E+01  0.58840707411E+01  0.92443600372E+01  0.51100000000E-03 0.  1.
        -12    1    3    3    0    0  0.96000172978E+01  0.41462275999E+02  0.93684266678E+00  0.42569453101E+02  0.00000000000E+00 0.  1.
</event>
<event>
 7    1  0.1851553E-015  0.9000774E+02  0.7816164E-02  0.1186339E+00
        -11   -1    0    0    0    0  0.00000000000E+00  0.00000000000E+00  0.45593999997E+02  0.45594000000E+02  0.51100000000E-03 0.  1.
         11   -1    0    0    0    0 -0.00000000000E+00 -0.00000000000E+00 -0.45593999997E+02  0.45594000000E+02  0.51100000000E-03 0. -1.
    9900012    2    1    2    0    0 -0.63570051029E+00 -0.57707232091E+00  0.80986382466E+00  0.90007742817E+02  0.90000004223E+02 0.  0.
        -12    1    1    2    0    0  0.63570051029E+00  0.57707232091E+00 -0.80986382466E+00  0.11802571825E+01  0.00000000000E+00 0.  1.
         11    1    3    3    0    0 -0.14406954373E+02  0.36184298267E+02 -0.71938367586E+01  0.39605745328E+02  0.51100000000E-03 0. -1.
        -11    1    3    3    0    0 -0.48423392440E+00 -0.26618489739E+01 -0.92327359416E+01  0.96209841327E+01  0.51100000000E-03 0.  1.
        -12    1    3    3    0    0  0.14255487788E+02 -0.34099521614E+02  0.17236436525E+02  0.40781013357E+02  0.00000000000E+00 0.  1.
</event>
<event>
 7    1  0.1716782E-015  0.9000781E+02  0.7816164E-02  0.1186339E+00
        -11   -1    0    0    0    0  0.00000000000E+00  0.00000000000E+00  0.45593999997E+02  0.45594000000E+02  0.51100000000E-03 0. -1.
         11   -1    0    0    0    0 -0.00000000000E+00 -0.00000000000E+00 -0.45593999997E+02  0.45594000000E+02  0.51100000000E-03 0.  1.
    9900012    2    1    2    0    0 -0.48644609779E+00 -0.40600949618E+00  0.99567490509E+00  0.90007812712E+02  0.90000075040E+02 0.  0.
        -12    1    1    2    0    0  0.48644609779E+00  0.40600949618E+00 -0.99567490509E+00  0.11801872875E+01  0.00000000000E+00 0.  1.
         11    1    3    3    0    0 -0.61080273212E+01  0.81657914234E+01 -0.66383262460E+00  0.10219042095E+02  0.51100000000E-03 0. -1.
        -11    1    3    3    0    0 -0.34378172558E+02  0.69704878112E+01 -0.75913909336E+01  0.35889771040E+02  0.51100000000E-03 0.  1.
         12    1    3    3    0    0  0.39999753781E+02 -0.15542288731E+02  0.92508984633E+01  0.43898999578E+02  0.00000000000E+00 0. -1.
</event>
<event>
 7    1  0.1716782E-015  0.9000780E+02  0.7816164E-02  0.1186339E+00
        -11   -1    0    0    0    0  0.00000000000E+00  0.00000000000E+00  0.45593999997E+02  0.45594000000E+02  0.51100000000E-03 0.  1.
         11   -1    0    0    0    0 -0.00000000000E+00 -0.00000000000E+00 -0.45593999997E+02  0.45594000000E+02  0.51100000000E-03 0. -1.
    9900012    2    1    2    0    0  0.22056879463E+00  0.10999862267E+01 -0.36638868839E+00  0.90007804693E+02  0.90000066915E+02 0.  0.
        -12    1    1    2    0    0 -0.22056879463E+00 -0.10999862267E+01  0.36638868839E+00  0.11801953072E+01  0.00000000000E+00 0.  1.
         11    1    3    3    0    0 -0.11286571300E+01  0.57675691634E-01 -0.59497419786E+01  0.60561227923E+01  0.51100000000E-03 0. -1.
        -11    1    3    3    0    0  0.25938433254E+02 -0.12018759678E+01 -0.30608849862E+02  0.40139114535E+02  0.51100000000E-03 0.  1.
         12    1    3    3    0    0 -0.24589207330E+02  0.22441865029E+01  0.36192203152E+02  0.43812567366E+02  0.00000000000E+00 0. -1.
</event>
<event>
 7    1  0.1716782E-015  0.9000769E+02  0.7816164E-02  0.1186339E+00
        -11   -1    0    0    0    0  0.00000000000E+00  0.00000000000E+00  0.45593999997E+02  0.45594000000E+02  0.51100000000E-03 0. -1.
         11   -1    0    0    0    0 -0.00000000000E+00 -0.00000000000E+00 -0.45593999997E+02  0.45594000000E+02  0.51100000000E-03 0.  1.
    9900012    2    1    2    0    0 -0.59740955765E+00 -0.10098571633E+01  0.12812610210E+00  0.90007692427E+02  0.89999953167E+02 0.  0.
        -12    1    1    2    0    0  0.59740955765E+00  0.10098571633E+01 -0.12812610210E+00  0.11803075734E+01  0.00000000000E+00 0.  1.
         11    1    3    3    0    0 -0.33523273480E+01 -0.39941654485E+01 -0.78361457708E+01  0.94125786627E+01  0.51100000000E-03 0. -1.
        -11    1    3    3    0    0  0.76673194392E+01  0.33180876510E+02 -0.19705017709E+02  0.39345216692E+02  0.51100000000E-03 0.  1.
         12    1    3    3    0    0 -0.49124016488E+01 -0.30196568225E+02  0.27669289581E+02  0.41249897072E+02  0.00000000000E+00 0. -1.
</event>
<event>
 7    1  0.1716782E-015  0.9000770E+02  0.7816164E-02  0.1186339E+00
        -11   -1    0    0    0    0  0.00000000000E+00  0.00000000000E+00  0.45593999997E+02  0.45594000000E+02  0.51100000000E-03 0. -1.
         11   -1    0    0    0    0 -0.00000000000E+00 -0.00000000000E+00 -0.45593999997E+02  0.45594000000E+02  0.51100000000E-03 0.  1.
    9900012    2    1    2    0    0 -0.11549272455E+01 -0.19901851534E+00  0.14017865046E+00  0.90007696918E+02  0.89999957717E+02 0.  0.
        -12    1    1    2    0    0  0.11549272455E+01  0.19901851534E+00 -0.14017865046E+00  0.11803030822E+01  0.00000000000E+00 0.  1.
         11    1    3    3    0    0 -0.82057640019E+01  0.26264009527E+01  0.25562481709E+01  0.89870434400E+01  0.51100000000E-03 0. -1.
        -11    1    3    3    0    0  0.17868945144E+02  0.24793856226E+02 -0.28300225133E+02  0.41652577951E+02  0.51100000000E-03 0.  1.
         12    1    3    3    0    0 -0.10818108387E+02 -0.27619275694E+02  0.25884155613E+02  0.39368075527E+02  0.00000000000E+00 0. -1.
</event>
<event>
 7    1  0.1716782E-015  0.9000773E+02  0.7816164E-02  0.1186339E+00
        -11   -1    0    0    0    0  0.00000000000E+00  0.00000000000E+00  0.45593999997E+02  0.45594000000E+02  0.51100000000E-03 0.  1.
         11   -1    0    0    0    0 -0.00000000000E+00 -0.00000000000E+00 -0.45593999997E+02  0.45594000000E+02  0.51100000000E-03 0. -1.
    9900012    2    1    2    0    0 -0.42516756377E+00 -0.15474647485E+00 -0.10901065730E+01  0.90007726189E+02  0.89999987375E+02 0.  0.
        -12    1    1    2    0    0  0.42516756377E+00  0.15474647485E+00  0.10901065730E+01  0.11802738112E+01  0.00000000000E+00 0.  1.
         11    1    3    3    0    0 -0.47838086780E+01  0.45475363876E+01 -0.16350813405E+01  0.67998826398E+01  0.51100000000E-03 0. -1.
        -11    1    3    3    0    0  0.24320053677E+02 -0.28880619214E+02 -0.22809948355E+02  0.44111777580E+02  0.51100000000E-03 0.  1.
         12    1    3    3    0    0 -0.19961412562E+02  0.24178336352E+02  0.23354923123E+02  0.39096065969E+02  0.00000000000E+00 0. -1.
</event>
<event>
 7    1  0.1716782E-015  0.9000800E+02  0.7816164E-02  0.1186339E+00
        -11   -1    0    0    0    0  0.00000000000E+00  0.00000000000E+00  0.45593999997E+02  0.45594000000E+02  0.51100000000E-03 0. -1.
         11   -1    0    0    0    0 -0.00000000000E+00 -0.00000000000E+00 -0.45593999997E+02  0.45594000000E+02  0.51100000000E-03 0.  1.
    9900012    2    1    2    0    0  0.10104671642E+01  0.60914111583E+00  0.17211601378E-01  0.90008002954E+02  0.90000267793E+02 0.  0.
        -12    1    1    2    0    0 -0.10104671642E+01 -0.60914111583E+00 -0.17211601378E-01  0.11799970458E+01  0.00000000000E+00 0.  1.
         11    1    3    3    0    0 -0.63092020386E+01  0.31362868786E+01  0.38517072337E+02  0.39156189644E+02  0.51100000000E-03 0. -1.
        -11    1    3    3    0    0 -0.79984887832E+01 -0.52809513290E+01 -0.28460103918E+00  0.95888095073E+01  0.51100000000E-03 0.  1.
        -12    1    3    3    0    0  0.15318157986E+02  0.27538055663E+01 -0.38215259696E+02  0.41263003803E+02  0.00000000000E+00 0.  1.
</event>
<event>
 7    1  0.1716782E-015  0.9000763E+02  0.7816164E-02  0.1186339E+00
        -11   -1    0    0    0    0  0.00000000000E+00  0.00000000000E+00  0.45593999997E+02  0.45594000000E+02  0.51100000000E-03 0.  1.
         11   -1    0    0    0    0 -0.00000000000E+00 -0.00000000000E+00 -0.45593999997E+02  0.45594000000E+02  0.51100000000E-03 0. -1.
    9900012    2    1    2    0    0  0.87954391366E+00 -0.37890871686E+00 -0.68999925039E+00  0.90007632143E+02  0.89999892087E+02 0.  0.
        -12    1    1    2    0    0 -0.87954391366E+00  0.37890871686E+00  0.68999925039E+00  0.11803678568E+01  0.00000000000E+00 0.  1.
         11    1    3    3    0    0  0.13818160265E+02 -0.29137145611E+01 -0.13020869061E+02  0.19208704199E+02  0.51100000000E-03 0. -1.
        -11    1    3    3    0    0  0.10732447207E+02  0.30462511897E+02  0.11156152033E+02  0.34170305567E+02  0.51100000000E-03 0.  1.
         12    1    3    3    0    0 -0.23671063558E+02 -0.27927706053E+02  0.11747177777E+01  0.36628622376E+02  0.00000000000E+00 0. -1.
</event>
<event>
 7    1  0.1716782E-015  0.9000775E+02  0.7816164E-02  0.1186339E+00
        -11   -1    0    0    0    0  0.00000000000E+00  0.00000000000E+00  0.45593999997E+02  0.45594000000E+02  0.51100000000E-03 0. -1.
         11   -1    0    0    0    0 -0.00000000000E+00 -0.00000000000E+00 -0.45593999997E+02  0.45594000000E+02  0.51100000000E-03 0.  1.
    9900012    2    1    2    0    0 -0.70817301898E+00 -0.45962964123E+00 -0.82476013058E+00  0.90007746762E+02  0.90000008220E+02 0.  0.
        -12    1    1    2    0    0  0.70817301898E+00  0.45962964123E+00  0.82476013058E+00  0.11802532376E+01  0.00000000000E+00 0.  1.
         11    1    3    3    0    0 -0.32702957869E+02 -0.12218838162E+02 -0.18887910069E+02  0.39693029696E+02  0.51100000000E-03 0. -1.
        -11    1    3    3    0    0 -0.57638606525E+01  0.34982846976E+01  0.78267482001E+01  0.10330443993E+02  0.51100000000E-03 0.  1.
        -12    1    3    3    0    0  0.37758645503E+02  0.82609238232E+01  0.10236401739E+02  0.39984273073E+02  0.00000000000E+00 0.  1.
</event>
<event>
 7    1  0.1716782E-015  0.9000832E+02  0.7816164E-02  0.1186338E+00
        -11   -1    0    0    0    0  0.00000000000E+00  0.00000000000E+00  0.45593999997E+02  0.45594000000E+02  0.51100000000E-03 0.  1.
         11   -1    0    0    0    0 -0.00000000000E+00 -0.00000000000E+00 -0.45593999997E+02  0.45594000000E+02  0.51100000000E-03 0. -1.
    9900012    2    1    2    0    0  0.93259357505E+00  0.17489759426E+00 -0.70095115920E+00  0.90008316792E+02  0.90000585771E+02 0.  0.
        -12    1    1    2    0    0 -0.93259357505E+00 -0.17489759426E+00  0.70095115920E+00  0.11796832084E+01  0.00000000000E+00 0.  1.
         11    1    3    3    0    0 -0.10610766716E+02  0.48156195780E+00  0.70526438699E+01  0.12749904236E+02  0.51100000000E-03 0. -1.
        -11    1    3    3    0    0  0.28767262765E+01 -0.37434610976E+02  0.29433728008E+01  0.37660179191E+02  0.51100000000E-03 0.  1.
         12    1    3    3    0    0  0.86666340141E+01  0.37127946613E+02 -0.10696967830E+02  0.39598233364E+02  0.00000000000E+00 0. -1.
</event>
<event>
 7    1  0.1716782E-015  0.9000777E+02  0.7816164E-02  0.1186339E+00
        -11   -1    0    0    0    0  0.00000000000E+00  0.00000000000E+00  0.45593999997E+02  0.45594000000E+02  0.51100000000E-03 0.  1.
         11   -1    0    0    0    0 -0.00000000000E+00 -0.00000000000E+00 -0.45593999997E+02  0.45594000000E+02  0.51100000000E-03 0. -1.
    9900012    2    1    2    0    0 -0.88164024543E+00  0.64274345495E+00 -0.45003953979E+00  0.90007769404E+02  0.90000031161E+02 0.  0.
        -12    1    1    2    0    0  0.88164024543E+00 -0.64274345495E+00  0.45003953979E+00  0.11802305955E+01  0.00000000000E+00 0.  1.
         11    1    3    3    0    0 -0.13160375572E+02 -0.63192491196E+01 -0.33334461795E+02  0.36391135432E+02  0.51100000000E-03 0. -1.
        -11    1    3    3    0    0 -0.13858628301E+02  0.11135529008E+01  0.45549510109E+01  0.14630418908E+02  0.51100000000E-03 0.  1.
        -12    1    3    3    0    0  0.26137363628E+02  0.58484396737E+01  0.28329471244E+02  0.38986215064E+02  0.00000000000E+00 0.  1.
</event>
<event>
 7    1  0.1716782E-015  0.9000776E+02  0.7816164E-02  0.1186339E+00
        -11   -1    0    0    0    0  0.00000000000E+00  0.00000000000E+00  0.45593999997E+02  0.45594000000E+02  0.51100000000E-03 0.  1.
         11   -1    0    0    0    0 -0.00000000000E+00 -0.00000000000E+00 -0.45593999997E+02  0.45594000000E+02  0.51100000000E-03 0. -1.
    9900012    2    1    2    0    0  0.76541707250E-01  0.84584581631E+00  0.81955020854E+00  0.90007755821E+02  0.90000017398E+02 0.  0.
        -12    1    1    2    0    0 -0.76541707250E-01 -0.84584581631E+00 -0.81955020854E+00  0.11802441791E+01  0.00000000000E+00 0.  1.
         11    1    3    3    0    0 -0.20746665938E+01 -0.83097508654E+01  0.62058879786E+01  0.10576825931E+02  0.51100000000E-03 0. -1.
        -11    1    3    3    0    0  0.37731925041E+02  0.17492250431E+02  0.37612419132E+01  0.41759117967E+02  0.51100000000E-03 0.  1.
         12    1    3    3    0    0 -0.35580716740E+02 -0.83366537495E+01 -0.91475796832E+01  0.37671811922E+02  0.00000000000E+00 0. -1.
</event>
<event>
 7    1  0.1716782E-015  0.9000832E+02  0.7816164E-02  0.1186338E+00
        -11   -1    0    0    0    0  0.00000000000E+00  0.00000000000E+00  0.45593999997E+02  0.45594000000E+02  0.51100000000E-03 0. -1.
         11   -1    0    0    0    0 -0.00000000000E+00 -0.00000000000E+00 -0.45593999997E+02  0.45594000000E+02  0.51100000000E-03 0.  1.
    9900012    2    1    2    0    0 -0.71104248546E+00  0.75494233872E+00 -0.56225131284E+00  0.90008319582E+02  0.90000588598E+02 0.  0.
        -12    1    1    2    0    0  0.71104248546E+00 -0.75494233872E+00  0.56225131284E+00  0.11796804185E+01  0.00000000000E+00 0.  1.
         11    1    3    3    0    0 -0.99892128243E+00  0.90192115513E+01  0.28603581090E+01  0.95144978590E+01  0.51100000000E-03 0. -1.
        -11    1    3    3    0    0 -0.30699565252E+02  0.21348404800E+02 -0.41776185290E+01  0.37625392901E+02  0.51100000000E-03 0.  1.
         12    1    3    3    0    0  0.30987444049E+02 -0.29612674013E+02  0.75500910713E+00  0.42868428821E+02  0.00000000000E+00 0. -1.
</event>
<event>
 7    1  0.1716782E-015  0.9000783E+02  0.7816164E-02  0.1186339E+00
        -11   -1    0    0    0    0  0.00000000000E+00  0.00000000000E+00  0.45593999997E+02  0.45594000000E+02  0.51100000000E-03 0.  1.
         11   -1    0    0    0    0 -0.00000000000E+00 -0.00000000000E+00 -0.45593999997E+02  0.45594000000E+02  0.51100000000E-03 0. -1.
    9900012    2    1    2    0    0 -0.89737148703E+00 -0.26517588017E+00 -0.71917927921E+00  0.90007825153E+02  0.90000087645E+02 0.  0.
        -12    1    1    2    0    0  0.89737148703E+00  0.26517588017E+00  0.71917927921E+00  0.11801748467E+01  0.00000000000E+00 0.  1.
         11    1    3    3    0    0 -0.63518340967E+01  0.18568690938E+02 -0.30689815466E+02  0.36428105264E+02  0.51100000000E-03 0. -1.
        -11    1    3    3    0    0 -0.38599999213E+01  0.64163767126E+01 -0.53289404427E+01  0.91905982402E+01  0.51100000000E-03 0.  1.
        -12    1    3    3    0    0  0.93144625310E+01 -0.25250243531E+02  0.35299576629E+02  0.44389121649E+02  0.00000000000E+00 0.  1.
</event>
<event>
 7    1  0.1716782E-015  0.9000770E+02  0.7816164E-02  0.1186339E+00
        -11   -1    0    0    0    0  0.00000000000E+00  0.00000000000E+00  0.45593999997E+02  0.45594000000E+02  0.51100000000E-03 0. -1.
         11   -1    0    0    0    0 -0.00000000000E+00 -0.00000000000E+00 -0.45593999997E+02  0.45594000000E+02  0.51100000000E-03 0.  1.
    9900012    2    1    2    0    0  0.10453096733E+01 -0.51611356065E+00 -0.18455975046E+00  0.90007700114E+02  0.89999960955E+02 0.  0.
        -12    1    1    2    0    0 -0.10453096733E+01  0.51611356064E+00  0.18455975046E+00  0.11802998865E+01  0.00000000000E+00 0.  1.
         11    1    3    3    0    0 -0.64516033018E+01  0.61796322125E+00  0.25642736700E+01  0.69699758552E+01  0.51100000000E-03 0. -1.
        -11    1    3    3    0    0  0.28955213346E+01 -0.41882612340E+02 -0.10938167862E+01  0.41996829590E+02  0.51100000000E-03 0.  1.
         12    1    3    3    0    0  0.46013916405E+01  0.40748535558E+02 -0.16550166342E+01  0.41040894668E+02  0.00000000000E+00 0. -1.
</event>
<event>
 7    1  0.4330238E-015  0.9000783E+02  0.7816164E-02  0.1186339E+00
        -11   -1    0    0    0    0  0.00000000000E+00  0.00000000000E+00  0.45593999997E+02  0.45594000000E+02  0.51100000000E-03 0. -1.
         11   -1    0    0    0    0 -0.00000000000E+00 -0.00000000000E+00 -0.45593999997E+02  0.45594000000E+02  0.51100000000E-03 0.  1.
    9900012    2    1    2    0    0 -0.32711278890E+00  0.62530906496E+00  0.94592815109E+00  0.90007832948E+02  0.90000095543E+02 0.  0.
        -12    1    1    2    0    0  0.32711278890E+00 -0.62530906496E+00 -0.94592815109E+00  0.11801670519E+01  0.00000000000E+00 0.  1.
         11    1    3    3    0    0 -0.34438495012E+02  0.44459178094E+01  0.20109653826E+02  0.40126977224E+02  0.51100000000E-03 0. -1.
        -11    1    3    3    0    0 -0.32247301545E+01  0.56519046565E+01 -0.68344286965E+01  0.94367540333E+01  0.51100000000E-03 0.  1.
        -12    1    3    3    0    0  0.37336112378E+02 -0.94725134010E+01 -0.12329296978E+02  0.40444101691E+02  0.00000000000E+00 0.  1.
</event>
<event>
 7    1  0.1716782E-015  0.9000819E+02  0.7816164E-02  0.1186338E+00
        -11   -1    0    0    0    0  0.00000000000E+00  0.00000000000E+00  0.45593999997E+02  0.45594000000E+02  0.51100000000E-03 0. -1.
         11   -1    0    0    0    0 -0.00000000000E+00 -0.00000000000E+00 -0.45593999997E+02  0.45594000000E+02  0.51100000000E-03 0.  1.
    9900012    2    1    2    0    0  0.11253261424E+01  0.34959808040E+00  0.57988888653E-01  0.90008194738E+02  0.90000462108E+02 0.  0.
        -12    1    1    2    0    0 -0.11253261424E+01 -0.34959808040E+00 -0.57988888653E-01  0.11798052618E+01  0.00000000000E+00 0.  1.
         11    1    3    3    0    0  0.14363228276E+02 -0.14162890324E+02  0.30002815860E+02  0.36153267468E+02  0.51100000000E-03 0. -1.
        -11    1    3    3    0    0  0.17239407888E+01 -0.38908147517E+01  0.80264794202E+01  0.90848656247E+01  0.51100000000E-03 0.  1.
        -12    1    3    3    0    0 -0.14961842922E+02  0.18403303156E+02 -0.37971306391E+02  0.44770061646E+02  0.00000000000E+00 0.  1.
</event>
<event>
 7    1  0.1716782E-015  0.9000793E+02  0.7816164E-02  0.1186339E+00
        -11   -1    0    0    0    0  0.00000000000E+00  0.00000000000E+00  0.45593999997E+02  0.45594000000E+02  0.51100000000E-03 0.  1.
         11   -1    0    0    0    0 -0.00000000000E+00 -0.00000000000E+00 -0.45593999997E+02  0.45594000000E+02  0.51100000000E-03 0. -1.
    9900012    2    1    2    0    0 -0.46059820512E+00 -0.69315483712E+00 -0.83662694709E+00  0.90007932636E+02  0.90000196547E+02 0.  0.
        -12    1    1    2    0    0  0.46059820512E+00  0.69315483712E+00  0.83662694709E+00  0.11800673639E+01  0.00000000000E+00 0.  1.
         11    1    3    3    0    0  0.42653329999E+01 -0.35572799929E+01  0.29985705014E+01  0.63117930781E+01  0.51100000000E-03 0. -1.
        -11    1    3    3    0    0 -0.43249458834E+01  0.18022751618E+02  0.36318530244E+02  0.40774506399E+02  0.51100000000E-03 0.  1.
         12    1    3    3    0    0 -0.40098532163E+00 -0.15158626462E+02 -0.40153727692E+02  0.42921633159E+02  0.00000000000E+00 0. -1.
</event>
<event>
 7    1  0.1716782E-015  0.9000766E+02  0.7816164E-02  0.1186339E+00
        -11   -1    0    0    0    0  0.00000000000E+00  0.00000000000E+00  0.45593999997E+02  0.45594000000E+02  0.51100000000E-03 0. -1.
         11   -1    0    0    0    0 -0.00000000000E+00 -0.00000000000E+00 -0.45593999997E+02  0.45594000000E+02  0.51100000000E-03 0.  1.
    9900012    2    1    2    0    0 -0.30227117113E+00 -0.37622233759E+00  0.10771705482E+01  0.90007657889E+02  0.89999918173E+02 0.  0.
        -12    1    1    2    0    0  0.30227117113E+00  0.37622233759E+00 -0.10771705482E+01  0.11803421106E+01  0.00000000000E+00 0.  1.
         11    1    3    3    0    0 -0.85394466490E+01  0.19096675746E+01 -0.40476857142E+01  0.96412000922E+01  0.51100000000E-03 0. -1.
        -11    1    3    3    0    0  0.23072072446E+01  0.23322616812E+02 -0.29003213152E+02  0.37288792333E+02  0.51100000000E-03 0.  1.
         12    1    3    3    0    0  0.59299682332E+01 -0.25608506724E+02  0.34128069415E+02  0.43077665464E+02  0.00000000000E+00 0. -1.
</event>
<event>
 7    1  0.1716782E-015  0.9000739E+02  0.7816164E-02  0.1186340E+00
        -11   -1    0    0    0    0  0.00000000000E+00  0.00000000000E+00  0.45593999997E+02  0.45594000000E+02  0.51100000000E-03 0. -1.
         11   -1    0    0    0    0 -0.00000000000E+00 -0.00000000000E+00 -0.45593999997E+02  0.45594000000E+02  0.51100000000E-03 0.  1.
    9900012    2    1    2    0    0 -0.82351676505E-01 -0.67093126937E+00  0.96794356718E+00  0.90007387737E+02  0.89999644454E+02 0.  0.
        -12    1    1    2    0    0  0.82351676505E-01  0.67093126937E+00 -0.96794356718E+00  0.11806122632E+01  0.00000000000E+00 0.  1.
         11    1    3    3    0    0 -0.27489432275E+02  0.24649929214E+02 -0.83614066229E+01  0.37857641475E+02  0.51100000000E-03 0. -1.
        -11    1    3    3    0    0 -0.51260197992E+01  0.14973217033E+01  0.84290623671E+01  0.99783337244E+01  0.51100000000E-03 0.  1.
        -12    1    3    3    0    0  0.32533100397E+02 -0.26818182187E+02  0.90028782298E+00  0.42171412538E+02  0.00000000000E+00 0.  1.
</event>
<event>
 7    1  0.1716782E-015  0.9000811E+02  0.7816164E-02  0.1186338E+00
        -11   -1    0    0    0    0  0.00000000000E+00  0.00000000000E+00  0.45593999997E+02  0.45594000000E+02  0.51100000000E-03 0. -1.
         11   -1    0    0    0    0 -0.00000000000E+00 -0.00000000000E+00 -0.45593999997E+02  0.45594000000E+02  0.51100000000E-03 0.  1.
    9900012    2    1    2    0    0  0.78384335542E+00 -0.36668590080E-01  0.88113312519E+00  0.90008105693E+02  0.90000371887E+02 0.  0.
        -12    1    1    2    0    0 -0.78384335542E+00  0.36668590080E-01 -0.88113312519E+00  0.11798943070E+01  0.00000000000E+00 0.  1.
         11    1    3    3    0    0  0.61163866189E+01 -0.74696838635E+01 -0.37205030203E+00  0.96615104400E+01  0.51100000000E-03 0. -1.
        -11    1    3    3    0    0  0.29234691386E+02  0.27601579197E+02 -0.14746610166E+01  0.40232934022E+02  0.51100000000E-03 0.  1.
         12    1    3    3    0    0 -0.34567234650E+02 -0.20168563924E+02  0.27278444439E+01  0.40113661231E+02  0.00000000000E+00 0. -1.
</event>
<event>
 7    1  0.1716782E-015  0.9000779E+02  0.7816164E-02  0.1186339E+00
        -11   -1    0    0    0    0  0.00000000000E+00  0.00000000000E+00  0.45593999997E+02  0.45594000000E+02  0.51100000000E-03 0.  1.
         11   -1    0    0    0    0 -0.00000000000E+00 -0.00000000000E+00 -0.45593999997E+02  0.45594000000E+02  0.51100000000E-03 0. -1.
    9900012    2    1    2    0    0 -0.66334023513E+00 -0.19623364423E+00 -0.95622078488E+00  0.90007794043E+02  0.90000056125E+02 0.  0.
        -12    1    1    2    0    0  0.66334023513E+00  0.19623364423E+00  0.95622078488E+00  0.11802059566E+01  0.00000000000E+00 0.  1.
         11    1    3    3    0    0  0.95960276385E+01 -0.15898084363E-02  0.81511062342E+01  0.12590642639E+02  0.51100000000E-03 0. -1.
        -11    1    3    3    0    0  0.11734962958E+02  0.26208231341E+02  0.17789025657E+02  0.33779138232E+02  0.51100000000E-03 0.  1.
         12    1    3    3    0    0 -0.21994330832E+02 -0.26402875176E+02 -0.26896352676E+02  0.43638013172E+02  0.00000000000E+00 0. -1.
</event>
<event>
 7    1  0.1716782E-015  0.9000670E+02  0.7816164E-02  0.1186341E+00
        -11   -1    0    0    0    0  0.00000000000E+00  0.00000000000E+00  0.45593999997E+02  0.45594000000E+02  0.51100000000E-03 0.  1.
         11   -1    0    0    0    0 -0.00000000000E+00 -0.00000000000E+00 -0.45593999997E+02  0.45594000000E+02  0.51100000000E-03 0. -1.
    9900012    2    1    2    0    0 -0.40474862446E+00  0.81388979371E-01 -0.11068106930E+01  0.90006697530E+02  0.89998945131E+02 0.  0.
        -12    1    1    2    0    0  0.40474862446E+00 -0.81388979371E-01  0.11068106930E+01  0.11813024697E+01  0.00000000000E+00 0.  1.
         11    1    3    3    0    0 -0.13061347639E+02  0.12242736089E+02 -0.28264013399E+02  0.33456506733E+02  0.51100000000E-03 0. -1.
        -11    1    3    3    0    0 -0.10834340797E+02  0.10488200455E+02  0.17234484891E+01  0.15177468967E+02  0.51100000000E-03 0.  1.
        -12    1    3    3    0    0  0.23490939812E+02 -0.22649547565E+02  0.25433754217E+02  0.41372721831E+02  0.00000000000E+00 0.  1.
</event>
<event>
 7    1  0.1716782E-015  0.9000777E+02  0.7816164E-02  0.1186339E+00
        -11   -1    0    0    0    0  0.00000000000E+00  0.00000000000E+00  0.45593999997E+02  0.45594000000E+02  0.51100000000E-03 0.  1.
         11   -1    0    0    0    0 -0.00000000000E+00 -0.00000000000E+00 -0.45593999997E+02  0.45594000000E+02  0.51100000000E-03 0. -1.
    9900012    2    1    2    0    0  0.25385862073E+00 -0.44688046946E+00 -0.10624481120E+01  0.90007770216E+02  0.90000031982E+02 0.  0.
        -12    1    1    2    0    0 -0.25385862073E+00  0.44688046946E+00  0.10624481120E+01  0.11802297844E+01  0.00000000000E+00 0.  1.
         11    1    3    3    0    0  0.99994815086E+01 -0.33261312425E+02 -0.10210454308E+02  0.36201628583E+02  0.51100000000E-03 0. -1.
        -11    1    3    3    0    0  0.74254830938E+01  0.22779431416E+01 -0.10944216847E+02  0.13420234975E+02  0.51100000000E-03 0.  1.
        -12    1    3    3    0    0 -0.17171105982E+02  0.30536488814E+02  0.20092223043E+02  0.40385906657E+02  0.00000000000E+00 0.  1.
</event>
<event>
 7    1  0.1716782E-015  0.9000764E+02  0.7816164E-02  0.1186339E+00
        -11   -1    0    0    0    0  0.00000000000E+00  0.00000000000E+00  0.45593999997E+02  0.45594000000E+02  0.51100000000E-03 0. -1.
         11   -1    0    0    0    0 -0.00000000000E+00 -0.00000000000E+00 -0.45593999997E+02  0.45594000000E+02  0.51100000000E-03 0.  1.
    9900012    2    1    2    0    0  0.95371464758E+00 -0.24454100422E+00  0.65106486077E+00  0.90007636757E+02  0.89999896762E+02 0.  0.
        -12    1    1    2    0    0 -0.95371464758E+00  0.24454100422E+00 -0.65106486077E+00  0.11803632427E+01  0.00000000000E+00 0.  1.
         11    1    3    3    0    0  0.16789170838E+02 -0.16432663845E+02  0.22528597814E+00  0.23493817325E+02  0.51100000000E-03 0. -1.
        -11    1    3    3    0    0 -0.13173080003E+02 -0.69732513958E+01 -0.26802511592E+02  0.30668076231E+02  0.51100000000E-03 0.  1.
         12    1    3    3    0    0 -0.26623761867E+01  0.23161374237E+02  0.27228290475E+02  0.35845743201E+02  0.00000000000E+00 0. -1.
</event>
<event>
 7    1  0.1716782E-015  0.9000845E+02  0.7816164E-02  0.1186338E+00
        -11   -1    0    0    0    0  0.00000000000E+00  0.00000000000E+00  0.45593999997E+02  0.45594000000E+02  0.51100000000E-03 0. -1.
         11   -1    0    0    0    0 -0.00000000000E+00 -0.00000000000E+00 -0.45593999997E+02  0.45594000000E+02  0.51100000000E-03 0.  1.
    9900012    2    1    2    0    0 -0.84992090866E+00 -0.48394962994E+00  0.65936501493E+00  0.90008451350E+02  0.90000722105E+02 0.  0.
        -12    1    1    2    0    0  0.84992090866E+00  0.48394962994E+00 -0.65936501493E+00  0.11795486502E+01  0.00000000000E+00 0.  1.
         11    1    3    3    0    0 -0.64471926566E+01 -0.67408819611E+01  0.55420686438E+00  0.93441387123E+01  0.51100000000E-03 0. -1.
        -11    1    3    3    0    0 -0.29193524799E+02  0.10736374800E+02 -0.22978634590E+02  0.38672332254E+02  0.51100000000E-03 0.  1.
         12    1    3    3    0    0  0.34790796547E+02 -0.44794424692E+01  0.23083792741E+02  0.41991980384E+02  0.00000000000E+00 0. -1.
</event>
<event>
 7    1  0.1716782E-015  0.9000774E+02  0.7816164E-02  0.1186339E+00
        -11   -1    0    0    0    0  0.00000000000E+00  0.00000000000E+00  0.45593999997E+02  0.45594000000E+02  0.51100000000E-03 0. -1.
         11   -1    0    0    0    0 -0.00000000000E+00 -0.00000000000E+00 -0.45593999997E+02  0.45594000000E+02  0.51100000000E-03 0.  1.
    9900012    2    1    2    0    0 -0.39519465524E+00  0.10392143562E+01 -0.39605419663E+00  0.90007744002E+02  0.90000005423E+02 0.  0.
        -12    1    1    2    0    0  0.39519465524E+00 -0.10392143562E+01  0.39605419663E+00  0.11802559978E+01  0.00000000000E+00 0.  1.
         11    1    3    3    0    0  0.74065845864E+01 -0.64447175644E+01 -0.44813165987E+01  0.10792315713E+02  0.51100000000E-03 0. -1.
        -11    1    3    3    0    0  0.73790833304E+01 -0.40645519201E+01 -0.34852783053E+02  0.35856490903E+02  0.51100000000E-03 0.  1.
         12    1    3    3    0    0 -0.15180862572E+02  0.11548483841E+02  0.38938045455E+02  0.43358937387E+02  0.00000000000E+00 0. -1.
</event>
<event>
 7    1  0.1716782E-015  0.9000772E+02  0.7816164E-02  0.1186339E+00
        -11   -1    0    0    0    0  0.00000000000E+00  0.00000000000E+00  0.45593999997E+02  0.45594000000E+02  0.51100000000E-03 0. -1.
         11   -1    0    0    0    0 -0.00000000000E+00 -0.00000000000E+00 -0.45593999997E+02  0.45594000000E+02  0.51100000000E-03 0.  1.
    9900012    2    1    2    0    0 -0.75590933490E-01 -0.11770793060E+01 -0.42670820002E-01  0.90007724405E+02  0.89999985567E+02 0.  0.
        -12    1    1    2    0    0  0.75590933490E-01  0.11770793060E+01  0.42670820002E-01  0.11802755953E+01  0.00000000000E+00 0.  1.
         11    1    3    3    0    0 -0.51506820560E+01 -0.37739356002E+02 -0.17212066573E+02  0.41797652483E+02  0.51100000000E-03 0. -1.
        -11    1    3    3    0    0 -0.85080641825E+01  0.40139021316E+01  0.62311567887E+01  0.11283877066E+02  0.51100000000E-03 0.  1.
        -12    1    3    3    0    0  0.13583155305E+02  0.32548374565E+02  0.10938238965E+02  0.36926194855E+02  0.00000000000E+00 0.  1.
</event>
<event>
 7    1  0.1716782E-015  0.9000768E+02  0.7816164E-02  0.1186339E+00
        -11   -1    0    0    0    0  0.00000000000E+00  0.00000000000E+00  0.45593999997E+02  0.45594000000E+02  0.51100000000E-03 0.  1.
         11   -1    0    0    0    0 -0.00000000000E+00 -0.00000000000E+00 -0.45593999997E+02  0.45594000000E+02  0.51100000000E-03 0. -1.
    9900012    2    1    2    0    0 -0.72670992786E+00 -0.61867293752E+00  0.69446585560E+00  0.90007683793E+02  0.89999944419E+02 0.  0.
        -12    1    1    2    0    0  0.72670992786E+00  0.61867293752E+00 -0.69446585560E+00  0.11803162066E+01  0.00000000000E+00 0.  1.
         11    1    3    3    0    0  0.25787278389E+01 -0.10660229665E+02  0.11054986414E+02  0.15572509710E+02  0.51100000000E-03 0. -1.
        -11    1    3    3    0    0 -0.22212865308E+01 -0.30618358551E+02  0.47111716745E+01  0.31058221665E+02  0.51100000000E-03 0.  1.
         12    1    3    3    0    0 -0.10841512359E+01  0.40659915279E+02 -0.15071692233E+02  0.43376952419E+02  0.00000000000E+00 0. -1.
</event>
<event>
 7    1  0.1716782E-015  0.9000773E+02  0.7816164E-02  0.1186339E+00
        -11   -1    0    0    0    0  0.00000000000E+00  0.00000000000E+00  0.45593999997E+02  0.45594000000E+02  0.51100000000E-03 0.  1.
         11   -1    0    0    0    0 -0.00000000000E+00 -0.00000000000E+00 -0.45593999997E+02  0.45594000000E+02  0.51100000000E-03 0. -1.
    9900012    2    1    2    0    0 -0.12265747200E+00  0.11573490083E+01  0.19631890659E+00  0.90007727703E+02  0.89999988908E+02 0.  0.
        -12    1    1    2    0    0  0.12265747200E+00 -0.11573490083E+01 -0.19631890659E+00  0.11802722972E+01  0.00000000000E+00 0.  1.
         11    1    3    3    0    0 -0.61547654060E+01 -0.10274815114E+02 -0.39838376418E+02  0.41599870177E+02  0.51100000000E-03 0. -1.
        -11    1    3    3    0    0 -0.41090307493E+01  0.78545421391E+01  0.22819802410E+01  0.91534365129E+01  0.51100000000E-03 0.  1.
        -12    1    3    3    0    0  0.10141138683E+02  0.35776219833E+01  0.37752715084E+02  0.39254421013E+02  0.00000000000E+00 0.  1.
</event>
<event>
 7    1  0.1716782E-015  0.9000756E+02  0.7816164E-02  0.1186339E+00
        -11   -1    0    0    0    0  0.00000000000E+00  0.00000000000E+00  0.45593999997E+02  0.45594000000E+02  0.51100000000E-03 0. -1.
         11   -1    0    0    0    0 -0.00000000000E+00 -0.00000000000E+00 -0.45593999997E+02  0.45594000000E+02  0.51100000000E-03 0.  1.
    9900012    2    1    2    0    0 -0.40714529624E+00 -0.22090597341E-01  0.11077801188E+01  0.90007562760E+02  0.89999821788E+02 0.  0.
        -12    1    1    2    0    0  0.40714529624E+00  0.22090597341E-01 -0.11077801188E+01  0.11804372403E+01  0.00000000000E+00 0.  1.
         11    1    3    3    0    0 -0.13979006722E+02 -0.11024404669E+02 -0.31234594589E+02  0.35952051772E+02  0.51100000000E-03 0. -1.
        -11    1    3    3    0    0 -0.42362857746E+01  0.53042745586E+01 -0.74563112585E+01  0.10083552132E+02  0.51100000000E-03 0.  1.
        -12    1    3    3    0    0  0.17808147200E+02  0.56980395129E+01  0.39798685966E+02  0.43971958856E+02  0.00000000000E+00 0.  1.
</event>
<event>
 7    1  0.1716782E-015  0.9000770E+02  0.7816164E-02  0.1186339E+00
        -11   -1    0    0    0    0  0.00000000000E+00  0.00000000000E+00  0.45593999997E+02  0.45594000000E+02  0.51100000000E-03 0.  1.
         11   -1    0    0    0    0 -0.00000000000E+00 -0.00000000000E+00 -0.45593999997E+02  0.45594000000E+02  0.51100000000E-03 0. -1.
    9900012    2    1    2    0    0  0.11205187866E+01 -0.21610770833E-01  0.37023606511E+00  0.90007701682E+02  0.89999962544E+02 0.  0.
        -12    1    1    2    0    0 -0.11205187866E+01  0.21610770833E-01 -0.37023606511E+00  0.11802983184E+01  0.00000000000E+00 0.  1.
         11    1    3    3    0    0  0.98294382752E+00  0.90115117006E+01 -0.14557492779E+01  0.91811071184E+01  0.51100000000E-03 0. -1.
        -11    1    3    3    0    0  0.85627032869E+00  0.35355433477E+02 -0.56279434169E+01  0.35810803154E+02  0.51100000000E-03 0.  1.
         12    1    3    3    0    0 -0.71869536957E+00 -0.44388555948E+02  0.74539287599E+01  0.45015791409E+02  0.00000000000E+00 0. -1.
</event>
<event>
 7    1  0.1716782E-015  0.9000775E+02  0.7816164E-02  0.1186339E+00
        -11   -1    0    0    0    0  0.00000000000E+00  0.00000000000E+00  0.45593999997E+02  0.45594000000E+02  0.51100000000E-03 0. -1.
         11   -1    0    0    0    0 -0.00000000000E+00 -0.00000000000E+00 -0.45593999997E+02  0.45594000000E+02  0.51100000000E-03 0.  1.
    9900012    2    1    2    0    0 -0.10589194350E+01  0.50096638298E+00  0.14390473274E+00  0.90007751611E+02  0.90000013133E+02 0.  0.
        -12    1    1    2    0    0  0.10589194350E+01 -0.50096638298E+00 -0.14390473274E+00  0.11802483886E+01  0.00000000000E+00 0.  1.
         11    1    3    3    0    0  0.33283154126E+00 -0.34825030988E+01 -0.18256838168E+01  0.39461026758E+01  0.51100000000E-03 0. -1.
        -11    1    3    3    0    0 -0.67803292896E+01 -0.40583456984E+02  0.12073487776E+01  0.41163667686E+02  0.51100000000E-03 0.  1.
         12    1    3    3    0    0  0.53885783133E+01  0.44566926466E+02  0.76223977194E+00  0.44897981250E+02  0.00000000000E+00 0. -1.
</event>
<event>
 7    1  0.1716782E-015  0.9000783E+02  0.7816164E-02  0.1186339E+00
        -11   -1    0    0    0    0  0.00000000000E+00  0.00000000000E+00  0.45593999997E+02  0.45594000000E+02  0.51100000000E-03 0. -1.
         11   -1    0    0    0    0 -0.00000000000E+00 -0.00000000000E+00 -0.45593999997E+02  0.45594000000E+02  0.51100000000E-03 0.  1.
    9900012    2    1    2    0    0 -0.11463439445E+00 -0.62745588131E+00  0.99295352825E+00  0.90007831098E+02  0.90000093669E+02 0.  0.
        -12    1    1    2    0    0  0.11463439445E+00  0.62745588131E+00 -0.99295352825E+00  0.11801689017E+01  0.00000000000E+00 0.  1.
         11    1    3    3    0    0 -0.32946004593E+01  0.72815089548E+01 -0.40929561127E+01  0.89792569206E+01  0.51100000000E-03 0. -1.
        -11    1    3    3    0    0 -0.33942548476E+01  0.33369862044E+02 -0.12343552381E+02  0.35741179954E+02  0.51100000000E-03 0.  1.
         12    1    3    3    0    0  0.65742209124E+01 -0.41278826880E+02  0.17429462022E+02  0.45287394224E+02  0.00000000000E+00 0. -1.
</event>
<event>
 7    1  0.1716782E-015  0.9000767E+02  0.7816164E-02  0.1186339E+00
        -11   -1    0    0    0    0  0.00000000000E+00  0.00000000000E+00  0.45593999997E+02  0.45594000000E+02  0.51100000000E-03 0.  1.
         11   -1    0    0    0    0 -0.00000000000E+00 -0.00000000000E+00 -0.45593999997E+02  0.45594000000E+02  0.51100000000E-03 0. -1.
    9900012    2    1    2    0    0 -0.94717894065E+00  0.65611499239E+00 -0.25599600132E+00  0.90007674290E+02  0.89999934791E+02 0.  0.
        -12    1    1    2    0    0  0.94717894065E+00 -0.65611499239E+00  0.25599600132E+00  0.11803257099E+01  0.00000000000E+00 0.  1.
         11    1    3    3    0    0 -0.37100991805E+02 -0.53199405242E+01 -0.81502685355E+01  0.38356384573E+02  0.51100000000E-03 0. -1.
        -11    1    3    3    0    0 -0.39565931727E+01  0.99726622731E+01  0.13226786417E+01  0.10810092571E+02  0.51100000000E-03 0.  1.
        -12    1    3    3    0    0  0.40110406037E+02 -0.39966067565E+01  0.65715938924E+01  0.40841197146E+02  0.00000000000E+00 0.  1.
</event>
<event>
 7    1  0.1716782E-015  0.9000775E+02  0.7816164E-02  0.1186339E+00
        -11   -1    0    0    0    0  0.00000000000E+00  0.00000000000E+00  0.45593999997E+02  0.45594000000E+02  0.51100000000E-03 0.  1.
         11   -1    0    0    0    0 -0.00000000000E+00 -0.00000000000E+00 -0.45593999997E+02  0.45594000000E+02  0.51100000000E-03 0. -1.
    9900012    2    1    2    0    0  0.21913628257E+00  0.97981501161E+00 -0.62042847500E+00  0.90007750171E+02  0.90000011673E+02 0.  0.
        -12    1    1    2    0    0 -0.21913628257E+00 -0.97981501161E+00  0.62042847500E+00  0.11802498294E+01  0.00000000000E+00 0.  1.
         11    1    3    3    0    0 -0.21318140513E+02  0.25265016653E+02  0.18223918890E+02  0.37747786708E+02  0.51100000000E-03 0. -1.
        -11    1    3    3    0    0 -0.30312689374E+00  0.88783706638E+01 -0.50760351731E+01  0.10231494754E+02  0.51100000000E-03 0.  1.
        -12    1    3    3    0    0  0.21840403689E+02 -0.33163572305E+02 -0.13768312192E+02  0.42028468708E+02  0.00000000000E+00 0.  1.
</event>
<event>
 7    1  0.1716782E-015  0.9000734E+02  0.7816164E-02  0.1186340E+00
        -11   -1    0    0    0    0  0.00000000000E+00  0.00000000000E+00  0.45593999997E+02  0.45594000000E+02  0.51100000000E-03 0.  1.
         11   -1    0    0    0    0 -0.00000000000E+00 -0.00000000000E+00 -0.45593999997E+02  0.45594000000E+02  0.51100000000E-03 0. -1.
    9900012    2    1    2    0    0  0.95935093122E+00 -0.30954703577E+00 -0.61463586534E+00  0.90007343054E+02  0.89999599182E+02 0.  0.
        -12    1    1    2    0    0 -0.95935093122E+00  0.30954703577E+00  0.61463586534E+00  0.11806569458E+01  0.00000000000E+00 0.  1.
         11    1    3    3    0    0  0.27976318250E+02  0.25054402215E+02 -0.17383395498E+02  0.41383328678E+02  0.51100000000E-03 0. -1.
        -11    1    3    3    0    0  0.51624583230E+01 -0.63386641390E+01  0.19007757592E+01  0.83930082659E+01  0.51100000000E-03 0.  1.
        -12    1    3    3    0    0 -0.32179425642E+02 -0.19025285111E+02  0.14867983874E+02  0.40231006111E+02  0.00000000000E+00 0.  1.
</event>
<event>
 7    1  0.1716782E-015  0.9000790E+02  0.7816164E-02  0.1186339E+00
        -11   -1    0    0    0    0  0.00000000000E+00  0.00000000000E+00  0.45593999997E+02  0.45594000000E+02  0.51100000000E-03 0.  1.
         11   -1    0    0    0    0 -0.00000000000E+00 -0.00000000000E+00 -0.45593999997E+02  0.45594000000E+02  0.51100000000E-03 0. -1.
    9900012    2    1    2    0    0 -0.25500480540E+00  0.53666943047E+00 -0.10195995628E+01  0.90007904751E+02  0.90000168294E+02 0.  0.
        -12    1    1    2    0    0  0.25500480540E+00 -0.53666943047E+00  0.10195995628E+01  0.11800952490E+01  0.00000000000E+00 0.  1.
         11    1    3    3    0    0 -0.63218083209E+01  0.32418833823E+02 -0.16755500016E+02  0.37036371689E+02  0.51100000000E-03 0. -1.
        -11    1    3    3    0    0 -0.57543139107E+01  0.68086021055E+01 -0.14218354680E+01  0.90272259068E+01  0.51100000000E-03 0.  1.
        -12    1    3    3    0    0  0.11821117426E+02 -0.38690766498E+02  0.17157735921E+02  0.43944307155E+02  0.00000000000E+00 0.  1.
</event>
<event>
 7    1  0.1716782E-015  0.9000772E+02  0.7816164E-02  0.1186339E+00
        -11   -1    0    0    0    0  0.00000000000E+00  0.00000000000E+00  0.45593999997E+02  0.45594000000E+02  0.51100000000E-03 0. -1.
         11   -1    0    0    0    0 -0.00000000000E+00 -0.00000000000E+00 -0.45593999997E+02  0.45594000000E+02  0.51100000000E-03 0.  1.
    9900012    2    1    2    0    0  0.54429709548E+00  0.10464405232E+01  0.42035297419E-01  0.90007718651E+02  0.89999979737E+02 0.  0.
        -12    1    1    2    0    0 -0.54429709548E+00 -0.10464405232E+01 -0.42035297419E-01  0.11802813490E+01  0.00000000000E+00 0.  1.
         11    1    3    3    0    0 -0.25004866314E+02 -0.22163451637E+02  0.28387830872E+02  0.43844393823E+02  0.51100000000E-03 0. -1.
        -11    1    3    3    0    0  0.14843933479E+01  0.68874361421E+01 -0.80772043574E+01  0.10718275548E+02  0.51100000000E-03 0.  1.
        -12    1    3    3    0    0  0.24064770061E+02  0.16322456018E+02 -0.20268591217E+02  0.35445049280E+02  0.00000000000E+00 0.  1.
</event>
<event>
 7    1  0.1716782E-015  0.9000770E+02  0.7816164E-02  0.1186339E+00
        -11   -1    0    0    0    0  0.00000000000E+00  0.00000000000E+00  0.45593999997E+02  0.45594000000E+02  0.51100000000E-03 0.  1.
         11   -1    0    0    0    0 -0.00000000000E+00 -0.00000000000E+00 -0.45593999997E+02  0.45594000000E+02  0.51100000000E-03 0. -1.
    9900012    2    1    2    0    0  0.42922184921E+00 -0.10985653988E+01  0.45122523447E-01  0.90007697762E+02  0.89999958572E+02 0.  0.
        -12    1    1    2    0    0 -0.42922184921E+00  0.10985653988E+01 -0.45122523447E-01  0.11803022381E+01  0.00000000000E+00 0.  1.
         11    1    3    3    0    0 -0.30224306199E+02 -0.29472646831E+02 -0.60424256276E+01  0.42645709095E+02  0.51100000000E-03 0. -1.
        -11    1    3    3    0    0  0.28976047561E+00  0.27217130677E+01  0.70901257628E+01  0.76001030749E+01  0.51100000000E-03 0.  1.
        -12    1    3    3    0    0  0.30363767573E+02  0.25652368365E+02 -0.10025776117E+01  0.39761885592E+02  0.00000000000E+00 0.  1.
</event>
<event>
 7    1  0.1716782E-015  0.9000779E+02  0.7816164E-02  0.1186339E+00
        -11   -1    0    0    0    0  0.00000000000E+00  0.00000000000E+00  0.45593999997E+02  0.45594000000E+02  0.51100000000E-03 0.  1.
         11   -1    0    0    0    0 -0.00000000000E+00 -0.00000000000E+00 -0.45593999997E+02  0.45594000000E+02  0.51100000000E-03 0. -1.
    9900012    2    1    2    0    0 -0.10347161292E+01 -0.29126304771E+00 -0.48725255039E+00  0.90007793798E+02  0.90000055876E+02 0.  0.
        -12    1    1    2    0    0  0.10347161292E+01  0.29126304771E+00  0.48725255039E+00  0.11802062018E+01  0.00000000000E+00 0.  1.
         11    1    3    3    0    0  0.22608992162E+02 -0.18219773619E+02  0.20645079752E+02  0.35627882277E+02  0.51100000000E-03 0. -1.
        -11    1    3    3    0    0  0.33242345930E+01 -0.62828267948E+01  0.58427647748E+01  0.92012145197E+01  0.51100000000E-03 0.  1.
        -12    1    3    3    0    0 -0.26967942884E+02  0.24211337366E+02 -0.26975097078E+02  0.45178697002E+02  0.00000000000E+00 0.  1.
</event>
<event>
 7    1  0.1716782E-015  0.9000769E+02  0.7816164E-02  0.1186339E+00
        -11   -1    0    0    0    0  0.00000000000E+00  0.00000000000E+00  0.45593999997E+02  0.45594000000E+02  0.51100000000E-03 0.  1.
         11   -1    0    0    0    0 -0.00000000000E+00 -0.00000000000E+00 -0.45593999997E+02  0.45594000000E+02  0.51100000000E-03 0. -1.
    9900012    2    1    2    0    0  0.31282704739E+00 -0.72260523473E+00 -0.87926577438E+00  0.90007691825E+02  0.89999952557E+02 0.  0.
        -12    1    1    2    0    0 -0.31282704739E+00  0.72260523473E+00  0.87926577438E+00  0.11803081754E+01  0.00000000000E+00 0.  1.
         11    1    3    3    0    0  0.35633874409E+02  0.34693676172E+01 -0.47763884073E+01  0.36119570921E+02  0.51100000000E-03 0. -1.
        -11    1    3    3    0    0  0.32938939694E+01  0.83138499622E+01 -0.75628599019E+01  0.11711818340E+02  0.51100000000E-03 0.  1.
        -12    1    3    3    0    0 -0.38614941331E+02 -0.12505822814E+02  0.11459982535E+02  0.42176302563E+02  0.00000000000E+00 0.  1.
</event>
<event>
 7    1  0.1716782E-015  0.9000752E+02  0.7816164E-02  0.1186339E+00
        -11   -1    0    0    0    0  0.00000000000E+00  0.00000000000E+00  0.45593999997E+02  0.45594000000E+02  0.51100000000E-03 0.  1.
         11   -1    0    0    0    0 -0.00000000000E+00 -0.00000000000E+00 -0.45593999997E+02  0.45594000000E+02  0.51100000000E-03 0. -1.
    9900012    2    1    2    0    0 -0.80111994871E+00  0.56041782412E+00 -0.66156166020E+00  0.90007523342E+02  0.89999781850E+02 0.  0.
        -12    1    1    2    0    0  0.80111994871E+00 -0.56041782412E+00  0.66156166020E+00  0.11804766580E+01  0.00000000000E+00 0.  1.
         11    1    3    3    0    0  0.10121446424E+02  0.25631431920E+02 -0.22693128330E+02  0.35698628176E+02  0.51100000000E-03 0. -1.
        -11    1    3    3    0    0  0.35214027670E+01  0.39890835952E+01 -0.83196064531E+01  0.98756729984E+01  0.51100000000E-03 0.  1.
        -12    1    3    3    0    0 -0.14443969140E+02 -0.29060097691E+02  0.30351173123E+02  0.44433222168E+02  0.00000000000E+00 0.  1.
</event>
<event>
 7    1  0.1716782E-015  0.9000775E+02  0.7816164E-02  0.1186339E+00
        -11   -1    0    0    0    0  0.00000000000E+00  0.00000000000E+00  0.45593999997E+02  0.45594000000E+02  0.51100000000E-03 0. -1.
         11   -1    0    0    0    0 -0.00000000000E+00 -0.00000000000E+00 -0.45593999997E+02  0.45594000000E+02  0.51100000000E-03 0.  1.
    9900012    2    1    2    0    0 -0.28497167800E+00 -0.60562532175E+00  0.97210690461E+00  0.90007753110E+02  0.90000014651E+02 0.  0.
        -12    1    1    2    0    0  0.28497167800E+00  0.60562532175E+00 -0.97210690461E+00  0.11802468901E+01  0.00000000000E+00 0.  1.
         11    1    3    3    0    0  0.83538809555E+01 -0.19635470911E+01 -0.45962805215E+01  0.97349185457E+01  0.51100000000E-03 0. -1.
        -11    1    3    3    0    0  0.62844559271E+01 -0.30658830935E+02 -0.19575272787E+02  0.36914084109E+02  0.51100000000E-03 0.  1.
         12    1    3    3    0    0 -0.14923308561E+02  0.32016752705E+02  0.25143660213E+02  0.43358750456E+02  0.00000000000E+00 0. -1.
</event>
<event>
 7    1  0.1716782E-015  0.9000655E+02  0.7816164E-02  0.1186341E+00
        -11   -1    0    0    0    0  0.00000000000E+00  0.00000000000E+00  0.45593999997E+02  0.45594000000E+02  0.51100000000E-03 0.  1.
         11   -1    0    0    0    0 -0.00000000000E+00 -0.00000000000E+00 -0.45593999997E+02  0.45594000000E+02  0.51100000000E-03 0. -1.
    9900012    2    1    2    0    0  0.62480368627E+00 -0.94925209938E+00 -0.32304219750E+00  0.90006553659E+02  0.89998799360E+02 0.  0.
        -12    1    1    2    0    0 -0.62480368627E+00  0.94925209938E+00  0.32304219750E+00  0.11814463407E+01  0.00000000000E+00 0.  1.
         11    1    3    3    0    0  0.34313881360E+01 -0.32699114001E+01 -0.67921298375E+01  0.82824979985E+01  0.51100000000E-03 0. -1.
        -11    1    3    3    0    0 -0.10890630002E+02 -0.35145196546E+02  0.18986373429E+02  0.41403780484E+02  0.51100000000E-03 0.  1.
         12    1    3    3    0    0  0.80840455519E+01  0.37465855847E+02 -0.12517285789E+02  0.40320275177E+02  0.00000000000E+00 0. -1.
</event>
<event>
 7    1  0.1716782E-015  0.9000771E+02  0.7816164E-02  0.1186339E+00
        -11   -1    0    0    0    0  0.00000000000E+00  0.00000000000E+00  0.45593999997E+02  0.45594000000E+02  0.51100000000E-03 0. -1.
         11   -1    0    0    0    0 -0.00000000000E+00 -0.00000000000E+00 -0.45593999997E+02  0.45594000000E+02  0.51100000000E-03 0.  1.
    9900012    2    1    2    0    0  0.22163643567E+00  0.34599619761E+00  0.11064582132E+01  0.90007709419E+02  0.89999970383E+02 0.  0.
        -12    1    1    2    0    0 -0.22163643567E+00 -0.34599619761E+00 -0.11064582132E+01  0.11802905811E+01  0.00000000000E+00 0.  1.
         11    1    3    3    0    0 -0.81560749440E+01  0.34559007492E+01 -0.42784593722E+01  0.98371755774E+01  0.51100000000E-03 0. -1.
        -11    1    3    3    0    0  0.21966240418E+01  0.38141189672E+02  0.85840798510E+00  0.38214033696E+02  0.51100000000E-03 0.  1.
         12    1    3    3    0    0  0.61810873379E+01 -0.41251094224E+02  0.45265096003E+01  0.41956500146E+02  0.00000000000E+00 0. -1.
</event>
<event>
 7    1  0.1716782E-015  0.9000772E+02  0.7816164E-02  0.1186339E+00
        -11   -1    0    0    0    0  0.00000000000E+00  0.00000000000E+00  0.45593999997E+02  0.45594000000E+02  0.51100000000E-03 0.  1.
         11   -1    0    0    0    0 -0.00000000000E+00 -0.00000000000E+00 -0.45593999997E+02  0.45594000000E+02  0.51100000000E-03 0. -1.
    9900012    2    1    2    0    0  0.41071537502E+00  0.52044954974E+00 -0.97648171825E+00  0.90007715543E+02  0.89999976588E+02 0.  0.
        -12    1    1    2    0    0 -0.41071537502E+00 -0.52044954974E+00  0.97648171825E+00  0.11802844569E+01  0.00000000000E+00 0.  1.
         11    1    3    3    0    0 -0.19512040340E+02 -0.18603371983E+01  0.56580245750E+00  0.19608689538E+02  0.51100000000E-03 0. -1.
        -11    1    3    3    0    0 -0.14213368493E+02  0.19282975957E+02  0.15642926971E+02  0.28610385704E+02  0.51100000000E-03 0.  1.
         12    1    3    3    0    0  0.34136124208E+02 -0.16902189209E+02 -0.17185211147E+02  0.41788640300E+02  0.00000000000E+00 0. -1.
</event>
<event>
 7    1  0.1716782E-015  0.9000766E+02  0.7816164E-02  0.1186339E+00
        -11   -1    0    0    0    0  0.00000000000E+00  0.00000000000E+00  0.45593999997E+02  0.45594000000E+02  0.51100000000E-03 0. -1.
         11   -1    0    0    0    0 -0.00000000000E+00 -0.00000000000E+00 -0.45593999997E+02  0.45594000000E+02  0.51100000000E-03 0.  1.
    9900012    2    1    2    0    0 -0.43059367240E+00  0.17244155173E+00  0.10853844011E+01  0.90007658398E+02  0.89999918689E+02 0.  0.
        -12    1    1    2    0    0  0.43059367240E+00 -0.17244155173E+00 -0.10853844011E+01  0.11803416021E+01  0.00000000000E+00 0.  1.
         11    1    3    3    0    0  0.99271284084E+01  0.47832861883E+01  0.20156086814E+01  0.11202249052E+02  0.51100000000E-03 0. -1.
        -11    1    3    3    0    0  0.30869760142E+02 -0.67629922393E+01 -0.15275875751E+02  0.35100321017E+02  0.51100000000E-03 0.  1.
         12    1    3    3    0    0 -0.41227482223E+02  0.21521476028E+01  0.14345651471E+02  0.43705088329E+02  0.00000000000E+00 0. -1.
</event>
<event>
 7    1  0.1716782E-015  0.9000779E+02  0.7816164E-02  0.1186339E+00
        -11   -1    0    0    0    0  0.00000000000E+00  0.00000000000E+00  0.45593999997E+02  0.45594000000E+02  0.51100000000E-03 0.  1.
         11   -1    0    0    0    0 -0.00000000000E+00 -0.00000000000E+00 -0.45593999997E+02  0.45594000000E+02  0.51100000000E-03 0. -1.
    9900012    2    1    2    0    0 -0.42445542214E+00  0.52897546827E+00  0.96588028496E+00  0.90007787233E+02  0.90000049224E+02 0.  0.
        -12    1    1    2    0    0  0.42445542214E+00 -0.52897546827E+00 -0.96588028496E+00  0.11802127674E+01  0.00000000000E+00 0.  1.
         11    1    3    3    0    0 -0.90022724106E+01  0.10547691855E+02 -0.37350720778E+02  0.39841825447E+02  0.51100000000E-03 0. -1.
        -11    1    3    3    0    0  0.60257368236E+01  0.61623177611E+01  0.13626040789E+00  0.86198742227E+01  0.51100000000E-03 0.  1.
        -12    1    3    3    0    0  0.25520801648E+01 -0.16181034148E+02  0.38180340655E+02  0.41546087563E+02  0.00000000000E+00 0.  1.
</event>
<event>
 7    1  0.1716782E-015  0.9000778E+02  0.7816164E-02  0.1186339E+00
        -11   -1    0    0    0    0  0.00000000000E+00  0.00000000000E+00  0.45593999997E+02  0.45594000000E+02  0.51100000000E-03 0.  1.
         11   -1    0    0    0    0 -0.00000000000E+00 -0.00000000000E+00 -0.45593999997E+02  0.45594000000E+02  0.51100000000E-03 0. -1.
    9900012    2    1    2    0    0  0.96415325329E+00 -0.40047051792E+00  0.55040363053E+00  0.90007782949E+02  0.90000044884E+02 0.  0.
        -12    1    1    2    0    0 -0.96415325329E+00  0.40047051792E+00 -0.55040363053E+00  0.11802170512E+01  0.00000000000E+00 0.  1.
         11    1    3    3    0    0  0.64976450529E+01 -0.22444008583E+02 -0.32652705603E+02  0.40151613865E+02  0.51100000000E-03 0. -1.
        -11    1    3    3    0    0  0.91996836229E+01 -0.89647415003E+00  0.45417009636E+01  0.10298781120E+02  0.51100000000E-03 0.  1.
        -12    1    3    3    0    0 -0.14733175423E+02  0.22940012215E+02  0.28661408270E+02  0.39557387963E+02  0.00000000000E+00 0.  1.
</event>
<event>
 8    1  0.1716782E-015  0.9000764E+02  0.7816164E-02  0.1186339E+00
        -11   -1    0    0    0    0  0.00000000000E+00  0.00000000000E+00  0.45593999997E+02  0.45594000000E+02  0.51100000000E-03 0.  1.
         11   -1    0    0    0    0 -0.00000000000E+00 -0.00000000000E+00 -0.45593999997E+02  0.45594000000E+02  0.51100000000E-03 0. -1.
    9900012    2    1    2    0    0  0.59519363639E+00  0.70793338388E+00 -0.73337164977E+00  0.90007636023E+02  0.89999896019E+02 0.  0.
         23    2    3    3    0    0  0.25174210933E+01 -0.22630861630E+02  0.10435617259E+02  0.64062682287E+02  0.58962970135E+02 0.  0.
        -12    1    1    2    0    0 -0.59519363639E+00 -0.70793338388E+00  0.73337164977E+00  0.11803639767E+01  0.00000000000E+00 0.  1.
         11    1    4    4    0    0  0.96696435091E+00  0.19697559105E+02  0.90097237831E+01  0.21681881322E+02  0.51100000000E-03 0. -1.
        -11    1    4    4    0    0  0.15504567424E+01 -0.42328420735E+02  0.14258934758E+01  0.42380800966E+02  0.51100000000E-03 0.  1.
         12    1    3    3    0    0 -0.19222274570E+01  0.23338795014E+02 -0.11168988909E+02  0.25944953736E+02  0.00000000000E+00 0. -1.
</event>
<event>
 7    1  0.1716782E-015  0.9000778E+02  0.7816164E-02  0.1186339E+00
        -11   -1    0    0    0    0  0.00000000000E+00  0.00000000000E+00  0.45593999997E+02  0.45594000000E+02  0.51100000000E-03 0. -1.
         11   -1    0    0    0    0 -0.00000000000E+00 -0.00000000000E+00 -0.45593999997E+02  0.45594000000E+02  0.51100000000E-03 0.  1.
    9900012    2    1    2    0    0  0.38375708425E+00  0.91915070522E+00  0.63310156369E+00  0.90007777517E+02  0.90000039381E+02 0.  0.
        -12    1    1    2    0    0 -0.38375708425E+00 -0.91915070522E+00 -0.63310156369E+00  0.11802224827E+01  0.00000000000E+00 0.  1.
         11    1    3    3    0    0 -0.12464237555E+02  0.36358144121E+01 -0.53317767694E+01  0.14035818752E+02  0.51100000000E-03 0. -1.
        -11    1    3    3    0    0 -0.27286308759E+02  0.81547707369E+01 -0.11707818748E+02  0.30791491545E+02  0.51100000000E-03 0.  1.
         12    1    3    3    0    0  0.40134303398E+02 -0.10871434444E+02  0.17672697081E+02  0.45180467220E+02  0.00000000000E+00 0. -1.
</event>
<event>
 7    1  0.1716782E-015  0.9000770E+02  0.7816164E-02  0.1186339E+00
        -11   -1    0    0    0    0  0.00000000000E+00  0.00000000000E+00  0.45593999997E+02  0.45594000000E+02  0.51100000000E-03 0.  1.
         11   -1    0    0    0    0 -0.00000000000E+00 -0.00000000000E+00 -0.45593999997E+02  0.45594000000E+02  0.51100000000E-03 0. -1.
    9900012    2    1    2    0    0 -0.10033462281E+01  0.25258324382E+00 -0.56798952644E+00  0.90007697475E+02  0.89999958282E+02 0.  0.
        -12    1    1    2    0    0  0.10033462281E+01 -0.25258324382E+00  0.56798952644E+00  0.11803025250E+01  0.00000000000E+00 0.  1.
         11    1    3    3    0    0 -0.17656624102E+02  0.32971861712E+02  0.16355097700E+02  0.40821431387E+02  0.51100000000E-03 0. -1.
        -11    1    3    3    0    0  0.11849145652E+02 -0.14179029869E+02  0.58947577533E+01  0.19395754946E+02  0.51100000000E-03 0.  1.
        -12    1    3    3    0    0  0.48041322221E+01 -0.18540248599E+02 -0.22817844980E+02  0.29790511141E+02  0.00000000000E+00 0.  1.
</event>
<event>
 7    1  0.1716782E-015  0.9000850E+02  0.7816164E-02  0.1186338E+00
        -11   -1    0    0    0    0  0.00000000000E+00  0.00000000000E+00  0.45593999997E+02  0.45594000000E+02  0.51100000000E-03 0. -1.
         11   -1    0    0    0    0 -0.00000000000E+00 -0.00000000000E+00 -0.45593999997E+02  0.45594000000E+02  0.51100000000E-03 0.  1.
    9900012    2    1    2    0    0 -0.14803869089E+00 -0.11332340155E+01  0.29169698543E+00  0.90008499292E+02  0.90000770680E+02 0.  0.
        -12    1    1    2    0    0  0.14803869089E+00  0.11332340155E+01 -0.29169698543E+00  0.11795007076E+01  0.00000000000E+00 0.  1.
         11    1    3    3    0    0  0.26511341008E+02  0.22513388398E+02 -0.25362980992E+02  0.43046308370E+02  0.51100000000E-03 0. -1.
        -11    1    3    3    0    0 -0.83444849127E+01 -0.20988395795E+01 -0.25457910401E+00  0.86081569932E+01  0.51100000000E-03 0.  1.
        -12    1    3    3    0    0 -0.18314894787E+02 -0.21547782834E+02  0.25909257081E+02  0.38354033929E+02  0.00000000000E+00 0.  1.
</event>
<event>
 7    1  0.1716782E-015  0.9000778E+02  0.7816164E-02  0.1186339E+00
        -11   -1    0    0    0    0  0.00000000000E+00  0.00000000000E+00  0.45593999997E+02  0.45594000000E+02  0.51100000000E-03 0.  1.
         11   -1    0    0    0    0 -0.00000000000E+00 -0.00000000000E+00 -0.45593999997E+02  0.45594000000E+02  0.51100000000E-03 0. -1.
    9900012    2    1    2    0    0  0.41100887275E+00 -0.86571423749E+00 -0.68885922432E+00  0.90007781179E+02  0.90000043091E+02 0.  0.
        -12    1    1    2    0    0 -0.41100887275E+00  0.86571423749E+00  0.68885922432E+00  0.11802188210E+01  0.00000000000E+00 0.  1.
         11    1    3    3    0    0  0.17404680931E+02 -0.39031952961E+02  0.29214412438E+00  0.42737590230E+02  0.51100000000E-03 0. -1.
        -11    1    3    3    0    0  0.46602506261E+01  0.81723144773E+01  0.34322856909E+01  0.10014252101E+02  0.51100000000E-03 0.  1.
        -12    1    3    3    0    0 -0.21653922684E+02  0.29993924246E+02 -0.44132890396E+01  0.37255938848E+02  0.00000000000E+00 0.  1.
</event>
<event>
 7    1  0.1716782E-015  0.9000774E+02  0.7816164E-02  0.1186339E+00
        -11   -1    0    0    0    0  0.00000000000E+00  0.00000000000E+00  0.45593999997E+02  0.45594000000E+02  0.51100000000E-03 0.  1.
         11   -1    0    0    0    0 -0.00000000000E+00 -0.00000000000E+00 -0.45593999997E+02  0.45594000000E+02  0.51100000000E-03 0. -1.
    9900012    2    1    2    0    0  0.20692352962E+00 -0.11476476628E+01  0.18195378851E+00  0.90007737450E+02  0.89999998785E+02 0.  0.
        -12    1    1    2    0    0 -0.20692352962E+00  0.11476476628E+01 -0.18195378851E+00  0.11802625497E+01  0.00000000000E+00 0.  1.
         11    1    3    3    0    0 -0.24594088471E+01 -0.10341186954E+02  0.11709160797E+00  0.10630265763E+02  0.51100000000E-03 0. -1.
        -11    1    3    3    0    0 -0.10440741285E+02 -0.30191922819E+02  0.14961581741E+02  0.35276198925E+02  0.51100000000E-03 0.  1.
         12    1    3    3    0    0  0.13107073661E+02  0.39385462110E+02 -0.14896719561E+02  0.44101272763E+02  0.00000000000E+00 0. -1.
</event>
<event>
 7    1  0.1716782E-015  0.9000785E+02  0.7816164E-02  0.1186339E+00
        -11   -1    0    0    0    0  0.00000000000E+00  0.00000000000E+00  0.45593999997E+02  0.45594000000E+02  0.51100000000E-03 0.  1.
         11   -1    0    0    0    0 -0.00000000000E+00 -0.00000000000E+00 -0.45593999997E+02  0.45594000000E+02  0.51100000000E-03 0. -1.
    9900012    2    1    2    0    0  0.88050681849E-01 -0.77865035374E+00 -0.88244806771E+00  0.90007845820E+02  0.90000108585E+02 0.  0.
        -12    1    1    2    0    0 -0.88050681849E-01  0.77865035374E+00  0.88244806771E+00  0.11801541798E+01  0.00000000000E+00 0.  1.
         11    1    3    3    0    0 -0.70997109852E+01 -0.12979343017E+01  0.53543716027E+01  0.89866470414E+01  0.51100000000E-03 0. -1.
        -11    1    3    3    0    0 -0.48019389422E+01  0.19816626687E+02  0.31175301135E+02  0.37251264569E+02  0.51100000000E-03 0.  1.
         12    1    3    3    0    0  0.11989700609E+02 -0.19297342739E+02 -0.37412120806E+02  0.43769934209E+02  0.00000000000E+00 0. -1.
</event>
<event>
 7    1  0.1716782E-015  0.9000786E+02  0.7816164E-02  0.1186339E+00
        -11   -1    0    0    0    0  0.00000000000E+00  0.00000000000E+00  0.45593999997E+02  0.45594000000E+02  0.51100000000E-03 0. -1.
         11   -1    0    0    0    0 -0.00000000000E+00 -0.00000000000E+00 -0.45593999997E+02  0.45594000000E+02  0.51100000000E-03 0.  1.
    9900012    2    1    2    0    0  0.86798472134E+00  0.64780212729E+00  0.46871673363E+00  0.90007855751E+02  0.90000118647E+02 0.  0.
        -12    1    1    2    0    0 -0.86798472134E+00 -0.64780212729E+00 -0.46871673363E+00  0.11801442492E+01  0.00000000000E+00 0.  1.
         11    1    3    3    0    0 -0.25731197647E+02 -0.18219482909E+02  0.22301203419E+02  0.38618489924E+02  0.51100000000E-03 0. -1.
        -11    1    3    3    0    0  0.13920196218E+02  0.88511262626E+01  0.73289155166E+01  0.18050687016E+02  0.51100000000E-03 0.  1.
        -12    1    3    3    0    0  0.12678986151E+02  0.10016158774E+02 -0.29161402202E+02  0.33338678810E+02  0.00000000000E+00 0.  1.
</event>
<event>
 7    1  0.1716782E-015  0.9000773E+02  0.7816164E-02  0.1186339E+00
        -11   -1    0    0    0    0  0.00000000000E+00  0.00000000000E+00  0.45593999997E+02  0.45594000000E+02  0.51100000000E-03 0.  1.
         11   -1    0    0    0    0 -0.00000000000E+00 -0.00000000000E+00 -0.45593999997E+02  0.45594000000E+02  0.51100000000E-03 0. -1.
    9900012    2    1    2    0    0 -0.84033664941E+00  0.22553402466E+00 -0.79750056021E+00  0.90007729512E+02  0.89999990742E+02 0.  0.
        -12    1    1    2    0    0  0.84033664941E+00 -0.22553402466E+00  0.79750056021E+00  0.11802704877E+01  0.00000000000E+00 0.  1.
         11    1    3    3    0    0  0.11568551820E+02 -0.80881513279E+01 -0.32844403639E+02  0.35749187875E+02  0.51100000000E-03 0. -1.
        -11    1    3    3    0    0 -0.93656672079E+01 -0.83669084652E+01 -0.49986745184E+01  0.13516938511E+02  0.51100000000E-03 0.  1.
        -12    1    3    3    0    0 -0.30432212617E+01  0.16680593818E+02  0.37045577597E+02  0.40741603126E+02  0.00000000000E+00 0.  1.
</event>
<event>
 7    1  0.1716782E-015  0.9000728E+02  0.7816164E-02  0.1186340E+00
        -11   -1    0    0    0    0  0.00000000000E+00  0.00000000000E+00  0.45593999997E+02  0.45594000000E+02  0.51100000000E-03 0.  1.
         11   -1    0    0    0    0 -0.00000000000E+00 -0.00000000000E+00 -0.45593999997E+02  0.45594000000E+02  0.51100000000E-03 0. -1.
    9900012    2    1    2    0    0  0.81924757188E+00 -0.18550622846E+00 -0.82976679408E+00  0.90007283236E+02  0.89999538573E+02 0.  0.
        -12    1    1    2    0    0 -0.81924757188E+00  0.18550622846E+00  0.82976679408E+00  0.11807167643E+01  0.00000000000E+00 0.  1.
         11    1    3    3    0    0 -0.50696177098E+01 -0.15591092793E+01 -0.53217400978E+01  0.75135054001E+01  0.51100000000E-03 0. -1.
        -11    1    3    3    0    0 -0.18116783640E+02 -0.33896220711E+02  0.93470276657E+01  0.39554248248E+02  0.51100000000E-03 0.  1.
         12    1    3    3    0    0  0.24005648922E+02  0.35269823762E+02 -0.48550543621E+01  0.42939529588E+02  0.00000000000E+00 0. -1.
</event>
<event>
 7    1  0.1716782E-015  0.9000776E+02  0.7816164E-02  0.1186339E+00
        -11   -1    0    0    0    0  0.00000000000E+00  0.00000000000E+00  0.45593999997E+02  0.45594000000E+02  0.51100000000E-03 0.  1.
         11   -1    0    0    0    0 -0.00000000000E+00 -0.00000000000E+00 -0.45593999997E+02  0.45594000000E+02  0.51100000000E-03 0. -1.
    9900012    2    1    2    0    0  0.25601170006E+00 -0.11469598868E+01 -0.10916749982E+00  0.90007755739E+02  0.90000017315E+02 0.  0.
        -12    1    1    2    0    0 -0.25601170006E+00  0.11469598868E+01  0.10916749982E+00  0.11802442609E+01  0.00000000000E+00 0.  1.
         11    1    3    3    0    0 -0.35201512323E+02 -0.54398568970E+01 -0.17692220567E+02  0.39771260751E+02  0.51100000000E-03 0. -1.
        -11    1    3    3    0    0  0.18136307240E+01  0.19869851602E+01 -0.76559204058E+01  0.81148311105E+01  0.51100000000E-03 0.  1.
        -12    1    3    3    0    0  0.33643893299E+02  0.23059118500E+01  0.25238973473E+02  0.42121663877E+02  0.00000000000E+00 0.  1.
</event>
<event>
 7    1  0.1716782E-015  0.9000801E+02  0.7816164E-02  0.1186339E+00
        -11   -1    0    0    0    0  0.00000000000E+00  0.00000000000E+00  0.45593999997E+02  0.45594000000E+02  0.51100000000E-03 0.  1.
         11   -1    0    0    0    0 -0.00000000000E+00 -0.00000000000E+00 -0.45593999997E+02  0.45594000000E+02  0.51100000000E-03 0. -1.
    9900012    2    1    2    0    0 -0.20569626434E+00  0.52511950125E+00 -0.10364924279E+01  0.90008009323E+02  0.90000274246E+02 0.  0.
        -12    1    1    2    0    0  0.20569626434E+00 -0.52511950125E+00  0.10364924279E+01  0.11799906766E+01  0.00000000000E+00 0.  1.
         11    1    3    3    0    0  0.97916403953E+01  0.15379823616E+02 -0.35538512851E+02  0.39942472283E+02  0.51100000000E-03 0. -1.
        -11    1    3    3    0    0  0.35416194502E+00  0.88471954920E+01  0.30947465101E+01  0.93795391667E+01  0.51100000000E-03 0.  1.
        -12    1    3    3    0    0 -0.10351498605E+02 -0.23701899607E+02  0.31407273913E+02  0.40685997874E+02  0.00000000000E+00 0.  1.
</event>
<event>
 7    1  0.1716782E-015  0.9000788E+02  0.7816164E-02  0.1186339E+00
        -11   -1    0    0    0    0  0.00000000000E+00  0.00000000000E+00  0.45593999997E+02  0.45594000000E+02  0.51100000000E-03 0.  1.
         11   -1    0    0    0    0 -0.00000000000E+00 -0.00000000000E+00 -0.45593999997E+02  0.45594000000E+02  0.51100000000E-03 0. -1.
    9900012    2    1    2    0    0  0.97822832346E+00  0.16681317893E+00 -0.63869630721E+00  0.90007877014E+02  0.90000140190E+02 0.  0.
        -12    1    1    2    0    0 -0.97822832346E+00 -0.16681317893E+00  0.63869630721E+00  0.11801229861E+01  0.00000000000E+00 0.  1.
         11    1    3    3    0    0 -0.45921504441E+01  0.20842241251E+02 -0.35391963458E+02  0.41328899619E+02  0.51100000000E-03 0. -1.
        -11    1    3    3    0    0  0.36159499002E+00 -0.88476249439E+01 -0.25381123817E+01  0.92115814499E+01  0.51100000000E-03 0.  1.
        -12    1    3    3    0    0  0.52087837775E+01 -0.11827803128E+02  0.37291379532E+02  0.39467395945E+02  0.00000000000E+00 0.  1.
</event>
<event>
 7    1  0.1716782E-015  0.9000769E+02  0.7816164E-02  0.1186339E+00
        -11   -1    0    0    0    0  0.00000000000E+00  0.00000000000E+00  0.45593999997E+02  0.45594000000E+02  0.51100000000E-03 0.  1.
         11   -1    0    0    0    0 -0.00000000000E+00 -0.00000000000E+00 -0.45593999997E+02  0.45594000000E+02  0.51100000000E-03 0. -1.
    9900012    2    1    2    0    0 -0.68805358306E+00 -0.89885803643E+00  0.33430421849E+00  0.90007693763E+02  0.89999954521E+02 0.  0.
        -12    1    1    2    0    0  0.68805358306E+00  0.89885803643E+00 -0.33430421849E+00  0.11803062371E+01  0.00000000000E+00 0.  1.
         11    1    3    3    0    0 -0.66530454512E+01 -0.42687261786E+01  0.50482579889E+01  0.93792294964E+01  0.51100000000E-03 0. -1.
        -11    1    3    3    0    0 -0.19585802529E+02 -0.29287818660E+02 -0.14374575735E+02  0.38052705691E+02  0.51100000000E-03 0.  1.
         12    1    3    3    0    0  0.25550794397E+02  0.32657686802E+02  0.96606219645E+01  0.42575758576E+02  0.00000000000E+00 0. -1.
</event>
<event>
 7    1  0.1716782E-015  0.9000782E+02  0.7816164E-02  0.1186339E+00
        -11   -1    0    0    0    0  0.00000000000E+00  0.00000000000E+00  0.45593999997E+02  0.45594000000E+02  0.51100000000E-03 0. -1.
         11   -1    0    0    0    0 -0.00000000000E+00 -0.00000000000E+00 -0.45593999997E+02  0.45594000000E+02  0.51100000000E-03 0.  1.
    9900012    2    1    2    0    0 -0.10756569890E+01  0.42081107851E+00 -0.24227580178E+00  0.90007823112E+02  0.90000085577E+02 0.  0.
        -12    1    1    2    0    0  0.10756569890E+01 -0.42081107851E+00  0.24227580178E+00  0.11801768876E+01  0.00000000000E+00 0.  1.
         11    1    3    3    0    0 -0.42622643333E+01 -0.24534311085E+01 -0.10034405134E+02  0.11174771054E+02  0.51100000000E-03 0. -1.
        -11    1    3    3    0    0  0.28204566766E+02 -0.26545930174E+02 -0.96300612737E+00  0.38744178613E+02  0.51100000000E-03 0.  1.
         12    1    3    3    0    0 -0.25017959422E+02  0.29420172361E+02  0.10755135460E+02  0.40088873446E+02  0.00000000000E+00 0. -1.
</event>
<event>
 7    1  0.1716782E-015  0.9000775E+02  0.7816164E-02  0.1186339E+00
        -11   -1    0    0    0    0  0.00000000000E+00  0.00000000000E+00  0.45593999997E+02  0.45594000000E+02  0.51100000000E-03 0. -1.
         11   -1    0    0    0    0 -0.00000000000E+00 -0.00000000000E+00 -0.45593999997E+02  0.45594000000E+02  0.51100000000E-03 0.  1.
    9900012    2    1    2    0    0 -0.17357676128E+00  0.54386712765E+00  0.10329923264E+01  0.90007748548E+02  0.90000010028E+02 0.  0.
        -12    1    1    2    0    0  0.17357676128E+00 -0.54386712765E+00 -0.10329923264E+01  0.11802514524E+01  0.00000000000E+00 0.  1.
         11    1    3    3    0    0  0.31684218348E+01 -0.89893538354E+01 -0.41067206480E+01  0.10378464917E+02  0.51100000000E-03 0. -1.
        -11    1    3    3    0    0 -0.16344756272E+02 -0.29585682501E+02 -0.10721225304E+02  0.35459954017E+02  0.51100000000E-03 0.  1.
         12    1    3    3    0    0  0.13002757676E+02  0.39118903464E+02  0.15860938279E+02  0.44169329613E+02  0.00000000000E+00 0. -1.
</event>
<event>
 7    1  0.1716782E-015  0.9000763E+02  0.7816164E-02  0.1186339E+00
        -11   -1    0    0    0    0  0.00000000000E+00  0.00000000000E+00  0.45593999997E+02  0.45594000000E+02  0.51100000000E-03 0.  1.
         11   -1    0    0    0    0 -0.00000000000E+00 -0.00000000000E+00 -0.45593999997E+02  0.45594000000E+02  0.51100000000E-03 0. -1.
    9900012    2    1    2    0    0 -0.63389417564E+00 -0.17064309615E-01 -0.99556837203E+00  0.90007631668E+02  0.89999891606E+02 0.  0.
        -12    1    1    2    0    0  0.63389417564E+00  0.17064309615E-01  0.99556837203E+00  0.11803683323E+01  0.00000000000E+00 0.  1.
         11    1    3    3    0    0 -0.94349109507E+01  0.67176356510E+01  0.55257560465E+01  0.12832698607E+02  0.51100000000E-03 0. -1.
        -11    1    3    3    0    0  0.20998120074E+02 -0.10178860192E+02  0.30293785683E+02  0.38239295139E+02  0.51100000000E-03 0.  1.
         12    1    3    3    0    0 -0.12197103299E+02  0.34441602317E+01 -0.36815110102E+02  0.38935637922E+02  0.00000000000E+00 0. -1.
</event>
<event>
 7    1  0.1716782E-015  0.9000773E+02  0.7816164E-02  0.1186339E+00
        -11   -1    0    0    0    0  0.00000000000E+00  0.00000000000E+00  0.45593999997E+02  0.45594000000E+02  0.51100000000E-03 0. -1.
         11   -1    0    0    0    0 -0.00000000000E+00 -0.00000000000E+00 -0.45593999997E+02  0.45594000000E+02  0.51100000000E-03 0.  1.
    9900012    2    1    2    0    0  0.19382791140E+00 -0.11282752857E+00  0.11587629602E+01  0.90007732696E+02  0.89999993968E+02 0.  0.
        -12    1    1    2    0    0 -0.19382791140E+00  0.11282752857E+00 -0.11587629602E+01  0.11802673038E+01  0.00000000000E+00 0.  1.
         11    1    3    3    0    0  0.64130903703E+01  0.28076865995E+02  0.13407397175E+02  0.31767852170E+02  0.51100000000E-03 0. -1.
        -11    1    3    3    0    0 -0.41460232695E+00  0.12632509816E+02  0.49365140249E+01  0.13569132998E+02  0.51100000000E-03 0.  1.
        -12    1    3    3    0    0 -0.58046601319E+01 -0.40822203340E+02 -0.17185148239E+02  0.44670747529E+02  0.00000000000E+00 0.  1.
</event>
<event>
 7    1  0.1716782E-015  0.9000783E+02  0.7816164E-02  0.1186339E+00
        -11   -1    0    0    0    0  0.00000000000E+00  0.00000000000E+00  0.45593999997E+02  0.45594000000E+02  0.51100000000E-03 0.  1.
         11   -1    0    0    0    0 -0.00000000000E+00 -0.00000000000E+00 -0.45593999997E+02  0.45594000000E+02  0.51100000000E-03 0. -1.
    9900012    2    1    2    0    0  0.33490573569E+00  0.92854462945E+00 -0.64688075194E+00  0.90007825569E+02  0.90000088066E+02 0.  0.
        -12    1    1    2    0    0 -0.33490573569E+00 -0.92854462945E+00  0.64688075194E+00  0.11801744311E+01  0.00000000000E+00 0.  1.
         11    1    3    3    0    0  0.11680662873E+01 -0.89902504710E+01  0.59719829938E+01  0.10856038114E+02  0.51100000000E-03 0. -1.
        -11    1    3    3    0    0 -0.11373270518E+02  0.26403419893E+02  0.27523747954E+02  0.39800107614E+02  0.51100000000E-03 0.  1.
         12    1    3    3    0    0  0.10540109967E+02 -0.16484624793E+02 -0.34142611700E+02  0.39351679842E+02  0.00000000000E+00 0. -1.
</event>
<event>
 7    1  0.1716782E-015  0.9000770E+02  0.7816164E-02  0.1186339E+00
        -11   -1    0    0    0    0  0.00000000000E+00  0.00000000000E+00  0.45593999997E+02  0.45594000000E+02  0.51100000000E-03 0.  1.
         11   -1    0    0    0    0 -0.00000000000E+00 -0.00000000000E+00 -0.45593999997E+02  0.45594000000E+02  0.51100000000E-03 0. -1.
    9900012    2    1    2    0    0 -0.26426638481E+00  0.84395195653E+00 -0.78167430088E+00  0.90007700741E+02  0.89999961591E+02 0.  0.
        -12    1    1    2    0    0  0.26426638481E+00 -0.84395195653E+00  0.78167430088E+00  0.11802992585E+01  0.00000000000E+00 0.  1.
         11    1    3    3    0    0 -0.22086155393E+01  0.72991376135E+01 -0.95313664405E+01  0.12206651424E+02  0.51100000000E-03 0. -1.
        -11    1    3    3    0    0 -0.10087127730E+02  0.16938524737E+02  0.35295760678E+02  0.40428387158E+02  0.51100000000E-03 0.  1.
         12    1    3    3    0    0  0.12031476884E+02 -0.23393710394E+02 -0.26546068538E+02  0.37372662159E+02  0.00000000000E+00 0. -1.
</event>
<event>
 7    1  0.1716782E-015  0.9000773E+02  0.7816164E-02  0.1186339E+00
        -11   -1    0    0    0    0  0.00000000000E+00  0.00000000000E+00  0.45593999997E+02  0.45594000000E+02  0.51100000000E-03 0.  1.
         11   -1    0    0    0    0 -0.00000000000E+00 -0.00000000000E+00 -0.45593999997E+02  0.45594000000E+02  0.51100000000E-03 0. -1.
    9900012    2    1    2    0    0 -0.84219792916E+00  0.40591158313E+00 -0.72039696447E+00  0.90007731661E+02  0.89999992919E+02 0.  0.
        -12    1    1    2    0    0  0.84219792916E+00 -0.40591158313E+00  0.72039696447E+00  0.11802683388E+01  0.00000000000E+00 0.  1.
         11    1    3    3    0    0 -0.16758219718E+02  0.18678245996E+02 -0.22986154232E+02  0.34030546399E+02  0.51100000000E-03 0. -1.
        -11    1    3    3    0    0 -0.18446797831E+01  0.10471735481E+02 -0.57469677972E+01  0.12086675582E+02  0.51100000000E-03 0.  1.
        -12    1    3    3    0    0  0.17760701572E+02 -0.28744069894E+02  0.28012725065E+02  0.43890509680E+02  0.00000000000E+00 0.  1.
</event>
<event>
 7    1  0.1716782E-015  0.9000768E+02  0.7816164E-02  0.1186339E+00
        -11   -1    0    0    0    0  0.00000000000E+00  0.00000000000E+00  0.45593999997E+02  0.45594000000E+02  0.51100000000E-03 0.  1.
         11   -1    0    0    0    0 -0.00000000000E+00 -0.00000000000E+00 -0.45593999997E+02  0.45594000000E+02  0.51100000000E-03 0. -1.
    9900012    2    1    2    0    0  0.11677699742E+01 -0.13022327237E+00  0.11185881615E+00  0.90007679193E+02  0.89999939758E+02 0.  0.
        -12    1    1    2    0    0 -0.11677699742E+01  0.13022327237E+00 -0.11185881615E+00  0.11803208072E+01  0.00000000000E+00 0.  1.
         11    1    3    3    0    0 -0.91860472300E+01  0.24340064380E+01 -0.20462171570E+01  0.97208464635E+01  0.51100000000E-03 0. -1.
        -11    1    3    3    0    0 -0.28342982875E+02  0.89582269376E+01  0.20327787101E+02  0.36011018270E+02  0.51100000000E-03 0.  1.
         12    1    3    3    0    0  0.38696800079E+02 -0.11522456648E+02 -0.18169711128E+02  0.44275814460E+02  0.00000000000E+00 0. -1.
</event>
<event>
 7    1  0.1716782E-015  0.9000783E+02  0.7816164E-02  0.1186339E+00
        -11   -1    0    0    0    0  0.00000000000E+00  0.00000000000E+00  0.45593999997E+02  0.45594000000E+02  0.51100000000E-03 0.  1.
         11   -1    0    0    0    0 -0.00000000000E+00 -0.00000000000E+00 -0.45593999997E+02  0.45594000000E+02  0.51100000000E-03 0. -1.
    9900012    2    1    2    0    0  0.97602869100E+00 -0.19131464955E+00 -0.63527201258E+00  0.90007828898E+02  0.90000091439E+02 0.  0.
        -12    1    1    2    0    0 -0.97602869100E+00  0.19131464955E+00  0.63527201258E+00  0.11801711023E+01  0.00000000000E+00 0.  1.
         11    1    3    3    0    0  0.89799098542E+01 -0.11433278640E+01 -0.35787757795E+02  0.36914896558E+02  0.51100000000E-03 0. -1.
        -11    1    3    3    0    0  0.19078220120E+01  0.79212582103E+01 -0.60483663277E+01  0.10147356895E+02  0.51100000000E-03 0.  1.
        -12    1    3    3    0    0 -0.99117031752E+01 -0.69692449959E+01  0.41200852110E+02  0.42945575445E+02  0.00000000000E+00 0.  1.
</event>
<event>
 7    1  0.1716782E-015  0.9000775E+02  0.7816164E-02  0.1186339E+00
        -11   -1    0    0    0    0  0.00000000000E+00  0.00000000000E+00  0.45593999997E+02  0.45594000000E+02  0.51100000000E-03 0.  1.
         11   -1    0    0    0    0 -0.00000000000E+00 -0.00000000000E+00 -0.45593999997E+02  0.45594000000E+02  0.51100000000E-03 0. -1.
    9900012    2    1    2    0    0 -0.63921493122E+00 -0.85020161251E+00 -0.51142455883E+00  0.90007748506E+02  0.90000009986E+02 0.  0.
        -12    1    1    2    0    0  0.63921493122E+00  0.85020161251E+00  0.51142455883E+00  0.11802514942E+01  0.00000000000E+00 0.  1.
         11    1    3    3    0    0 -0.96114629141E+01 -0.70959176004E+01  0.48869416687E+01  0.12907922570E+02  0.51100000000E-03 0. -1.
        -11    1    3    3    0    0  0.12723419207E+02  0.27663280780E+02 -0.31039275124E+02  0.43480790015E+02  0.51100000000E-03 0.  1.
         12    1    3    3    0    0 -0.37511712245E+01 -0.21417564792E+02  0.25640908897E+02  0.33619035921E+02  0.00000000000E+00 0. -1.
</event>
<event>
 7    1  0.1716782E-015  0.9000774E+02  0.7816164E-02  0.1186339E+00
        -11   -1    0    0    0    0  0.00000000000E+00  0.00000000000E+00  0.45593999997E+02  0.45594000000E+02  0.51100000000E-03 0. -1.
         11   -1    0    0    0    0 -0.00000000000E+00 -0.00000000000E+00 -0.45593999997E+02  0.45594000000E+02  0.51100000000E-03 0.  1.
    9900012    2    1    2    0    0  0.80815726601E+00  0.86016351399E+00  0.20359558474E-02  0.90007744272E+02  0.90000005697E+02 0.  0.
        -12    1    1    2    0    0 -0.80815726601E+00 -0.86016351399E+00 -0.20359558474E-02  0.11802557276E+01  0.00000000000E+00 0.  1.
         11    1    3    3    0    0 -0.32827781146E+02 -0.98732808833E+01  0.19364700634E+02  0.39371773154E+02  0.51100000000E-03 0. -1.
        -11    1    3    3    0    0  0.37963233385E+01 -0.65492624087E+01  0.44020722860E+01  0.87568915524E+01  0.51100000000E-03 0.  1.
        -12    1    3    3    0    0  0.29839615074E+02  0.17282706806E+02 -0.23764736964E+02  0.41879079566E+02  0.00000000000E+00 0.  1.
</event>
<event>
 7    1  0.1716782E-015  0.9000771E+02  0.7816164E-02  0.1186339E+00
        -11   -1    0    0    0    0  0.00000000000E+00  0.00000000000E+00  0.45593999997E+02  0.45594000000E+02  0.51100000000E-03 0.  1.
         11   -1    0    0    0    0 -0.00000000000E+00 -0.00000000000E+00 -0.45593999997E+02  0.45594000000E+02  0.51100000000E-03 0. -1.
    9900012    2    1    2    0    0  0.59169391065E+00 -0.64861432736E+00 -0.78885013881E+00  0.90007709031E+02  0.89999969990E+02 0.  0.
        -12    1    1    2    0    0 -0.59169391065E+00  0.64861432736E+00  0.78885013881E+00  0.11802909688E+01  0.00000000000E+00 0.  1.
         11    1    3    3    0    0  0.23766114702E+02 -0.19403580375E+02 -0.25572473558E+02  0.39940938191E+02  0.51100000000E-03 0. -1.
        -11    1    3    3    0    0 -0.49331123464E+01 -0.96492860478E+00 -0.68943920531E+01  0.85322521457E+01  0.51100000000E-03 0.  1.
        -12    1    3    3    0    0 -0.18241308445E+02  0.19719894653E+02  0.31678015473E+02  0.41534518695E+02  0.00000000000E+00 0.  1.
</event>
<event>
 7    1  0.1716782E-015  0.9000767E+02  0.7816164E-02  0.1186339E+00
        -11   -1    0    0    0    0  0.00000000000E+00  0.00000000000E+00  0.45593999997E+02  0.45594000000E+02  0.51100000000E-03 0.  1.
         11   -1    0    0    0    0 -0.00000000000E+00 -0.00000000000E+00 -0.45593999997E+02  0.45594000000E+02  0.51100000000E-03 0. -1.
    9900012    2    1    2    0    0 -0.44958406306E+00 -0.10433082731E+01 -0.32025267218E+00  0.90007669641E+02  0.89999930080E+02 0.  0.
        -12    1    1    2    0    0  0.44958406306E+00  0.10433082731E+01  0.32025267218E+00  0.11803303591E+01  0.00000000000E+00 0.  1.
         11    1    3    3    0    0 -0.36176503161E+02  0.19493488760E+02 -0.15278136076E+02  0.43842410144E+02  0.51100000000E-03 0. -1.
        -11    1    3    3    0    0  0.56484398636E+01 -0.88186552793E+01 -0.26397148349E+00  0.10475840541E+02  0.51100000000E-03 0.  1.
        -12    1    3    3    0    0  0.30078479234E+02 -0.11718141754E+02  0.15221854888E+02  0.35689418956E+02  0.00000000000E+00 0.  1.
</event>
<event>
 7    1  0.1716782E-015  0.9000798E+02  0.7816164E-02  0.1186339E+00
        -11   -1    0    0    0    0  0.00000000000E+00  0.00000000000E+00  0.45593999997E+02  0.45594000000E+02  0.51100000000E-03 0. -1.
         11   -1    0    0    0    0 -0.00000000000E+00 -0.00000000000E+00 -0.45593999997E+02  0.45594000000E+02  0.51100000000E-03 0.  1.
    9900012    2    1    2    0    0  0.79930744563E-01  0.89116101252E+00 -0.76934389893E+00  0.90007980123E+02  0.90000244661E+02 0.  0.
        -12    1    1    2    0    0 -0.79930744563E-01 -0.89116101252E+00  0.76934389893E+00  0.11800198765E+01  0.00000000000E+00 0.  1.
         11    1    3    3    0    0 -0.32022257981E+01  0.40170573976E+00 -0.71333660594E+01  0.78294654455E+01  0.51100000000E-03 0. -1.
        -11    1    3    3    0    0  0.13914745273E+02 -0.32281125773E+02 -0.18469313161E+02  0.39709026003E+02  0.51100000000E-03 0.  1.
         12    1    3    3    0    0 -0.10632588730E+02  0.32770581046E+02  0.24833335321E+02  0.42469488675E+02  0.00000000000E+00 0. -1.
</event>
<event>
 7    1  0.1716782E-015  0.9000650E+02  0.7816164E-02  0.1186342E+00
        -11   -1    0    0    0    0  0.00000000000E+00  0.00000000000E+00  0.45593999997E+02  0.45594000000E+02  0.51100000000E-03 0. -1.
         11   -1    0    0    0    0 -0.00000000000E+00 -0.00000000000E+00 -0.45593999997E+02  0.45594000000E+02  0.51100000000E-03 0.  1.
    9900012    2    1    2    0    0  0.39848162864E+00 -0.81637718384E+00  0.75543075264E+00  0.90006503095E+02  0.89998748127E+02 0.  0.
        -12    1    1    2    0    0 -0.39848162864E+00  0.81637718384E+00 -0.75543075264E+00  0.11814969051E+01  0.00000000000E+00 0.  1.
         11    1    3    3    0    0 -0.72946117380E+01 -0.20926476534E+01 -0.32250532685E+01  0.82456960564E+01  0.51100000000E-03 0. -1.
        -11    1    3    3    0    0 -0.26035913943E+02  0.24337826044E+02 -0.12407082549E+02  0.37737703812E+02  0.51100000000E-03 0.  1.
         12    1    3    3    0    0  0.33729007310E+02 -0.23061555574E+02  0.16387566570E+02  0.44023103226E+02  0.00000000000E+00 0. -1.
</event>
<event>
 7    1  0.1716782E-015  0.9000782E+02  0.7816164E-02  0.1186339E+00
        -11   -1    0    0    0    0  0.00000000000E+00  0.00000000000E+00  0.45593999997E+02  0.45594000000E+02  0.51100000000E-03 0.  1.
         11   -1    0    0    0    0 -0.00000000000E+00 -0.00000000000E+00 -0.45593999997E+02  0.45594000000E+02  0.51100000000E-03 0. -1.
    9900012    2    1    2    0    0  0.11134340716E+01 -0.36331639001E+00  0.14521484199E+00  0.90007821377E+02  0.90000083819E+02 0.  0.
        -12    1    1    2    0    0 -0.11134340716E+01  0.36331639001E+00 -0.14521484199E+00  0.11801786226E+01  0.00000000000E+00 0.  1.
         11    1    3    3    0    0 -0.69686293758E+01  0.33620491910E+01  0.79673891841E+01  0.11106055142E+02  0.51100000000E-03 0. -1.
        -11    1    3    3    0    0  0.27442278991E+02  0.19502082697E+02  0.18847599710E+02  0.38582922658E+02  0.51100000000E-03 0.  1.
         12    1    3    3    0    0 -0.19360215543E+02 -0.23227448278E+02 -0.26669774052E+02  0.40318843577E+02  0.00000000000E+00 0. -1.
</event>
<event>
 7    1  0.1716782E-015  0.9000777E+02  0.7816164E-02  0.1186339E+00
        -11   -1    0    0    0    0  0.00000000000E+00  0.00000000000E+00  0.45593999997E+02  0.45594000000E+02  0.51100000000E-03 0.  1.
         11   -1    0    0    0    0 -0.00000000000E+00 -0.00000000000E+00 -0.45593999997E+02  0.45594000000E+02  0.51100000000E-03 0. -1.
    9900012    2    1    2    0    0 -0.54897967687E+00  0.66485539503E+00 -0.80593073927E+00  0.90007773014E+02  0.90000034818E+02 0.  0.
        -12    1    1    2    0    0  0.54897967687E+00 -0.66485539503E+00  0.80593073927E+00  0.11802269860E+01  0.00000000000E+00 0.  1.
         11    1    3    3    0    0 -0.86653354830E+01  0.62127676703E+01  0.26944040871E+01  0.10997560402E+02  0.51100000000E-03 0. -1.
        -11    1    3    3    0    0  0.24636708864E+02  0.27674948463E+02  0.11785121396E+02  0.38881348776E+02  0.51100000000E-03 0.  1.
         12    1    3    3    0    0 -0.16520353058E+02 -0.33222860738E+02 -0.15285456222E+02  0.40128863835E+02  0.00000000000E+00 0. -1.
</event>
<event>
 7    1  0.1716782E-015  0.9000727E+02  0.7816164E-02  0.1186340E+00
        -11   -1    0    0    0    0  0.00000000000E+00  0.00000000000E+00  0.45593999997E+02  0.45594000000E+02  0.51100000000E-03 0.  1.
         11   -1    0    0    0    0 -0.00000000000E+00 -0.00000000000E+00 -0.45593999997E+02  0.45594000000E+02  0.51100000000E-03 0. -1.
    9900012    2    1    2    0    0 -0.27212291257E+00  0.14158121847E+00 -0.11401919703E+01  0.90007265546E+02  0.89999520650E+02 0.  0.
        -12    1    1    2    0    0  0.27212291257E+00 -0.14158121847E+00  0.11401919703E+01  0.11807344537E+01  0.00000000000E+00 0.  1.
         11    1    3    3    0    0  0.97498435099E+01 -0.37562064452E+01 -0.56539348479E+01  0.11880046921E+02  0.51100000000E-03 0. -1.
        -11    1    3    3    0    0  0.29941924590E+02 -0.69305055714E+01  0.16684897296E+02  0.34970509771E+02  0.51100000000E-03 0.  1.
         12    1    3    3    0    0 -0.39963891012E+02  0.10828293235E+02 -0.12171154418E+02  0.43156708854E+02  0.00000000000E+00 0. -1.
</event>
<event>
 7    1  0.1716782E-015  0.9000780E+02  0.7816164E-02  0.1186339E+00
        -11   -1    0    0    0    0  0.00000000000E+00  0.00000000000E+00  0.45593999997E+02  0.45594000000E+02  0.51100000000E-03 0.  1.
         11   -1    0    0    0    0 -0.00000000000E+00 -0.00000000000E+00 -0.45593999997E+02  0.45594000000E+02  0.51100000000E-03 0. -1.
    9900012    2    1    2    0    0 -0.58991762559E+00  0.97139346206E+00  0.31821539572E+00  0.90007801245E+02  0.90000063421E+02 0.  0.
        -12    1    1    2    0    0  0.58991762559E+00 -0.97139346206E+00 -0.31821539572E+00  0.11801987549E+01  0.00000000000E+00 0.  1.
         11    1    3    3    0    0 -0.51481334376E+01  0.66061492337E+01 -0.55621769118E+00  0.83936800017E+01  0.51100000000E-03 0. -1.
        -11    1    3    3    0    0  0.10154945825E+02  0.27825514012E+02  0.25988009953E+02  0.39405060796E+02  0.51100000000E-03 0.  1.
         12    1    3    3    0    0 -0.55967300129E+01 -0.33460269784E+02 -0.25113576866E+02  0.42209060447E+02  0.00000000000E+00 0. -1.
</event>
<event>
 7    1  0.1716782E-015  0.9000750E+02  0.7816164E-02  0.1186340E+00
        -11   -1    0    0    0    0  0.00000000000E+00  0.00000000000E+00  0.45593999997E+02  0.45594000000E+02  0.51100000000E-03 0. -1.
         11   -1    0    0    0    0 -0.00000000000E+00 -0.00000000000E+00 -0.45593999997E+02  0.45594000000E+02  0.51100000000E-03 0.  1.
    9900012    2    1    2    0    0  0.79088604737E-01  0.11198771752E+01  0.36497455910E+00  0.90007497427E+02  0.89999755593E+02 0.  0.
        -12    1    1    2    0    0 -0.79088604737E-01 -0.11198771752E+01 -0.36497455910E+00  0.11805025725E+01  0.00000000000E+00 0.  1.
         11    1    3    3    0    0  0.79930676364E+01  0.59332201845E+01 -0.12016823378E+00  0.99552334309E+01  0.51100000000E-03 0. -1.
        -11    1    3    3    0    0 -0.56083261990E+01  0.15729905596E+02 -0.35115926016E+02  0.38884592232E+02  0.51100000000E-03 0.  1.
         12    1    3    3    0    0 -0.23056528327E+01 -0.20543248605E+02  0.35601068809E+02  0.41167671765E+02  0.00000000000E+00 0. -1.
</event>
<event>
 7    1  0.1716782E-015  0.9000744E+02  0.7816164E-02  0.1186340E+00
        -11   -1    0    0    0    0  0.00000000000E+00  0.00000000000E+00  0.45593999997E+02  0.45594000000E+02  0.51100000000E-03 0.  1.
         11   -1    0    0    0    0 -0.00000000000E+00 -0.00000000000E+00 -0.45593999997E+02  0.45594000000E+02  0.51100000000E-03 0. -1.
    9900012    2    1    2    0    0  0.10618106931E+01 -0.44038819854E-01 -0.51414058152E+00  0.90007440004E+02  0.89999697412E+02 0.  0.
        -12    1    1    2    0    0 -0.10618106931E+01  0.44038819854E-01  0.51414058152E+00  0.11805599956E+01  0.00000000000E+00 0.  1.
         11    1    3    3    0    0  0.77458352672E+01  0.58819836671E+01 -0.10724857278E+01  0.97849845041E+01  0.51100000000E-03 0. -1.
        -11    1    3    3    0    0  0.14433984481E+02  0.18462341585E+02  0.28950692400E+02  0.37247020760E+02  0.51100000000E-03 0.  1.
         12    1    3    3    0    0 -0.21118009055E+02 -0.24388364072E+02 -0.28392347254E+02  0.42975434740E+02  0.00000000000E+00 0. -1.
</event>
<event>
 7    1  0.1716782E-015  0.9000775E+02  0.7816164E-02  0.1186339E+00
        -11   -1    0    0    0    0  0.00000000000E+00  0.00000000000E+00  0.45593999997E+02  0.45594000000E+02  0.51100000000E-03 0.  1.
         11   -1    0    0    0    0 -0.00000000000E+00 -0.00000000000E+00 -0.45593999997E+02  0.45594000000E+02  0.51100000000E-03 0. -1.
    9900012    2    1    2    0    0  0.73020455575E+00 -0.82792217324E+00  0.41754789454E+00  0.90007745764E+02  0.90000007208E+02 0.  0.
        -12    1    1    2    0    0 -0.73020455575E+00  0.82792217324E+00 -0.41754789454E+00  0.11802542363E+01  0.00000000000E+00 0.  1.
         11    1    3    3    0    0  0.13688111343E+02 -0.24280823300E+02 -0.26797958196E+02  0.38665919568E+02  0.51100000000E-03 0. -1.
        -11    1    3    3    0    0 -0.83052513978E+01  0.27153042171E+01 -0.69095485009E+01  0.11139656122E+02  0.51100000000E-03 0.  1.
        -12    1    3    3    0    0 -0.46526553894E+01  0.20737596910E+02  0.34125054592E+02  0.40202170074E+02  0.00000000000E+00 0.  1.
</event>
<event>
 7    1  0.1716782E-015  0.9000777E+02  0.7816164E-02  0.1186339E+00
        -11   -1    0    0    0    0  0.00000000000E+00  0.00000000000E+00  0.45593999997E+02  0.45594000000E+02  0.51100000000E-03 0.  1.
         11   -1    0    0    0    0 -0.00000000000E+00 -0.00000000000E+00 -0.45593999997E+02  0.45594000000E+02  0.51100000000E-03 0. -1.
    9900012    2    1    2    0    0 -0.11040390294E-01 -0.10214223006E+01  0.59120174108E+00  0.90007769131E+02  0.90000030883E+02 0.  0.
        -12    1    1    2    0    0  0.11040390294E-01  0.10214223006E+01 -0.59120174108E+00  0.11802308694E+01  0.00000000000E+00 0.  1.
         11    1    3    3    0    0  0.22229446253E+02  0.14387471298E+02 -0.29417080194E+02  0.39579189209E+02  0.51100000000E-03 0. -1.
        -11    1    3    3    0    0  0.33655066032E+01  0.61764091065E+01  0.54894386141E+01  0.89223651969E+01  0.51100000000E-03 0.  1.
        -12    1    3    3    0    0 -0.25605993247E+02 -0.21585302705E+02  0.24518843321E+02  0.41506214725E+02  0.00000000000E+00 0.  1.
</event>
<event>
 7    1  0.1716782E-015  0.9000769E+02  0.7816164E-02  0.1186339E+00
        -11   -1    0    0    0    0  0.00000000000E+00  0.00000000000E+00  0.45593999997E+02  0.45594000000E+02  0.51100000000E-03 0.  1.
         11   -1    0    0    0    0 -0.00000000000E+00 -0.00000000000E+00 -0.45593999997E+02  0.45594000000E+02  0.51100000000E-03 0. -1.
    9900012    2    1    2    0    0 -0.11446530528E+00 -0.10188000685E+01 -0.58488094934E+00  0.90007685800E+02  0.89999946453E+02 0.  0.
        -12    1    1    2    0    0  0.11446530528E+00  0.10188000685E+01  0.58488094934E+00  0.11803141999E+01  0.00000000000E+00 0.  1.
         11    1    3    3    0    0  0.20054816425E+01  0.51513573703E+01  0.10621677775E+02  0.11974075262E+02  0.51100000000E-03 0. -1.
        -11    1    3    3    0    0  0.25801813166E+02 -0.26564924005E+02 -0.20366660432E+02  0.42263809666E+02  0.51100000000E-03 0.  1.
         12    1    3    3    0    0 -0.27921760114E+02  0.20394766566E+02  0.91601017081E+01  0.35769800872E+02  0.00000000000E+00 0. -1.
</event>
<event>
 7    1  0.1716782E-015  0.9000772E+02  0.7816164E-02  0.1186339E+00
        -11   -1    0    0    0    0  0.00000000000E+00  0.00000000000E+00  0.45593999997E+02  0.45594000000E+02  0.51100000000E-03 0. -1.
         11   -1    0    0    0    0 -0.00000000000E+00 -0.00000000000E+00 -0.45593999997E+02  0.45594000000E+02  0.51100000000E-03 0.  1.
    9900012    2    1    2    0    0  0.24783451693E+00 -0.11370738996E+01  0.19671748013E+00  0.90007721741E+02  0.89999982868E+02 0.  0.
        -12    1    1    2    0    0 -0.24783451693E+00  0.11370738996E+01 -0.19671748013E+00  0.11802782587E+01  0.00000000000E+00 0.  1.
         11    1    3    3    0    0  0.64947221933E+01 -0.28497551038E+02 -0.25700200408E+02  0.38920330585E+02  0.51100000000E-03 0. -1.
        -11    1    3    3    0    0  0.90812761630E+01 -0.18537099568E+01  0.20235977111E+00  0.92707479251E+01  0.51100000000E-03 0.  1.
        -12    1    3    3    0    0 -0.15328163839E+02  0.29214187095E+02  0.25694558117E+02  0.41816643232E+02  0.00000000000E+00 0.  1.
</event>
<event>
 7    1  0.1716782E-015  0.9000775E+02  0.7816164E-02  0.1186339E+00
        -11   -1    0    0    0    0  0.00000000000E+00  0.00000000000E+00  0.45593999997E+02  0.45594000000E+02  0.51100000000E-03 0.  1.
         11   -1    0    0    0    0 -0.00000000000E+00 -0.00000000000E+00 -0.45593999997E+02  0.45594000000E+02  0.51100000000E-03 0. -1.
    9900012    2    1    2    0    0  0.66830351348E+00  0.14903288804E+00 -0.96132535513E+00  0.90007751371E+02  0.90000012889E+02 0.  0.
        -12    1    1    2    0    0 -0.66830351348E+00 -0.14903288804E+00  0.96132535513E+00  0.11802486290E+01  0.00000000000E+00 0.  1.
         11    1    3    3    0    0  0.83692493627E+01 -0.21965282586E+01  0.50938718286E+01  0.10040747071E+02  0.51100000000E-03 0. -1.
        -11    1    3    3    0    0 -0.27977194572E+02 -0.15962041474E+02  0.23385349239E+02  0.39804330712E+02  0.51100000000E-03 0.  1.
         12    1    3    3    0    0  0.20276248723E+02  0.18307602621E+02 -0.29440546423E+02  0.40162673587E+02  0.00000000000E+00 0. -1.
</event>
<event>
 7    1  0.1716782E-015  0.9000776E+02  0.7816164E-02  0.1186339E+00
        -11   -1    0    0    0    0  0.00000000000E+00  0.00000000000E+00  0.45593999997E+02  0.45594000000E+02  0.51100000000E-03 0.  1.
         11   -1    0    0    0    0 -0.00000000000E+00 -0.00000000000E+00 -0.45593999997E+02  0.45594000000E+02  0.51100000000E-03 0. -1.
    9900012    2    1    2    0    0  0.83950616943E+00 -0.38535001919E+00 -0.73464430053E+00  0.90007759561E+02  0.90000021187E+02 0.  0.
        -12    1    1    2    0    0 -0.83950616943E+00  0.38535001919E+00  0.73464430053E+00  0.11802404391E+01  0.00000000000E+00 0.  1.
         11    1    3    3    0    0  0.10456989676E+01  0.70800138334E+01 -0.64325080300E+01  0.96227460753E+01  0.51100000000E-03 0. -1.
        -11    1    3    3    0    0 -0.19083649827E+02  0.18298635948E+02  0.30193780731E+02  0.40133404582E+02  0.51100000000E-03 0.  1.
         12    1    3    3    0    0  0.18877457028E+02 -0.25763999800E+02 -0.24495917002E+02  0.40251608903E+02  0.00000000000E+00 0. -1.
</event>
<event>
 7    1  0.1716782E-015  0.9000791E+02  0.7816164E-02  0.1186339E+00
        -11   -1    0    0    0    0  0.00000000000E+00  0.00000000000E+00  0.45593999997E+02  0.45594000000E+02  0.51100000000E-03 0. -1.
         11   -1    0    0    0    0 -0.00000000000E+00 -0.00000000000E+00 -0.45593999997E+02  0.45594000000E+02  0.51100000000E-03 0.  1.
    9900012    2    1    2    0    0  0.32992327395E+00 -0.83456799370E+00  0.76632695543E+00  0.90007910976E+02  0.90000174600E+02 0.  0.
        -12    1    1    2    0    0 -0.32992327395E+00  0.83456799370E+00 -0.76632695543E+00  0.11800890244E+01  0.00000000000E+00 0.  1.
         11    1    3    3    0    0 -0.26471422708E+02 -0.21408081743E+02 -0.58749895407E+00  0.34049777377E+02  0.51100000000E-03 0. -1.
        -11    1    3    3    0    0 -0.34033743808E+01 -0.56521137189E+01 -0.12077462348E+02  0.13762065386E+02  0.51100000000E-03 0.  1.
        -12    1    3    3    0    0  0.30204720363E+02  0.26225627469E+02  0.13431288257E+02  0.42196068212E+02  0.00000000000E+00 0.  1.
</event>
<event>
 7    1  0.1716782E-015  0.9000774E+02  0.7816164E-02  0.1186339E+00
        -11   -1    0    0    0    0  0.00000000000E+00  0.00000000000E+00  0.45593999997E+02  0.45594000000E+02  0.51100000000E-03 0.  1.
         11   -1    0    0    0    0 -0.00000000000E+00 -0.00000000000E+00 -0.45593999997E+02  0.45594000000E+02  0.51100000000E-03 0. -1.
    9900012    2    1    2    0    0  0.85595770050E+00  0.36875131641E+00 -0.72413031210E+00  0.90007743321E+02  0.90000004733E+02 0.  0.
        -12    1    1    2    0    0 -0.85595770050E+00 -0.36875131641E+00  0.72413031210E+00  0.11802566786E+01  0.00000000000E+00 0.  1.
         11    1    3    3    0    0 -0.86604322346E+00 -0.93316285779E+01  0.34660124859E+01  0.99921251791E+01  0.51100000000E-03 0. -1.
        -11    1    3    3    0    0 -0.35114717823E+02  0.88086959185E+01  0.14133200380E+02  0.38863657635E+02  0.51100000000E-03 0.  1.
         12    1    3    3    0    0  0.36836718747E+02  0.89168397586E+00 -0.18323343178E+02  0.41151960507E+02  0.00000000000E+00 0. -1.
</event>
<event>
 7    1  0.1876435E-015  0.9000776E+02  0.7816164E-02  0.1186339E+00
        -11   -1    0    0    0    0  0.00000000000E+00  0.00000000000E+00  0.45593999997E+02  0.45594000000E+02  0.51100000000E-03 0. -1.
         11   -1    0    0    0    0 -0.00000000000E+00 -0.00000000000E+00 -0.45593999997E+02  0.45594000000E+02  0.51100000000E-03 0.  1.
    9900012    2    1    2    0    0  0.56780705138E+00  0.22273688190E+00  0.10104249577E+01  0.90007756313E+02  0.90000017896E+02 0.  0.
        -12    1    1    2    0    0 -0.56780705138E+00 -0.22273688190E+00 -0.10104249577E+01  0.11802436873E+01  0.00000000000E+00 0.  1.
         11    1    3    3    0    0  0.34929248443E+02 -0.14515463957E+02  0.83324493645E+01  0.38732167553E+02  0.51100000000E-03 0. -1.
        -11    1    3    3    0    0 -0.24407023118E+01 -0.94094702865E+01  0.25516855424E+01  0.10050186974E+02  0.51100000000E-03 0.  1.
        -12    1    3    3    0    0 -0.31920739080E+02  0.24147671126E+02 -0.98737099491E+01  0.41225401785E+02  0.00000000000E+00 0.  1.
</event>
<event>
 7    1  0.1716782E-015  0.9000780E+02  0.7816164E-02  0.1186339E+00
        -11   -1    0    0    0    0  0.00000000000E+00  0.00000000000E+00  0.45593999997E+02  0.45594000000E+02  0.51100000000E-03 0. -1.
         11   -1    0    0    0    0 -0.00000000000E+00 -0.00000000000E+00 -0.45593999997E+02  0.45594000000E+02  0.51100000000E-03 0.  1.
    9900012    2    1    2    0    0  0.49132139264E+00  0.30325311091E+00  0.10293272203E+01  0.90007799302E+02  0.90000061453E+02 0.  0.
        -12    1    1    2    0    0 -0.49132139264E+00 -0.30325311091E+00 -0.10293272203E+01  0.11802006976E+01  0.00000000000E+00 0.  1.
         11    1    3    3    0    0  0.12848492077E+02 -0.11239644765E+01  0.16977114943E+01  0.13008815065E+02  0.51100000000E-03 0. -1.
        -11    1    3    3    0    0  0.33484144646E+01 -0.35877573568E+02 -0.46289739316E+01  0.36329596260E+02  0.51100000000E-03 0.  1.
         12    1    3    3    0    0 -0.15705585149E+02  0.37304791155E+02  0.39605896576E+01  0.40669387977E+02  0.00000000000E+00 0. -1.
</event>
<event>
 7    1  0.1716782E-015  0.9000774E+02  0.7816164E-02  0.1186339E+00
        -11   -1    0    0    0    0  0.00000000000E+00  0.00000000000E+00  0.45593999997E+02  0.45594000000E+02  0.51100000000E-03 0.  1.
         11   -1    0    0    0    0 -0.00000000000E+00 -0.00000000000E+00 -0.45593999997E+02  0.45594000000E+02  0.51100000000E-03 0. -1.
    9900012    2    1    2    0    0 -0.10810797142E+00 -0.11508103143E+01  0.23865049548E+00  0.90007743345E+02  0.90000004757E+02 0.  0.
        -12    1    1    2    0    0  0.10810797142E+00  0.11508103143E+01 -0.23865049548E+00  0.11802566551E+01  0.00000000000E+00 0.  1.
         11    1    3    3    0    0  0.25514206832E+02 -0.28967037305E+02 -0.16235281198E+02  0.41876584821E+02  0.51100000000E-03 0. -1.
        -11    1    3    3    0    0  0.16128807165E+00  0.17423846369E+02  0.62635784832E+01  0.18516178111E+02  0.51100000000E-03 0.  1.
        -12    1    3    3    0    0 -0.25783602875E+02  0.10392380621E+02  0.10210353210E+02  0.29614980413E+02  0.00000000000E+00 0.  1.
</event>
<event>
 7    1  0.1716782E-015  0.9000779E+02  0.7816164E-02  0.1186339E+00
        -11   -1    0    0    0    0  0.00000000000E+00  0.00000000000E+00  0.45593999997E+02  0.45594000000E+02  0.51100000000E-03 0.  1.
         11   -1    0    0    0    0 -0.00000000000E+00 -0.00000000000E+00 -0.45593999997E+02  0.45594000000E+02  0.51100000000E-03 0. -1.
    9900012    2    1    2    0    0 -0.85987969236E+00  0.49666926099E+00 -0.63783141916E+00  0.90007787155E+02  0.90000049145E+02 0.  0.
        -12    1    1    2    0    0  0.85987969236E+00 -0.49666926099E+00  0.63783141916E+00  0.11802128450E+01  0.00000000000E+00 0.  1.
         11    1    3    3    0    0 -0.82185899371E+01 -0.16613901128E+01 -0.38106991684E+00  0.83934886790E+01  0.51100000000E-03 0. -1.
        -11    1    3    3    0    0  0.47169402340E+01  0.29264849918E+02  0.29121331959E+02  0.41553976238E+02  0.51100000000E-03 0.  1.
         12    1    3    3    0    0  0.26417700108E+01 -0.27106790544E+02 -0.29378093461E+02  0.40060322238E+02  0.00000000000E+00 0. -1.
</event>
<event>
 7    1  0.1716782E-015  0.9000777E+02  0.7816164E-02  0.1186339E+00
        -11   -1    0    0    0    0  0.00000000000E+00  0.00000000000E+00  0.45593999997E+02  0.45594000000E+02  0.51100000000E-03 0. -1.
         11   -1    0    0    0    0 -0.00000000000E+00 -0.00000000000E+00 -0.45593999997E+02  0.45594000000E+02  0.51100000000E-03 0.  1.
    9900012    2    1    2    0    0 -0.11302309570E+01 -0.23308976289E+00 -0.24734645808E+00  0.90007774122E+02  0.90000035940E+02 0.  0.
        -12    1    1    2    0    0  0.11302309570E+01  0.23308976289E+00  0.24734645808E+00  0.11802258784E+01  0.00000000000E+00 0.  1.
         11    1    3    3    0    0 -0.46262044497E+01 -0.13885523408E+00 -0.16257067316E+02  0.16903055534E+02  0.51100000000E-03 0. -1.
        -11    1    3    3    0    0  0.21172602339E+02  0.27393907704E+02 -0.38923930407E+01  0.34840436176E+02  0.51100000000E-03 0.  1.
         12    1    3    3    0    0 -0.17676628847E+02 -0.27488142233E+02  0.19902113899E+02  0.38264282411E+02  0.00000000000E+00 0. -1.
</event>
<event>
 7    1  0.1716782E-015  0.9000779E+02  0.7816164E-02  0.1186339E+00
        -11   -1    0    0    0    0  0.00000000000E+00  0.00000000000E+00  0.45593999997E+02  0.45594000000E+02  0.51100000000E-03 0.  1.
         11   -1    0    0    0    0 -0.00000000000E+00 -0.00000000000E+00 -0.45593999997E+02  0.45594000000E+02  0.51100000000E-03 0. -1.
    9900012    2    1    2    0    0 -0.52491396654E+00  0.87840838743E+00  0.58800639465E+00  0.90007793456E+02  0.90000055529E+02 0.  0.
        -12    1    1    2    0    0  0.52491396654E+00 -0.87840838743E+00 -0.58800639465E+00  0.11802065444E+01  0.00000000000E+00 0.  1.
         11    1    3    3    0    0 -0.62604448455E+01 -0.52854203276E+01  0.54529136770E+01  0.98419055844E+01  0.51100000000E-03 0. -1.
        -11    1    3    3    0    0  0.89661488434E+01  0.17838941406E+02  0.34015508174E+02  0.39442039148E+02  0.51100000000E-03 0.  1.
         12    1    3    3    0    0 -0.32306179645E+01 -0.11675112691E+02 -0.38880415456E+02  0.40723848723E+02  0.00000000000E+00 0. -1.
</event>
<event>
 7    1  0.1716782E-015  0.9000776E+02  0.7816164E-02  0.1186339E+00
        -11   -1    0    0    0    0  0.00000000000E+00  0.00000000000E+00  0.45593999997E+02  0.45594000000E+02  0.51100000000E-03 0. -1.
         11   -1    0    0    0    0 -0.00000000000E+00 -0.00000000000E+00 -0.45593999997E+02  0.45594000000E+02  0.51100000000E-03 0.  1.
    9900012    2    1    2    0    0 -0.88695302530E-01  0.28998929217E-01  0.11765468014E+01  0.90007758427E+02  0.90000020038E+02 0.  0.
        -12    1    1    2    0    0  0.88695302530E-01 -0.28998929217E-01 -0.11765468014E+01  0.11802415729E+01  0.00000000000E+00 0.  1.
         11    1    3    3    0    0 -0.41723967497E+01  0.21918297644E+02 -0.26925611712E+02  0.34968689318E+02  0.51100000000E-03 0. -1.
        -11    1    3    3    0    0  0.69407486868E+01  0.10174575923E+02  0.13671068044E-01  0.12316500100E+02  0.51100000000E-03 0.  1.
        -12    1    3    3    0    0 -0.28570472396E+01 -0.32063874639E+02  0.28088487445E+02  0.42722569009E+02  0.00000000000E+00 0.  1.
</event>
<event>
 7    1  0.1769052E-015  0.9000781E+02  0.7816164E-02  0.1186339E+00
        -11   -1    0    0    0    0  0.00000000000E+00  0.00000000000E+00  0.45593999997E+02  0.45594000000E+02  0.51100000000E-03 0.  1.
         11   -1    0    0    0    0 -0.00000000000E+00 -0.00000000000E+00 -0.45593999997E+02  0.45594000000E+02  0.51100000000E-03 0. -1.
    9900012    2    1    2    0    0 -0.23776189092E+00 -0.96118549990E+00 -0.64220836216E+00  0.90007813632E+02  0.90000075972E+02 0.  0.
        -12    1    1    2    0    0  0.23776189092E+00  0.96118549990E+00  0.64220836216E+00  0.11801863677E+01  0.00000000000E+00 0.  1.
         11    1    3    3    0    0 -0.72580626708E+01  0.17026843146E+02 -0.30408362021E+02  0.35598614331E+02  0.51100000000E-03 0. -1.
        -11    1    3    3    0    0  0.13607623814E+01  0.78907019944E+01 -0.59253987851E+01  0.99611848315E+01  0.51100000000E-03 0.  1.
        -12    1    3    3    0    0  0.56595383985E+01 -0.25878730641E+02  0.35691552444E+02  0.44448014470E+02  0.00000000000E+00 0.  1.
</event>
<event>
 7    1  0.1716782E-015  0.9000784E+02  0.7816164E-02  0.1186339E+00
        -11   -1    0    0    0    0  0.00000000000E+00  0.00000000000E+00  0.45593999997E+02  0.45594000000E+02  0.51100000000E-03 0.  1.
         11   -1    0    0    0    0 -0.00000000000E+00 -0.00000000000E+00 -0.45593999997E+02  0.45594000000E+02  0.51100000000E-03 0. -1.
    9900012    2    1    2    0    0  0.70590444533E+00  0.48021687964E+00 -0.81477991978E+00  0.90007840835E+02  0.90000103534E+02 0.  0.
        -12    1    1    2    0    0 -0.70590444533E+00 -0.48021687964E+00  0.81477991978E+00  0.11801591652E+01  0.00000000000E+00 0.  1.
         11    1    3    3    0    0  0.20279278828E+02 -0.30745299852E+02 -0.54211711009E+01  0.37227835139E+02  0.51100000000E-03 0. -1.
        -11    1    3    3    0    0  0.75307897699E+01 -0.33058666678E+01 -0.17935212794E+01  0.84177353145E+01  0.51100000000E-03 0.  1.
        -12    1    3    3    0    0 -0.27104164152E+02  0.34531383400E+02  0.63999124605E+01  0.44362270381E+02  0.00000000000E+00 0.  1.
</event>
<event>
 7    1  0.1716782E-015  0.9000776E+02  0.7816164E-02  0.1186339E+00
        -11   -1    0    0    0    0  0.00000000000E+00  0.00000000000E+00  0.45593999997E+02  0.45594000000E+02  0.51100000000E-03 0.  1.
         11   -1    0    0    0    0 -0.00000000000E+00 -0.00000000000E+00 -0.45593999997E+02  0.45594000000E+02  0.51100000000E-03 0. -1.
    9900012    2    1    2    0    0  0.97736273337E+00 -0.36916558787E+00 -0.54904119792E+00  0.90007759609E+02  0.90000021236E+02 0.  0.
        -12    1    1    2    0    0 -0.97736273337E+00  0.36916558787E+00  0.54904119792E+00  0.11802403911E+01  0.00000000000E+00 0.  1.
         11    1    3    3    0    0 -0.81109984649E+01  0.32163471804E+01  0.26170922371E+01  0.91094652599E+01  0.51100000000E-03 0. -1.
        -11    1    3    3    0    0 -0.30764752618E+02  0.53734737954E+01  0.16766677502E+02  0.35446659913E+02  0.51100000000E-03 0.  1.
         12    1    3    3    0    0  0.39853113816E+02 -0.89589865637E+01 -0.19932810937E+02  0.45451634436E+02  0.00000000000E+00 0. -1.
</event>
<event>
 7    1  0.1716782E-015  0.9000772E+02  0.7816164E-02  0.1186339E+00
        -11   -1    0    0    0    0  0.00000000000E+00  0.00000000000E+00  0.45593999997E+02  0.45594000000E+02  0.51100000000E-03 0.  1.
         11   -1    0    0    0    0 -0.00000000000E+00 -0.00000000000E+00 -0.45593999997E+02  0.45594000000E+02  0.51100000000E-03 0. -1.
    9900012    2    1    2    0    0 -0.33716700627E-01  0.11775229195E+01 -0.73283089700E-01  0.90007717215E+02  0.89999978282E+02 0.  0.
        -12    1    1    2    0    0  0.33716700627E-01 -0.11775229195E+01  0.73283089700E-01  0.11802827852E+01  0.00000000000E+00 0.  1.
         11    1    3    3    0    0 -0.25910959360E+00 -0.37503527049E+01 -0.66976429115E+01  0.76805406075E+01  0.51100000000E-03 0. -1.
        -11    1    3    3    0    0 -0.11710081786E+02  0.40604422924E+02 -0.59174485644E+01  0.42671552282E+02  0.51100000000E-03 0.  1.
         12    1    3    3    0    0  0.11935474679E+02 -0.35676547299E+02  0.12541808386E+02  0.39655624325E+02  0.00000000000E+00 0. -1.
</event>
<event>
 7    1  0.2185316E-015  0.9000775E+02  0.7816164E-02  0.1186339E+00
        -11   -1    0    0    0    0  0.00000000000E+00  0.00000000000E+00  0.45593999997E+02  0.45594000000E+02  0.51100000000E-03 0. -1.
         11   -1    0    0    0    0 -0.00000000000E+00 -0.00000000000E+00 -0.45593999997E+02  0.45594000000E+02  0.51100000000E-03 0.  1.
    9900012    2    1    2    0    0 -0.96245537469E+00  0.55321677748E+00  0.40078105173E+00  0.90007748077E+02  0.90000009551E+02 0.  0.
        -12    1    1    2    0    0  0.96245537469E+00 -0.55321677748E+00 -0.40078105173E+00  0.11802519234E+01  0.00000000000E+00 0.  1.
         11    1    3    3    0    0 -0.42312902454E+01 -0.21675087337E+02  0.33385738241E+02  0.40028998818E+02  0.51100000000E-03 0. -1.
        -11    1    3    3    0    0 -0.99512119736E+01  0.12617838104E+01 -0.18794759890E+01  0.10205446996E+02  0.51100000000E-03 0.  1.
        -12    1    3    3    0    0  0.13220046844E+02  0.20966520304E+02 -0.31105481200E+02  0.39773302263E+02  0.00000000000E+00 0.  1.
</event>
<event>
 7    1  0.1716782E-015  0.9000778E+02  0.7816164E-02  0.1186339E+00
        -11   -1    0    0    0    0  0.00000000000E+00  0.00000000000E+00  0.45593999997E+02  0.45594000000E+02  0.51100000000E-03 0.  1.
         11   -1    0    0    0    0 -0.00000000000E+00 -0.00000000000E+00 -0.45593999997E+02  0.45594000000E+02  0.51100000000E-03 0. -1.
    9900012    2    1    2    0    0 -0.76873155166E+00  0.38691775206E+00 -0.80762367087E+00  0.90007784113E+02  0.90000046064E+02 0.  0.
        -12    1    1    2    0    0  0.76873155166E+00 -0.38691775206E+00  0.80762367087E+00  0.11802158867E+01  0.00000000000E+00 0.  1.
         11    1    3    3    0    0  0.53005720361E+01  0.44901800463E+01 -0.55511485120E+01  0.88923017730E+01  0.51100000000E-03 0. -1.
        -11    1    3    3    0    0  0.36647847839E+02  0.58298422391E+01  0.28459260783E+01  0.37217618238E+02  0.51100000000E-03 0.  1.
         12    1    3    3    0    0 -0.42717151427E+02 -0.99331045333E+01  0.18975987629E+01  0.43897864103E+02  0.00000000000E+00 0. -1.
</event>
<event>
 7    1  0.1716782E-015  0.9000776E+02  0.7816164E-02  0.1186339E+00
        -11   -1    0    0    0    0  0.00000000000E+00  0.00000000000E+00  0.45593999997E+02  0.45594000000E+02  0.51100000000E-03 0. -1.
         11   -1    0    0    0    0 -0.00000000000E+00 -0.00000000000E+00 -0.45593999997E+02  0.45594000000E+02  0.51100000000E-03 0.  1.
    9900012    2    1    2    0    0  0.27709909213E+00 -0.28144341438E+00  0.11121969625E+01  0.90007755794E+02  0.90000017371E+02 0.  0.
        -12    1    1    2    0    0 -0.27709909213E+00  0.28144341438E+00 -0.11121969625E+01  0.11802442060E+01  0.00000000000E+00 0.  1.
         11    1    3    3    0    0  0.43732933724E+00 -0.31386876417E+00 -0.98518498958E+01  0.98665453519E+01  0.51100000000E-03 0. -1.
        -11    1    3    3    0    0  0.14197348752E+02 -0.15174507823E+00 -0.31910261051E+02  0.34926386855E+02  0.51100000000E-03 0.  1.
         12    1    3    3    0    0 -0.14357578997E+02  0.18417042802E+00  0.42874307909E+02  0.45214823588E+02  0.00000000000E+00 0. -1.
</event>
<event>
 7    1  0.2924812E-015  0.9000776E+02  0.7816164E-02  0.1186339E+00
        -11   -1    0    0    0    0  0.00000000000E+00  0.00000000000E+00  0.45593999997E+02  0.45594000000E+02  0.51100000000E-03 0. -1.
         11   -1    0    0    0    0 -0.00000000000E+00 -0.00000000000E+00 -0.45593999997E+02  0.45594000000E+02  0.51100000000E-03 0.  1.
    9900012    2    1    2    0    0 -0.53895815044E+00  0.25182682865E+00  0.10193546159E+01  0.90007755757E+02  0.90000017333E+02 0.  0.
        -12    1    1    2    0    0  0.53895815044E+00 -0.25182682865E+00 -0.10193546159E+01  0.11802442427E+01  0.00000000000E+00 0.  1.
         11    1    3    3    0    0 -0.13945210957E+02  0.12159092602E+00  0.34450102079E+02  0.37165753409E+02  0.51100000000E-03 0. -1.
        -11    1    3    3    0    0  0.37457516126E+01  0.17964957077E+01  0.86705841684E+01  0.96144205261E+01  0.51100000000E-03 0.  1.
        -12    1    3    3    0    0  0.96605011941E+01 -0.16662598050E+01 -0.42101331631E+02  0.43227581822E+02  0.00000000000E+00 0.  1.
</event>
<event>
 7    1  0.1716782E-015  0.9000774E+02  0.7816164E-02  0.1186339E+00
        -11   -1    0    0    0    0  0.00000000000E+00  0.00000000000E+00  0.45593999997E+02  0.45594000000E+02  0.51100000000E-03 0.  1.
         11   -1    0    0    0    0 -0.00000000000E+00 -0.00000000000E+00 -0.45593999997E+02  0.45594000000E+02  0.51100000000E-03 0. -1.
    9900012    2    1    2    0    0  0.77917078250E+00  0.77292327372E+00 -0.43414896395E+00  0.90007744596E+02  0.90000006025E+02 0.  0.
        -12    1    1    2    0    0 -0.77917078250E+00 -0.77292327372E+00  0.43414896395E+00  0.11802554038E+01  0.00000000000E+00 0.  1.
         11    1    3    3    0    0 -0.12412604012E+02 -0.27095942820E+02 -0.21240538605E+02  0.36598132960E+02  0.51100000000E-03 0. -1.
        -11    1    3    3    0    0  0.73456661530E+01  0.21417732977E+01 -0.10165928625E+02  0.12723683003E+02  0.51100000000E-03 0.  1.
        -12    1    3    3    0    0  0.58461086411E+01  0.25727092796E+02  0.30972318266E+02  0.40685928633E+02  0.00000000000E+00 0.  1.
</event>
<event>
 7    1  0.1716782E-015  0.9000761E+02  0.7816164E-02  0.1186339E+00
        -11   -1    0    0    0    0  0.00000000000E+00  0.00000000000E+00  0.45593999997E+02  0.45594000000E+02  0.51100000000E-03 0.  1.
         11   -1    0    0    0    0 -0.00000000000E+00 -0.00000000000E+00 -0.45593999997E+02  0.45594000000E+02  0.51100000000E-03 0. -1.
    9900012    2    1    2    0    0  0.73638373179E-01  0.42000828978E+00 -0.11006730424E+01  0.90007614165E+02  0.89999873872E+02 0.  0.
        -12    1    1    2    0    0 -0.73638373179E-01 -0.42000828978E+00  0.11006730424E+01  0.11803858351E+01  0.00000000000E+00 0.  1.
         11    1    3    3    0    0 -0.15984225289E+01 -0.39008974593E+02 -0.87434552124E+01  0.40008787318E+02  0.51100000000E-03 0. -1.
        -11    1    3    3    0    0  0.49838387354E+01 -0.13534742283E+01  0.74704631777E+01  0.90817598173E+01  0.51100000000E-03 0.  1.
        -12    1    3    3    0    0 -0.33117778334E+01  0.40782457111E+02  0.17231899223E+00  0.40917067029E+02  0.00000000000E+00 0.  1.
</event>
<event>
 7    1  0.1716782E-015  0.9000771E+02  0.7816164E-02  0.1186339E+00
        -11   -1    0    0    0    0  0.00000000000E+00  0.00000000000E+00  0.45593999997E+02  0.45594000000E+02  0.51100000000E-03 0.  1.
         11   -1    0    0    0    0 -0.00000000000E+00 -0.00000000000E+00 -0.45593999997E+02  0.45594000000E+02  0.51100000000E-03 0. -1.
    9900012    2    1    2    0    0  0.11284576737E+01 -0.28441837134E+00 -0.19689217329E+00  0.90007713145E+02  0.89999974159E+02 0.  0.
        -12    1    1    2    0    0 -0.11284576737E+01  0.28441837134E+00  0.19689217329E+00  0.11802868546E+01  0.00000000000E+00 0.  1.
         11    1    3    3    0    0  0.26914189595E+02  0.45368975420E+00 -0.25943393776E+02  0.37385011927E+02  0.51100000000E-03 0. -1.
        -11    1    3    3    0    0 -0.17585612767E+01 -0.42058099294E+01 -0.90858864268E+01  0.10165368038E+02  0.51100000000E-03 0.  1.
        -12    1    3    3    0    0 -0.24027170644E+02  0.34677018038E+01  0.34832388029E+02  0.42457333180E+02  0.00000000000E+00 0.  1.
</event>
<event>
 7    1  0.1716782E-015  0.9000760E+02  0.7816164E-02  0.1186339E+00
        -11   -1    0    0    0    0  0.00000000000E+00  0.00000000000E+00  0.45593999997E+02  0.45594000000E+02  0.51100000000E-03 0.  1.
         11   -1    0    0    0    0 -0.00000000000E+00 -0.00000000000E+00 -0.45593999997E+02  0.45594000000E+02  0.51100000000E-03 0. -1.
    9900012    2    1    2    0    0 -0.58612166996E+00 -0.18945102929E+00 -0.10069384816E+01  0.90007595235E+02  0.89999854692E+02 0.  0.
        -12    1    1    2    0    0  0.58612166996E+00  0.18945102929E+00  0.10069384816E+01  0.11804047654E+01  0.00000000000E+00 0.  1.
         11    1    3    3    0    0  0.20957598740E+01  0.28757763712E+01 -0.88531467149E+01  0.95415148799E+01  0.51100000000E-03 0. -1.
        -11    1    3    3    0    0 -0.40811289827E+02 -0.33701119911E+01 -0.22804631851E+01  0.41013650713E+02  0.51100000000E-03 0.  1.
         12    1    3    3    0    0  0.38129408283E+02  0.30488459065E+00  0.10126671418E+02  0.39452429642E+02  0.00000000000E+00 0. -1.
</event>
<event>
 7    1  0.1716782E-015  0.9000757E+02  0.7816164E-02  0.1186339E+00
        -11   -1    0    0    0    0  0.00000000000E+00  0.00000000000E+00  0.45593999997E+02  0.45594000000E+02  0.51100000000E-03 0. -1.
         11   -1    0    0    0    0 -0.00000000000E+00 -0.00000000000E+00 -0.45593999997E+02  0.45594000000E+02  0.51100000000E-03 0.  1.
    9900012    2    1    2    0    0  0.10484759439E+01 -0.26366142846E+00  0.47392651769E+00  0.90007565547E+02  0.89999824612E+02 0.  0.
        -12    1    1    2    0    0 -0.10484759439E+01  0.26366142846E+00 -0.47392651769E+00  0.11804344530E+01  0.00000000000E+00 0.  1.
         11    1    3    3    0    0 -0.13691950916E+02 -0.14354756748E+02  0.35266423079E+02  0.40462935611E+02  0.51100000000E-03 0. -1.
        -11    1    3    3    0    0  0.34240920652E+01  0.79388381177E+01  0.33605844461E+01  0.92759412035E+01  0.51100000000E-03 0.  1.
        -12    1    3    3    0    0  0.11316334795E+02  0.61522572020E+01 -0.38153081008E+02  0.40268688733E+02  0.00000000000E+00 0.  1.
</event>
<event>
 7    1  0.1716782E-015  0.9000775E+02  0.7816164E-02  0.1186339E+00
        -11   -1    0    0    0    0  0.00000000000E+00  0.00000000000E+00  0.45593999997E+02  0.45594000000E+02  0.51100000000E-03 0.  1.
         11   -1    0    0    0    0 -0.00000000000E+00 -0.00000000000E+00 -0.45593999997E+02  0.45594000000E+02  0.51100000000E-03 0. -1.
    9900012    2    1    2    0    0  0.11431914388E+00  0.87215874222E+00 -0.78692977149E+00  0.90007750788E+02  0.90000012298E+02 0.  0.
        -12    1    1    2    0    0 -0.11431914388E+00 -0.87215874222E+00  0.78692977149E+00  0.11802492125E+01  0.00000000000E+00 0.  1.
         11    1    3    3    0    0  0.57542324872E+01 -0.65168218238E+01  0.24362159073E+01  0.90285827463E+01  0.51100000000E-03 0. -1.
        -11    1    3    3    0    0 -0.94712939999E+01 -0.27027501379E+02  0.23653419123E+02  0.37143983056E+02  0.51100000000E-03 0.  1.
         12    1    3    3    0    0  0.38313806565E+01  0.34416481945E+02 -0.26876564801E+02  0.43835184985E+02  0.00000000000E+00 0. -1.
</event>
<event>
 7    1  0.1716782E-015  0.9000766E+02  0.7816164E-02  0.1186339E+00
        -11   -1    0    0    0    0  0.00000000000E+00  0.00000000000E+00  0.45593999997E+02  0.45594000000E+02  0.51100000000E-03 0.  1.
         11   -1    0    0    0    0 -0.00000000000E+00 -0.00000000000E+00 -0.45593999997E+02  0.45594000000E+02  0.51100000000E-03 0. -1.
    9900012    2    1    2    0    0  0.10546170065E+01  0.50771559485E+00 -0.15234689734E+00  0.90007660332E+02  0.89999920648E+02 0.  0.
        -12    1    1    2    0    0 -0.10546170065E+01 -0.50771559485E+00  0.15234689734E+00  0.11803396684E+01  0.00000000000E+00 0.  1.
         11    1    3    3    0    0  0.35216652959E+02  0.43774004896E+01 -0.85514416615E+01  0.36503444159E+02  0.51100000000E-03 0. -1.
        -11    1    3    3    0    0  0.75274322578E+01  0.64275077220E+01  0.15042936135E+01  0.10011892501E+02  0.51100000000E-03 0.  1.
        -12    1    3    3    0    0 -0.41689468211E+02 -0.10297192617E+02  0.68948011507E+01  0.43492323672E+02  0.00000000000E+00 0.  1.
</event>
<event>
 7    1  0.1716782E-015  0.9000777E+02  0.7816164E-02  0.1186339E+00
        -11   -1    0    0    0    0  0.00000000000E+00  0.00000000000E+00  0.45593999997E+02  0.45594000000E+02  0.51100000000E-03 0.  1.
         11   -1    0    0    0    0 -0.00000000000E+00 -0.00000000000E+00 -0.45593999997E+02  0.45594000000E+02  0.51100000000E-03 0. -1.
    9900012    2    1    2    0    0  0.65330824000E+00  0.95242673628E+00  0.24291936104E+00  0.90007771988E+02  0.90000033778E+02 0.  0.
        -12    1    1    2    0    0 -0.65330824000E+00 -0.95242673628E+00 -0.24291936104E+00  0.11802280120E+01  0.00000000000E+00 0.  1.
         11    1    3    3    0    0 -0.33406327137E+01 -0.79830012343E+01  0.37036459751E+01  0.94130297676E+01  0.51100000000E-03 0. -1.
        -11    1    3    3    0    0 -0.13216338322E+02 -0.23428085232E+02  0.22996301934E+02  0.35388934417E+02  0.51100000000E-03 0.  1.
         12    1    3    3    0    0  0.17210279276E+02  0.32363513203E+02 -0.26457028548E+02  0.45205807803E+02  0.00000000000E+00 0. -1.
</event>
<event>
 7    1  0.1716782E-015  0.9000769E+02  0.7816164E-02  0.1186339E+00
        -11   -1    0    0    0    0  0.00000000000E+00  0.00000000000E+00  0.45593999997E+02  0.45594000000E+02  0.51100000000E-03 0.  1.
         11   -1    0    0    0    0 -0.00000000000E+00 -0.00000000000E+00 -0.45593999997E+02  0.45594000000E+02  0.51100000000E-03 0. -1.
    9900012    2    1    2    0    0 -0.74804846414E+00 -0.60165119441E+00 -0.68671154889E+00  0.90007689272E+02  0.89999949970E+02 0.  0.
        -12    1    1    2    0    0  0.74804846414E+00  0.60165119441E+00  0.68671154889E+00  0.11803107285E+01  0.00000000000E+00 0.  1.
         11    1    3    3    0    0 -0.32589690653E+01  0.28100551670E+01  0.71075284731E+01  0.83086852550E+01  0.51100000000E-03 0. -1.
        -11    1    3    3    0    0  0.75523037381E+01  0.10847963496E+02  0.34412724484E+02  0.36863955437E+02  0.51100000000E-03 0.  1.
         12    1    3    3    0    0 -0.50413831370E+01 -0.14259669858E+02 -0.42206964506E+02  0.44835048580E+02  0.00000000000E+00 0. -1.
</event>
<event>
 7    1  0.1716782E-015  0.9000779E+02  0.7816164E-02  0.1186339E+00
        -11   -1    0    0    0    0  0.00000000000E+00  0.00000000000E+00  0.45593999997E+02  0.45594000000E+02  0.51100000000E-03 0. -1.
         11   -1    0    0    0    0 -0.00000000000E+00 -0.00000000000E+00 -0.45593999997E+02  0.45594000000E+02  0.51100000000E-03 0.  1.
    9900012    2    1    2    0    0  0.62949411751E+00 -0.70261412161E+00 -0.70920223149E+00  0.90007789318E+02  0.90000051337E+02 0.  0.
        -12    1    1    2    0    0 -0.62949411751E+00  0.70261412161E+00  0.70920223149E+00  0.11802106816E+01  0.00000000000E+00 0.  1.
         11    1    3    3    0    0 -0.10312488242E+02  0.22675200991E+01 -0.11215886469E+01  0.10618240085E+02  0.51100000000E-03 0. -1.
        -11    1    3    3    0    0 -0.27396414802E+01 -0.84469119555E+01 -0.37592659884E+02  0.38627244717E+02  0.51100000000E-03 0.  1.
         12    1    3    3    0    0  0.13681623840E+02  0.54767777348E+01  0.38005046299E+02  0.40762304516E+02  0.00000000000E+00 0. -1.
</event>
<event>
 7    1  0.1716782E-015  0.9000776E+02  0.7816164E-02  0.1186339E+00
        -11   -1    0    0    0    0  0.00000000000E+00  0.00000000000E+00  0.45593999997E+02  0.45594000000E+02  0.51100000000E-03 0. -1.
         11   -1    0    0    0    0 -0.00000000000E+00 -0.00000000000E+00 -0.45593999997E+02  0.45594000000E+02  0.51100000000E-03 0.  1.
    9900012    2    1    2    0    0  0.16701311025E-01 -0.99581981582E+00  0.63326852447E+00  0.90007760591E+02  0.90000022230E+02 0.  0.
        -12    1    1    2    0    0 -0.16701311025E-01  0.99581981582E+00 -0.63326852447E+00  0.11802394094E+01  0.00000000000E+00 0.  1.
         11    1    3    3    0    0  0.36941524018E+02  0.19228214345E+02  0.10852764878E+01  0.41660271830E+02  0.51100000000E-03 0. -1.
        -11    1    3    3    0    0  0.11978470247E+00 -0.85090859972E+01 -0.38620674449E+01  0.93452906907E+01  0.51100000000E-03 0.  1.
        -12    1    3    3    0    0 -0.37044607409E+02 -0.11714948164E+02  0.34100594816E+01  0.39002198070E+02  0.00000000000E+00 0.  1.
</event>
<event>
 7    1  0.1716782E-015  0.9000779E+02  0.7816164E-02  0.1186339E+00
        -11   -1    0    0    0    0  0.00000000000E+00  0.00000000000E+00  0.45593999997E+02  0.45594000000E+02  0.51100000000E-03 0. -1.
         11   -1    0    0    0    0 -0.00000000000E+00 -0.00000000000E+00 -0.45593999997E+02  0.45594000000E+02  0.51100000000E-03 0.  1.
    9900012    2    1    2    0    0 -0.67197642283E+00  0.60628097834E+00  0.75748032052E+00  0.90007785878E+02  0.90000047852E+02 0.  0.
        -12    1    1    2    0    0  0.67197642283E+00 -0.60628097834E+00 -0.75748032052E+00  0.11802141219E+01  0.00000000000E+00 0.  1.
         11    1    3    3    0    0  0.15054282973E+02  0.30546456251E+02  0.13705469261E+02  0.36709090335E+02  0.51100000000E-03 0. -1.
        -11    1    3    3    0    0 -0.54256072840E+00  0.72725823095E+01  0.54425199369E+01  0.90997719266E+01  0.51100000000E-03 0.  1.
        -12    1    3    3    0    0 -0.15183698668E+02 -0.37212757582E+02 -0.18390508877E+02  0.44198923616E+02  0.00000000000E+00 0.  1.
</event>
<event>
 7    1  0.1716782E-015  0.9000761E+02  0.7816164E-02  0.1186339E+00
        -11   -1    0    0    0    0  0.00000000000E+00  0.00000000000E+00  0.45593999997E+02  0.45594000000E+02  0.51100000000E-03 0. -1.
         11   -1    0    0    0    0 -0.00000000000E+00 -0.00000000000E+00 -0.45593999997E+02  0.45594000000E+02  0.51100000000E-03 0.  1.
    9900012    2    1    2    0    0 -0.10467134598E+01 -0.49506869986E+00  0.22936606351E+00  0.90007614099E+02  0.89999873805E+02 0.  0.
        -12    1    1    2    0    0  0.10467134598E+01  0.49506869986E+00 -0.22936606351E+00  0.11803859011E+01  0.00000000000E+00 0.  1.
         11    1    3    3    0    0 -0.23162340532E+02  0.67502008660E+01  0.23833672749E+02  0.33913171300E+02  0.51100000000E-03 0. -1.
        -11    1    3    3    0    0 -0.12236190972E+02 -0.47511184742E+01  0.18650526437E+01  0.13258051059E+02  0.51100000000E-03 0.  1.
        -12    1    3    3    0    0  0.34351818044E+02 -0.24941510917E+01 -0.25469359330E+02  0.42836391740E+02  0.00000000000E+00 0.  1.
</event>
<event>
 7    1  0.1716782E-015  0.9000777E+02  0.7816164E-02  0.1186339E+00
        -11   -1    0    0    0    0  0.00000000000E+00  0.00000000000E+00  0.45593999997E+02  0.45594000000E+02  0.51100000000E-03 0.  1.
         11   -1    0    0    0    0 -0.00000000000E+00 -0.00000000000E+00 -0.45593999997E+02  0.45594000000E+02  0.51100000000E-03 0. -1.
    9900012    2    1    2    0    0 -0.39389762540E+00  0.42815825111E+00 -0.10268721051E+01  0.90007770722E+02  0.90000032496E+02 0.  0.
        -12    1    1    2    0    0  0.39389762540E+00 -0.42815825111E+00  0.10268721051E+01  0.11802292775E+01  0.00000000000E+00 0.  1.
         11    1    3    3    0    0 -0.23297042524E+02 -0.18010404856E+02 -0.13565036227E+02  0.32421244294E+02  0.51100000000E-03 0.  1.
        -11    1    3    3    0    0 -0.12702993454E+02  0.16115682986E+02  0.42958914234E+01  0.20965113026E+02  0.51100000000E-03 0. -1.
         12    1    3    3    0    0  0.35606138352E+02  0.23228801208E+01  0.82422726987E+01  0.36621413403E+02  0.00000000000E+00 0. -1.
</event>
<event>
 7    1  0.1716782E-015  0.9000772E+02  0.7816164E-02  0.1186339E+00
        -11   -1    0    0    0    0  0.00000000000E+00  0.00000000000E+00  0.45593999997E+02  0.45594000000E+02  0.51100000000E-03 0.  1.
         11   -1    0    0    0    0 -0.00000000000E+00 -0.00000000000E+00 -0.45593999997E+02  0.45594000000E+02  0.51100000000E-03 0. -1.
    9900012    2    1    2    0    0 -0.26205792983E-01 -0.45455792425E+00 -0.10889169718E+01  0.90007724684E+02  0.89999985850E+02 0.  0.
        -12    1    1    2    0    0  0.26205792983E-01  0.45455792425E+00  0.10889169718E+01  0.11802753160E+01  0.00000000000E+00 0.  1.
         11    1    3    3    0    0 -0.48301968208E+01 -0.73221278959E+01  0.57114853354E+01  0.10467350345E+02  0.51100000000E-03 0. -1.
        -11    1    3    3    0    0  0.37037898279E+01  0.16183750346E+02  0.33913774044E+02  0.37759447884E+02  0.51100000000E-03 0.  1.
         12    1    3    3    0    0  0.11002011999E+01 -0.93161803744E+01 -0.40714176351E+02  0.41780926455E+02  0.00000000000E+00 0. -1.
</event>
<event>
 7    1  0.1716782E-015  0.9000750E+02  0.7816164E-02  0.1186340E+00
        -11   -1    0    0    0    0  0.00000000000E+00  0.00000000000E+00  0.45593999997E+02  0.45594000000E+02  0.51100000000E-03 0.  1.
         11   -1    0    0    0    0 -0.00000000000E+00 -0.00000000000E+00 -0.45593999997E+02  0.45594000000E+02  0.51100000000E-03 0. -1.
    9900012    2    1    2    0    0  0.34085118218E+00 -0.11166804618E+01 -0.17442741641E+00  0.90007500231E+02  0.89999758433E+02 0.  0.
        -12    1    1    2    0    0 -0.34085118218E+00  0.11166804618E+01  0.17442741641E+00  0.11804997695E+01  0.00000000000E+00 0.  1.
         11    1    3    3    0    0  0.33615810780E+01 -0.11490132961E+01 -0.96068313086E+01  0.10242639648E+02  0.51100000000E-03 0. -1.
        -11    1    3    3    0    0  0.19042969624E+02  0.12596551556E+02  0.36245738804E+02  0.42837616471E+02  0.51100000000E-03 0.  1.
         12    1    3    3    0    0 -0.22063699520E+02 -0.12564218722E+02 -0.26813334912E+02  0.36927244112E+02  0.00000000000E+00 0. -1.
</event>
<event>
 7    1  0.1716782E-015  0.9000771E+02  0.7816164E-02  0.1186339E+00
        -11   -1    0    0    0    0  0.00000000000E+00  0.00000000000E+00  0.45593999997E+02  0.45594000000E+02  0.51100000000E-03 0.  1.
         11   -1    0    0    0    0 -0.00000000000E+00 -0.00000000000E+00 -0.45593999997E+02  0.45594000000E+02  0.51100000000E-03 0. -1.
    9900012    2    1    2    0    0 -0.54157661596E+00 -0.10453238209E+01  0.84187169705E-01  0.90007705714E+02  0.89999966630E+02 0.  0.
        -12    1    1    2    0    0  0.54157661596E+00  0.10453238209E+01 -0.84187169705E-01  0.11802942858E+01  0.00000000000E+00 0.  1.
         11    1    3    3    0    0  0.26931546470E+02  0.12150355389E+02 -0.21481285292E+02  0.36529234174E+02  0.51100000000E-03 0. -1.
        -11    1    3    3    0    0  0.54251482852E+01 -0.97398203644E+01 -0.38158250120E+01  0.11783753877E+02  0.51100000000E-03 0.  1.
        -12    1    3    3    0    0 -0.32898271371E+02 -0.34558588451E+01  0.25381297473E+02  0.41694717663E+02  0.00000000000E+00 0.  1.
</event>
<event>
 7    1  0.2159864E-015  0.9000774E+02  0.7816164E-02  0.1186339E+00
        -11   -1    0    0    0    0  0.00000000000E+00  0.00000000000E+00  0.45593999997E+02  0.45594000000E+02  0.51100000000E-03 0. -1.
         11   -1    0    0    0    0 -0.00000000000E+00 -0.00000000000E+00 -0.45593999997E+02  0.45594000000E+02  0.51100000000E-03 0.  1.
    9900012    2    1    2    0    0 -0.46136162439E+00 -0.76144936986E+00  0.77483271028E+00  0.90007735021E+02  0.89999996323E+02 0.  0.
        -12    1    1    2    0    0  0.46136162439E+00  0.76144936986E+00 -0.77483271028E+00  0.11802649788E+01  0.00000000000E+00 0.  1.
         11    1    3    3    0    0 -0.36652797119E+02  0.13586505733E+02  0.98570800308E+01  0.40313554814E+02  0.51100000000E-03 0. -1.
        -11    1    3    3    0    0 -0.28639669540E+01 -0.80713843481E+01 -0.50258676955E+01  0.99302013253E+01  0.51100000000E-03 0.  1.
        -12    1    3    3    0    0  0.39055402449E+02 -0.62765707546E+01 -0.40563796251E+01  0.39763978882E+02  0.00000000000E+00 0.  1.
</event>
<event>
 7    1  0.1716782E-015  0.9000773E+02  0.7816164E-02  0.1186339E+00
        -11   -1    0    0    0    0  0.00000000000E+00  0.00000000000E+00  0.45593999997E+02  0.45594000000E+02  0.51100000000E-03 0.  1.
         11   -1    0    0    0    0 -0.00000000000E+00 -0.00000000000E+00 -0.45593999997E+02  0.45594000000E+02  0.51100000000E-03 0. -1.
    9900012    2    1    2    0    0  0.93050086819E+00  0.71703668524E+00 -0.11427047655E+00  0.90007732566E+02  0.89999993836E+02 0.  0.
        -12    1    1    2    0    0 -0.93050086819E+00 -0.71703668524E+00  0.11427047655E+00  0.11802674339E+01  0.00000000000E+00 0.  1.
         11    1    3    3    0    0  0.25047928655E+02 -0.29746890138E+02 -0.98388359805E+01  0.40113325672E+02  0.51100000000E-03 0. -1.
        -11    1    3    3    0    0 -0.11677959179E+01 -0.15980613028E+01  0.10272521271E+02  0.10461464561E+02  0.51100000000E-03 0.  1.
        -12    1    3    3    0    0 -0.22949631869E+02  0.32061988126E+02 -0.54795576747E+00  0.39432942333E+02  0.00000000000E+00 0.  1.
</event>
<event>
 7    1  0.1716782E-015  0.9000778E+02  0.7816164E-02  0.1186339E+00
        -11   -1    0    0    0    0  0.00000000000E+00  0.00000000000E+00  0.45593999997E+02  0.45594000000E+02  0.51100000000E-03 0. -1.
         11   -1    0    0    0    0 -0.00000000000E+00 -0.00000000000E+00 -0.45593999997E+02  0.45594000000E+02  0.51100000000E-03 0.  1.
    9900012    2    1    2    0    0  0.80966869784E+00 -0.78850495807E+00  0.34003199708E+00  0.90007777467E+02  0.90000039329E+02 0.  0.
        -12    1    1    2    0    0 -0.80966869784E+00  0.78850495807E+00 -0.34003199708E+00  0.11802225333E+01  0.00000000000E+00 0.  1.
         11    1    3    3    0    0 -0.24010537071E+01 -0.26184644485E+01 -0.95908178998E+01  0.10227668513E+02  0.51100000000E-03 0. -1.
        -11    1    3    3    0    0 -0.12590530473E+02  0.33944906121E+02 -0.11592413064E+02  0.38015288373E+02  0.51100000000E-03 0.  1.
         12    1    3    3    0    0  0.15801252878E+02 -0.32114946631E+02  0.21523262961E+02  0.41764820580E+02  0.00000000000E+00 0. -1.
</event>
<event>
 7    1  0.1716782E-015  0.9000773E+02  0.7816164E-02  0.1186339E+00
        -11   -1    0    0    0    0  0.00000000000E+00  0.00000000000E+00  0.45593999997E+02  0.45594000000E+02  0.51100000000E-03 0. -1.
         11   -1    0    0    0    0 -0.00000000000E+00 -0.00000000000E+00 -0.45593999997E+02  0.45594000000E+02  0.51100000000E-03 0.  1.
    9900012    2    1    2    0    0 -0.92922256495E+00 -0.71272428278E+00  0.14695913029E+00  0.90007734155E+02  0.89999995446E+02 0.  0.
        -12    1    1    2    0    0  0.92922256495E+00  0.71272428278E+00 -0.14695913029E+00  0.11802658448E+01  0.00000000000E+00 0.  1.
         11    1    3    3    0    0  0.20942593517E+01 -0.30274467203E+01  0.60599470384E+01  0.70904382266E+01  0.51100000000E-03 0. -1.
        -11    1    3    3    0    0  0.37333278261E+02  0.15142091928E+02 -0.46204980514E+01  0.40551271450E+02  0.51100000000E-03 0.  1.
         12    1    3    3    0    0 -0.40356760178E+02 -0.12827369490E+02 -0.12924898567E+01  0.42366024479E+02  0.00000000000E+00 0. -1.
</event>
<event>
 7    1  0.1716782E-015  0.9000780E+02  0.7816164E-02  0.1186339E+00
        -11   -1    0    0    0    0  0.00000000000E+00  0.00000000000E+00  0.45593999997E+02  0.45594000000E+02  0.51100000000E-03 0.  1.
         11   -1    0    0    0    0 -0.00000000000E+00 -0.00000000000E+00 -0.45593999997E+02  0.45594000000E+02  0.51100000000E-03 0. -1.
    9900012    2    1    2    0    0  0.10998399464E+00 -0.93264299733E+00 -0.71480840687E+00  0.90007800653E+02  0.90000062822E+02 0.  0.
        -12    1    1    2    0    0 -0.10998399464E+00  0.93264299733E+00  0.71480840687E+00  0.11801993468E+01  0.00000000000E+00 0.  1.
         11    1    3    3    0    0 -0.62757061257E+01 -0.84866875252E+01 -0.43986309878E+01  0.11434872424E+02  0.51100000000E-03 0. -1.
        -11    1    3    3    0    0 -0.10022117917E+02  0.21008654773E+01  0.38425502828E+02  0.39766515451E+02  0.51100000000E-03 0.  1.
         12    1    3    3    0    0  0.16407808037E+02  0.54531790506E+01 -0.34741680247E+02  0.38806412778E+02  0.00000000000E+00 0. -1.
</event>
<event>
 7    1  0.1716782E-015  0.9000763E+02  0.7816164E-02  0.1186339E+00
        -11   -1    0    0    0    0  0.00000000000E+00  0.00000000000E+00  0.45593999997E+02  0.45594000000E+02  0.51100000000E-03 0.  1.
         11   -1    0    0    0    0 -0.00000000000E+00 -0.00000000000E+00 -0.45593999997E+02  0.45594000000E+02  0.51100000000E-03 0. -1.
    9900012    2    1    2    0    0  0.10229362696E+01 -0.89736965186E-01 -0.58208246532E+00  0.90007630850E+02  0.89999890777E+02 0.  0.
        -12    1    1    2    0    0 -0.10229362696E+01  0.89736965186E-01  0.58208246532E+00  0.11803691504E+01  0.00000000000E+00 0.  1.
         11    1    3    3    0    0  0.34361297703E+02 -0.10377264943E+02 -0.10555587650E+02  0.37413992549E+02  0.51100000000E-03 0. -1.
        -11    1    3    3    0    0  0.57521290532E+01 -0.63816085026E+01  0.46393192350E+01  0.97639745468E+01  0.51100000000E-03 0.  1.
        -12    1    3    3    0    0 -0.39090490487E+02  0.16669136480E+02  0.53341859500E+01  0.42829663754E+02  0.00000000000E+00 0.  1.
</event>
<event>
 7    1  0.1716782E-015  0.9000784E+02  0.7816164E-02  0.1186339E+00
        -11   -1    0    0    0    0  0.00000000000E+00  0.00000000000E+00  0.45593999997E+02  0.45594000000E+02  0.51100000000E-03 0.  1.
         11   -1    0    0    0    0 -0.00000000000E+00 -0.00000000000E+00 -0.45593999997E+02  0.45594000000E+02  0.51100000000E-03 0. -1.
    9900012    2    1    2    0    0 -0.53641897814E+00  0.70773829485E+00 -0.77726119313E+00  0.90007841631E+02  0.90000104340E+02 0.  0.
        -12    1    1    2    0    0  0.53641897814E+00 -0.70773829485E+00  0.77726119313E+00  0.11801583692E+01  0.00000000000E+00 0.  1.
         11    1    3    3    0    0 -0.72636352803E+01  0.48000916363E+01  0.47994115485E+01  0.99416109698E+01  0.51100000000E-03 0. -1.
        -11    1    3    3    0    0  0.77976447453E+01  0.17771955634E+02  0.31506428689E+02  0.37004063556E+02  0.51100000000E-03 0.  1.
         12    1    3    3    0    0 -0.10704284431E+01 -0.21864308976E+02 -0.37083101431E+02  0.43062167105E+02  0.00000000000E+00 0. -1.
</event>
<event>
 7    1  0.1716782E-015  0.9000776E+02  0.7816164E-02  0.1186339E+00
        -11   -1    0    0    0    0  0.00000000000E+00  0.00000000000E+00  0.45593999997E+02  0.45594000000E+02  0.51100000000E-03 0. -1.
         11   -1    0    0    0    0 -0.00000000000E+00 -0.00000000000E+00 -0.45593999997E+02  0.45594000000E+02  0.51100000000E-03 0.  1.
    9900012    2    1    2    0    0  0.98723885113E+00  0.26183458613E+00  0.59140889435E+00  0.90007761727E+02  0.90000023382E+02 0.  0.
        -12    1    1    2    0    0 -0.98723885113E+00 -0.26183458613E+00 -0.59140889435E+00  0.11802382726E+01  0.00000000000E+00 0.  1.
         11    1    3    3    0    0 -0.49688563610E+01  0.40943584758E+00  0.15865349968E+01  0.52320421258E+01  0.51100000000E-03 0. -1.
        -11    1    3    3    0    0 -0.34619693897E+01 -0.36586362024E+02  0.19833736093E+02  0.41760318556E+02  0.51100000000E-03 0.  1.
         12    1    3    3    0    0  0.94180646018E+01  0.36438760763E+02 -0.20828862196E+02  0.43015401046E+02  0.00000000000E+00 0. -1.
</event>
<event>
 7    1  0.2191413E-015  0.9000773E+02  0.7816164E-02  0.1186339E+00
        -11   -1    0    0    0    0  0.00000000000E+00  0.00000000000E+00  0.45593999997E+02  0.45594000000E+02  0.51100000000E-03 0. -1.
         11   -1    0    0    0    0 -0.00000000000E+00 -0.00000000000E+00 -0.45593999997E+02  0.45594000000E+02  0.51100000000E-03 0.  1.
    9900012    2    1    2    0    0 -0.53352473656E+00  0.31114948246E+00  0.10057743817E+01  0.90007726832E+02  0.89999988026E+02 0.  0.
        -12    1    1    2    0    0  0.53352473656E+00 -0.31114948246E+00 -0.10057743817E+01  0.11802731683E+01  0.00000000000E+00 0.  1.
         11    1    3    3    0    0 -0.13565752516E+00 -0.19398742103E+02  0.30285905561E+02  0.35966174026E+02  0.51100000000E-03 0. -1.
        -11    1    3    3    0    0 -0.12600482850E+01 -0.25313718406E+01  0.91797104880E+01  0.96053448653E+01  0.51100000000E-03 0.  1.
        -12    1    3    3    0    0  0.86218107357E+00  0.22241263427E+02 -0.38459841667E+02  0.44436207940E+02  0.00000000000E+00 0.  1.
</event>
<event>
 7    1  0.1716782E-015  0.9000773E+02  0.7816164E-02  0.1186339E+00
        -11   -1    0    0    0    0  0.00000000000E+00  0.00000000000E+00  0.45593999997E+02  0.45594000000E+02  0.51100000000E-03 0.  1.
         11   -1    0    0    0    0 -0.00000000000E+00 -0.00000000000E+00 -0.45593999997E+02  0.45594000000E+02  0.51100000000E-03 0. -1.
    9900012    2    1    2    0    0 -0.89893703313E+00  0.22156185869E+00 -0.73202449253E+00  0.90007729987E+02  0.89999991222E+02 0.  0.
        -12    1    1    2    0    0  0.89893703313E+00 -0.22156185869E+00  0.73202449253E+00  0.11802700134E+01  0.00000000000E+00 0.  1.
         11    1    3    3    0    0 -0.22210214334E+02  0.34768829631E+02  0.14913256232E+02  0.43869925306E+02  0.51100000000E-03 0. -1.
        -11    1    3    3    0    0 -0.22801927489E+01 -0.52131575692E+01 -0.11837833110E+01  0.58118528888E+01  0.51100000000E-03 0.  1.
        -12    1    3    3    0    0  0.23591470049E+02 -0.29334110203E+02 -0.14461497413E+02  0.40325951792E+02  0.00000000000E+00 0.  1.
</event>
<event>
 7    1  0.1716782E-015  0.9000696E+02  0.7816164E-02  0.1186341E+00
        -11   -1    0    0    0    0  0.00000000000E+00  0.00000000000E+00  0.45593999997E+02  0.45594000000E+02  0.51100000000E-03 0. -1.
         11   -1    0    0    0    0 -0.00000000000E+00 -0.00000000000E+00 -0.45593999997E+02  0.45594000000E+02  0.51100000000E-03 0.  1.
    9900012    2    1    2    0    0 -0.88940847737E+00  0.13979783732E+00  0.76436705336E+00  0.90006963224E+02  0.89999214335E+02 0.  0.
        -12    1    1    2    0    0  0.88940847737E+00 -0.13979783732E+00 -0.76436705336E+00  0.11810367764E+01  0.00000000000E+00 0.  1.
         11    1    3    3    0    0 -0.91917899456E+01  0.39996984246E+01  0.13377463709E+01  0.10113167432E+02  0.51100000000E-03 0. -1.
        -11    1    3    3    0    0 -0.15760544956E+02  0.31178266350E+02 -0.10035294910E+02  0.36348125317E+02  0.51100000000E-03 0.  1.
         12    1    3    3    0    0  0.24062926424E+02 -0.35038166937E+02  0.94619155929E+01  0.43545670475E+02  0.00000000000E+00 0. -1.
</event>
<event>
 7    1  0.1716782E-015  0.9000773E+02  0.7816164E-02  0.1186339E+00
        -11   -1    0    0    0    0  0.00000000000E+00  0.00000000000E+00  0.45593999997E+02  0.45594000000E+02  0.51100000000E-03 0.  1.
         11   -1    0    0    0    0 -0.00000000000E+00 -0.00000000000E+00 -0.45593999997E+02  0.45594000000E+02  0.51100000000E-03 0. -1.
    9900012    2    1    2    0    0  0.10035013152E+01 -0.24120315776E+00 -0.57258601137E+00  0.90007725204E+02  0.89999986377E+02 0.  0.
        -12    1    1    2    0    0 -0.10035013152E+01  0.24120315776E+00  0.57258601137E+00  0.11802747957E+01  0.00000000000E+00 0.  1.
         11    1    3    3    0    0  0.19143831130E+02  0.11696109713E+02 -0.15554784445E+02  0.27299021450E+02  0.51100000000E-03 0. -1.
        -11    1    3    3    0    0  0.71702829825E+01 -0.26320644554E+02 -0.45426939178E+01  0.27655476059E+02  0.51100000000E-03 0.  1.
         12    1    3    3    0    0 -0.25310612798E+02  0.14383331683E+02  0.19524892351E+02  0.35053227695E+02  0.00000000000E+00 0. -1.
</event>
<event>
 7    1  0.1716782E-015  0.9000775E+02  0.7816164E-02  0.1186339E+00
        -11   -1    0    0    0    0  0.00000000000E+00  0.00000000000E+00  0.45593999997E+02  0.45594000000E+02  0.51100000000E-03 0.  1.
         11   -1    0    0    0    0 -0.00000000000E+00 -0.00000000000E+00 -0.45593999997E+02  0.45594000000E+02  0.51100000000E-03 0. -1.
    9900012    2    1    2    0    0 -0.93435184374E+00  0.28407312344E-02 -0.72109284684E+00  0.90007747344E+02  0.90000008809E+02 0.  0.
        -12    1    1    2    0    0  0.93435184374E+00 -0.28407312344E-02  0.72109284684E+00  0.11802526558E+01  0.00000000000E+00 0.  1.
         11    1    3    3    0    0  0.99908489297E+01 -0.16671785378E+01  0.21829314600E+01  0.10361550880E+02  0.51100000000E-03 0. -1.
        -11    1    3    3    0    0  0.30151906666E+02  0.39909423444E+00  0.16306466574E+02  0.34281155234E+02  0.51100000000E-03 0.  1.
         12    1    3    3    0    0 -0.41077107439E+02  0.12709250346E+01 -0.19210490880E+02  0.45365041231E+02  0.00000000000E+00 0. -1.
</event>
<event>
 7    1  0.1716782E-015  0.9000783E+02  0.7816164E-02  0.1186339E+00
        -11   -1    0    0    0    0  0.00000000000E+00  0.00000000000E+00  0.45593999997E+02  0.45594000000E+02  0.51100000000E-03 0.  1.
         11   -1    0    0    0    0 -0.00000000000E+00 -0.00000000000E+00 -0.45593999997E+02  0.45594000000E+02  0.51100000000E-03 0. -1.
    9900012    2    1    2    0    0  0.41500399408E-01  0.53187574866E+00 -0.10526998006E+01  0.90007834348E+02  0.90000096962E+02 0.  0.
        -12    1    1    2    0    0 -0.41500399408E-01 -0.53187574866E+00  0.10526998006E+01  0.11801656517E+01  0.00000000000E+00 0.  1.
         11    1    3    3    0    0 -0.15794046805E+02  0.13563743921E+02 -0.13664577355E+02  0.24902765673E+02  0.51100000000E-03 0. -1.
        -11    1    3    3    0    0 -0.47867575874E+01  0.71018771923E+01  0.30166561537E+02  0.31358749067E+02  0.51100000000E-03 0.  1.
        -12    1    3    3    0    0  0.20622304792E+02 -0.20133745365E+02 -0.17554683983E+02  0.33746319608E+02  0.00000000000E+00 0.  1.
</event>
<event>
 7    1  0.2746694E-015  0.9000705E+02  0.7816164E-02  0.1186340E+00
        -11   -1    0    0    0    0  0.00000000000E+00  0.00000000000E+00  0.45593999997E+02  0.45594000000E+02  0.51100000000E-03 0. -1.
         11   -1    0    0    0    0 -0.00000000000E+00 -0.00000000000E+00 -0.45593999997E+02  0.45594000000E+02  0.51100000000E-03 0.  1.
    9900012    2    1    2    0    0  0.27042677451E+00  0.73140401169E+00  0.88688120087E+00  0.90007050918E+02  0.89999303188E+02 0.  0.
        -12    1    1    2    0    0 -0.27042677451E+00 -0.73140401169E+00 -0.88688120087E+00  0.11809490815E+01  0.00000000000E+00 0.  1.
         11    1    3    3    0    0  0.13105118376E+02  0.93091531475E+01  0.39855284131E+02  0.42974971011E+02  0.51100000000E-03 0. -1.
        -11    1    3    3    0    0 -0.71967224594E+01  0.44037344173E+01 -0.40588371622E+01  0.93626839286E+01  0.51100000000E-03 0.  1.
        -12    1    3    3    0    0 -0.56379691426E+01 -0.12981483553E+02 -0.34909565768E+02  0.37669395979E+02  0.00000000000E+00 0.  1.
</event>
<event>
 7    1  0.1883958E-015  0.9000783E+02  0.7816164E-02  0.1186339E+00
        -11   -1    0    0    0    0  0.00000000000E+00  0.00000000000E+00  0.45593999997E+02  0.45594000000E+02  0.51100000000E-03 0. -1.
         11   -1    0    0    0    0 -0.00000000000E+00 -0.00000000000E+00 -0.45593999997E+02  0.45594000000E+02  0.51100000000E-03 0.  1.
    9900012    2    1    2    0    0 -0.10271324714E+01  0.66387870155E-01  0.57739711922E+00  0.90007832259E+02  0.90000094845E+02 0.  0.
        -12    1    1    2    0    0  0.10271324714E+01 -0.66387870155E-01 -0.57739711922E+00  0.11801677408E+01  0.00000000000E+00 0.  1.
         11    1    3    3    0    0  0.58381094542E+01 -0.38902574920E+02  0.13945345017E+02  0.41736872251E+02  0.51100000000E-03 0. -1.
        -11    1    3    3    0    0 -0.72728763361E+01  0.71196445328E+00 -0.56596135307E+01  0.92429891897E+01  0.51100000000E-03 0.  1.
        -12    1    3    3    0    0  0.40763441043E+00  0.38256998336E+02 -0.77083343667E+01  0.39027970819E+02  0.00000000000E+00 0.  1.
</event>
<event>
 7    1  0.1716782E-015  0.9000779E+02  0.7816164E-02  0.1186339E+00
        -11   -1    0    0    0    0  0.00000000000E+00  0.00000000000E+00  0.45593999997E+02  0.45594000000E+02  0.51100000000E-03 0.  1.
         11   -1    0    0    0    0 -0.00000000000E+00 -0.00000000000E+00 -0.45593999997E+02  0.45594000000E+02  0.51100000000E-03 0. -1.
    9900012    2    1    2    0    0  0.20661658758E+00  0.11617986929E+01 -0.20616536878E-01  0.90007791688E+02  0.90000053739E+02 0.  0.
        -12    1    1    2    0    0 -0.20661658758E+00 -0.11617986929E+01  0.20616536878E-01  0.11802083116E+01  0.00000000000E+00 0.  1.
         11    1    3    3    0    0  0.19631222005E+00  0.12125432874E+01  0.97827271389E+01  0.98595410769E+01  0.51100000000E-03 0. -1.
        -11    1    3    3    0    0  0.16251681771E+02 -0.18983275475E+02  0.26291379544E+02  0.36272834832E+02  0.51100000000E-03 0.  1.
         12    1    3    3    0    0 -0.16241377403E+02  0.18932530881E+02 -0.36094723220E+02  0.43875415780E+02  0.00000000000E+00 0. -1.
</event>
<event>
 7    1  0.1716782E-015  0.9000771E+02  0.7816164E-02  0.1186339E+00
        -11   -1    0    0    0    0  0.00000000000E+00  0.00000000000E+00  0.45593999997E+02  0.45594000000E+02  0.51100000000E-03 0.  1.
         11   -1    0    0    0    0 -0.00000000000E+00 -0.00000000000E+00 -0.45593999997E+02  0.45594000000E+02  0.51100000000E-03 0. -1.
    9900012    2    1    2    0    0  0.70267705562E+00 -0.59484235860E+00 -0.73857059758E+00  0.90007712322E+02  0.89999973324E+02 0.  0.
        -12    1    1    2    0    0 -0.70267705562E+00  0.59484235860E+00  0.73857059758E+00  0.11802876784E+01  0.00000000000E+00 0.  1.
         11    1    3    3    0    0  0.32921379236E+02 -0.22983282945E+02  0.57999179842E+01  0.40567074761E+02  0.51100000000E-03 0. -1.
        -11    1    3    3    0    0 -0.25989817902E+01 -0.46517915483E+01 -0.76455302787E+01  0.93192276749E+01  0.51100000000E-03 0.  1.
        -12    1    3    3    0    0 -0.29619720390E+02  0.27040232135E+02  0.11070416969E+01  0.40121409886E+02  0.00000000000E+00 0.  1.
</event>
<event>
 7    1  0.1716782E-015  0.9000749E+02  0.7816164E-02  0.1186340E+00
        -11   -1    0    0    0    0  0.00000000000E+00  0.00000000000E+00  0.45593999997E+02  0.45594000000E+02  0.51100000000E-03 0.  1.
         11   -1    0    0    0    0 -0.00000000000E+00 -0.00000000000E+00 -0.45593999997E+02  0.45594000000E+02  0.51100000000E-03 0. -1.
    9900012    2    1    2    0    0 -0.10604467034E+01 -0.51471877018E+00  0.64157249874E-01  0.90007492153E+02  0.89999750249E+02 0.  0.
        -12    1    1    2    0    0  0.10604467034E+01  0.51471877018E+00 -0.64157249874E-01  0.11805078466E+01  0.00000000000E+00 0.  1.
         11    1    3    3    0    0 -0.33032616043E+02  0.24002160564E+02  0.56723302278E+01  0.41224176946E+02  0.51100000000E-03 0. -1.
        -11    1    3    3    0    0 -0.21994963148E+01 -0.42995920987E+01 -0.76271304240E+01  0.90275907650E+01  0.51100000000E-03 0.  1.
        -12    1    3    3    0    0  0.34171665654E+02 -0.20217287236E+02  0.20189574461E+01  0.39755724442E+02  0.00000000000E+00 0.  1.
</event>
<event>
 7    1  0.1716782E-015  0.9000781E+02  0.7816164E-02  0.1186339E+00
        -11   -1    0    0    0    0  0.00000000000E+00  0.00000000000E+00  0.45593999997E+02  0.45594000000E+02  0.51100000000E-03 0.  1.
         11   -1    0    0    0    0 -0.00000000000E+00 -0.00000000000E+00 -0.45593999997E+02  0.45594000000E+02  0.51100000000E-03 0. -1.
    9900012    2    1    2    0    0 -0.29940971834E+00  0.39132317066E+00 -0.10724104502E+01  0.90007811804E+02  0.90000074120E+02 0.  0.
        -12    1    1    2    0    0  0.29940971834E+00 -0.39132317066E+00  0.10724104502E+01  0.11801881956E+01  0.00000000000E+00 0.  1.
         11    1    3    3    0    0 -0.49792374779E+01 -0.81688835633E+00  0.73623345642E+01  0.89254738219E+01  0.51100000000E-03 0. -1.
        -11    1    3    3    0    0 -0.81534652930E+01 -0.29854477262E+02 -0.28388440922E+02  0.41996099666E+02  0.51100000000E-03 0.  1.
         12    1    3    3    0    0  0.12833293053E+02  0.31062688789E+02  0.19953695908E+02  0.39086238317E+02  0.00000000000E+00 0. -1.
</event>
<event>
 7    1  0.1716782E-015  0.9000772E+02  0.7816164E-02  0.1186339E+00
        -11   -1    0    0    0    0  0.00000000000E+00  0.00000000000E+00  0.45593999997E+02  0.45594000000E+02  0.51100000000E-03 0. -1.
         11   -1    0    0    0    0 -0.00000000000E+00 -0.00000000000E+00 -0.45593999997E+02  0.45594000000E+02  0.51100000000E-03 0.  1.
    9900012    2    1    2    0    0  0.21396415207E-01  0.41829171174E+00  0.11034664787E+01  0.90007718664E+02  0.89999979750E+02 0.  0.
        -12    1    1    2    0    0 -0.21396415207E-01 -0.41829171174E+00 -0.11034664787E+01  0.11802813360E+01  0.00000000000E+00 0.  1.
         11    1    3    3    0    0 -0.34195646183E+02  0.13765794609E+02  0.11646617884E+02  0.38658544043E+02  0.51100000000E-03 0. -1.
        -11    1    3    3    0    0  0.80656943125E+01 -0.10426340332E+02  0.11135117981E+02  0.17255574467E+02  0.51100000000E-03 0.  1.
        -12    1    3    3    0    0  0.26151348286E+02 -0.29211625653E+01 -0.21678269387E+02  0.34093600155E+02  0.00000000000E+00 0.  1.
</event>
<event>
 7    1  0.1716782E-015  0.9000771E+02  0.7816164E-02  0.1186339E+00
        -11   -1    0    0    0    0  0.00000000000E+00  0.00000000000E+00  0.45593999997E+02  0.45594000000E+02  0.51100000000E-03 0. -1.
         11   -1    0    0    0    0 -0.00000000000E+00 -0.00000000000E+00 -0.45593999997E+02  0.45594000000E+02  0.51100000000E-03 0.  1.
    9900012    2    1    2    0    0  0.21102923873E+00 -0.11607216832E+01 -0.35884964835E-01  0.90007705166E+02  0.89999966074E+02 0.  0.
        -12    1    1    2    0    0 -0.21102923873E+00  0.11607216832E+01  0.35884964835E-01  0.11802948344E+01  0.00000000000E+00 0.  1.
         11    1    3    3    0    0  0.66062879595E+01 -0.21631020784E+01 -0.74669057673E+01  0.10201800488E+02  0.51100000000E-03 0. -1.
        -11    1    3    3    0    0  0.30980347593E+02  0.20589738493E+02  0.18883230643E+01  0.37246275417E+02  0.51100000000E-03 0.  1.
         12    1    3    3    0    0 -0.37375606314E+02 -0.19587358097E+02  0.55426977382E+01  0.42559629260E+02  0.00000000000E+00 0. -1.
</event>
<event>
 7    1  0.1716782E-015  0.9000781E+02  0.7816164E-02  0.1186339E+00
        -11   -1    0    0    0    0  0.00000000000E+00  0.00000000000E+00  0.45593999997E+02  0.45594000000E+02  0.51100000000E-03 0. -1.
         11   -1    0    0    0    0 -0.00000000000E+00 -0.00000000000E+00 -0.45593999997E+02  0.45594000000E+02  0.51100000000E-03 0.  1.
    9900012    2    1    2    0    0  0.16386352511E+00  0.68966751259E+00  0.94359051587E+00  0.90007806967E+02  0.90000069219E+02 0.  0.
        -12    1    1    2    0    0 -0.16386352511E+00 -0.68966751259E+00 -0.94359051587E+00  0.11801930327E+01  0.00000000000E+00 0.  1.
         11    1    3    3    0    0 -0.19522702211E+02 -0.11842368535E+02  0.27948593923E+02  0.36090185600E+02  0.51100000000E-03 0. -1.
        -11    1    3    3    0    0 -0.56776311146E+01 -0.28149050032E+01  0.65695447940E+01  0.91278751258E+01  0.51100000000E-03 0.  1.
        -12    1    3    3    0    0  0.25364196850E+02  0.15346941051E+02 -0.33574548201E+02  0.44789746241E+02  0.00000000000E+00 0.  1.
</event>
<event>
 7    1  0.1716782E-015  0.9000759E+02  0.7816164E-02  0.1186339E+00
        -11   -1    0    0    0    0  0.00000000000E+00  0.00000000000E+00  0.45593999997E+02  0.45594000000E+02  0.51100000000E-03 0.  1.
         11   -1    0    0    0    0 -0.00000000000E+00 -0.00000000000E+00 -0.45593999997E+02  0.45594000000E+02  0.51100000000E-03 0. -1.
    9900012    2    1    2    0    0  0.81138223229E+00  0.91947412026E-01 -0.85238609148E+00  0.90007594348E+02  0.89999853794E+02 0.  0.
        -12    1    1    2    0    0 -0.81138223229E+00 -0.91947412026E-01  0.85238609148E+00  0.11804056516E+01  0.00000000000E+00 0.  1.
         11    1    3    3    0    0 -0.16795710008E+02  0.54892888266E+01 -0.36025289360E+02  0.40125423863E+02  0.51100000000E-03 0. -1.
        -11    1    3    3    0    0  0.54684767841E+01 -0.30566806072E+01 -0.48951017599E+01  0.79504437721E+01  0.51100000000E-03 0.  1.
        -12    1    3    3    0    0  0.12138615456E+02 -0.23406608073E+01  0.40068005028E+02  0.41931726713E+02  0.00000000000E+00 0.  1.
</event>
<event>
 7    1  0.1716782E-015  0.9000775E+02  0.7816164E-02  0.1186339E+00
        -11   -1    0    0    0    0  0.00000000000E+00  0.00000000000E+00  0.45593999997E+02  0.45594000000E+02  0.51100000000E-03 0.  1.
         11   -1    0    0    0    0 -0.00000000000E+00 -0.00000000000E+00 -0.45593999997E+02  0.45594000000E+02  0.51100000000E-03 0. -1.
    9900012    2    1    2    0    0 -0.10144980894E+01 -0.24754539497E+00 -0.55000372000E+00  0.90007750370E+02  0.90000011875E+02 0.  0.
        -12    1    1    2    0    0  0.10144980894E+01  0.24754539497E+00  0.55000372000E+00  0.11802496295E+01  0.00000000000E+00 0.  1.
         11    1    3    3    0    0  0.12322911406E+02  0.34172835979E+02 -0.21896072224E+00  0.36327466309E+02  0.51100000000E-03 0. -1.
        -11    1    3    3    0    0  0.92870279246E+00  0.19859780488E+01 -0.12529581851E+02  0.12719945727E+02  0.51100000000E-03 0.  1.
        -12    1    3    3    0    0 -0.14266112288E+02 -0.36406359423E+02  0.12198538853E+02  0.40960338334E+02  0.00000000000E+00 0.  1.
</event>
<event>
 7    1  0.1716782E-015  0.9000764E+02  0.7816164E-02  0.1186339E+00
        -11   -1    0    0    0    0  0.00000000000E+00  0.00000000000E+00  0.45593999997E+02  0.45594000000E+02  0.51100000000E-03 0.  1.
         11   -1    0    0    0    0 -0.00000000000E+00 -0.00000000000E+00 -0.45593999997E+02  0.45594000000E+02  0.51100000000E-03 0. -1.
    9900012    2    1    2    0    0 -0.23481592997E-01  0.55658412418E+00 -0.10406312092E+01  0.90007639637E+02  0.89999899680E+02 0.  0.
        -12    1    1    2    0    0  0.23481592997E-01 -0.55658412418E+00  0.10406312092E+01  0.11803603628E+01  0.00000000000E+00 0.  1.
         11    1    3    3    0    0 -0.24897986442E+01 -0.26804807626E+01  0.90354013255E+01  0.97479511582E+01  0.51100000000E-03 0. -1.
        -11    1    3    3    0    0  0.26368268997E+02  0.26351844059E+02  0.13337519950E+02  0.39592862159E+02  0.51100000000E-03 0.  1.
         12    1    3    3    0    0 -0.23901951946E+02 -0.23114779173E+02 -0.23413552485E+02  0.40666826320E+02  0.00000000000E+00 0. -1.
</event>
<event>
 7    1  0.1716782E-015  0.9000772E+02  0.7816164E-02  0.1186339E+00
        -11   -1    0    0    0    0  0.00000000000E+00  0.00000000000E+00  0.45593999997E+02  0.45594000000E+02  0.51100000000E-03 0.  1.
         11   -1    0    0    0    0 -0.00000000000E+00 -0.00000000000E+00 -0.45593999997E+02  0.45594000000E+02  0.51100000000E-03 0. -1.
    9900012    2    1    2    0    0 -0.53806039289E+00 -0.85389527398E-01 -0.10470249495E+01  0.90007719693E+02  0.89999980793E+02 0.  0.
        -12    1    1    2    0    0  0.53806039289E+00  0.85389527398E-01  0.10470249495E+01  0.11802803069E+01  0.00000000000E+00 0.  1.
         11    1    3    3    0    0  0.34409518595E+02  0.19322898038E+02 -0.18561739767E+01  0.39507401087E+02  0.51100000000E-03 0. -1.
        -11    1    3    3    0    0 -0.52054636261E+01 -0.10628196765E+02  0.12634211685E+02  0.17311231129E+02  0.51100000000E-03 0.  1.
        -12    1    3    3    0    0 -0.29742115362E+02 -0.87800908002E+01 -0.11825062658E+02  0.33189087477E+02  0.00000000000E+00 0.  1.
</event>
<event>
 7    1  0.1716782E-015  0.9000779E+02  0.7816164E-02  0.1186339E+00
        -11   -1    0    0    0    0  0.00000000000E+00  0.00000000000E+00  0.45593999997E+02  0.45594000000E+02  0.51100000000E-03 0. -1.
         11   -1    0    0    0    0 -0.00000000000E+00 -0.00000000000E+00 -0.45593999997E+02  0.45594000000E+02  0.51100000000E-03 0.  1.
    9900012    2    1    2    0    0 -0.21906913282E+00 -0.42365503487E+00  0.10795438690E+01  0.90007792460E+02  0.90000054520E+02 0.  0.
        -12    1    1    2    0    0  0.21906913282E+00  0.42365503487E+00 -0.10795438690E+01  0.11802075405E+01  0.00000000000E+00 0.  1.
         11    1    3    3    0    0 -0.15314088914E+02  0.27987991767E+01 -0.16370580796E+00  0.15568602890E+02  0.51100000000E-03 0. -1.
        -11    1    3    3    0    0 -0.15684354354E+02  0.27002945682E+02  0.20289768577E+01  0.31293366619E+02  0.51100000000E-03 0.  1.
         12    1    3    3    0    0  0.30779374135E+02 -0.30225399893E+02 -0.78572718071E+00  0.43145822950E+02  0.00000000000E+00 0. -1.
</event>
<event>
 7    1  0.1716782E-015  0.9000775E+02  0.7816164E-02  0.1186339E+00
        -11   -1    0    0    0    0  0.00000000000E+00  0.00000000000E+00  0.45593999997E+02  0.45594000000E+02  0.51100000000E-03 0.  1.
         11   -1    0    0    0    0 -0.00000000000E+00 -0.00000000000E+00 -0.45593999997E+02  0.45594000000E+02  0.51100000000E-03 0. -1.
    9900012    2    1    2    0    0 -0.10641253735E+01  0.25932322936E-01 -0.50986814928E+00  0.90007745440E+02  0.90000006880E+02 0.  0.
        -12    1    1    2    0    0  0.10641253735E+01 -0.25932322936E-01  0.50986814928E+00  0.11802545597E+01  0.00000000000E+00 0.  1.
         11    1    3    3    0    0 -0.46610455628E+01  0.23718482854E+01  0.72455897024E+01  0.89358592438E+01  0.51100000000E-03 0. -1.
        -11    1    3    3    0    0 -0.30717212527E+02  0.14759957387E+02  0.14165655538E+02  0.36906222844E+02  0.51100000000E-03 0.  1.
         12    1    3    3    0    0  0.34314132717E+02 -0.17105873349E+02 -0.21921113390E+02  0.44165663353E+02  0.00000000000E+00 0. -1.
</event>
<event>
 7    1  0.1716782E-015  0.9000774E+02  0.7816164E-02  0.1186339E+00
        -11   -1    0    0    0    0  0.00000000000E+00  0.00000000000E+00  0.45593999997E+02  0.45594000000E+02  0.51100000000E-03 0. -1.
         11   -1    0    0    0    0 -0.00000000000E+00 -0.00000000000E+00 -0.45593999997E+02  0.45594000000E+02  0.51100000000E-03 0.  1.
    9900012    2    1    2    0    0 -0.97742546242E+00 -0.44840514981E+00  0.48639835796E+00  0.90007741098E+02  0.90000002481E+02 0.  0.
        -12    1    1    2    0    0  0.97742546242E+00  0.44840514981E+00 -0.48639835796E+00  0.11802589019E+01  0.00000000000E+00 0.  1.
         11    1    3    3    0    0 -0.61949776363E+01  0.51215200260E+01 -0.32392346439E+01  0.86660461937E+01  0.51100000000E-03 0. -1.
        -11    1    3    3    0    0 -0.19781553510E+02 -0.13059879326E+02 -0.30293820564E+02  0.38465385373E+02  0.51100000000E-03 0.  1.
         12    1    3    3    0    0  0.24999105684E+02  0.74899541504E+01  0.34019453565E+02  0.42876309532E+02  0.00000000000E+00 0. -1.
</event>
<event>
 7    1  0.1716782E-015  0.9000770E+02  0.7816164E-02  0.1186339E+00
        -11   -1    0    0    0    0  0.00000000000E+00  0.00000000000E+00  0.45593999997E+02  0.45594000000E+02  0.51100000000E-03 0. -1.
         11   -1    0    0    0    0 -0.00000000000E+00 -0.00000000000E+00 -0.45593999997E+02  0.45594000000E+02  0.51100000000E-03 0.  1.
    9900012    2    1    2    0    0  0.42862621223E+00  0.54110489037E+00  0.95739118957E+00  0.90007697995E+02  0.89999958809E+02 0.  0.
        -12    1    1    2    0    0 -0.42862621223E+00 -0.54110489037E+00 -0.95739118957E+00  0.11803020046E+01  0.00000000000E+00 0.  1.
         11    1    3    3    0    0  0.40493261181E+02 -0.75460092119E+01  0.70840981744E+01  0.41795106213E+02  0.51100000000E-03 0. -1.
        -11    1    3    3    0    0 -0.41019069517E+01 -0.16687986324E+01 -0.98152106905E+01  0.10767956662E+02  0.51100000000E-03 0.  1.
        -12    1    3    3    0    0 -0.35962728017E+02  0.97559127347E+01  0.36885037056E+01  0.37444635121E+02  0.00000000000E+00 0.  1.
</event>
<event>
 7    1  0.1716782E-015  0.9000772E+02  0.7816164E-02  0.1186339E+00
        -11   -1    0    0    0    0  0.00000000000E+00  0.00000000000E+00  0.45593999997E+02  0.45594000000E+02  0.51100000000E-03 0.  1.
         11   -1    0    0    0    0 -0.00000000000E+00 -0.00000000000E+00 -0.45593999997E+02  0.45594000000E+02  0.51100000000E-03 0. -1.
    9900012    2    1    2    0    0 -0.77829302071E-01 -0.52329623984E+00 -0.10550650442E+01  0.90007720964E+02  0.89999982081E+02 0.  0.
        -12    1    1    2    0    0  0.77829302071E-01  0.52329623984E+00  0.10550650442E+01  0.11802790358E+01  0.00000000000E+00 0.  1.
         11    1    3    3    0    0  0.35163599960E+02 -0.20384044627E+02 -0.42653970186E+01  0.40867855944E+02  0.51100000000E-03 0. -1.
        -11    1    3    3    0    0 -0.54111622391E+01 -0.69862711242E+01 -0.39702151547E+00  0.88456931522E+01  0.51100000000E-03 0.  1.
        -12    1    3    3    0    0 -0.29830267023E+02  0.26847019511E+02  0.36073534899E+01  0.40294171868E+02  0.00000000000E+00 0.  1.
</event>
<event>
 7    1  0.1716782E-015  0.9000776E+02  0.7816164E-02  0.1186339E+00
        -11   -1    0    0    0    0  0.00000000000E+00  0.00000000000E+00  0.45593999997E+02  0.45594000000E+02  0.51100000000E-03 0. -1.
         11   -1    0    0    0    0 -0.00000000000E+00 -0.00000000000E+00 -0.45593999997E+02  0.45594000000E+02  0.51100000000E-03 0.  1.
    9900012    2    1    2    0    0 -0.88981310504E+00  0.76754680000E+00  0.10990674878E+00  0.90007756404E+02  0.90000017989E+02 0.  0.
        -12    1    1    2    0    0  0.88981310504E+00 -0.76754680000E+00 -0.10990674878E+00  0.11802435958E+01  0.00000000000E+00 0.  1.
         11    1    3    3    0    0 -0.37688972396E+01  0.15983216653E+02  0.33960994059E+02  0.37722896479E+02  0.51100000000E-03 0. -1.
        -11    1    3    3    0    0  0.81552844504E+01 -0.12062412603E+01  0.56819271111E+01  0.10012391243E+02  0.51100000000E-03 0.  1.
        -12    1    3    3    0    0 -0.52762003158E+01 -0.14009428593E+02 -0.39533014422E+02  0.42272468683E+02  0.00000000000E+00 0.  1.
</event>
<event>
 7    1  0.1716782E-015  0.9000774E+02  0.7816164E-02  0.1186339E+00
        -11   -1    0    0    0    0  0.00000000000E+00  0.00000000000E+00  0.45593999997E+02  0.45594000000E+02  0.51100000000E-03 0. -1.
         11   -1    0    0    0    0 -0.00000000000E+00 -0.00000000000E+00 -0.45593999997E+02  0.45594000000E+02  0.51100000000E-03 0.  1.
    9900012    2    1    2    0    0 -0.50555004863E+00 -0.85788890055E+00  0.63361380840E+00  0.90007737031E+02  0.89999998360E+02 0.  0.
        -12    1    1    2    0    0  0.50555004863E+00  0.85788890055E+00 -0.63361380840E+00  0.11802629688E+01  0.00000000000E+00 0.  1.
         11    1    3    3    0    0 -0.16955869484E+01 -0.94782013133E+01 -0.27412512192E+00  0.96325728691E+01  0.51100000000E-03 0. -1.
        -11    1    3    3    0    0  0.12891926867E+01  0.77051995137E+01 -0.39344393078E+02  0.40112509075E+02  0.51100000000E-03 0.  1.
         12    1    3    3    0    0 -0.99155786903E-01  0.91511289905E+00  0.40252132008E+02  0.40262655087E+02  0.00000000000E+00 0. -1.
</event>
<event>
 7    1  0.1716782E-015  0.9000771E+02  0.7816164E-02  0.1186339E+00
        -11   -1    0    0    0    0  0.00000000000E+00  0.00000000000E+00  0.45593999997E+02  0.45594000000E+02  0.51100000000E-03 0.  1.
         11   -1    0    0    0    0 -0.00000000000E+00 -0.00000000000E+00 -0.45593999997E+02  0.45594000000E+02  0.51100000000E-03 0. -1.
    9900012    2    1    2    0    0 -0.29289469338E+00 -0.10430312298E+01  0.46837948875E+00  0.90007711564E+02  0.89999972556E+02 0.  0.
        -12    1    1    2    0    0  0.29289469338E+00  0.10430312298E+01 -0.46837948875E+00  0.11802884365E+01  0.00000000000E+00 0.  1.
         11    1    3    3    0    0 -0.11586732945E+02 -0.24408726232E+01  0.24510185951E+02  0.27220570440E+02  0.51100000000E-03 0. -1.
        -11    1    3    3    0    0  0.12520056563E+02 -0.24414386606E+01  0.17163870461E+02  0.21384828466E+02  0.51100000000E-03 0.  1.
         12    1    3    3    0    0 -0.12262183116E+01  0.38392800540E+01 -0.41205676923E+02  0.41402312657E+02  0.00000000000E+00 0. -1.
</event>
<event>
 7    1  0.1716782E-015  0.9000771E+02  0.7816164E-02  0.1186339E+00
        -11   -1    0    0    0    0  0.00000000000E+00  0.00000000000E+00  0.45593999997E+02  0.45594000000E+02  0.51100000000E-03 0.  1.
         11   -1    0    0    0    0 -0.00000000000E+00 -0.00000000000E+00 -0.45593999997E+02  0.45594000000E+02  0.51100000000E-03 0. -1.
    9900012    2    1    2    0    0  0.56180605004E+00 -0.70101961788E+00 -0.76551912419E+00  0.90007714411E+02  0.89999975441E+02 0.  0.
        -12    1    1    2    0    0 -0.56180605004E+00  0.70101961788E+00  0.76551912419E+00  0.11802855892E+01  0.00000000000E+00 0.  1.
         11    1    3    3    0    0 -0.16381861901E+02 -0.12280779993E+02  0.82808956125E+01  0.22085202942E+02  0.51100000000E-03 0. -1.
        -11    1    3    3    0    0 -0.15940668359E+02 -0.15667201316E+02 -0.11520250198E+02  0.25145223596E+02  0.51100000000E-03 0.  1.
         12    1    3    3    0    0  0.32884336310E+02  0.27246961691E+02  0.24738354613E+01  0.42777287873E+02  0.00000000000E+00 0. -1.
</event>
<event>
 7    1  0.1979271E-015  0.9000775E+02  0.7816164E-02  0.1186339E+00
        -11   -1    0    0    0    0  0.00000000000E+00  0.00000000000E+00  0.45593999997E+02  0.45594000000E+02  0.51100000000E-03 0.  1.
         11   -1    0    0    0    0 -0.00000000000E+00 -0.00000000000E+00 -0.45593999997E+02  0.45594000000E+02  0.51100000000E-03 0. -1.
    9900012    2    1    2    0    0  0.85300407811E+00  0.81471506286E+00  0.40021632050E-01  0.90007754974E+02  0.90000016539E+02 0.  0.
        -12    1    1    2    0    0 -0.85300407811E+00 -0.81471506286E+00 -0.40021632050E-01  0.11802450262E+01  0.00000000000E+00 0.  1.
         11    1    3    3    0    0  0.14999756810E+02  0.31285507222E+02  0.11895791237E+02  0.36678134030E+02  0.51100000000E-03 0. -1.
        -11    1    3    3    0    0  0.63090901490E+01  0.68390108830E+01 -0.36562506662E+01  0.99972424978E+01  0.51100000000E-03 0.  1.
        -12    1    3    3    0    0 -0.20455842881E+02 -0.37309803042E+02 -0.81995189387E+01  0.43332378446E+02  0.00000000000E+00 0.  1.
</event>
<event>
 7    1  0.1716782E-015  0.9000766E+02  0.7816164E-02  0.1186339E+00
        -11   -1    0    0    0    0  0.00000000000E+00  0.00000000000E+00  0.45593999997E+02  0.45594000000E+02  0.51100000000E-03 0.  1.
         11   -1    0    0    0    0 -0.00000000000E+00 -0.00000000000E+00 -0.45593999997E+02  0.45594000000E+02  0.51100000000E-03 0. -1.
    9900012    2    1    2    0    0 -0.48388964500E+00 -0.34244551270E+00 -0.10206819576E+01  0.90007656924E+02  0.89999917196E+02 0.  0.
        -12    1    1    2    0    0  0.48388964500E+00  0.34244551270E+00  0.10206819576E+01  0.11803430757E+01  0.00000000000E+00 0.  1.
         11    1    3    3    0    0  0.55732637962E+00  0.45584655511E+01 -0.88970211317E+01  0.10012352678E+02  0.51100000000E-03 0. -1.
        -11    1    3    3    0    0  0.23847015024E+02  0.40380692086E+01 -0.26985585380E+02  0.36238211145E+02  0.51100000000E-03 0.  1.
         12    1    3    3    0    0 -0.24888231048E+02 -0.89389802724E+01  0.34861924554E+02  0.43757093101E+02  0.00000000000E+00 0. -1.
</event>
<event>
 7    1  0.1716782E-015  0.9000774E+02  0.7816164E-02  0.1186339E+00
        -11   -1    0    0    0    0  0.00000000000E+00  0.00000000000E+00  0.45593999997E+02  0.45594000000E+02  0.51100000000E-03 0.  1.
         11   -1    0    0    0    0 -0.00000000000E+00 -0.00000000000E+00 -0.45593999997E+02  0.45594000000E+02  0.51100000000E-03 0. -1.
    9900012    2    1    2    0    0 -0.71258540203E+00 -0.79574510983E+00  0.50202547091E+00  0.90007738246E+02  0.89999999591E+02 0.  0.
        -12    1    1    2    0    0  0.71258540203E+00  0.79574510983E+00 -0.50202547091E+00  0.11802617542E+01  0.00000000000E+00 0.  1.
         11    1    3    3    0    0  0.20258954022E+01  0.82663878997E+01  0.48275594665E+01  0.97848225203E+01  0.51100000000E-03 0. -1.
        -11    1    3    3    0    0 -0.52602742362E+01 -0.13480962362E+02  0.36405106870E+02  0.39175740423E+02  0.51100000000E-03 0.  1.
         12    1    3    3    0    0  0.25217934319E+01  0.44188293528E+01 -0.40730640866E+02  0.41047175302E+02  0.00000000000E+00 0. -1.
</event>
<event>
 7    1  0.1716782E-015  0.9000783E+02  0.7816164E-02  0.1186339E+00
        -11   -1    0    0    0    0  0.00000000000E+00  0.00000000000E+00  0.45593999997E+02  0.45594000000E+02  0.51100000000E-03 0. -1.
         11   -1    0    0    0    0 -0.00000000000E+00 -0.00000000000E+00 -0.45593999997E+02  0.45594000000E+02  0.51100000000E-03 0.  1.
    9900012    2    1    2    0    0  0.10774416340E+01  0.85358082213E-01  0.47396045205E+00  0.90007828408E+02  0.90000090943E+02 0.  0.
        -12    1    1    2    0    0 -0.10774416340E+01 -0.85358082213E-01 -0.47396045205E+00  0.11801715921E+01  0.00000000000E+00 0.  1.
         11    1    3    3    0    0  0.29461099142E+01 -0.22543500557E+02  0.30714718673E+02  0.38213648405E+02  0.51100000000E-03 0. -1.
        -11    1    3    3    0    0 -0.10186479802E+02  0.11199568432E+01  0.35835776108E+01  0.10856366926E+02  0.51100000000E-03 0.  1.
        -12    1    3    3    0    0  0.83178115217E+01  0.21508901796E+02 -0.33824335832E+02  0.40937813076E+02  0.00000000000E+00 0.  1.
</event>
<event>
 7    1  0.1716782E-015  0.9000777E+02  0.7816164E-02  0.1186339E+00
        -11   -1    0    0    0    0  0.00000000000E+00  0.00000000000E+00  0.45593999997E+02  0.45594000000E+02  0.51100000000E-03 0.  1.
         11   -1    0    0    0    0 -0.00000000000E+00 -0.00000000000E+00 -0.45593999997E+02  0.45594000000E+02  0.51100000000E-03 0. -1.
    9900012    2    1    2    0    0 -0.95920600079E+00 -0.68047587367E+00 -0.99108418119E-01  0.90007768648E+02  0.90000030394E+02 0.  0.
        -12    1    1    2    0    0  0.95920600079E+00  0.68047587367E+00  0.99108418119E-01  0.11802313524E+01  0.00000000000E+00 0.  1.
         11    1    3    3    0    0  0.69765365311E+01 -0.19681557648E+01  0.74000899731E+01  0.10358910703E+02  0.51100000000E-03 0. -1.
        -11    1    3    3    0    0  0.19954080494E+02  0.10914563297E+02  0.26308620708E+02  0.34776954210E+02  0.51100000000E-03 0.  1.
         12    1    3    3    0    0 -0.27889823025E+02 -0.96268834059E+01 -0.33807819099E+02  0.44871903734E+02  0.00000000000E+00 0. -1.
</event>
<event>
 7    1  0.1716782E-015  0.9000793E+02  0.7816164E-02  0.1186339E+00
        -11   -1    0    0    0    0  0.00000000000E+00  0.00000000000E+00  0.45593999997E+02  0.45594000000E+02  0.51100000000E-03 0.  1.
         11   -1    0    0    0    0 -0.00000000000E+00 -0.00000000000E+00 -0.45593999997E+02  0.45594000000E+02  0.51100000000E-03 0. -1.
    9900012    2    1    2    0    0  0.54431773272E+00 -0.10381197713E+01 -0.13631497510E+00  0.90007933804E+02  0.90000197730E+02 0.  0.
        -12    1    1    2    0    0 -0.54431773272E+00  0.10381197713E+01  0.13631497510E+00  0.11800661956E+01  0.00000000000E+00 0.  1.
         11    1    3    3    0    0  0.74733068499E+01 -0.39945346123E+01  0.15471676210E+01  0.86139624999E+01  0.51100000000E-03 0. -1.
        -11    1    3    3    0    0  0.32527055389E+02  0.17039461467E+02 -0.11282763982E+02  0.38414233596E+02  0.51100000000E-03 0.  1.
         12    1    3    3    0    0 -0.39456044507E+02 -0.14083046626E+02  0.95992813860E+01  0.42979737709E+02  0.00000000000E+00 0. -1.
</event>
<event>
 7    1  0.1716782E-015  0.9000776E+02  0.7816164E-02  0.1186339E+00
        -11   -1    0    0    0    0  0.00000000000E+00  0.00000000000E+00  0.45593999997E+02  0.45594000000E+02  0.51100000000E-03 0. -1.
         11   -1    0    0    0    0 -0.00000000000E+00 -0.00000000000E+00 -0.45593999997E+02  0.45594000000E+02  0.51100000000E-03 0.  1.
    9900012    2    1    2    0    0 -0.49758880244E+00 -0.39849954956E+00  0.99326793193E+00  0.90007755241E+02  0.90000016810E+02 0.  0.
        -12    1    1    2    0    0  0.49758880244E+00  0.39849954956E+00 -0.99326793193E+00  0.11802447593E+01  0.00000000000E+00 0.  1.
         11    1    3    3    0    0  0.28235915977E+02  0.53618759092E+01  0.27411789875E+02  0.39716783464E+02  0.51100000000E-03 0. -1.
        -11    1    3    3    0    0  0.40293442838E+01 -0.72354370726E+01 -0.16873470644E+00  0.82834555984E+01  0.51100000000E-03 0.  1.
        -12    1    3    3    0    0 -0.32762849063E+02  0.14750616139E+01 -0.26249787237E+02  0.42007516178E+02  0.00000000000E+00 0.  1.
</event>
<event>
 7    1  0.1716782E-015  0.9000780E+02  0.7816164E-02  0.1186339E+00
        -11   -1    0    0    0    0  0.00000000000E+00  0.00000000000E+00  0.45593999997E+02  0.45594000000E+02  0.51100000000E-03 0.  1.
         11   -1    0    0    0    0 -0.00000000000E+00 -0.00000000000E+00 -0.45593999997E+02  0.45594000000E+02  0.51100000000E-03 0. -1.
    9900012    2    1    2    0    0 -0.36590510090E+00  0.85166141607E+00 -0.73052378985E+00  0.90007797171E+02  0.90000059293E+02 0.  0.
        -12    1    1    2    0    0  0.36590510090E+00 -0.85166141607E+00  0.73052378985E+00  0.11802028292E+01  0.00000000000E+00 0.  1.
         11    1    3    3    0    0 -0.91048010553E+00  0.54706061026E+01 -0.66129167867E+01  0.86305952194E+01  0.51100000000E-03 0. -1.
        -11    1    3    3    0    0 -0.34544005347E+02  0.12070437024E+02  0.17859260016E+02  0.40717771599E+02  0.51100000000E-03 0.  1.
         12    1    3    3    0    0  0.35088580352E+02 -0.16689381711E+02 -0.11976867019E+02  0.40659430353E+02  0.00000000000E+00 0. -1.
</event>
<event>
 7    1  0.1716782E-015  0.9000796E+02  0.7816164E-02  0.1186339E+00
        -11   -1    0    0    0    0  0.00000000000E+00  0.00000000000E+00  0.45593999997E+02  0.45594000000E+02  0.51100000000E-03 0. -1.
         11   -1    0    0    0    0 -0.00000000000E+00 -0.00000000000E+00 -0.45593999997E+02  0.45594000000E+02  0.51100000000E-03 0.  1.
    9900012    2    1    2    0    0 -0.48530719120E+00 -0.77475134956E+00 -0.74614672200E+00  0.90007958622E+02  0.90000222875E+02 0.  0.
        -12    1    1    2    0    0  0.48530719120E+00  0.77475134956E+00  0.74614672200E+00  0.11800413782E+01  0.00000000000E+00 0.  1.
         11    1    3    3    0    0  0.84786610544E+00  0.36303201531E+02  0.53543398765E+01  0.36705725358E+02  0.51100000000E-03 0. -1.
        -11    1    3    3    0    0  0.67213636276E+01  0.60544084979E+01 -0.16960795392E+01  0.92037643027E+01  0.51100000000E-03 0.  1.
        -12    1    3    3    0    0 -0.80545369243E+01 -0.43132361378E+02 -0.44044070593E+01  0.44098468961E+02  0.00000000000E+00 0.  1.
</event>
<event>
 7    1  0.1878249E-015  0.9000772E+02  0.7816164E-02  0.1186339E+00
        -11   -1    0    0    0    0  0.00000000000E+00  0.00000000000E+00  0.45593999997E+02  0.45594000000E+02  0.51100000000E-03 0.  1.
         11   -1    0    0    0    0 -0.00000000000E+00 -0.00000000000E+00 -0.45593999997E+02  0.45594000000E+02  0.51100000000E-03 0. -1.
    9900012    2    1    2    0    0  0.92758570010E+00 -0.26973734283E+00 -0.67814852395E+00  0.90007720844E+02  0.89999981959E+02 0.  0.
        -12    1    1    2    0    0 -0.92758570010E+00  0.26973734283E+00  0.67814852395E+00  0.11802791558E+01  0.00000000000E+00 0.  1.
         11    1    3    3    0    0  0.20981553936E+02 -0.39646319693E+01 -0.33111498794E+02  0.39399432291E+02  0.51100000000E-03 0. -1.
        -11    1    3    3    0    0  0.43717942791E+01 -0.82951749798E+01  0.16459850834E+01  0.95200724956E+01  0.51100000000E-03 0.  1.
        -12    1    3    3    0    0 -0.24425762515E+02  0.11990069606E+02  0.30787365187E+02  0.41088216057E+02  0.00000000000E+00 0.  1.
</event>
<event>
 7    1  0.1716782E-015  0.9000764E+02  0.7816164E-02  0.1186339E+00
        -11   -1    0    0    0    0  0.00000000000E+00  0.00000000000E+00  0.45593999997E+02  0.45594000000E+02  0.51100000000E-03 0.  1.
         11   -1    0    0    0    0 -0.00000000000E+00 -0.00000000000E+00 -0.45593999997E+02  0.45594000000E+02  0.51100000000E-03 0. -1.
    9900012    2    1    2    0    0 -0.14778409627E+00 -0.98983912952E+00 -0.62580279093E+00  0.90007639557E+02  0.89999899599E+02 0.  0.
        -12    1    1    2    0    0  0.14778409627E+00  0.98983912952E+00  0.62580279093E+00  0.11803604426E+01  0.00000000000E+00 0.  1.
         11    1    3    3    0    0 -0.21560460441E+01  0.37903550172E+01  0.23669504350E+02  0.24067836673E+02  0.51100000000E-03 0. -1.
        -11    1    3    3    0    0  0.14598162154E+02  0.13697063736E+02  0.11978958247E+02  0.23328337579E+02  0.51100000000E-03 0.  1.
         12    1    3    3    0    0 -0.12589900206E+02 -0.18477257883E+02 -0.36274265388E+02  0.42611465305E+02  0.00000000000E+00 0. -1.
</event>
<event>
 7    1  0.1716782E-015  0.9000769E+02  0.7816164E-02  0.1186339E+00
        -11   -1    0    0    0    0  0.00000000000E+00  0.00000000000E+00  0.45593999997E+02  0.45594000000E+02  0.51100000000E-03 0. -1.
         11   -1    0    0    0    0 -0.00000000000E+00 -0.00000000000E+00 -0.45593999997E+02  0.45594000000E+02  0.51100000000E-03 0.  1.
    9900012    2    1    2    0    0  0.10281469149E+01 -0.64587438924E-01  0.57607504674E+00  0.90007694923E+02  0.89999955696E+02 0.  0.
        -12    1    1    2    0    0 -0.10281469149E+01  0.64587438924E-01 -0.57607504674E+00  0.11803050772E+01  0.00000000000E+00 0.  1.
         11    1    3    3    0    0 -0.24968434658E+02 -0.24072953621E+02  0.33263649605E+00  0.34684873830E+02  0.51100000000E-03 0. -1.
        -11    1    3    3    0    0 -0.77551810966E+01 -0.51520031963E+01  0.48209672922E+01  0.10484640989E+02  0.51100000000E-03 0.  1.
        -12    1    3    3    0    0  0.33751762670E+02  0.29160369378E+02 -0.45775287415E+01  0.44838180103E+02  0.00000000000E+00 0.  1.
</event>
<event>
 7    1  0.1716782E-015  0.9000765E+02  0.7816164E-02  0.1186339E+00
        -11   -1    0    0    0    0  0.00000000000E+00  0.00000000000E+00  0.45593999997E+02  0.45594000000E+02  0.51100000000E-03 0.  1.
         11   -1    0    0    0    0 -0.00000000000E+00 -0.00000000000E+00 -0.45593999997E+02  0.45594000000E+02  0.51100000000E-03 0. -1.
    9900012    2    1    2    0    0  0.26435144788E+00  0.88613601803E+00 -0.73356147852E+00  0.90007647861E+02  0.89999908012E+02 0.  0.
        -12    1    1    2    0    0 -0.26435144788E+00 -0.88613601803E+00  0.73356147852E+00  0.11803521395E+01  0.00000000000E+00 0.  1.
         11    1    3    3    0    0  0.22656428850E+01 -0.67984018890E+01  0.68757971742E+01  0.99311627198E+01  0.51100000000E-03 0. -1.
        -11    1    3    3    0    0  0.26997674923E+02  0.11413921029E+02  0.23363540787E+02  0.37483424108E+02  0.51100000000E-03 0.  1.
         12    1    3    3    0    0 -0.28998966360E+02 -0.37293831217E+01 -0.30972899440E+02  0.42593061033E+02  0.00000000000E+00 0. -1.
</event>
<event>
 7    1  0.1716782E-015  0.9000770E+02  0.7816164E-02  0.1186339E+00
        -11   -1    0    0    0    0  0.00000000000E+00  0.00000000000E+00  0.45593999997E+02  0.45594000000E+02  0.51100000000E-03 0. -1.
         11   -1    0    0    0    0 -0.00000000000E+00 -0.00000000000E+00 -0.45593999997E+02  0.45594000000E+02  0.51100000000E-03 0.  1.
    9900012    2    1    2    0    0  0.67462870947E+00  0.10827766211E+00  0.96242849604E+00  0.90007696413E+02  0.89999957206E+02 0.  0.
        -12    1    1    2    0    0 -0.67462870947E+00 -0.10827766211E+00 -0.96242849604E+00  0.11803035871E+01  0.00000000000E+00 0.  1.
         11    1    3    3    0    0  0.24973568069E+02 -0.24148673733E+02  0.14038799643E+02  0.37468993059E+02  0.51100000000E-03 0. -1.
        -11    1    3    3    0    0  0.51378241663E+01 -0.56931629321E+01 -0.64584414509E+01  0.10026006561E+02  0.51100000000E-03 0.  1.
        -12    1    3    3    0    0 -0.29436763526E+02  0.29950114327E+02 -0.66179296958E+01  0.42512696793E+02  0.00000000000E+00 0.  1.
</event>
<event>
 7    1  0.1716782E-015  0.9000707E+02  0.7816164E-02  0.1186340E+00
        -11   -1    0    0    0    0  0.00000000000E+00  0.00000000000E+00  0.45593999997E+02  0.45594000000E+02  0.51100000000E-03 0. -1.
         11   -1    0    0    0    0 -0.00000000000E+00 -0.00000000000E+00 -0.45593999997E+02  0.45594000000E+02  0.51100000000E-03 0.  1.
    9900012    2    1    2    0    0 -0.34883920180E+00  0.74430884988E+00  0.84789268337E+00  0.90007065431E+02  0.89999317893E+02 0.  0.
        -12    1    1    2    0    0  0.34883920180E+00 -0.74430884988E+00 -0.84789268337E+00  0.11809345686E+01  0.00000000000E+00 0.  1.
         11    1    3    3    0    0  0.11786416291E+02  0.37152138346E+02 -0.41389700218E+01  0.39196072071E+02  0.51100000000E-03 0. -1.
        -11    1    3    3    0    0 -0.74316668602E+01  0.43659316569E+01  0.45893729725E+01  0.97649053296E+01  0.51100000000E-03 0.  1.
        -12    1    3    3    0    0 -0.47035886324E+01 -0.40773761153E+02  0.39748973274E+00  0.41046088031E+02  0.00000000000E+00 0.  1.
</event>
<event>
 7    1  0.1716782E-015  0.9000766E+02  0.7816164E-02  0.1186339E+00
        -11   -1    0    0    0    0  0.00000000000E+00  0.00000000000E+00  0.45593999997E+02  0.45594000000E+02  0.51100000000E-03 0.  1.
         11   -1    0    0    0    0 -0.00000000000E+00 -0.00000000000E+00 -0.45593999997E+02  0.45594000000E+02  0.51100000000E-03 0. -1.
    9900012    2    1    2    0    0 -0.91394822537E+00 -0.19892524383E+00 -0.71995605272E+00  0.90007657114E+02  0.89999917388E+02 0.  0.
        -12    1    1    2    0    0  0.91394822537E+00  0.19892524383E+00  0.71995605272E+00  0.11803428863E+01  0.00000000000E+00 0.  1.
         11    1    3    3    0    0  0.78765174794E-01 -0.52851319579E+01  0.72197238118E+01  0.89478062085E+01  0.51100000000E-03 0. -1.
        -11    1    3    3    0    0  0.28753525137E+02 -0.22949443635E+02  0.71688809960E+01  0.37481128931E+02  0.51100000000E-03 0.  1.
         12    1    3    3    0    0 -0.29746238537E+02  0.28035650349E+02 -0.15108560860E+02  0.43578721974E+02  0.00000000000E+00 0. -1.
</event>
<event>
 7    1  0.1716782E-015  0.9000781E+02  0.7816164E-02  0.1186339E+00
        -11   -1    0    0    0    0  0.00000000000E+00  0.00000000000E+00  0.45593999997E+02  0.45594000000E+02  0.51100000000E-03 0.  1.
         11   -1    0    0    0    0 -0.00000000000E+00 -0.00000000000E+00 -0.45593999997E+02  0.45594000000E+02  0.51100000000E-03 0. -1.
    9900012    2    1    2    0    0  0.20396841096E+00  0.11493240315E+01  0.17403857596E+00  0.90007814308E+02  0.90000076657E+02 0.  0.
        -12    1    1    2    0    0 -0.20396841096E+00 -0.11493240315E+01 -0.17403857596E+00  0.11801856921E+01  0.00000000000E+00 0.  1.
         11    1    3    3    0    0  0.57428533925E+01 -0.43464127510E+01  0.10674962527E+02  0.12877363631E+02  0.51100000000E-03 0. -1.
        -11    1    3    3    0    0 -0.20604603507E+02  0.30306998745E+02  0.13914441947E+02  0.39200453487E+02  0.51100000000E-03 0.  1.
         12    1    3    3    0    0  0.15065718525E+02 -0.24811261963E+02 -0.24415365898E+02  0.37929997189E+02  0.00000000000E+00 0. -1.
</event>
<event>
 7    1  0.1716782E-015  0.9000780E+02  0.7816164E-02  0.1186339E+00
        -11   -1    0    0    0    0  0.00000000000E+00  0.00000000000E+00  0.45593999997E+02  0.45594000000E+02  0.51100000000E-03 0. -1.
         11   -1    0    0    0    0 -0.00000000000E+00 -0.00000000000E+00 -0.45593999997E+02  0.45594000000E+02  0.51100000000E-03 0.  1.
    9900012    2    1    2    0    0 -0.69160019583E+00 -0.92932768574E+00 -0.22562372889E+00  0.90007802201E+02  0.90000064390E+02 0.  0.
        -12    1    1    2    0    0  0.69160019583E+00  0.92932768574E+00  0.22562372889E+00  0.11801977993E+01  0.00000000000E+00 0.  1.
         11    1    3    3    0    0 -0.64540166172E+01 -0.24342661319E+01  0.32585705215E+01  0.76287786835E+01  0.51100000000E-03 0. -1.
        -11    1    3    3    0    0 -0.28640813105E+02 -0.25668809078E+02 -0.20621992169E+01  0.38515407316E+02  0.51100000000E-03 0.  1.
         12    1    3    3    0    0  0.34403229527E+02  0.27173747524E+02 -0.14219950335E+01  0.43863616201E+02  0.00000000000E+00 0. -1.
</event>
<event>
 7    1  0.1716782E-015  0.9000695E+02  0.7816164E-02  0.1186341E+00
        -11   -1    0    0    0    0  0.00000000000E+00  0.00000000000E+00  0.45593999997E+02  0.45594000000E+02  0.51100000000E-03 0. -1.
         11   -1    0    0    0    0 -0.00000000000E+00 -0.00000000000E+00 -0.45593999997E+02  0.45594000000E+02  0.51100000000E-03 0.  1.
    9900012    2    1    2    0    0  0.52063871785E+00 -0.78958966903E+00  0.70736039477E+00  0.90006951632E+02  0.89999202590E+02 0.  0.
        -12    1    1    2    0    0 -0.52063871785E+00  0.78958966903E+00 -0.70736039477E+00  0.11810483682E+01  0.00000000000E+00 0.  1.
         11    1    3    3    0    0  0.42253282120E+01  0.61203376540E+00 -0.44496058071E+01  0.61666016515E+01  0.51100000000E-03 0. -1.
        -11    1    3    3    0    0  0.31204390061E+02 -0.62269417067E+01 -0.22559913334E+02  0.39005620774E+02  0.51100000000E-03 0.  1.
         12    1    3    3    0    0 -0.34909079555E+02  0.48253182722E+01  0.27716879536E+02  0.44834729206E+02  0.00000000000E+00 0. -1.
</event>
<event>
 7    1  0.1716782E-015  0.9000774E+02  0.7816164E-02  0.1186339E+00
        -11   -1    0    0    0    0  0.00000000000E+00  0.00000000000E+00  0.45593999997E+02  0.45594000000E+02  0.51100000000E-03 0.  1.
         11   -1    0    0    0    0 -0.00000000000E+00 -0.00000000000E+00 -0.45593999997E+02  0.45594000000E+02  0.51100000000E-03 0. -1.
    9900012    2    1    2    0    0  0.11166380787E+01 -0.76197625061E-01 -0.37460960743E+00  0.90007737726E+02  0.89999999064E+02 0.  0.
        -12    1    1    2    0    0 -0.11166380787E+01  0.76197625061E-01  0.37460960743E+00  0.11802622737E+01  0.00000000000E+00 0.  1.
         11    1    3    3    0    0 -0.30505463129E+01 -0.63186064046E+01 -0.13814322685E+01  0.71511520104E+01  0.51100000000E-03 0. -1.
        -11    1    3    3    0    0  0.40785172747E+02 -0.71388269548E+01  0.10531573150E+02  0.42723614074E+02  0.51100000000E-03 0.  1.
         12    1    3    3    0    0 -0.36617988355E+02  0.13381235734E+02 -0.95247504889E+01  0.40132971642E+02  0.00000000000E+00 0. -1.
</event>
<event>
 7    1  0.1716782E-015  0.9000776E+02  0.7816164E-02  0.1186339E+00
        -11   -1    0    0    0    0  0.00000000000E+00  0.00000000000E+00  0.45593999997E+02  0.45594000000E+02  0.51100000000E-03 0.  1.
         11   -1    0    0    0    0 -0.00000000000E+00 -0.00000000000E+00 -0.45593999997E+02  0.45594000000E+02  0.51100000000E-03 0. -1.
    9900012    2    1    2    0    0 -0.37506891946E+00  0.34999965930E-01 -0.11185075888E+01  0.90007762347E+02  0.90000024010E+02 0.  0.
        -12    1    1    2    0    0  0.37506891946E+00 -0.34999965930E-01  0.11185075888E+01  0.11802376533E+01  0.00000000000E+00 0.  1.
         11    1    3    3    0    0  0.19418238806E+02 -0.17588858376E+02  0.24797621658E+02  0.36074339598E+02  0.51100000000E-03 0. -1.
        -11    1    3    3    0    0  0.42053705805E+01 -0.93601225744E+01 -0.15694015099E+01  0.10380754197E+02  0.51100000000E-03 0.  1.
        -12    1    3    3    0    0 -0.23998678306E+02  0.26983980917E+02 -0.24346727736E+02  0.43552668552E+02  0.00000000000E+00 0.  1.
</event>
<event>
 7    1  0.1716782E-015  0.9000777E+02  0.7816164E-02  0.1186339E+00
        -11   -1    0    0    0    0  0.00000000000E+00  0.00000000000E+00  0.45593999997E+02  0.45594000000E+02  0.51100000000E-03 0.  1.
         11   -1    0    0    0    0 -0.00000000000E+00 -0.00000000000E+00 -0.45593999997E+02  0.45594000000E+02  0.51100000000E-03 0. -1.
    9900012    2    1    2    0    0  0.81279991559E+00  0.78430849793E+00 -0.34228050269E+00  0.90007771435E+02  0.90000033218E+02 0.  0.
        -12    1    1    2    0    0 -0.81279991559E+00 -0.78430849793E+00  0.34228050269E+00  0.11802285648E+01  0.00000000000E+00 0.  1.
         11    1    3    3    0    0  0.10420747137E+01 -0.60526787277E+01  0.59728425776E+01  0.85671283525E+01  0.51100000000E-03 0. -1.
        -11    1    3    3    0    0 -0.27047951390E+02  0.30656749593E+02  0.99179055157E+01  0.42068905621E+02  0.51100000000E-03 0.  1.
         12    1    3    3    0    0  0.26818676592E+02 -0.23819762368E+02 -0.16233028596E+02  0.39371737462E+02  0.00000000000E+00 0. -1.
</event>
<event>
 7    1  0.1716782E-015  0.9000777E+02  0.7816164E-02  0.1186339E+00
        -11   -1    0    0    0    0  0.00000000000E+00  0.00000000000E+00  0.45593999997E+02  0.45594000000E+02  0.51100000000E-03 0. -1.
         11   -1    0    0    0    0 -0.00000000000E+00 -0.00000000000E+00 -0.45593999997E+02  0.45594000000E+02  0.51100000000E-03 0.  1.
    9900012    2    1    2    0    0 -0.57922212299E+00 -0.67118438582E+00  0.77906918305E+00  0.90007773098E+02  0.90000034903E+02 0.  0.
        -12    1    1    2    0    0  0.57922212299E+00  0.67118438582E+00 -0.77906918305E+00  0.11802269017E+01  0.00000000000E+00 0.  1.
         11    1    3    3    0    0 -0.16420722867E+02  0.31063540441E+02  0.97225344956E+01  0.36456979599E+02  0.51100000000E-03 0. -1.
        -11    1    3    3    0    0 -0.58603771061E+01  0.56190032831E+01  0.31198557062E+01  0.86977420983E+01  0.51100000000E-03 0.  1.
        -12    1    3    3    0    0  0.21701877850E+02 -0.37353728110E+02 -0.12063321019E+02  0.44853051401E+02  0.00000000000E+00 0.  1.
</event>
<event>
 7    1  0.1716782E-015  0.9000772E+02  0.7816164E-02  0.1186339E+00
        -11   -1    0    0    0    0  0.00000000000E+00  0.00000000000E+00  0.45593999997E+02  0.45594000000E+02  0.51100000000E-03 0.  1.
         11   -1    0    0    0    0 -0.00000000000E+00 -0.00000000000E+00 -0.45593999997E+02  0.45594000000E+02  0.51100000000E-03 0. -1.
    9900012    2    1    2    0    0 -0.28942686173E+00 -0.89494646323E+00 -0.71299406132E+00  0.90007721384E+02  0.89999982506E+02 0.  0.
        -12    1    1    2    0    0  0.28942686173E+00  0.89494646323E+00  0.71299406132E+00  0.11802786162E+01  0.00000000000E+00 0.  1.
         11    1    3    3    0    0  0.39948084741E+00  0.11367072572E+02 -0.70828655086E+01  0.13399138326E+02  0.51100000000E-03 0. -1.
        -11    1    3    3    0    0  0.17547257729E+02  0.38527567772E+01  0.34813033655E+02  0.39175212841E+02  0.51100000000E-03 0.  1.
         12    1    3    3    0    0 -0.18236165438E+02 -0.16114775813E+02 -0.28443162208E+02  0.37433370217E+02  0.00000000000E+00 0. -1.
</event>
<event>
 7    1  0.1716782E-015  0.9000774E+02  0.7816164E-02  0.1186339E+00
        -11   -1    0    0    0    0  0.00000000000E+00  0.00000000000E+00  0.45593999997E+02  0.45594000000E+02  0.51100000000E-03 0.  1.
         11   -1    0    0    0    0 -0.00000000000E+00 -0.00000000000E+00 -0.45593999997E+02  0.45594000000E+02  0.51100000000E-03 0. -1.
    9900012    2    1    2    0    0  0.74578759151E+00  0.70518058055E+00 -0.58269485642E+00  0.90007740673E+02  0.90000002050E+02 0.  0.
        -12    1    1    2    0    0 -0.74578759151E+00 -0.70518058055E+00  0.58269485642E+00  0.11802593268E+01  0.00000000000E+00 0.  1.
         11    1    3    3    0    0  0.16994941573E+00 -0.61371251992E+01 -0.75306088535E+01  0.97161339266E+01  0.51100000000E-03 0. -1.
        -11    1    3    3    0    0  0.37687992468E+02 -0.10353092714E+02  0.37976542461E+01  0.39268224852E+02  0.51100000000E-03 0.  1.
         12    1    3    3    0    0 -0.37112154292E+02  0.17195398494E+02  0.31502597510E+01  0.41023381894E+02  0.00000000000E+00 0. -1.
</event>
<event>
 7    1  0.1716782E-015  0.9000773E+02  0.7816164E-02  0.1186339E+00
        -11   -1    0    0    0    0  0.00000000000E+00  0.00000000000E+00  0.45593999997E+02  0.45594000000E+02  0.51100000000E-03 0.  1.
         11   -1    0    0    0    0 -0.00000000000E+00 -0.00000000000E+00 -0.45593999997E+02  0.45594000000E+02  0.51100000000E-03 0. -1.
    9900012    2    1    2    0    0  0.20535310804E-01  0.66221743182E+00 -0.97677537653E+00  0.90007727251E+02  0.89999988451E+02 0.  0.
        -12    1    1    2    0    0 -0.20535310804E-01 -0.66221743182E+00  0.97677537653E+00  0.11802727491E+01  0.00000000000E+00 0.  1.
         11    1    3    3    0    0 -0.25470357186E+02  0.14688560777E+02 -0.10543449062E+01  0.29421158311E+02  0.51100000000E-03 0. -1.
        -11    1    3    3    0    0 -0.12839324677E+02 -0.15296846142E+02 -0.77901192592E+01  0.21436597640E+02  0.51100000000E-03 0.  1.
        -12    1    3    3    0    0  0.38330217174E+02  0.12705027967E+01  0.78676887889E+01  0.39149971300E+02  0.00000000000E+00 0.  1.
</event>
<event>
 7    1  0.1716782E-015  0.9000774E+02  0.7816164E-02  0.1186339E+00
        -11   -1    0    0    0    0  0.00000000000E+00  0.00000000000E+00  0.45593999997E+02  0.45594000000E+02  0.51100000000E-03 0. -1.
         11   -1    0    0    0    0 -0.00000000000E+00 -0.00000000000E+00 -0.45593999997E+02  0.45594000000E+02  0.51100000000E-03 0.  1.
    9900012    2    1    2    0    0  0.83070559253E+00  0.65838155042E+00 -0.51911235787E+00  0.90007739144E+02  0.90000000501E+02 0.  0.
        -12    1    1    2    0    0 -0.83070559253E+00 -0.65838155042E+00  0.51911235787E+00  0.11802608557E+01  0.00000000000E+00 0.  1.
         11    1    3    3    0    0  0.29049443479E+01 -0.34389297680E+02  0.96044026220E+01  0.35823275208E+02  0.51100000000E-03 0. -1.
        -11    1    3    3    0    0  0.87258193420E+00 -0.86772114169E+01 -0.50242482137E+01  0.10064713984E+02  0.51100000000E-03 0.  1.
        -12    1    3    3    0    0 -0.29468206896E+01  0.43724890648E+02 -0.50992667661E+01  0.44119749953E+02  0.00000000000E+00 0.  1.
</event>
<event>
 7    1  0.1716782E-015  0.9000776E+02  0.7816164E-02  0.1186339E+00
        -11   -1    0    0    0    0  0.00000000000E+00  0.00000000000E+00  0.45593999997E+02  0.45594000000E+02  0.51100000000E-03 0.  1.
         11   -1    0    0    0    0 -0.00000000000E+00 -0.00000000000E+00 -0.45593999997E+02  0.45594000000E+02  0.51100000000E-03 0. -1.
    9900012    2    1    2    0    0  0.21026598125E+00 -0.77210908717E+00 -0.86752460641E+00  0.90007761394E+02  0.90000023044E+02 0.  0.
        -12    1    1    2    0    0 -0.21026598125E+00  0.77210908717E+00  0.86752460641E+00  0.11802386064E+01  0.00000000000E+00 0.  1.
         11    1    3    3    0    0  0.76069342429E+01 -0.28324555965E+02 -0.28575701290E+02  0.40947730385E+02  0.51100000000E-03 0. -1.
        -11    1    3    3    0    0 -0.99601589565E+01 -0.86005400311E+00  0.11144301105E+01  0.10059145792E+02  0.51100000000E-03 0.  1.
        -12    1    3    3    0    0  0.25634906948E+01  0.28412500881E+02  0.26593746573E+02  0.39000885217E+02  0.00000000000E+00 0.  1.
</event>
<event>
 7    1  0.1716782E-015  0.9000776E+02  0.7816164E-02  0.1186339E+00
        -11   -1    0    0    0    0  0.00000000000E+00  0.00000000000E+00  0.45593999997E+02  0.45594000000E+02  0.51100000000E-03 0.  1.
         11   -1    0    0    0    0 -0.00000000000E+00 -0.00000000000E+00 -0.45593999997E+02  0.45594000000E+02  0.51100000000E-03 0. -1.
    9900012    2    1    2    0    0  0.94237868892E+00 -0.53552435764E+00 -0.46700279552E+00  0.90007764624E+02  0.90000026317E+02 0.  0.
        -12    1    1    2    0    0 -0.94237868892E+00  0.53552435764E+00  0.46700279552E+00  0.11802353757E+01  0.00000000000E+00 0.  1.
         11    1    3    3    0    0 -0.59830412697E+01 -0.58564239004E+01 -0.29330937675E+01  0.88711624405E+01  0.51100000000E-03 0. -1.
        -11    1    3    3    0    0 -0.35047924699E+02  0.95117097914E+01 -0.90191823687E+01  0.37418916335E+02  0.51100000000E-03 0.  1.
         12    1    3    3    0    0  0.41973344657E+02 -0.41908102486E+01  0.11485273341E+02  0.43717685849E+02  0.00000000000E+00 0. -1.
</event>
<event>
 7    1  0.1716782E-015  0.9000792E+02  0.7816164E-02  0.1186339E+00
        -11   -1    0    0    0    0  0.00000000000E+00  0.00000000000E+00  0.45593999997E+02  0.45594000000E+02  0.51100000000E-03 0. -1.
         11   -1    0    0    0    0 -0.00000000000E+00 -0.00000000000E+00 -0.45593999997E+02  0.45594000000E+02  0.51100000000E-03 0.  1.
    9900012    2    1    2    0    0  0.74804117479E+00 -0.91097084883E+00 -0.56274329167E-01  0.90007915136E+02  0.90000178815E+02 0.  0.
        -12    1    1    2    0    0 -0.74804117479E+00  0.91097084883E+00  0.56274329167E-01  0.11800848642E+01  0.00000000000E+00 0.  1.
         11    1    3    3    0    0 -0.14643950411E+01 -0.10855849904E+02  0.66625248885E+00  0.10974416732E+02  0.51100000000E-03 0. -1.
        -11    1    3    3    0    0  0.37655749998E+02  0.18956953898E+02  0.30491352798E+01  0.42268414155E+02  0.51100000000E-03 0.  1.
         12    1    3    3    0    0 -0.35443313782E+02 -0.90120748430E+01 -0.37716620978E+01  0.36765084249E+02  0.00000000000E+00 0. -1.
</event>
<event>
 7    1  0.1716782E-015  0.9000779E+02  0.7816164E-02  0.1186339E+00
        -11   -1    0    0    0    0  0.00000000000E+00  0.00000000000E+00  0.45593999997E+02  0.45594000000E+02  0.51100000000E-03 0.  1.
         11   -1    0    0    0    0 -0.00000000000E+00 -0.00000000000E+00 -0.45593999997E+02  0.45594000000E+02  0.51100000000E-03 0. -1.
    9900012    2    1    2    0    0 -0.72591990439E+00 -0.14791736081E-01  0.93044429329E+00  0.90007786000E+02  0.90000047975E+02 0.  0.
        -12    1    1    2    0    0  0.72591990439E+00  0.14791736081E-01 -0.93044429329E+00  0.11802140001E+01  0.00000000000E+00 0.  1.
         11    1    3    3    0    0 -0.24184747781E+02 -0.15220419804E+02 -0.74899831322E+01  0.29540870871E+02  0.51100000000E-03 0. -1.
        -11    1    3    3    0    0  0.20102205855E+02 -0.17651798938E+02  0.20586665811E+01  0.26831377049E+02  0.51100000000E-03 0.  1.
        -12    1    3    3    0    0  0.33566220218E+01  0.32857427007E+02  0.63617608443E+01  0.33635538080E+02  0.00000000000E+00 0.  1.
</event>
<event>
 7    1  0.1716782E-015  0.9000772E+02  0.7816164E-02  0.1186339E+00
        -11   -1    0    0    0    0  0.00000000000E+00  0.00000000000E+00  0.45593999997E+02  0.45594000000E+02  0.51100000000E-03 0.  1.
         11   -1    0    0    0    0 -0.00000000000E+00 -0.00000000000E+00 -0.45593999997E+02  0.45594000000E+02  0.51100000000E-03 0. -1.
    9900012    2    1    2    0    0  0.71527780094E+00  0.91810208987E+00  0.19631282044E+00  0.90007715075E+02  0.89999976114E+02 0.  0.
        -12    1    1    2    0    0 -0.71527780094E+00 -0.91810208987E+00 -0.19631282044E+00  0.11802849247E+01  0.00000000000E+00 0.  1.
         11    1    3    3    0    0 -0.51473562973E+00 -0.91699284609E+01 -0.35866011552E+01  0.98598300622E+01  0.51100000000E-03 0. -1.
        -11    1    3    3    0    0 -0.96091627474E+00 -0.33625854816E+02  0.11803523777E+02  0.35650310602E+02  0.51100000000E-03 0.  1.
         12    1    3    3    0    0  0.21909297054E+01  0.43713885367E+02 -0.80206098015E+01  0.44497574411E+02  0.00000000000E+00 0. -1.
</event>
<event>
 7    1  0.1716782E-015  0.9000767E+02  0.7816164E-02  0.1186339E+00
        -11   -1    0    0    0    0  0.00000000000E+00  0.00000000000E+00  0.45593999997E+02  0.45594000000E+02  0.51100000000E-03 0.  1.
         11   -1    0    0    0    0 -0.00000000000E+00 -0.00000000000E+00 -0.45593999997E+02  0.45594000000E+02  0.51100000000E-03 0. -1.
    9900012    2    1    2    0    0  0.35217445697E+00  0.19187893219E+00 -0.11101093592E+01  0.90007666504E+02  0.89999926902E+02 0.  0.
        -12    1    1    2    0    0 -0.35217445697E+00 -0.19187893219E+00  0.11101093592E+01  0.11803334962E+01  0.00000000000E+00 0.  1.
         11    1    3    3    0    0 -0.20551983978E+02  0.19967114801E+02 -0.31839399362E+02  0.42834764747E+02  0.51100000000E-03 0. -1.
        -11    1    3    3    0    0  0.63492639341E+01  0.16712364494E+01 -0.50510234260E+00  0.65849307067E+01  0.51100000000E-03 0.  1.
        -12    1    3    3    0    0  0.14554894501E+02 -0.21446472318E+02  0.31234392345E+02  0.40587971050E+02  0.00000000000E+00 0.  1.
</event>
<event>
 7    1  0.1716782E-015  0.9000780E+02  0.7816164E-02  0.1186339E+00
        -11   -1    0    0    0    0  0.00000000000E+00  0.00000000000E+00  0.45593999997E+02  0.45594000000E+02  0.51100000000E-03 0. -1.
         11   -1    0    0    0    0 -0.00000000000E+00 -0.00000000000E+00 -0.45593999997E+02  0.45594000000E+02  0.51100000000E-03 0.  1.
    9900012    2    1    2    0    0  0.13310533174E+00  0.10317226718E+01 -0.55741412283E+00  0.90007796964E+02  0.90000059084E+02 0.  0.
        -12    1    1    2    0    0 -0.13310533174E+00 -0.10317226718E+01  0.55741412283E+00  0.11802030356E+01  0.00000000000E+00 0.  1.
         11    1    3    3    0    0 -0.13685372548E+02  0.14158632598E+02  0.21451183809E+02  0.29118887099E+02  0.51100000000E-03 0. -1.
        -11    1    3    3    0    0  0.25924001819E+01  0.14375419297E+02  0.96258621993E+01  0.17493725790E+02  0.51100000000E-03 0.  1.
        -12    1    3    3    0    0  0.11226077698E+02 -0.27502329223E+02 -0.31634460131E+02  0.43395184076E+02  0.00000000000E+00 0.  1.
</event>
<event>
 7    1  0.1716782E-015  0.9000774E+02  0.7816164E-02  0.1186339E+00
        -11   -1    0    0    0    0  0.00000000000E+00  0.00000000000E+00  0.45593999997E+02  0.45594000000E+02  0.51100000000E-03 0.  1.
         11   -1    0    0    0    0 -0.00000000000E+00 -0.00000000000E+00 -0.45593999997E+02  0.45594000000E+02  0.51100000000E-03 0. -1.
    9900012    2    1    2    0    0  0.27557637727E+00 -0.10672521085E+01 -0.42194218057E+00  0.90007743839E+02  0.90000005257E+02 0.  0.
        -12    1    1    2    0    0 -0.27557637727E+00  0.10672521085E+01  0.42194218057E+00  0.11802561614E+01  0.00000000000E+00 0.  1.
         11    1    3    3    0    0 -0.18498915346E+02 -0.11788141919E+01 -0.92972590761E+01  0.20737369613E+02  0.51100000000E-03 0. -1.
        -11    1    3    3    0    0 -0.21964505074E+02  0.46352208634E+01 -0.94686075760E+01  0.24363482619E+02  0.51100000000E-03 0.  1.
         12    1    3    3    0    0  0.40738996797E+02 -0.45236587800E+01  0.18343924472E+02  0.44906891607E+02  0.00000000000E+00 0. -1.
</event>
<event>
 7    1  0.1716782E-015  0.9000780E+02  0.7816164E-02  0.1186339E+00
        -11   -1    0    0    0    0  0.00000000000E+00  0.00000000000E+00  0.45593999997E+02  0.45594000000E+02  0.51100000000E-03 0.  1.
         11   -1    0    0    0    0 -0.00000000000E+00 -0.00000000000E+00 -0.45593999997E+02  0.45594000000E+02  0.51100000000E-03 0. -1.
    9900012    2    1    2    0    0  0.11453694040E+01  0.55402536085E-01 -0.27917133806E+00  0.90007797836E+02  0.90000059967E+02 0.  0.
        -12    1    1    2    0    0 -0.11453694040E+01 -0.55402536085E-01  0.27917133806E+00  0.11802021643E+01  0.00000000000E+00 0.  1.
         11    1    3    3    0    0 -0.55010021749E+01  0.83431956790E+01  0.23103992456E+00  0.99961652035E+01  0.51100000000E-03 0. -1.
        -11    1    3    3    0    0  0.96687579507E+01  0.27316683884E+02  0.23206609107E+02  0.37124557980E+02  0.51100000000E-03 0.  1.
         12    1    3    3    0    0 -0.30223863717E+01 -0.35604477027E+02 -0.23716820370E+02  0.42887074652E+02  0.00000000000E+00 0. -1.
</event>
<event>
 7    1  0.1716782E-015  0.9000789E+02  0.7816164E-02  0.1186339E+00
        -11   -1    0    0    0    0  0.00000000000E+00  0.00000000000E+00  0.45593999997E+02  0.45594000000E+02  0.51100000000E-03 0. -1.
         11   -1    0    0    0    0 -0.00000000000E+00 -0.00000000000E+00 -0.45593999997E+02  0.45594000000E+02  0.51100000000E-03 0.  1.
    9900012    2    1    2    0    0  0.77607136234E+00  0.74888909058E+00  0.47909029413E+00  0.90007894437E+02  0.90000157844E+02 0.  0.
        -12    1    1    2    0    0 -0.77607136234E+00 -0.74888909058E+00 -0.47909029413E+00  0.11801055628E+01  0.00000000000E+00 0.  1.
         11    1    3    3    0    0  0.49863195192E+01  0.42015507428E+01 -0.61128983139E+01  0.89377814389E+01  0.51100000000E-03 0. -1.
        -11    1    3    3    0    0 -0.31125679321E+02 -0.24275526982E+02 -0.13299386505E+02  0.41653124794E+02  0.51100000000E-03 0.  1.
         12    1    3    3    0    0  0.26915431164E+02  0.20822865329E+02  0.19891375113E+02  0.39416988205E+02  0.00000000000E+00 0. -1.
</event>
<event>
 7    1  0.1716782E-015  0.9000776E+02  0.7816164E-02  0.1186339E+00
        -11   -1    0    0    0    0  0.00000000000E+00  0.00000000000E+00  0.45593999997E+02  0.45594000000E+02  0.51100000000E-03 0.  1.
         11   -1    0    0    0    0 -0.00000000000E+00 -0.00000000000E+00 -0.45593999997E+02  0.45594000000E+02  0.51100000000E-03 0. -1.
    9900012    2    1    2    0    0  0.87517473126E+00 -0.77808011242E+00 -0.14706553363E+00  0.90007759456E+02  0.90000021080E+02 0.  0.
        -12    1    1    2    0    0 -0.87517473126E+00  0.77808011242E+00  0.14706553363E+00  0.11802405444E+01  0.00000000000E+00 0.  1.
         11    1    3    3    0    0  0.83834795569E+01 -0.63909304492E+00  0.85496153448E+01  0.11991125560E+02  0.51100000000E-03 0. -1.
        -11    1    3    3    0    0 -0.93179162013E+01 -0.29108935930E+02  0.20534963172E+02  0.36821711340E+02  0.51100000000E-03 0.  1.
         12    1    3    3    0    0  0.18096113757E+01  0.28969948862E+02 -0.29231644050E+02  0.41194922555E+02  0.00000000000E+00 0. -1.
</event>
<event>
 7    1  0.1716782E-015  0.9000762E+02  0.7816164E-02  0.1186339E+00
        -11   -1    0    0    0    0  0.00000000000E+00  0.00000000000E+00  0.45593999997E+02  0.45594000000E+02  0.51100000000E-03 0.  1.
         11   -1    0    0    0    0 -0.00000000000E+00 -0.00000000000E+00 -0.45593999997E+02  0.45594000000E+02  0.51100000000E-03 0. -1.
    9900012    2    1    2    0    0  0.90491649923E+00 -0.75130129358E+00 -0.99883768810E-01  0.90007616896E+02  0.89999876639E+02 0.  0.
        -12    1    1    2    0    0 -0.90491649923E+00  0.75130129358E+00  0.99883768810E-01  0.11803831037E+01  0.00000000000E+00 0.  1.
         11    1    3    3    0    0 -0.26148361839E+01 -0.26727176699E+02 -0.27228095743E+02  0.38243280986E+02  0.51100000000E-03 0. -1.
        -11    1    3    3    0    0 -0.33901754288E+01  0.23358078483E+01 -0.79209262753E+01  0.89269457858E+01  0.51100000000E-03 0.  1.
        -12    1    3    3    0    0  0.69099281120E+01  0.23640067557E+02  0.35049138249E+02  0.42837390124E+02  0.00000000000E+00 0.  1.
</event>
<event>
 7    1  0.1716782E-015  0.9000778E+02  0.7816164E-02  0.1186339E+00
        -11   -1    0    0    0    0  0.00000000000E+00  0.00000000000E+00  0.45593999997E+02  0.45594000000E+02  0.51100000000E-03 0.  1.
         11   -1    0    0    0    0 -0.00000000000E+00 -0.00000000000E+00 -0.45593999997E+02  0.45594000000E+02  0.51100000000E-03 0. -1.
    9900012    2    1    2    0    0  0.59540115023E+00 -0.96155514332E+00  0.33739802326E+00  0.90007776187E+02  0.90000038032E+02 0.  0.
        -12    1    1    2    0    0 -0.59540115023E+00  0.96155514332E+00 -0.33739802326E+00  0.11802238133E+01  0.00000000000E+00 0.  1.
         11    1    3    3    0    0 -0.61606273478E+01 -0.13920341637E+01 -0.75562195421E+01  0.98482253458E+01  0.51100000000E-03 0. -1.
        -11    1    3    3    0    0 -0.26709883252E+02  0.85982039082E+01  0.28519215654E+02  0.40008657008E+02  0.51100000000E-03 0.  1.
         12    1    3    3    0    0  0.33465911750E+02 -0.81677248878E+01 -0.20625598089E+02  0.40150893833E+02  0.00000000000E+00 0. -1.
</event>
<event>
 7    1  0.1716782E-015  0.9000773E+02  0.7816164E-02  0.1186339E+00
        -11   -1    0    0    0    0  0.00000000000E+00  0.00000000000E+00  0.45593999997E+02  0.45594000000E+02  0.51100000000E-03 0.  1.
         11   -1    0    0    0    0 -0.00000000000E+00 -0.00000000000E+00 -0.45593999997E+02  0.45594000000E+02  0.51100000000E-03 0. -1.
    9900012    2    1    2    0    0 -0.71496344121E+00  0.76489747297E+00  0.54479144888E+00  0.90007729442E+02  0.89999990671E+02 0.  0.
        -12    1    1    2    0    0  0.71496344121E+00 -0.76489747297E+00 -0.54479144888E+00  0.11802705576E+01  0.00000000000E+00 0.  1.
         11    1    3    3    0    0 -0.52512464719E+00 -0.25234191227E+02 -0.25120544060E+02  0.35610137558E+02  0.51100000000E-03 0. -1.
        -11    1    3    3    0    0  0.23294627907E+01 -0.10201998465E+02  0.98344562106E+00  0.10510677196E+02  0.51100000000E-03 0.  1.
        -12    1    3    3    0    0 -0.25193015847E+01  0.36201087165E+02  0.24681889888E+02  0.43886914688E+02  0.00000000000E+00 0.  1.
</event>
<event>
 7    1  0.1716782E-015  0.9000785E+02  0.7816164E-02  0.1186339E+00
        -11   -1    0    0    0    0  0.00000000000E+00  0.00000000000E+00  0.45593999997E+02  0.45594000000E+02  0.51100000000E-03 0. -1.
         11   -1    0    0    0    0 -0.00000000000E+00 -0.00000000000E+00 -0.45593999997E+02  0.45594000000E+02  0.51100000000E-03 0.  1.
    9900012    2    1    2    0    0 -0.97884384914E+00  0.65498737171E+00 -0.74841228374E-01  0.90007853845E+02  0.90000116716E+02 0.  0.
        -12    1    1    2    0    0  0.97884384914E+00 -0.65498737171E+00  0.74841228374E-01  0.11801461552E+01  0.00000000000E+00 0.  1.
         11    1    3    3    0    0 -0.16112739002E+02  0.20008322165E+02 -0.25279085784E+02  0.36041441319E+02  0.51100000000E-03 0. -1.
        -11    1    3    3    0    0  0.40352735166E+01  0.75059038148E+01 -0.66776416444E+01  0.10826491704E+02  0.51100000000E-03 0.  1.
        -12    1    3    3    0    0  0.11098621637E+02 -0.26859238608E+02  0.31881886200E+02  0.43139920822E+02  0.00000000000E+00 0.  1.
</event>
<event>
 7    1  0.1716782E-015  0.9000744E+02  0.7816164E-02  0.1186340E+00
        -11   -1    0    0    0    0  0.00000000000E+00  0.00000000000E+00  0.45593999997E+02  0.45594000000E+02  0.51100000000E-03 0.  1.
         11   -1    0    0    0    0 -0.00000000000E+00 -0.00000000000E+00 -0.45593999997E+02  0.45594000000E+02  0.51100000000E-03 0. -1.
    9900012    2    1    2    0    0  0.79259495675E+00 -0.38418172051E+00 -0.78608480917E+00  0.90007435861E+02  0.89999693214E+02 0.  0.
        -12    1    1    2    0    0 -0.79259495675E+00  0.38418172051E+00  0.78608480917E+00  0.11805641393E+01  0.00000000000E+00 0.  1.
         11    1    3    3    0    0 -0.36381511495E+01  0.58419024263E+01  0.35262065224E+01  0.77329231500E+01  0.51100000000E-03 0. -1.
        -11    1    3    3    0    0  0.32847384045E+01 -0.16236838673E+02 -0.41004276904E+02  0.44224146811E+02  0.51100000000E-03 0.  1.
         12    1    3    3    0    0  0.11460077018E+01  0.10010754526E+02  0.36691985572E+02  0.38050365900E+02  0.00000000000E+00 0. -1.
</event>
<event>
 7    1  0.1716782E-015  0.9000783E+02  0.7816164E-02  0.1186339E+00
        -11   -1    0    0    0    0  0.00000000000E+00  0.00000000000E+00  0.45593999997E+02  0.45594000000E+02  0.51100000000E-03 0. -1.
         11   -1    0    0    0    0 -0.00000000000E+00 -0.00000000000E+00 -0.45593999997E+02  0.45594000000E+02  0.51100000000E-03 0.  1.
    9900012    2    1    2    0    0  0.64082095672E+00  0.87898441823E+00  0.45775969965E+00  0.90007826687E+02  0.90000089199E+02 0.  0.
        -12    1    1    2    0    0 -0.64082095672E+00 -0.87898441823E+00 -0.45775969965E+00  0.11801733130E+01  0.00000000000E+00 0.  1.
         11    1    3    3    0    0 -0.34776865564E+02  0.23124746230E+02 -0.52602345697E+01  0.42093400132E+02  0.51100000000E-03 0. -1.
        -11    1    3    3    0    0  0.77554001192E+01  0.45450217271E+01  0.41059419494E-01  0.89891679062E+01  0.51100000000E-03 0.  1.
        -12    1    3    3    0    0  0.27662286401E+02 -0.26790783539E+02  0.56769348498E+01  0.38925258649E+02  0.00000000000E+00 0.  1.
</event>
<event>
 7    1  0.1716782E-015  0.9000779E+02  0.7816164E-02  0.1186339E+00
        -11   -1    0    0    0    0  0.00000000000E+00  0.00000000000E+00  0.45593999997E+02  0.45594000000E+02  0.51100000000E-03 0.  1.
         11   -1    0    0    0    0 -0.00000000000E+00 -0.00000000000E+00 -0.45593999997E+02  0.45594000000E+02  0.51100000000E-03 0. -1.
    9900012    2    1    2    0    0  0.32754436396E+00  0.72208811420E+00 -0.87418381889E+00  0.90007790737E+02  0.90000052775E+02 0.  0.
        -12    1    1    2    0    0 -0.32754436396E+00 -0.72208811420E+00  0.87418381889E+00  0.11802092629E+01  0.00000000000E+00 0.  1.
         11    1    3    3    0    0  0.60000630410E+01  0.69370120752E+01  0.40892735851E+01  0.10042163698E+02  0.51100000000E-03 0. -1.
        -11    1    3    3    0    0  0.24500102418E+02  0.25328757660E+02 -0.82475486691E+01  0.36191477483E+02  0.51100000000E-03 0.  1.
         12    1    3    3    0    0 -0.30172621095E+02 -0.31543681621E+02  0.32840912651E+01  0.43774149556E+02  0.00000000000E+00 0. -1.
</event>
<event>
 7    1  0.1716782E-015  0.9000781E+02  0.7816164E-02  0.1186339E+00
        -11   -1    0    0    0    0  0.00000000000E+00  0.00000000000E+00  0.45593999997E+02  0.45594000000E+02  0.51100000000E-03 0. -1.
         11   -1    0    0    0    0 -0.00000000000E+00 -0.00000000000E+00 -0.45593999997E+02  0.45594000000E+02  0.51100000000E-03 0.  1.
    9900012    2    1    2    0    0  0.10573435796E+01 -0.38947989035E+00 -0.35095412831E+00  0.90007814070E+02  0.90000076415E+02 0.  0.
        -12    1    1    2    0    0 -0.10573435796E+01  0.38947989035E+00  0.35095412831E+00  0.11801859305E+01  0.00000000000E+00 0.  1.
         11    1    3    3    0    0  0.38047271093E+01  0.38292165966E+02 -0.54015526256E+01  0.38857981082E+02  0.51100000000E-03 0. -1.
        -11    1    3    3    0    0 -0.54919866494E+01 -0.17201772545E+01 -0.96840665520E+01  0.11265081997E+02  0.51100000000E-03 0.  1.
        -12    1    3    3    0    0  0.27446031197E+01 -0.36961468602E+02  0.14734665049E+02  0.39884750991E+02  0.00000000000E+00 0.  1.
</event>
<event>
 7    1  0.1716782E-015  0.9000755E+02  0.7816164E-02  0.1186339E+00
        -11   -1    0    0    0    0  0.00000000000E+00  0.00000000000E+00  0.45593999997E+02  0.45594000000E+02  0.51100000000E-03 0.  1.
         11   -1    0    0    0    0 -0.00000000000E+00 -0.00000000000E+00 -0.45593999997E+02  0.45594000000E+02  0.51100000000E-03 0. -1.
    9900012    2    1    2    0    0 -0.40467227475E+00  0.11053019484E+01 -0.89520477569E-01  0.90007548407E+02  0.89999807246E+02 0.  0.
        -12    1    1    2    0    0  0.40467227475E+00 -0.11053019484E+01  0.89520477569E-01  0.11804515928E+01  0.00000000000E+00 0.  1.
         11    1    3    3    0    0  0.98947112570E+01 -0.27651186185E+01  0.77704704648E+00  0.10303154576E+02  0.51100000000E-03 0. -1.
        -11    1    3    3    0    0  0.33201268685E+02 -0.86923673531E+01 -0.23608052934E+01  0.34401379251E+02  0.51100000000E-03 0.  1.
         12    1    3    3    0    0 -0.43500652216E+02  0.12562787920E+02  0.14942377694E+01  0.45303014581E+02  0.00000000000E+00 0. -1.
</event>
<event>
 7    1  0.1716782E-015  0.9000765E+02  0.7816164E-02  0.1186339E+00
        -11   -1    0    0    0    0  0.00000000000E+00  0.00000000000E+00  0.45593999997E+02  0.45594000000E+02  0.51100000000E-03 0. -1.
         11   -1    0    0    0    0 -0.00000000000E+00 -0.00000000000E+00 -0.45593999997E+02  0.45594000000E+02  0.51100000000E-03 0.  1.
    9900012    2    1    2    0    0 -0.10169912865E+01  0.11632389747E+00 -0.58772088948E+00  0.90007653284E+02  0.89999913507E+02 0.  0.
        -12    1    1    2    0    0  0.10169912865E+01 -0.11632389747E+00  0.58772088948E+00  0.11803467160E+01  0.00000000000E+00 0.  1.
         11    1    3    3    0    0  0.20986772264E+01  0.28455311396E+01 -0.66542253878E+01  0.75352643842E+01  0.51100000000E-03 0. -1.
        -11    1    3    3    0    0 -0.57132986176E+01  0.83334367839E+01 -0.36781047419E+02  0.38143589228E+02  0.51100000000E-03 0.  1.
         12    1    3    3    0    0  0.25976301047E+01 -0.11062644026E+02  0.42847551917E+02  0.44328799671E+02  0.00000000000E+00 0. -1.
</event>
<event>
 7    1  0.1716782E-015  0.9000777E+02  0.7816164E-02  0.1186339E+00
        -11   -1    0    0    0    0  0.00000000000E+00  0.00000000000E+00  0.45593999997E+02  0.45594000000E+02  0.51100000000E-03 0.  1.
         11   -1    0    0    0    0 -0.00000000000E+00 -0.00000000000E+00 -0.45593999997E+02  0.45594000000E+02  0.51100000000E-03 0. -1.
    9900012    2    1    2    0    0  0.44999025584E-01  0.11402603302E+01 -0.30119734960E+00  0.90007771896E+02  0.90000033685E+02 0.  0.
        -12    1    1    2    0    0 -0.44999025584E-01 -0.11402603302E+01  0.30119734960E+00  0.11802281035E+01  0.00000000000E+00 0.  1.
         11    1    3    3    0    0 -0.74352570962E+01  0.56670093220E+01  0.15192963801E+01  0.94713412194E+01  0.51100000000E-03 0. -1.
        -11    1    3    3    0    0 -0.31665837859E+02  0.11347107622E+01  0.17843328670E+02  0.36364780132E+02  0.51100000000E-03 0.  1.
         12    1    3    3    0    0  0.39146093981E+02 -0.56614597539E+01 -0.19663822399E+02  0.44171650545E+02  0.00000000000E+00 0. -1.
</event>
<event>
 7    1  0.1716782E-015  0.9000774E+02  0.7816164E-02  0.1186339E+00
        -11   -1    0    0    0    0  0.00000000000E+00  0.00000000000E+00  0.45593999997E+02  0.45594000000E+02  0.51100000000E-03 0.  1.
         11   -1    0    0    0    0 -0.00000000000E+00 -0.00000000000E+00 -0.45593999997E+02  0.45594000000E+02  0.51100000000E-03 0. -1.
    9900012    2    1    2    0    0 -0.10070491251E+01 -0.58392985011E+00 -0.19466294308E+00  0.90007739151E+02  0.90000000508E+02 0.  0.
        -12    1    1    2    0    0  0.10070491251E+01  0.58392985011E+00  0.19466294308E+00  0.11802608490E+01  0.00000000000E+00 0.  1.
         11    1    3    3    0    0 -0.10841684615E+02  0.29281002909E+02 -0.52747066486E+01  0.31666098388E+02  0.51100000000E-03 0. -1.
        -11    1    3    3    0    0 -0.79119801050E+01  0.10328329632E+02 -0.37207506257E+01  0.13532102854E+02  0.51100000000E-03 0.  1.
        -12    1    3    3    0    0  0.17746615595E+02 -0.40193262391E+02  0.88007943313E+01  0.44809537909E+02  0.00000000000E+00 0.  1.
</event>
<event>
 7    1  0.1716782E-015  0.9000774E+02  0.7816164E-02  0.1186339E+00
        -11   -1    0    0    0    0  0.00000000000E+00  0.00000000000E+00  0.45593999997E+02  0.45594000000E+02  0.51100000000E-03 0. -1.
         11   -1    0    0    0    0 -0.00000000000E+00 -0.00000000000E+00 -0.45593999997E+02  0.45594000000E+02  0.51100000000E-03 0.  1.
    9900012    2    1    2    0    0 -0.77214276548E-01 -0.11463753908E+01 -0.26994103651E+00  0.90007742933E+02  0.90000004340E+02 0.  0.
        -12    1    1    2    0    0  0.77214276548E-01  0.11463753908E+01  0.26994103651E+00  0.11802570670E+01  0.00000000000E+00 0.  1.
         11    1    3    3    0    0  0.87847343284E+01  0.31173494182E+01 -0.13926791302E+01  0.94249127336E+01  0.51100000000E-03 0. -1.
        -11    1    3    3    0    0  0.97466909982E+01  0.28023699998E+02 -0.21811756039E+02  0.36824970452E+02  0.51100000000E-03 0.  1.
         12    1    3    3    0    0 -0.18608639603E+02 -0.32287424807E+02  0.22934494133E+02  0.43757859748E+02  0.00000000000E+00 0. -1.
</event>
<event>
 7    1  0.1716782E-015  0.9000774E+02  0.7816164E-02  0.1186339E+00
        -11   -1    0    0    0    0  0.00000000000E+00  0.00000000000E+00  0.45593999997E+02  0.45594000000E+02  0.51100000000E-03 0. -1.
         11   -1    0    0    0    0 -0.00000000000E+00 -0.00000000000E+00 -0.45593999997E+02  0.45594000000E+02  0.51100000000E-03 0.  1.
    9900012    2    1    2    0    0  0.68583043506E+00  0.14053903358E+00  0.95020825223E+00  0.90007741415E+02  0.90000002801E+02 0.  0.
        -12    1    1    2    0    0 -0.68583043506E+00 -0.14053903358E+00 -0.95020825223E+00  0.11802585853E+01  0.00000000000E+00 0.  1.
         11    1    3    3    0    0 -0.23153585905E+02  0.13837510581E+02  0.21788367108E+02  0.34674171667E+02  0.51100000000E-03 0. -1.
        -11    1    3    3    0    0 -0.45975332174E+01  0.15837956785E+01  0.97283899456E+01  0.10875996121E+02  0.51100000000E-03 0.  1.
        -12    1    3    3    0    0  0.28436949557E+02 -0.15280767226E+02 -0.30566548801E+02  0.44457573626E+02  0.00000000000E+00 0.  1.
</event>
<event>
 7    1  0.1716782E-015  0.9000774E+02  0.7816164E-02  0.1186339E+00
        -11   -1    0    0    0    0  0.00000000000E+00  0.00000000000E+00  0.45593999997E+02  0.45594000000E+02  0.51100000000E-03 0.  1.
         11   -1    0    0    0    0 -0.00000000000E+00 -0.00000000000E+00 -0.45593999997E+02  0.45594000000E+02  0.51100000000E-03 0. -1.
    9900012    2    1    2    0    0 -0.19715823451E+00 -0.11117510337E+01  0.34374489618E+00  0.90007736350E+02  0.89999997670E+02 0.  0.
        -12    1    1    2    0    0  0.19715823451E+00  0.11117510337E+01 -0.34374489618E+00  0.11802636502E+01  0.00000000000E+00 0.  1.
         11    1    3    3    0    0  0.23073904584E+01 -0.48713915237E+01  0.68815046533E+01  0.87412592147E+01  0.51100000000E-03 0. -1.
        -11    1    3    3    0    0  0.38988011267E+02  0.57228740856E+01 -0.16419839447E+01  0.39439985064E+02  0.51100000000E-03 0.  1.
         12    1    3    3    0    0 -0.41492559960E+02 -0.19632335957E+01 -0.48957758124E+01  0.41826492071E+02  0.00000000000E+00 0. -1.
</event>
<event>
 7    1  0.1716782E-015  0.9000766E+02  0.7816164E-02  0.1186339E+00
        -11   -1    0    0    0    0  0.00000000000E+00  0.00000000000E+00  0.45593999997E+02  0.45594000000E+02  0.51100000000E-03 0.  1.
         11   -1    0    0    0    0 -0.00000000000E+00 -0.00000000000E+00 -0.45593999997E+02  0.45594000000E+02  0.51100000000E-03 0. -1.
    9900012    2    1    2    0    0 -0.24385198442E-01  0.11541379807E+01 -0.24611632856E+00  0.90007660064E+02  0.89999920377E+02 0.  0.
        -12    1    1    2    0    0  0.24385198442E-01 -0.11541379807E+01  0.24611632856E+00  0.11803399356E+01  0.00000000000E+00 0.  1.
         11    1    3    3    0    0 -0.74591296025E-01  0.35679615663E+00  0.10227454526E+02  0.10233948099E+02  0.51100000000E-03 0. -1.
        -11    1    3    3    0    0  0.10736229158E+01  0.16074209919E+02  0.31343745113E+02  0.35241498956E+02  0.51100000000E-03 0.  1.
         12    1    3    3    0    0 -0.10234168182E+01 -0.15276868095E+02 -0.41817315967E+02  0.44532213009E+02  0.00000000000E+00 0. -1.
</event>
<event>
 7    1  0.1716782E-015  0.9000771E+02  0.7816164E-02  0.1186339E+00
        -11   -1    0    0    0    0  0.00000000000E+00  0.00000000000E+00  0.45593999997E+02  0.45594000000E+02  0.51100000000E-03 0.  1.
         11   -1    0    0    0    0 -0.00000000000E+00 -0.00000000000E+00 -0.45593999997E+02  0.45594000000E+02  0.51100000000E-03 0. -1.
    9900012    2    1    2    0    0 -0.14614492395E+00 -0.91540863125E+00 -0.73059152416E+00  0.90007705428E+02  0.89999966340E+02 0.  0.
        -12    1    1    2    0    0  0.14614492395E+00  0.91540863125E+00  0.73059152416E+00  0.11802945718E+01  0.00000000000E+00 0.  1.
         11    1    3    3    0    0  0.16899005591E+01  0.95963224135E+00 -0.92105860801E+01  0.94133710295E+01  0.51100000000E-03 0. -1.
        -11    1    3    3    0    0  0.26135784550E+02  0.22445658647E+02 -0.14063150789E+02  0.37211006927E+02  0.51100000000E-03 0.  1.
         12    1    3    3    0    0 -0.27971830033E+02 -0.24320699520E+02  0.22543145345E+02  0.43383327472E+02  0.00000000000E+00 0. -1.
</event>
<event>
 7    1  0.1716782E-015  0.9000758E+02  0.7816164E-02  0.1186339E+00
        -11   -1    0    0    0    0  0.00000000000E+00  0.00000000000E+00  0.45593999997E+02  0.45594000000E+02  0.51100000000E-03 0.  1.
         11   -1    0    0    0    0 -0.00000000000E+00 -0.00000000000E+00 -0.45593999997E+02  0.45594000000E+02  0.51100000000E-03 0. -1.
    9900012    2    1    2    0    0  0.57317563333E+00  0.10087545977E+01  0.21741794277E+00  0.90007581978E+02  0.89999841260E+02 0.  0.
        -12    1    1    2    0    0 -0.57317563333E+00 -0.10087545977E+01 -0.21741794277E+00  0.11804180221E+01  0.00000000000E+00 0.  1.
         11    1    3    3    0    0  0.33547385424E+02 -0.91778694225E+01 -0.33132611379E+01  0.34937630937E+02  0.51100000000E-03 0. -1.
        -11    1    3    3    0    0  0.82867822376E+01 -0.33171627831E+01 -0.58253119781E+01  0.10658732978E+02  0.51100000000E-03 0.  1.
        -12    1    3    3    0    0 -0.41260992028E+02  0.13503786803E+02  0.93559910587E+01  0.44411218063E+02  0.00000000000E+00 0.  1.
</event>
<event>
 7    1  0.1716782E-015  0.9000770E+02  0.7816164E-02  0.1186339E+00
        -11   -1    0    0    0    0  0.00000000000E+00  0.00000000000E+00  0.45593999997E+02  0.45594000000E+02  0.51100000000E-03 0.  1.
         11   -1    0    0    0    0 -0.00000000000E+00 -0.00000000000E+00 -0.45593999997E+02  0.45594000000E+02  0.51100000000E-03 0. -1.
    9900012    2    1    2    0    0  0.19841017331E+00 -0.46709045040E+00 -0.10656296521E+01  0.90007700614E+02  0.89999961462E+02 0.  0.
        -12    1    1    2    0    0 -0.19841017331E+00  0.46709045040E+00  0.10656296521E+01  0.11802993862E+01  0.00000000000E+00 0.  1.
         11    1    3    3    0    0 -0.12108520404E+01 -0.68574573827E+01 -0.34765044589E+02  0.35455594903E+02  0.51100000000E-03 0. -1.
        -11    1    3    3    0    0 -0.23808362570E+01  0.24803348748E+00 -0.99888508923E+01  0.10271662198E+02  0.51100000000E-03 0.  1.
        -12    1    3    3    0    0  0.37900984707E+01  0.61423334448E+01  0.43688265829E+02  0.44280443513E+02  0.00000000000E+00 0.  1.
</event>
<event>
 7    1  0.1716782E-015  0.9000775E+02  0.7816164E-02  0.1186339E+00
        -11   -1    0    0    0    0  0.00000000000E+00  0.00000000000E+00  0.45593999997E+02  0.45594000000E+02  0.51100000000E-03 0. -1.
         11   -1    0    0    0    0 -0.00000000000E+00 -0.00000000000E+00 -0.45593999997E+02  0.45594000000E+02  0.51100000000E-03 0.  1.
    9900012    2    1    2    0    0 -0.11393028058E+01  0.13361123497E+00 -0.27771233118E+00  0.90007751304E+02  0.90000012821E+02 0.  0.
        -12    1    1    2    0    0  0.11393028058E+01 -0.13361123497E+00  0.27771233118E+00  0.11802486959E+01  0.00000000000E+00 0.  1.
         11    1    3    3    0    0  0.72007550726E+01 -0.28846423226E+01  0.44233121794E+01  0.89295983024E+01  0.51100000000E-03 0. -1.
        -11    1    3    3    0    0 -0.21335292451E+02 -0.78860268034E+01  0.32801972939E+02  0.39916832937E+02  0.51100000000E-03 0.  1.
         12    1    3    3    0    0  0.12995234573E+02  0.10904280361E+02 -0.37502997450E+02  0.41161320065E+02  0.00000000000E+00 0. -1.
</event>
<event>
 7    1  0.1716782E-015  0.9000772E+02  0.7816164E-02  0.1186339E+00
        -11   -1    0    0    0    0  0.00000000000E+00  0.00000000000E+00  0.45593999997E+02  0.45594000000E+02  0.51100000000E-03 0.  1.
         11   -1    0    0    0    0 -0.00000000000E+00 -0.00000000000E+00 -0.45593999997E+02  0.45594000000E+02  0.51100000000E-03 0. -1.
    9900012    2    1    2    0    0  0.13670532856E+00 -0.73338031214E+00 -0.91461841382E+00  0.90007719579E+02  0.89999980678E+02 0.  0.
        -12    1    1    2    0    0 -0.13670532856E+00  0.73338031214E+00  0.91461841382E+00  0.11802804209E+01  0.00000000000E+00 0.  1.
         11    1    3    3    0    0  0.72712143428E+01 -0.23452710461E+01  0.67097655778E+01  0.10168176271E+02  0.51100000000E-03 0. -1.
        -11    1    3    3    0    0 -0.17582980015E+02 -0.20240132799E+02  0.26694409859E+02  0.37834054500E+02  0.51100000000E-03 0.  1.
         12    1    3    3    0    0  0.10448471000E+02  0.21852023533E+02 -0.34318793851E+02  0.42005488809E+02  0.00000000000E+00 0. -1.
</event>
<event>
 7    1  0.1716782E-015  0.9000769E+02  0.7816164E-02  0.1186339E+00
        -11   -1    0    0    0    0  0.00000000000E+00  0.00000000000E+00  0.45593999997E+02  0.45594000000E+02  0.51100000000E-03 0.  1.
         11   -1    0    0    0    0 -0.00000000000E+00 -0.00000000000E+00 -0.45593999997E+02  0.45594000000E+02  0.51100000000E-03 0. -1.
    9900012    2    1    2    0    0  0.35896361547E+00  0.45036980780E+00 -0.10302677119E+01  0.90007686737E+02  0.89999947402E+02 0.  0.
        -12    1    1    2    0    0 -0.35896361547E+00 -0.45036980780E+00  0.10302677119E+01  0.11803132631E+01  0.00000000000E+00 0.  1.
         11    1    3    3    0    0  0.10926077517E+02 -0.20230282348E+02 -0.34696006379E+02  0.41622786460E+02  0.51100000000E-03 0. -1.
        -11    1    3    3    0    0  0.67413742495E+01  0.38849602620E+00  0.21249667987E+01  0.70790211252E+01  0.51100000000E-03 0.  1.
        -12    1    3    3    0    0 -0.17308488151E+02  0.20292156129E+02  0.31540771868E+02  0.41305879152E+02  0.00000000000E+00 0.  1.
</event>
<event>
 7    1  0.1716782E-015  0.9000791E+02  0.7816164E-02  0.1186339E+00
        -11   -1    0    0    0    0  0.00000000000E+00  0.00000000000E+00  0.45593999997E+02  0.45594000000E+02  0.51100000000E-03 0. -1.
         11   -1    0    0    0    0 -0.00000000000E+00 -0.00000000000E+00 -0.45593999997E+02  0.45594000000E+02  0.51100000000E-03 0.  1.
    9900012    2    1    2    0    0 -0.11327724813E+01  0.29686793148E+00  0.14596236971E+00  0.90007911412E+02  0.90000175042E+02 0.  0.
        -12    1    1    2    0    0  0.11327724813E+01 -0.29686793148E+00 -0.14596236971E+00  0.11800885884E+01  0.00000000000E+00 0.  1.
         11    1    3    3    0    0  0.14364399425E+02  0.16001381508E+02 -0.27203495601E+01  0.21674420015E+02  0.51100000000E-03 0. -1.
        -11    1    3    3    0    0 -0.42023428979E+01  0.15934789434E+02 -0.21313657833E+02  0.26941588866E+02  0.51100000000E-03 0.  1.
         12    1    3    3    0    0 -0.11294829008E+02 -0.31639303011E+02  0.24179969763E+02  0.41391902530E+02  0.00000000000E+00 0. -1.
</event>
<event>
 7    1  0.1716782E-015  0.9000780E+02  0.7816164E-02  0.1186339E+00
        -11   -1    0    0    0    0  0.00000000000E+00  0.00000000000E+00  0.45593999997E+02  0.45594000000E+02  0.51100000000E-03 0.  1.
         11   -1    0    0    0    0 -0.00000000000E+00 -0.00000000000E+00 -0.45593999997E+02  0.45594000000E+02  0.51100000000E-03 0. -1.
    9900012    2    1    2    0    0  0.79179019404E+00 -0.70437241401E+00 -0.51941688704E+00  0.90007802512E+02  0.90000064705E+02 0.  0.
        -12    1    1    2    0    0 -0.79179019404E+00  0.70437241401E+00  0.51941688704E+00  0.11801974884E+01  0.00000000000E+00 0.  1.
         11    1    3    3    0    0  0.24271551024E+02  0.17809744757E+02  0.26431845760E+02  0.40061673305E+02  0.51100000000E-03 0. -1.
        -11    1    3    3    0    0 -0.15761973620E+01  0.40911481238E+01  0.39027302408E+01  0.58696843773E+01  0.51100000000E-03 0.  1.
        -12    1    3    3    0    0 -0.21903563468E+02 -0.22605265295E+02 -0.30853992888E+02  0.44076444829E+02  0.00000000000E+00 0.  1.
</event>
<event>
 7    1  0.1959844E-015  0.9000772E+02  0.7816164E-02  0.1186339E+00
        -11   -1    0    0    0    0  0.00000000000E+00  0.00000000000E+00  0.45593999997E+02  0.45594000000E+02  0.51100000000E-03 0. -1.
         11   -1    0    0    0    0 -0.00000000000E+00 -0.00000000000E+00 -0.45593999997E+02  0.45594000000E+02  0.51100000000E-03 0.  1.
    9900012    2    1    2    0    0  0.80696191468E+00  0.78113912454E+00  0.36289778897E+00  0.90007720089E+02  0.89999981194E+02 0.  0.
        -12    1    1    2    0    0 -0.80696191468E+00 -0.78113912454E+00 -0.36289778897E+00  0.11802799112E+01  0.00000000000E+00 0.  1.
         11    1    3    3    0    0 -0.12262013212E+02 -0.40836572887E+01  0.34500997713E+02  0.36842259273E+02  0.51100000000E-03 0. -1.
        -11    1    3    3    0    0 -0.25365553009E+01 -0.56471366174E+01  0.61338130135E+01  0.87148107906E+01  0.51100000000E-03 0.  1.
        -12    1    3    3    0    0  0.15605530428E+02  0.10511933031E+02 -0.40271912938E+02  0.44450650025E+02  0.00000000000E+00 0.  1.
</event>
<event>
 7    1  0.1716782E-015  0.9000776E+02  0.7816164E-02  0.1186339E+00
        -11   -1    0    0    0    0  0.00000000000E+00  0.00000000000E+00  0.45593999997E+02  0.45594000000E+02  0.51100000000E-03 0. -1.
         11   -1    0    0    0    0 -0.00000000000E+00 -0.00000000000E+00 -0.45593999997E+02  0.45594000000E+02  0.51100000000E-03 0.  1.
    9900012    2    1    2    0    0 -0.10433728597E+01  0.51944464071E+00  0.18581571946E+00  0.90007755474E+02  0.90000017046E+02 0.  0.
        -12    1    1    2    0    0  0.10433728597E+01 -0.51944464071E+00 -0.18581571946E+00  0.11802445258E+01  0.00000000000E+00 0.  1.
         11    1    3    3    0    0  0.20059139170E+01  0.87115472371E+01  0.37809189369E+02  0.38851635061E+02  0.51100000000E-03 0. -1.
        -11    1    3    3    0    0  0.61148448693E+01 -0.90531774904E+01  0.14433228677E+01  0.11019733736E+02  0.51100000000E-03 0.  1.
        -12    1    3    3    0    0 -0.91641316459E+01  0.86107489394E+00 -0.39066696517E+02  0.40136386678E+02  0.00000000000E+00 0.  1.
</event>
<event>
 7    1  0.1716782E-015  0.9000783E+02  0.7816164E-02  0.1186339E+00
        -11   -1    0    0    0    0  0.00000000000E+00  0.00000000000E+00  0.45593999997E+02  0.45594000000E+02  0.51100000000E-03 0.  1.
         11   -1    0    0    0    0 -0.00000000000E+00 -0.00000000000E+00 -0.45593999997E+02  0.45594000000E+02  0.51100000000E-03 0. -1.
    9900012    2    1    2    0    0  0.10954657313E+01  0.27200350647E+00 -0.34464370679E+00  0.90007826131E+02  0.90000088636E+02 0.  0.
        -12    1    1    2    0    0 -0.10954657313E+01 -0.27200350647E+00  0.34464370679E+00  0.11801738688E+01  0.00000000000E+00 0.  1.
         11    1    3    3    0    0 -0.96609061308E+01  0.19950295289E+02 -0.37899506720E+02  0.43905808263E+02  0.51100000000E-03 0. -1.
        -11    1    3    3    0    0 -0.32146441503E+01 -0.60744950594E+01  0.66758242372E+01  0.95812346150E+01  0.51100000000E-03 0.  1.
        -12    1    3    3    0    0  0.13971016012E+02 -0.13603796724E+02  0.30879038776E+02  0.36520783253E+02  0.00000000000E+00 0.  1.
</event>
<event>
 7    1  0.1716782E-015  0.9000808E+02  0.7816164E-02  0.1186338E+00
        -11   -1    0    0    0    0  0.00000000000E+00  0.00000000000E+00  0.45593999997E+02  0.45594000000E+02  0.51100000000E-03 0. -1.
         11   -1    0    0    0    0 -0.00000000000E+00 -0.00000000000E+00 -0.45593999997E+02  0.45594000000E+02  0.51100000000E-03 0.  1.
    9900012    2    1    2    0    0 -0.30175136608E+00 -0.89215179879E+00  0.71079502396E+00  0.90008077000E+02  0.90000342816E+02 0.  0.
        -12    1    1    2    0    0  0.30175136608E+00  0.89215179879E+00 -0.71079502396E+00  0.11799229996E+01  0.00000000000E+00 0.  1.
         11    1    3    3    0    0  0.29510657786E+02 -0.10320246029E+02 -0.28362337955E+02  0.42211474928E+02  0.51100000000E-03 0. -1.
        -11    1    3    3    0    0 -0.36406211071E+01 -0.57242681677E+01  0.16705242795E+01  0.69865599354E+01  0.51100000000E-03 0.  1.
        -12    1    3    3    0    0 -0.26171788045E+02  0.15152362398E+02  0.27402608699E+02  0.40810042137E+02  0.00000000000E+00 0.  1.
</event>
<event>
 7    1  0.1716782E-015  0.9000775E+02  0.7816164E-02  0.1186339E+00
        -11   -1    0    0    0    0  0.00000000000E+00  0.00000000000E+00  0.45593999997E+02  0.45594000000E+02  0.51100000000E-03 0. -1.
         11   -1    0    0    0    0 -0.00000000000E+00 -0.00000000000E+00 -0.45593999997E+02  0.45594000000E+02  0.51100000000E-03 0.  1.
    9900012    2    1    2    0    0 -0.20799200762E+00  0.11100090700E+01  0.34292885211E+00  0.90007753836E+02  0.90000015386E+02 0.  0.
        -12    1    1    2    0    0  0.20799200762E+00 -0.11100090700E+01 -0.34292885211E+00  0.11802461643E+01  0.00000000000E+00 0.  1.
         11    1    3    3    0    0 -0.99939255839E+01 -0.31270503687E+02 -0.25326689021E+02  0.41462804131E+02  0.51100000000E-03 0. -1.
        -11    1    3    3    0    0  0.94916526756E+01  0.95242964866E+00  0.38654806003E+01  0.10292741777E+02  0.51100000000E-03 0.  1.
        -12    1    3    3    0    0  0.29428090067E+00  0.31428083109E+02  0.21804137273E+02  0.38252207928E+02  0.00000000000E+00 0.  1.
</event>
<event>
 7    1  0.1716782E-015  0.9000773E+02  0.7816164E-02  0.1186339E+00
        -11   -1    0    0    0    0  0.00000000000E+00  0.00000000000E+00  0.45593999997E+02  0.45594000000E+02  0.51100000000E-03 0.  1.
         11   -1    0    0    0    0 -0.00000000000E+00 -0.00000000000E+00 -0.45593999997E+02  0.45594000000E+02  0.51100000000E-03 0. -1.
    9900012    2    1    2    0    0 -0.10072952993E+01  0.26505702728E-01  0.61455886228E+00  0.90007733518E+02  0.89999994801E+02 0.  0.
        -12    1    1    2    0    0  0.10072952993E+01 -0.26505702728E-01 -0.61455886228E+00  0.11802664816E+01  0.00000000000E+00 0.  1.
         11    1    3    3    0    0 -0.80324228755E+01 -0.19255524390E+01 -0.18136361922E+01  0.84567633256E+01  0.51100000000E-03 0. -1.
        -11    1    3    3    0    0 -0.24986802504E+02  0.29452520887E+02 -0.41230228137E+01  0.38843153880E+02  0.51100000000E-03 0.  1.
         12    1    3    3    0    0  0.32011930080E+02 -0.27500462745E+02  0.65512178682E+01  0.42707816313E+02  0.00000000000E+00 0. -1.
</event>
<event>
 7    1  0.1716782E-015  0.9000771E+02  0.7816164E-02  0.1186339E+00
        -11   -1    0    0    0    0  0.00000000000E+00  0.00000000000E+00  0.45593999997E+02  0.45594000000E+02  0.51100000000E-03 0. -1.
         11   -1    0    0    0    0 -0.00000000000E+00 -0.00000000000E+00 -0.45593999997E+02  0.45594000000E+02  0.51100000000E-03 0.  1.
    9900012    2    1    2    0    0 -0.86854173961E+00  0.39880951468E+00  0.69259040949E+00  0.90007705436E+02  0.89999966348E+02 0.  0.
        -12    1    1    2    0    0  0.86854173961E+00 -0.39880951468E+00 -0.69259040949E+00  0.11802945640E+01  0.00000000000E+00 0.  1.
         11    1    3    3    0    0  0.81531592281E+01  0.31011688032E+02  0.25884808584E+02  0.41209490602E+02  0.51100000000E-03 0. -1.
        -11    1    3    3    0    0 -0.12777593914E+02 -0.76799362897E+01 -0.53731201531E+00  0.14917675157E+02  0.51100000000E-03 0.  1.
        -12    1    3    3    0    0  0.37558929459E+01 -0.22932942228E+02 -0.24654906159E+02  0.33880539676E+02  0.00000000000E+00 0.  1.
</event>
<event>
 7    1  0.1716782E-015  0.9000773E+02  0.7816164E-02  0.1186339E+00
        -11   -1    0    0    0    0  0.00000000000E+00  0.00000000000E+00  0.45593999997E+02  0.45594000000E+02  0.51100000000E-03 0.  1.
         11   -1    0    0    0    0 -0.00000000000E+00 -0.00000000000E+00 -0.45593999997E+02  0.45594000000E+02  0.51100000000E-03 0. -1.
    9900012    2    1    2    0    0  0.61410581845E+00  0.30133256422E+00  0.96182727526E+00  0.90007729278E+02  0.89999990504E+02 0.  0.
        -12    1    1    2    0    0 -0.61410581845E+00 -0.30133256422E+00 -0.96182727526E+00  0.11802707223E+01  0.00000000000E+00 0.  1.
         11    1    3    3    0    0  0.63334942665E+01 -0.27342064874E+01 -0.66931278357E+01  0.96118153970E+01  0.51100000000E-03 0. -1.
        -11    1    3    3    0    0  0.80130841459E+01  0.12022555462E+02  0.40869346184E+02  0.43348065875E+02  0.51100000000E-03 0.  1.
         12    1    3    3    0    0 -0.13732472594E+02 -0.89870164108E+01 -0.33214391073E+02  0.37047848006E+02  0.00000000000E+00 0. -1.
</event>
<event>
 7    1  0.1716782E-015  0.9000778E+02  0.7816164E-02  0.1186339E+00
        -11   -1    0    0    0    0  0.00000000000E+00  0.00000000000E+00  0.45593999997E+02  0.45594000000E+02  0.51100000000E-03 0. -1.
         11   -1    0    0    0    0 -0.00000000000E+00 -0.00000000000E+00 -0.45593999997E+02  0.45594000000E+02  0.51100000000E-03 0.  1.
    9900012    2    1    2    0    0  0.67378942714E+00 -0.54360213437E+00 -0.80214418188E+00  0.90007775123E+02  0.90000036954E+02 0.  0.
        -12    1    1    2    0    0 -0.67378942714E+00  0.54360213437E+00  0.80214418188E+00  0.11802248774E+01  0.00000000000E+00 0.  1.
         11    1    3    3    0    0  0.23552592434E+02 -0.27783143382E+02 -0.39271187537E+01  0.36633999625E+02  0.51100000000E-03 0. -1.
        -11    1    3    3    0    0  0.45682169187E+01 -0.59709315854E+01 -0.56504200930E+01  0.94046731630E+01  0.51100000000E-03 0.  1.
        -12    1    3    3    0    0 -0.27447019926E+02  0.33210472833E+02  0.87753946648E+01  0.43969102335E+02  0.00000000000E+00 0.  1.
</event>
<event>
 7    1  0.1716782E-015  0.9000780E+02  0.7816164E-02  0.1186339E+00
        -11   -1    0    0    0    0  0.00000000000E+00  0.00000000000E+00  0.45593999997E+02  0.45594000000E+02  0.51100000000E-03 0.  1.
         11   -1    0    0    0    0 -0.00000000000E+00 -0.00000000000E+00 -0.45593999997E+02  0.45594000000E+02  0.51100000000E-03 0. -1.
    9900012    2    1    2    0    0 -0.11496431344E+01  0.12686549005E+00  0.23472334942E+00  0.90007801186E+02  0.90000063362E+02 0.  0.
        -12    1    1    2    0    0  0.11496431344E+01 -0.12686549005E+00 -0.23472334942E+00  0.11801988137E+01  0.00000000000E+00 0.  1.
         11    1    3    3    0    0 -0.12408698200E+01  0.37839224961E+01 -0.90894638135E+01  0.99235165161E+01  0.51100000000E-03 0. -1.
        -11    1    3    3    0    0 -0.27141144251E+02 -0.20697195023E+02  0.26907251370E+02  0.43462809040E+02  0.51100000000E-03 0.  1.
         12    1    3    3    0    0  0.27232370937E+02  0.17040138017E+02 -0.17583064207E+02  0.36621475631E+02  0.00000000000E+00 0. -1.
</event>
<event>
 7    1  0.1716782E-015  0.9000796E+02  0.7816164E-02  0.1186339E+00
        -11   -1    0    0    0    0  0.00000000000E+00  0.00000000000E+00  0.45593999997E+02  0.45594000000E+02  0.51100000000E-03 0.  1.
         11   -1    0    0    0    0 -0.00000000000E+00 -0.00000000000E+00 -0.45593999997E+02  0.45594000000E+02  0.51100000000E-03 0. -1.
    9900012    2    1    2    0    0 -0.99545953614E+00  0.37086467355E+00 -0.51381320475E+00  0.90007964279E+02  0.90000228607E+02 0.  0.
        -12    1    1    2    0    0  0.99545953614E+00 -0.37086467355E+00  0.51381320475E+00  0.11800357213E+01  0.00000000000E+00 0.  1.
         11    1    3    3    0    0 -0.12008255963E+01  0.83460585325E+01 -0.27415434870E+01  0.88664951414E+01  0.51100000000E-03 0. -1.
        -11    1    3    3    0    0  0.12106813381E+02  0.31882790445E+02 -0.13488476037E+02  0.36674599423E+02  0.51100000000E-03 0.  1.
         12    1    3    3    0    0 -0.11901447321E+02 -0.39857984304E+02  0.15716206320E+02  0.44466869714E+02  0.00000000000E+00 0. -1.
</event>
<event>
 7    1  0.1716782E-015  0.9000773E+02  0.7816164E-02  0.1186339E+00
        -11   -1    0    0    0    0  0.00000000000E+00  0.00000000000E+00  0.45593999997E+02  0.45594000000E+02  0.51100000000E-03 0.  1.
         11   -1    0    0    0    0 -0.00000000000E+00 -0.00000000000E+00 -0.45593999997E+02  0.45594000000E+02  0.51100000000E-03 0. -1.
    9900012    2    1    2    0    0  0.82205865706E+00 -0.56278457529E+00 -0.63287566617E+00  0.90007729471E+02  0.89999990700E+02 0.  0.
        -12    1    1    2    0    0 -0.82205865706E+00  0.56278457529E+00  0.63287566617E+00  0.11802705294E+01  0.00000000000E+00 0.  1.
         11    1    3    3    0    0  0.22487440839E+02  0.12719950815E+02 -0.25705919794E+02  0.36445527256E+02  0.51100000000E-03 0. -1.
        -11    1    3    3    0    0  0.92842769805E+01 -0.39000781244E+01 -0.32405913494E+01  0.10578744773E+02  0.51100000000E-03 0.  1.
        -12    1    3    3    0    0 -0.30949659163E+02 -0.93826572656E+01  0.28313635477E+02  0.42983457441E+02  0.00000000000E+00 0.  1.
</event>
<event>
 7    1  0.1716782E-015  0.9000785E+02  0.7816164E-02  0.1186339E+00
        -11   -1    0    0    0    0  0.00000000000E+00  0.00000000000E+00  0.45593999997E+02  0.45594000000E+02  0.51100000000E-03 0.  1.
         11   -1    0    0    0    0 -0.00000000000E+00 -0.00000000000E+00 -0.45593999997E+02  0.45594000000E+02  0.51100000000E-03 0. -1.
    9900012    2    1    2    0    0 -0.10121786248E+01 -0.24123539857E+00 -0.55682618198E+00  0.90007849381E+02  0.90000112193E+02 0.  0.
        -12    1    1    2    0    0  0.10121786248E+01  0.24123539857E+00  0.55682618198E+00  0.11801506187E+01  0.00000000000E+00 0.  1.
         11    1    3    3    0    0  0.42084862229E+01  0.28371877669E+01  0.67766103629E+01  0.84666072889E+01  0.51100000000E-03 0. -1.
        -11    1    3    3    0    0  0.56736584751E+01  0.27099155035E+02  0.24040194288E+02  0.36667227135E+02  0.51100000000E-03 0.  1.
         12    1    3    3    0    0 -0.10894323323E+02 -0.30177578201E+02 -0.31373630833E+02  0.44874014957E+02  0.00000000000E+00 0. -1.
</event>
<event>
 7    1  0.1716782E-015  0.9000771E+02  0.7816164E-02  0.1186339E+00
        -11   -1    0    0    0    0  0.00000000000E+00  0.00000000000E+00  0.45593999997E+02  0.45594000000E+02  0.51100000000E-03 0.  1.
         11   -1    0    0    0    0 -0.00000000000E+00 -0.00000000000E+00 -0.45593999997E+02  0.45594000000E+02  0.51100000000E-03 0. -1.
    9900012    2    1    2    0    0 -0.62690735084E+00  0.57807352483E+00 -0.81603396717E+00  0.90007706281E+02  0.89999967204E+02 0.  0.
        -12    1    1    2    0    0  0.62690735084E+00 -0.57807352483E+00  0.81603396717E+00  0.11802937186E+01  0.00000000000E+00 0.  1.
         11    1    3    3    0    0 -0.31920501687E+02 -0.25766242363E+02 -0.44786118535E+01  0.41265913753E+02  0.51100000000E-03 0. -1.
        -11    1    3    3    0    0  0.40844188489E+01 -0.38046540391E+00 -0.78893440065E+01  0.88920740197E+01  0.51100000000E-03 0.  1.
        -12    1    3    3    0    0  0.27209175487E+02  0.26724781292E+02  0.11551921893E+02  0.39849718509E+02  0.00000000000E+00 0.  1.
</event>
<event>
 7    1  0.2134816E-015  0.9000775E+02  0.7816164E-02  0.1186339E+00
        -11   -1    0    0    0    0  0.00000000000E+00  0.00000000000E+00  0.45593999997E+02  0.45594000000E+02  0.51100000000E-03 0. -1.
         11   -1    0    0    0    0 -0.00000000000E+00 -0.00000000000E+00 -0.45593999997E+02  0.45594000000E+02  0.51100000000E-03 0.  1.
    9900012    2    1    2    0    0  0.51071021254E+00  0.10567548637E+01  0.12421961140E+00  0.90007751605E+02  0.90000013126E+02 0.  0.
        -12    1    1    2    0    0 -0.51071021254E+00 -0.10567548637E+01 -0.12421961140E+00  0.11802483954E+01  0.00000000000E+00 0.  1.
         11    1    3    3    0    0 -0.67876903957E+01  0.24273164806E+02  0.30243208430E+02  0.39368908125E+02  0.51100000000E-03 0. -1.
        -11    1    3    3    0    0 -0.12511559438E+01  0.81050499733E+01 -0.51949977802E+01  0.97079981697E+01  0.51100000000E-03 0.  1.
        -12    1    3    3    0    0  0.85495565521E+01 -0.31321459915E+02 -0.24923991038E+02  0.40930845309E+02  0.00000000000E+00 0.  1.
</event>
<event>
 7    1  0.1716782E-015  0.9000756E+02  0.7816164E-02  0.1186339E+00
        -11   -1    0    0    0    0  0.00000000000E+00  0.00000000000E+00  0.45593999997E+02  0.45594000000E+02  0.51100000000E-03 0. -1.
         11   -1    0    0    0    0 -0.00000000000E+00 -0.00000000000E+00 -0.45593999997E+02  0.45594000000E+02  0.51100000000E-03 0.  1.
    9900012    2    1    2    0    0 -0.21645465494E+00 -0.11437779881E+01 -0.19583831733E+00  0.90007562221E+02  0.89999821242E+02 0.  0.
        -12    1    1    2    0    0  0.21645465494E+00  0.11437779881E+01  0.19583831733E+00  0.11804377790E+01  0.00000000000E+00 0.  1.
         11    1    3    3    0    0 -0.86538694686E+01 -0.40979785963E+01 -0.23121966095E+01  0.98503369880E+01  0.51100000000E-03 0. -1.
        -11    1    3    3    0    0  0.20479607767E+02  0.18716699368E+02 -0.30970395114E+02  0.41579977674E+02  0.51100000000E-03 0.  1.
         12    1    3    3    0    0 -0.12042192954E+02 -0.15762498760E+02  0.33086753406E+02  0.38577247559E+02  0.00000000000E+00 0. -1.
</event>
<event>
 7    1  0.1716782E-015  0.9000727E+02  0.7816164E-02  0.1186340E+00
        -11   -1    0    0    0    0  0.00000000000E+00  0.00000000000E+00  0.45593999997E+02  0.45594000000E+02  0.51100000000E-03 0. -1.
         11   -1    0    0    0    0 -0.00000000000E+00 -0.00000000000E+00 -0.45593999997E+02  0.45594000000E+02  0.51100000000E-03 0.  1.
    9900012    2    1    2    0    0  0.30867599284E+00  0.11148264562E+01 -0.23664504650E+00  0.90007271507E+02  0.89999526690E+02 0.  0.
        -12    1    1    2    0    0 -0.30867599284E+00 -0.11148264562E+01  0.23664504650E+00  0.11807284929E+01  0.00000000000E+00 0.  1.
         11    1    3    3    0    0  0.15956250236E+01  0.46305712088E+01 -0.85840904767E+01  0.98830571439E+01  0.51100000000E-03 0. -1.
        -11    1    3    3    0    0  0.20109390062E+02  0.32237641841E+02  0.50064573611E+01  0.38323853351E+02  0.51100000000E-03 0.  1.
         12    1    3    3    0    0 -0.21396339093E+02 -0.35753386593E+02  0.33409880691E+01  0.41800361012E+02  0.00000000000E+00 0. -1.
</event>
<event>
 7    1  0.1716782E-015  0.9000759E+02  0.7816164E-02  0.1186339E+00
        -11   -1    0    0    0    0  0.00000000000E+00  0.00000000000E+00  0.45593999997E+02  0.45594000000E+02  0.51100000000E-03 0. -1.
         11   -1    0    0    0    0 -0.00000000000E+00 -0.00000000000E+00 -0.45593999997E+02  0.45594000000E+02  0.51100000000E-03 0.  1.
    9900012    2    1    2    0    0  0.60708106312E+00  0.84169526002E+00  0.56246612621E+00  0.90007590549E+02  0.89999849945E+02 0.  0.
        -12    1    1    2    0    0 -0.60708106312E+00 -0.84169526002E+00 -0.56246612621E+00  0.11804094506E+01  0.00000000000E+00 0.  1.
         11    1    3    3    0    0 -0.10728156916E+01 -0.31080840995E+02  0.20002841513E+02  0.36976793795E+02  0.51100000000E-03 0. -1.
        -11    1    3    3    0    0  0.36204576587E+01 -0.49229451109E+01  0.57214586790E+01  0.83712718209E+01  0.51100000000E-03 0.  1.
        -12    1    3    3    0    0 -0.19405609041E+01  0.36845481366E+02 -0.25161834066E+02  0.44659524934E+02  0.00000000000E+00 0.  1.
</event>
<event>
 7    1  0.1716782E-015  0.9000764E+02  0.7816164E-02  0.1186339E+00
        -11   -1    0    0    0    0  0.00000000000E+00  0.00000000000E+00  0.45593999997E+02  0.45594000000E+02  0.51100000000E-03 0.  1.
         11   -1    0    0    0    0 -0.00000000000E+00 -0.00000000000E+00 -0.45593999997E+02  0.45594000000E+02  0.51100000000E-03 0. -1.
    9900012    2    1    2    0    0 -0.39531284332E-01 -0.65564153260E+00 -0.98072178856E+00  0.90007642525E+02  0.89999902607E+02 0.  0.
        -12    1    1    2    0    0  0.39531284332E-01  0.65564153260E+00  0.98072178856E+00  0.11803574748E+01  0.00000000000E+00 0.  1.
         11    1    3    3    0    0 -0.10108973665E+01 -0.83747751964E+01 -0.32245621588E+01  0.90308678682E+01  0.51100000000E-03 0. -1.
        -11    1    3    3    0    0  0.44288105742E+01 -0.13069292034E+02  0.37468817496E+02  0.39929100193E+02  0.51100000000E-03 0.  1.
         12    1    3    3    0    0 -0.34574444921E+01  0.20788425698E+02 -0.35224977126E+02  0.41047674464E+02  0.00000000000E+00 0. -1.
</event>
<event>
 7    1  0.1716782E-015  0.9000773E+02  0.7816164E-02  0.1186339E+00
        -11   -1    0    0    0    0  0.00000000000E+00  0.00000000000E+00  0.45593999997E+02  0.45594000000E+02  0.51100000000E-03 0.  1.
         11   -1    0    0    0    0 -0.00000000000E+00 -0.00000000000E+00 -0.45593999997E+02  0.45594000000E+02  0.51100000000E-03 0. -1.
    9900012    2    1    2    0    0  0.98612728513E+00  0.16864091240E+00 -0.62621787528E+00  0.90007730706E+02  0.89999991951E+02 0.  0.
        -12    1    1    2    0    0 -0.98612728513E+00 -0.16864091240E+00  0.62621787528E+00  0.11802692943E+01  0.00000000000E+00 0.  1.
         11    1    3    3    0    0 -0.84143410388E+01  0.21406884064E+01 -0.14100249956E+01  0.87961271432E+01  0.51100000000E-03 0. -1.
        -11    1    3    3    0    0  0.13569074548E+02  0.29586345329E+02  0.25141865970E+02  0.41128883266E+02  0.51100000000E-03 0.  1.
         12    1    3    3    0    0 -0.41686062240E+01 -0.31558392823E+02 -0.24358058850E+02  0.40082720296E+02  0.00000000000E+00 0. -1.
</event>
<event>
 7    1  0.1716782E-015  0.9000778E+02  0.7816164E-02  0.1186339E+00
        -11   -1    0    0    0    0  0.00000000000E+00  0.00000000000E+00  0.45593999997E+02  0.45594000000E+02  0.51100000000E-03 0.  1.
         11   -1    0    0    0    0 -0.00000000000E+00 -0.00000000000E+00 -0.45593999997E+02  0.45594000000E+02  0.51100000000E-03 0. -1.
    9900012    2    1    2    0    0  0.28238579482E+00  0.81905644783E+00 -0.80144490845E+00  0.90007784281E+02  0.90000046234E+02 0.  0.
        -12    1    1    2    0    0 -0.28238579482E+00 -0.81905644783E+00  0.80144490845E+00  0.11802157189E+01  0.00000000000E+00 0.  1.
         11    1    3    3    0    0  0.35749181193E+02  0.17441012274E+02  0.78499946975E+01  0.40543991937E+02  0.51100000000E-03 0. -1.
        -11    1    3    3    0    0 -0.27190274177E+01 -0.43588492308E+01  0.89466352832E+01  0.10316732034E+02  0.51100000000E-03 0.  1.
        -12    1    3    3    0    0 -0.32747767981E+02 -0.12263106596E+02 -0.17598074889E+02  0.39147060310E+02  0.00000000000E+00 0.  1.
</event>
<event>
 7    1  0.1716782E-015  0.9000743E+02  0.7816164E-02  0.1186340E+00
        -11   -1    0    0    0    0  0.00000000000E+00  0.00000000000E+00  0.45593999997E+02  0.45594000000E+02  0.51100000000E-03 0. -1.
         11   -1    0    0    0    0 -0.00000000000E+00 -0.00000000000E+00 -0.45593999997E+02  0.45594000000E+02  0.51100000000E-03 0.  1.
    9900012    2    1    2    0    0 -0.17294245948E+00  0.41825805231E+00  0.10903605799E+01  0.90007434421E+02  0.89999691755E+02 0.  0.
        -12    1    1    2    0    0  0.17294245948E+00 -0.41825805231E+00 -0.10903605799E+01  0.11805655792E+01  0.00000000000E+00 0.  1.
         11    1    3    3    0    0 -0.39014062030E+01 -0.66932606417E+00  0.10454039505E+02  0.11178367948E+02  0.51100000000E-03 0. -1.
        -11    1    3    3    0    0 -0.13048138536E+02 -0.34089971243E+02  0.58959787350E+01  0.36974891806E+02  0.51100000000E-03 0.  1.
         12    1    3    3    0    0  0.16776602279E+02  0.35177555359E+02 -0.15259657660E+02  0.41854174666E+02  0.00000000000E+00 0. -1.
</event>
<event>
 7    1  0.1716782E-015  0.9000782E+02  0.7816164E-02  0.1186339E+00
        -11   -1    0    0    0    0  0.00000000000E+00  0.00000000000E+00  0.45593999997E+02  0.45594000000E+02  0.51100000000E-03 0.  1.
         11   -1    0    0    0    0 -0.00000000000E+00 -0.00000000000E+00 -0.45593999997E+02  0.45594000000E+02  0.51100000000E-03 0. -1.
    9900012    2    1    2    0    0 -0.97858653728E+00  0.39173626004E+00  0.53079383697E+00  0.90007817385E+02  0.90000079774E+02 0.  0.
        -12    1    1    2    0    0  0.97858653728E+00 -0.39173626004E+00 -0.53079383697E+00  0.11801826154E+01  0.00000000000E+00 0.  1.
         11    1    3    3    0    0 -0.13390836320E+00  0.11326153430E+02 -0.99984881447E-01  0.11327386292E+02  0.51100000000E-03 0. -1.
        -11    1    3    3    0    0 -0.91748819824E+01  0.29888700730E+02 -0.14354730924E+02  0.34403069498E+02  0.51100000000E-03 0.  1.
         12    1    3    3    0    0  0.83302038083E+01 -0.40823117900E+02  0.14985509642E+02  0.44277361595E+02  0.00000000000E+00 0. -1.
</event>
<event>
 7    1  0.1716782E-015  0.9000780E+02  0.7816164E-02  0.1186339E+00
        -11   -1    0    0    0    0  0.00000000000E+00  0.00000000000E+00  0.45593999997E+02  0.45594000000E+02  0.51100000000E-03 0.  1.
         11   -1    0    0    0    0 -0.00000000000E+00 -0.00000000000E+00 -0.45593999997E+02  0.45594000000E+02  0.51100000000E-03 0. -1.
    9900012    2    1    2    0    0  0.10935981792E+01 -0.28846002926E+00  0.33721667743E+00  0.90007796097E+02  0.90000058205E+02 0.  0.
        -12    1    1    2    0    0 -0.10935981792E+01  0.28846002926E+00 -0.33721667743E+00  0.11802039034E+01  0.00000000000E+00 0.  1.
         11    1    3    3    0    0 -0.44807799411E+01  0.15066959808E+02 -0.39980782933E+02  0.42959907716E+02  0.51100000000E-03 0. -1.
        -11    1    3    3    0    0  0.50070372661E+01  0.29436876209E+01  0.77248309916E+01  0.96648193518E+01  0.51100000000E-03 0.  1.
        -12    1    3    3    0    0  0.56734085423E+00 -0.18299107458E+02  0.32593168619E+02  0.37383069029E+02  0.00000000000E+00 0.  1.
</event>
<event>
 7    1  0.1716782E-015  0.9000774E+02  0.7816164E-02  0.1186339E+00
        -11   -1    0    0    0    0  0.00000000000E+00  0.00000000000E+00  0.45593999997E+02  0.45594000000E+02  0.51100000000E-03 0.  1.
         11   -1    0    0    0    0 -0.00000000000E+00 -0.00000000000E+00 -0.45593999997E+02  0.45594000000E+02  0.51100000000E-03 0. -1.
    9900012    2    1    2    0    0  0.95248483420E+00 -0.16340284579E+00  0.67756429235E+00  0.90007736801E+02  0.89999998126E+02 0.  0.
        -12    1    1    2    0    0 -0.95248483420E+00  0.16340284579E+00 -0.67756429235E+00  0.11802631993E+01  0.00000000000E+00 0.  1.
         11    1    3    3    0    0 -0.32615418117E+01  0.71780641328E+01 -0.41313852327E+01  0.89011574464E+01  0.51100000000E-03 0. -1.
        -11    1    3    3    0    0 -0.16263945684E+02 -0.10963927579E+02  0.37524099058E+02  0.42341252314E+02  0.51100000000E-03 0.  1.
         12    1    3    3    0    0  0.20477972330E+02  0.36224606001E+01 -0.32715149533E+02  0.38765327040E+02  0.00000000000E+00 0. -1.
</event>
<event>
 7    1  0.1716782E-015  0.9000776E+02  0.7816164E-02  0.1186339E+00
        -11   -1    0    0    0    0  0.00000000000E+00  0.00000000000E+00  0.45593999997E+02  0.45594000000E+02  0.51100000000E-03 0. -1.
         11   -1    0    0    0    0 -0.00000000000E+00 -0.00000000000E+00 -0.45593999997E+02  0.45594000000E+02  0.51100000000E-03 0.  1.
    9900012    2    1    2    0    0  0.65203116925E+00 -0.32824024328E-02  0.98377937857E+00  0.90007755413E+02  0.90000016984E+02 0.  0.
        -12    1    1    2    0    0 -0.65203116925E+00  0.32824024328E-02 -0.98377937857E+00  0.11802445872E+01  0.00000000000E+00 0.  1.
         11    1    3    3    0    0  0.24898840827E+02  0.51701941753E+01  0.15880180123E+02  0.29981049070E+02  0.51100000000E-03 0. -1.
        -11    1    3    3    0    0  0.11395980107E+02  0.16539987804E+01 -0.20297177566E+02  0.23336227029E+02  0.51100000000E-03 0.  1.
        -12    1    3    3    0    0 -0.35642789765E+02 -0.68274753581E+01  0.54007768214E+01  0.36690479313E+02  0.00000000000E+00 0.  1.
</event>
<event>
 7    1  0.1716782E-015  0.9000770E+02  0.7816164E-02  0.1186339E+00
        -11   -1    0    0    0    0  0.00000000000E+00  0.00000000000E+00  0.45593999997E+02  0.45594000000E+02  0.51100000000E-03 0. -1.
         11   -1    0    0    0    0 -0.00000000000E+00 -0.00000000000E+00 -0.45593999997E+02  0.45594000000E+02  0.51100000000E-03 0.  1.
    9900012    2    1    2    0    0  0.10062441507E+01 -0.52780403913E+00 -0.31936673738E+00  0.90007703636E+02  0.89999964524E+02 0.  0.
        -12    1    1    2    0    0 -0.10062441507E+01  0.52780403913E+00  0.31936673738E+00  0.11802963643E+01  0.00000000000E+00 0.  1.
         11    1    3    3    0    0 -0.18343631968E+02  0.23623757470E+02  0.21864382612E+02  0.37048913319E+02  0.51100000000E-03 0. -1.
        -11    1    3    3    0    0 -0.91627608978E+01 -0.49084299346E+01  0.24127627768E+01  0.10671002585E+02  0.51100000000E-03 0.  1.
        -12    1    3    3    0    0  0.28512637017E+02 -0.19243131575E+02 -0.24596512127E+02  0.42287787732E+02  0.00000000000E+00 0.  1.
</event>
<event>
 7    1  0.1716782E-015  0.9000775E+02  0.7816164E-02  0.1186339E+00
        -11   -1    0    0    0    0  0.00000000000E+00  0.00000000000E+00  0.45593999997E+02  0.45594000000E+02  0.51100000000E-03 0. -1.
         11   -1    0    0    0    0 -0.00000000000E+00 -0.00000000000E+00 -0.45593999997E+02  0.45594000000E+02  0.51100000000E-03 0.  1.
    9900012    2    1    2    0    0  0.29982636589E+00  0.75329100955E+00  0.85769483147E+00  0.90007752730E+02  0.90000014266E+02 0.  0.
        -12    1    1    2    0    0 -0.29982636589E+00 -0.75329100955E+00 -0.85769483147E+00  0.11802472701E+01  0.00000000000E+00 0.  1.
         11    1    3    3    0    0 -0.54463950290E+01 -0.18700223961E+02  0.35402741714E+02  0.40406877090E+02  0.51100000000E-03 0. -1.
        -11    1    3    3    0    0 -0.83175596056E+01 -0.86583780859E+00 -0.17599649090E+01  0.85456977273E+01  0.51100000000E-03 0.  1.
        -12    1    3    3    0    0  0.14063781000E+02  0.20319352779E+02 -0.32785081974E+02  0.41055177913E+02  0.00000000000E+00 0.  1.
</event>
<event>
 7    1  0.1716782E-015  0.9000774E+02  0.7816164E-02  0.1186339E+00
        -11   -1    0    0    0    0  0.00000000000E+00  0.00000000000E+00  0.45593999997E+02  0.45594000000E+02  0.51100000000E-03 0. -1.
         11   -1    0    0    0    0 -0.00000000000E+00 -0.00000000000E+00 -0.45593999997E+02  0.45594000000E+02  0.51100000000E-03 0.  1.
    9900012    2    1    2    0    0 -0.23980381716E+00  0.81581892734E+00  0.81849731990E+00  0.90007743987E+02  0.90000005408E+02 0.  0.
        -12    1    1    2    0    0  0.23980381716E+00 -0.81581892734E+00 -0.81849731990E+00  0.11802560127E+01  0.00000000000E+00 0.  1.
         11    1    3    3    0    0 -0.47954966700E+01 -0.62427950638E+01  0.18847864622E+00  0.78743128578E+01  0.51100000000E-03 0. -1.
        -11    1    3    3    0    0 -0.34590510046E+02  0.11523153247E+02  0.16033952841E+02  0.39829311945E+02  0.51100000000E-03 0.  1.
         12    1    3    3    0    0  0.39146202899E+02 -0.44645392558E+01 -0.15403934168E+02  0.42304119185E+02  0.00000000000E+00 0. -1.
</event>
<event>
 7    1  0.1716782E-015  0.9000773E+02  0.7816164E-02  0.1186339E+00
        -11   -1    0    0    0    0  0.00000000000E+00  0.00000000000E+00  0.45593999997E+02  0.45594000000E+02  0.51100000000E-03 0.  1.
         11   -1    0    0    0    0 -0.00000000000E+00 -0.00000000000E+00 -0.45593999997E+02  0.45594000000E+02  0.51100000000E-03 0. -1.
    9900012    2    1    2    0    0 -0.56283202393E+00 -0.53303128987E+00  0.89001967491E+00  0.90007730003E+02  0.89999991239E+02 0.  0.
        -12    1    1    2    0    0  0.56283202393E+00  0.53303128987E+00 -0.89001967491E+00  0.11802699966E+01  0.00000000000E+00 0.  1.
         11    1    3    3    0    0  0.33994346715E+02 -0.15732380835E+02 -0.56516169136E+01  0.37882241081E+02  0.51100000000E-03 0. -1.
        -11    1    3    3    0    0  0.42365289855E+01 -0.54709938433E-01  0.94325131707E+01  0.10340380844E+02  0.51100000000E-03 0.  1.
        -12    1    3    3    0    0 -0.38793707724E+02  0.15254059484E+02 -0.28908765822E+01  0.41785108079E+02  0.00000000000E+00 0.  1.
</event>
<event>
 7    1  0.1716782E-015  0.9000757E+02  0.7816164E-02  0.1186339E+00
        -11   -1    0    0    0    0  0.00000000000E+00  0.00000000000E+00  0.45593999997E+02  0.45594000000E+02  0.51100000000E-03 0. -1.
         11   -1    0    0    0    0 -0.00000000000E+00 -0.00000000000E+00 -0.45593999997E+02  0.45594000000E+02  0.51100000000E-03 0.  1.
    9900012    2    1    2    0    0  0.11205333531E+01 -0.21697153813E+00 -0.30122900361E+00  0.90007571876E+02  0.89999831024E+02 0.  0.
        -12    1    1    2    0    0 -0.11205333531E+01  0.21697153813E+00  0.30122900361E+00  0.11804281242E+01  0.00000000000E+00 0.  1.
         11    1    3    3    0    0 -0.38330797805E+02  0.47959994803E+01 -0.13639734604E+01  0.38653746199E+02  0.51100000000E-03 0. -1.
        -11    1    3    3    0    0 -0.10447210435E+01  0.72381417228E+01  0.50051373900E+01  0.88619150421E+01  0.51100000000E-03 0.  1.
        -12    1    3    3    0    0  0.40496052202E+02 -0.12251112741E+02 -0.39423929332E+01  0.42491910634E+02  0.00000000000E+00 0.  1.
</event>
<event>
 7    1  0.1716782E-015  0.9000789E+02  0.7816164E-02  0.1186339E+00
        -11   -1    0    0    0    0  0.00000000000E+00  0.00000000000E+00  0.45593999997E+02  0.45594000000E+02  0.51100000000E-03 0.  1.
         11   -1    0    0    0    0 -0.00000000000E+00 -0.00000000000E+00 -0.45593999997E+02  0.45594000000E+02  0.51100000000E-03 0. -1.
    9900012    2    1    2    0    0  0.47689240104E+00 -0.63747630741E+00  0.87112842249E+00  0.90007886813E+02  0.90000150119E+02 0.  0.
        -12    1    1    2    0    0 -0.47689240104E+00  0.63747630741E+00 -0.87112842249E+00  0.11801131866E+01  0.00000000000E+00 0.  1.
         11    1    3    3    0    0  0.15086712406E+01  0.34697368101E+01  0.62388289669E+01  0.72964477373E+01  0.51100000000E-03 0. -1.
        -11    1    3    3    0    0  0.11657050520E+02 -0.37843441874E+01  0.36741026052E+02  0.38731267516E+02  0.51100000000E-03 0.  1.
         12    1    3    3    0    0 -0.12688829359E+02 -0.32286893008E+00 -0.42108726597E+02  0.43980171560E+02  0.00000000000E+00 0. -1.
</event>
<event>
 7    1  0.1716782E-015  0.9000772E+02  0.7816164E-02  0.1186339E+00
        -11   -1    0    0    0    0  0.00000000000E+00  0.00000000000E+00  0.45593999997E+02  0.45594000000E+02  0.51100000000E-03 0.  1.
         11   -1    0    0    0    0 -0.00000000000E+00 -0.00000000000E+00 -0.45593999997E+02  0.45594000000E+02  0.51100000000E-03 0. -1.
    9900012    2    1    2    0    0  0.96049766457E+00  0.26267279342E+00  0.63364965252E+00  0.90007718406E+02  0.89999979489E+02 0.  0.
        -12    1    1    2    0    0 -0.96049766457E+00 -0.26267279342E+00 -0.63364965252E+00  0.11802815944E+01  0.00000000000E+00 0.  1.
         11    1    3    3    0    0 -0.53284810428E+01 -0.10427816167E+01  0.77958115286E+01  0.95002516479E+01  0.51100000000E-03 0. -1.
        -11    1    3    3    0    0  0.30433833592E+02  0.24262152802E+02  0.13625883946E+02  0.41237543565E+02  0.51100000000E-03 0.  1.
         12    1    3    3    0    0 -0.24144854885E+02 -0.22956698391E+02 -0.20788045823E+02  0.39269923193E+02  0.00000000000E+00 0. -1.
</event>
<event>
 7    1  0.1716782E-015  0.9000770E+02  0.7816164E-02  0.1186339E+00
        -11   -1    0    0    0    0  0.00000000000E+00  0.00000000000E+00  0.45593999997E+02  0.45594000000E+02  0.51100000000E-03 0. -1.
         11   -1    0    0    0    0 -0.00000000000E+00 -0.00000000000E+00 -0.45593999997E+02  0.45594000000E+02  0.51100000000E-03 0.  1.
    9900012    2    1    2    0    0  0.11310414873E+01  0.15454126764E+00  0.29993365692E+00  0.90007704254E+02  0.89999965150E+02 0.  0.
        -12    1    1    2    0    0 -0.11310414873E+01 -0.15454126764E+00 -0.29993365692E+00  0.11802957459E+01  0.00000000000E+00 0.  1.
         11    1    3    3    0    0 -0.26537028871E+02  0.20984621536E+02  0.25830509351E+02  0.42565049699E+02  0.51100000000E-03 0. -1.
        -11    1    3    3    0    0  0.98853204727E+01  0.24232820014E+01 -0.33506129864E+01  0.10715337799E+02  0.51100000000E-03 0.  1.
        -12    1    3    3    0    0  0.17782749886E+02 -0.23253362270E+02 -0.22179962707E+02  0.36727316756E+02  0.00000000000E+00 0.  1.
</event>
<event>
 7    1  0.1716782E-015  0.9000771E+02  0.7816164E-02  0.1186339E+00
        -11   -1    0    0    0    0  0.00000000000E+00  0.00000000000E+00  0.45593999997E+02  0.45594000000E+02  0.51100000000E-03 0.  1.
         11   -1    0    0    0    0 -0.00000000000E+00 -0.00000000000E+00 -0.45593999997E+02  0.45594000000E+02  0.51100000000E-03 0. -1.
    9900012    2    1    2    0    0  0.14347521442E+00 -0.10634628164E+01  0.49147777389E+00  0.90007708214E+02  0.89999969162E+02 0.  0.
        -12    1    1    2    0    0 -0.14347521442E+00  0.10634628164E+01 -0.49147777389E+00  0.11802917864E+01  0.00000000000E+00 0.  1.
         11    1    3    3    0    0  0.22005261621E+02  0.76482370270E+01 -0.27781682302E+02  0.36256708902E+02  0.51100000000E-03 0. -1.
        -11    1    3    3    0    0  0.70225944440E+01 -0.72295702275E+01 -0.36083104716E+01  0.10705298834E+02  0.51100000000E-03 0.  1.
        -12    1    3    3    0    0 -0.28884380851E+02 -0.14821296158E+01  0.31881470547E+02  0.43045700477E+02  0.00000000000E+00 0.  1.
</event>
<event>
 7    1  0.1716782E-015  0.9000773E+02  0.7816164E-02  0.1186339E+00
        -11   -1    0    0    0    0  0.00000000000E+00  0.00000000000E+00  0.45593999997E+02  0.45594000000E+02  0.51100000000E-03 0.  1.
         11   -1    0    0    0    0 -0.00000000000E+00 -0.00000000000E+00 -0.45593999997E+02  0.45594000000E+02  0.51100000000E-03 0. -1.
    9900012    2    1    2    0    0 -0.36534003171E+00 -0.49101865039E+00 -0.10091936750E+01  0.90007726927E+02  0.89999988122E+02 0.  0.
        -12    1    1    2    0    0  0.36534003171E+00  0.49101865039E+00  0.10091936750E+01  0.11802730733E+01  0.00000000000E+00 0.  1.
         11    1    3    3    0    0 -0.30437228973E+01  0.74679454185E+01 -0.73374630443E+00  0.80977059560E+01  0.51100000000E-03 0. -1.
        -11    1    3    3    0    0 -0.27930926214E+02  0.23728227272E+02 -0.70915102980E+01  0.37329009192E+02  0.51100000000E-03 0.  1.
         12    1    3    3    0    0  0.30609309080E+02 -0.31687191341E+02  0.68160629275E+01  0.44581011779E+02  0.00000000000E+00 0. -1.
</event>
<event>
 7    1  0.1716782E-015  0.9000781E+02  0.7816164E-02  0.1186339E+00
        -11   -1    0    0    0    0  0.00000000000E+00  0.00000000000E+00  0.45593999997E+02  0.45594000000E+02  0.51100000000E-03 0.  1.
         11   -1    0    0    0    0 -0.00000000000E+00 -0.00000000000E+00 -0.45593999997E+02  0.45594000000E+02  0.51100000000E-03 0. -1.
    9900012    2    1    2    0    0  0.44043540640E+00 -0.22328246115E+00 -0.10719200136E+01  0.90007808948E+02  0.90000071226E+02 0.  0.
        -12    1    1    2    0    0 -0.44043540640E+00  0.22328246115E+00  0.10719200136E+01  0.11801910525E+01  0.00000000000E+00 0.  1.
         11    1    3    3    0    0 -0.52896380752E+01 -0.87497700079E+01 -0.38688176967E+00  0.10231736115E+02  0.51100000000E-03 0. -1.
        -11    1    3    3    0    0  0.33917361635E+02 -0.18686109639E+02  0.82436592422E+01  0.39591868252E+02  0.51100000000E-03 0.  1.
         12    1    3    3    0    0 -0.28187288153E+02  0.27212597186E+02 -0.89286974861E+01  0.40184204581E+02  0.00000000000E+00 0. -1.
</event>
<event>
 7    1  0.1716782E-015  0.9000772E+02  0.7816164E-02  0.1186339E+00
        -11   -1    0    0    0    0  0.00000000000E+00  0.00000000000E+00  0.45593999997E+02  0.45594000000E+02  0.51100000000E-03 0. -1.
         11   -1    0    0    0    0 -0.00000000000E+00 -0.00000000000E+00 -0.45593999997E+02  0.45594000000E+02  0.51100000000E-03 0.  1.
    9900012    2    1    2    0    0  0.11517114123E+01 -0.19284053686E+00 -0.17159303814E+00  0.90007715788E+02  0.89999976837E+02 0.  0.
        -12    1    1    2    0    0 -0.11517114123E+01  0.19284053686E+00  0.17159303814E+00  0.11802842118E+01  0.00000000000E+00 0.  1.
         11    1    3    3    0    0 -0.41045488708E+01 -0.71781835597E+01  0.96421083740E+00  0.83248629688E+01  0.51100000000E-03 0. -1.
        -11    1    3    3    0    0 -0.26002510163E+02  0.31398764747E+02 -0.76773016062E+01  0.41484381671E+02  0.51100000000E-03 0.  1.
         12    1    3    3    0    0  0.31258770446E+02 -0.24413421724E+02  0.65414977307E+01  0.40198471148E+02  0.00000000000E+00 0. -1.
</event>
<event>
 7    1  0.1716782E-015  0.9000764E+02  0.7816164E-02  0.1186339E+00
        -11   -1    0    0    0    0  0.00000000000E+00  0.00000000000E+00  0.45593999997E+02  0.45594000000E+02  0.51100000000E-03 0.  1.
         11   -1    0    0    0    0 -0.00000000000E+00 -0.00000000000E+00 -0.45593999997E+02  0.45594000000E+02  0.51100000000E-03 0. -1.
    9900012    2    1    2    0    0 -0.11155060710E-02 -0.10878440515E+01 -0.45809452257E+00  0.90007637125E+02  0.89999897135E+02 0.  0.
        -12    1    1    2    0    0  0.11155060710E-02  0.10878440515E+01  0.45809452257E+00  0.11803628749E+01  0.00000000000E+00 0.  1.
         11    1    3    3    0    0  0.68130352052E+01 -0.65532369520E+01  0.35189669003E+01  0.10086897024E+02  0.51100000000E-03 0. -1.
        -11    1    3    3    0    0  0.24778432907E+02 -0.10775501599E+02  0.22865729639E+02  0.35396663179E+02  0.51100000000E-03 0.  1.
         12    1    3    3    0    0 -0.31592583618E+02  0.16240894500E+02 -0.26842791062E+02  0.44524076923E+02  0.00000000000E+00 0. -1.
</event>
<event>
 7    1  0.1716782E-015  0.9000736E+02  0.7816164E-02  0.1186340E+00
        -11   -1    0    0    0    0  0.00000000000E+00  0.00000000000E+00  0.45593999997E+02  0.45594000000E+02  0.51100000000E-03 0.  1.
         11   -1    0    0    0    0 -0.00000000000E+00 -0.00000000000E+00 -0.45593999997E+02  0.45594000000E+02  0.51100000000E-03 0. -1.
    9900012    2    1    2    0    0 -0.99511531775E+00 -0.24864805442E+00 -0.58465782818E+00  0.90007362407E+02  0.89999618790E+02 0.  0.
        -12    1    1    2    0    0  0.99511531775E+00  0.24864805442E+00  0.58465782818E+00  0.11806375933E+01  0.00000000000E+00 0.  1.
         11    1    3    3    0    0  0.10843609870E+02  0.22778617892E+02 -0.28384757823E+02  0.37975568265E+02  0.51100000000E-03 0. -1.
        -11    1    3    3    0    0  0.66544699515E+01 -0.19087691188E+00 -0.47512130799E+01  0.81787792685E+01  0.51100000000E-03 0.  1.
        -12    1    3    3    0    0 -0.18493195139E+02 -0.22836389034E+02  0.32551313075E+02  0.43853014874E+02  0.00000000000E+00 0.  1.
</event>
<event>
 7    1  0.1716782E-015  0.9000771E+02  0.7816164E-02  0.1186339E+00
        -11   -1    0    0    0    0  0.00000000000E+00  0.00000000000E+00  0.45593999997E+02  0.45594000000E+02  0.51100000000E-03 0. -1.
         11   -1    0    0    0    0 -0.00000000000E+00 -0.00000000000E+00 -0.45593999997E+02  0.45594000000E+02  0.51100000000E-03 0.  1.
    9900012    2    1    2    0    0  0.23382080941E+00  0.35239692404E-01  0.11563625018E+01  0.90007708408E+02  0.89999969359E+02 0.  0.
        -12    1    1    2    0    0 -0.23382080941E+00 -0.35239692404E-01 -0.11563625018E+01  0.11802915921E+01  0.00000000000E+00 0.  1.
         11    1    3    3    0    0  0.96010294210E+00 -0.65210581962E+01 -0.71134095497E+01  0.96977622852E+01  0.51100000000E-03 0. -1.
        -11    1    3    3    0    0  0.89238079836E+01  0.14758421043E+02 -0.32948747780E+02  0.37189586192E+02  0.51100000000E-03 0.  1.
         12    1    3    3    0    0 -0.96500901162E+01 -0.82021231543E+01  0.41218519831E+02  0.43120359931E+02  0.00000000000E+00 0. -1.
</event>
<event>
 7    1  0.1716782E-015  0.9000775E+02  0.7816164E-02  0.1186339E+00
        -11   -1    0    0    0    0  0.00000000000E+00  0.00000000000E+00  0.45593999997E+02  0.45594000000E+02  0.51100000000E-03 0.  1.
         11   -1    0    0    0    0 -0.00000000000E+00 -0.00000000000E+00 -0.45593999997E+02  0.45594000000E+02  0.51100000000E-03 0. -1.
    9900012    2    1    2    0    0  0.92004768540E+00 -0.71857444419E+00  0.17367386728E+00  0.90007745965E+02  0.90000007412E+02 0.  0.
        -12    1    1    2    0    0 -0.92004768540E+00  0.71857444419E+00 -0.17367386728E+00  0.11802540351E+01  0.00000000000E+00 0.  1.
         11    1    3    3    0    0  0.72946031120E+01  0.58776984132E+01  0.54718367609E+01  0.10848943312E+02  0.51100000000E-03 0. -1.
        -11    1    3    3    0    0  0.71285569753E+00 -0.31596124325E+02  0.24231166614E+02  0.39824272389E+02  0.51100000000E-03 0.  1.
         12    1    3    3    0    0 -0.70874111241E+01  0.24999851468E+02 -0.29529329507E+02  0.39334530263E+02  0.00000000000E+00 0. -1.
</event>
<event>
 8    1  0.1716782E-015  0.9000773E+02  0.7816164E-02  0.1186339E+00
        -11   -1    0    0    0    0  0.00000000000E+00  0.00000000000E+00  0.45593999997E+02  0.45594000000E+02  0.51100000000E-03 0.  1.
         11   -1    0    0    0    0 -0.00000000000E+00 -0.00000000000E+00 -0.45593999997E+02  0.45594000000E+02  0.51100000000E-03 0. -1.
    9900012    2    1    2    0    0  0.15511585656E+00 -0.60841481348E+00 -0.99940823302E+00  0.90007726163E+02  0.89999987348E+02 0.  0.
         23    2    3    3    0    0 -0.20411599453E+02  0.14338088101E+02 -0.82631953355E+01  0.63566275161E+02  0.57880711624E+02 0.  0.
        -12    1    1    2    0    0 -0.15511585656E+00  0.60841481348E+00  0.99940823302E+00  0.11802738371E+01  0.00000000000E+00 0.  1.
         11    1    4    4    0    0 -0.27845911028E+02  0.23455406172E+02  0.13497230218E+02  0.38829448406E+02  0.51100000000E-03 0. -1.
        -11    1    4    4    0    0  0.74343115754E+01 -0.91173180705E+01 -0.21760425553E+02  0.24736826755E+02  0.51100000000E-03 0.  1.
        -12    1    3    3    0    0  0.20566715309E+02 -0.14946502915E+02  0.72637871025E+01  0.26441451002E+02  0.00000000000E+00 0.  1.
</event>
<event>
 7    1  0.1716782E-015  0.9000776E+02  0.7816164E-02  0.1186339E+00
        -11   -1    0    0    0    0  0.00000000000E+00  0.00000000000E+00  0.45593999997E+02  0.45594000000E+02  0.51100000000E-03 0. -1.
         11   -1    0    0    0    0 -0.00000000000E+00 -0.00000000000E+00 -0.45593999997E+02  0.45594000000E+02  0.51100000000E-03 0.  1.
    9900012    2    1    2    0    0  0.92387463600E+00 -0.32029424849E+00  0.66093717959E+00  0.90007758201E+02  0.90000019809E+02 0.  0.
        -12    1    1    2    0    0 -0.92387463600E+00  0.32029424849E+00 -0.66093717959E+00  0.11802417990E+01  0.00000000000E+00 0.  1.
         11    1    3    3    0    0  0.12316460897E+02 -0.22767259203E+02  0.28433965942E+02  0.38451706335E+02  0.51100000000E-03 0. -1.
        -11    1    3    3    0    0  0.10350950939E+02 -0.17186851806E+01 -0.37800472272E+01  0.11152794331E+02  0.51100000000E-03 0.  1.
        -12    1    3    3    0    0 -0.21743537201E+02  0.24165650135E+02 -0.23992981535E+02  0.40403257534E+02  0.00000000000E+00 0.  1.
</event>
<event>
 7    1  0.1716782E-015  0.9000773E+02  0.7816164E-02  0.1186339E+00
        -11   -1    0    0    0    0  0.00000000000E+00  0.00000000000E+00  0.45593999997E+02  0.45594000000E+02  0.51100000000E-03 0. -1.
         11   -1    0    0    0    0 -0.00000000000E+00 -0.00000000000E+00 -0.45593999997E+02  0.45594000000E+02  0.51100000000E-03 0.  1.
    9900012    2    1    2    0    0  0.10475030436E+01 -0.50187510732E+00  0.20951316661E+00  0.90007730109E+02  0.89999991346E+02 0.  0.
        -12    1    1    2    0    0 -0.10475030436E+01  0.50187510732E+00 -0.20951316661E+00  0.11802698914E+01  0.00000000000E+00 0.  1.
         11    1    3    3    0    0 -0.34593390982E+00  0.48724804665E+01 -0.46939476591E+01  0.67745022735E+01  0.51100000000E-03 0. -1.
        -11    1    3    3    0    0  0.11869745415E+02 -0.25597622455E+01 -0.37524620534E+02  0.39440339571E+02  0.51100000000E-03 0.  1.
         12    1    3    3    0    0 -0.10476308462E+02 -0.28145933283E+01  0.42428081360E+02  0.43792888264E+02  0.00000000000E+00 0. -1.
</event>
<event>
 7    1  0.2436267E-015  0.9000774E+02  0.7816164E-02  0.1186339E+00
        -11   -1    0    0    0    0  0.00000000000E+00  0.00000000000E+00  0.45593999997E+02  0.45594000000E+02  0.51100000000E-03 0. -1.
         11   -1    0    0    0    0 -0.00000000000E+00 -0.00000000000E+00 -0.45593999997E+02  0.45594000000E+02  0.51100000000E-03 0.  1.
    9900012    2    1    2    0    0 -0.74395540936E+00  0.66522406777E+00  0.63009617070E+00  0.90007739903E+02  0.90000001270E+02 0.  0.
        -12    1    1    2    0    0  0.74395540936E+00 -0.66522406777E+00 -0.63009617070E+00  0.11802600967E+01  0.00000000000E+00 0.  1.
         11    1    3    3    0    0  0.36518359113E+02  0.11171414024E+02  0.77127202149E+01  0.38959942209E+02  0.51100000000E-03 0. -1.
        -11    1    3    3    0    0 -0.21329239807E+01  0.70009004273E+01  0.62199722641E+01  0.96046877475E+01  0.51100000000E-03 0.  1.
        -12    1    3    3    0    0 -0.35129390541E+02 -0.17507090383E+02 -0.13302596308E+02  0.41443109947E+02  0.00000000000E+00 0.  1.
</event>
<event>
 7    1  0.1716782E-015  0.9000768E+02  0.7816164E-02  0.1186339E+00
        -11   -1    0    0    0    0  0.00000000000E+00  0.00000000000E+00  0.45593999997E+02  0.45594000000E+02  0.51100000000E-03 0. -1.
         11   -1    0    0    0    0 -0.00000000000E+00 -0.00000000000E+00 -0.45593999997E+02  0.45594000000E+02  0.51100000000E-03 0.  1.
    9900012    2    1    2    0    0  0.96424532942E+00  0.99403921335E-01  0.67342422815E+00  0.90007682083E+02  0.89999942686E+02 0.  0.
        -12    1    1    2    0    0 -0.96424532942E+00 -0.99403921335E-01 -0.67342422815E+00  0.11803179173E+01  0.00000000000E+00 0.  1.
         11    1    3    3    0    0 -0.62334697981E+00 -0.36136459030E+02 -0.69138120067E+01  0.36797187792E+02  0.51100000000E-03 0. -1.
        -11    1    3    3    0    0 -0.79843941901E+01 -0.15156909695E+01 -0.78662797431E+01  0.11310447690E+02  0.51100000000E-03 0.  1.
        -12    1    3    3    0    0  0.95719864994E+01  0.37751553921E+02  0.15453515978E+02  0.41900046600E+02  0.00000000000E+00 0.  1.
</event>
<event>
 7    1  0.1716782E-015  0.9000780E+02  0.7816164E-02  0.1186339E+00
        -11   -1    0    0    0    0  0.00000000000E+00  0.00000000000E+00  0.45593999997E+02  0.45594000000E+02  0.51100000000E-03 0. -1.
         11   -1    0    0    0    0 -0.00000000000E+00 -0.00000000000E+00 -0.45593999997E+02  0.45594000000E+02  0.51100000000E-03 0.  1.
    9900012    2    1    2    0    0 -0.46523015046E+00 -0.10113864384E+01  0.39182838158E+00  0.90007800398E+02  0.90000062563E+02 0.  0.
        -12    1    1    2    0    0  0.46523015046E+00  0.10113864384E+01 -0.39182838158E+00  0.11801996023E+01  0.00000000000E+00 0.  1.
         11    1    3    3    0    0  0.35550151524E+01  0.37678873252E+02  0.66095110514E+01  0.38419022096E+02  0.51100000000E-03 0. -1.
        -11    1    3    3    0    0  0.62608204030E+01  0.28455981857E+01 -0.54792977334E+01  0.87930657376E+01  0.51100000000E-03 0.  1.
        -12    1    3    3    0    0 -0.10281065706E+02 -0.41535857876E+02 -0.73838493639E+00  0.42795712564E+02  0.00000000000E+00 0.  1.
</event>
<event>
 7    1  0.1716782E-015  0.9000777E+02  0.7816164E-02  0.1186339E+00
        -11   -1    0    0    0    0  0.00000000000E+00  0.00000000000E+00  0.45593999997E+02  0.45594000000E+02  0.51100000000E-03 0.  1.
         11   -1    0    0    0    0 -0.00000000000E+00 -0.00000000000E+00 -0.45593999997E+02  0.45594000000E+02  0.51100000000E-03 0. -1.
    9900012    2    1    2    0    0  0.52355048997E+00 -0.87989186311E+00  0.58705429713E+00  0.90007768008E+02  0.90000029746E+02 0.  0.
        -12    1    1    2    0    0 -0.52355048997E+00  0.87989186311E+00 -0.58705429713E+00  0.11802319916E+01  0.00000000000E+00 0.  1.
         11    1    3    3    0    0  0.50735328476E+01 -0.53508709819E+01 -0.77932892838E+01  0.10728835628E+02  0.51100000000E-03 0. -1.
        -11    1    3    3    0    0  0.25988672558E+02  0.11239090048E+01  0.31483525694E+02  0.40839768157E+02  0.51100000000E-03 0.  1.
         12    1    3    3    0    0 -0.30538654915E+02  0.33470701140E+01 -0.23103182113E+02  0.38439164223E+02  0.00000000000E+00 0. -1.
</event>
<event>
 7    1  0.1716782E-015  0.9000774E+02  0.7816164E-02  0.1186339E+00
        -11   -1    0    0    0    0  0.00000000000E+00  0.00000000000E+00  0.45593999997E+02  0.45594000000E+02  0.51100000000E-03 0.  1.
         11   -1    0    0    0    0 -0.00000000000E+00 -0.00000000000E+00 -0.45593999997E+02  0.45594000000E+02  0.51100000000E-03 0. -1.
    9900012    2    1    2    0    0  0.77068177901E+00  0.89226231361E+00 -0.54156411073E-01  0.90007739284E+02  0.90000000643E+02 0.  0.
        -12    1    1    2    0    0 -0.77068177901E+00 -0.89226231361E+00  0.54156411073E-01  0.11802607160E+01  0.00000000000E+00 0.  1.
         11    1    3    3    0    0  0.10801078255E+02  0.36773181178E+02 -0.14864819244E+02  0.41108308124E+02  0.51100000000E-03 0. -1.
        -11    1    3    3    0    0  0.39331074160E+01 -0.37006953014E+00  0.96084586420E+01  0.10388876895E+02  0.51100000000E-03 0.  1.
        -12    1    3    3    0    0 -0.13963503892E+02 -0.35510849334E+02  0.52022041912E+01  0.38510554265E+02  0.00000000000E+00 0.  1.
</event>
<event>
 7    1  0.1716782E-015  0.9000779E+02  0.7816164E-02  0.1186339E+00
        -11   -1    0    0    0    0  0.00000000000E+00  0.00000000000E+00  0.45593999997E+02  0.45594000000E+02  0.51100000000E-03 0.  1.
         11   -1    0    0    0    0 -0.00000000000E+00 -0.00000000000E+00 -0.45593999997E+02  0.45594000000E+02  0.51100000000E-03 0. -1.
    9900012    2    1    2    0    0  0.55067034694E+00  0.71035643774E+00 -0.76488896527E+00  0.90007788481E+02  0.90000050489E+02 0.  0.
        -12    1    1    2    0    0 -0.55067034694E+00 -0.71035643774E+00  0.76488896527E+00  0.11802115187E+01  0.00000000000E+00 0.  1.
         11    1    3    3    0    0  0.28106477891E+02 -0.11434270010E+02  0.23747915651E+02  0.38531547181E+02  0.51100000000E-03 0. -1.
        -11    1    3    3    0    0 -0.46431350685E+01 -0.48693505232E+01  0.64827754388E+01  0.93432144058E+01  0.51100000000E-03 0.  1.
        -12    1    3    3    0    0 -0.22912672476E+02  0.17013976971E+02 -0.30995580055E+02  0.42133026895E+02  0.00000000000E+00 0.  1.
</event>
<event>
 7    1  0.1716782E-015  0.9000774E+02  0.7816164E-02  0.1186339E+00
        -11   -1    0    0    0    0  0.00000000000E+00  0.00000000000E+00  0.45593999997E+02  0.45594000000E+02  0.51100000000E-03 0. -1.
         11   -1    0    0    0    0 -0.00000000000E+00 -0.00000000000E+00 -0.45593999997E+02  0.45594000000E+02  0.51100000000E-03 0.  1.
    9900012    2    1    2    0    0  0.51505795293E+00 -0.84986774640E+00  0.63674671429E+00  0.90007743138E+02  0.90000004548E+02 0.  0.
        -12    1    1    2    0    0 -0.51505795293E+00  0.84986774640E+00 -0.63674671429E+00  0.11802568616E+01  0.00000000000E+00 0.  1.
         11    1    3    3    0    0 -0.48591637005E+01 -0.53135613059E+01  0.11522917593E+02  0.13587605961E+02  0.51100000000E-03 0. -1.
        -11    1    3    3    0    0 -0.92293718053E+01 -0.33596323458E+02 -0.38706757438E+01  0.35055333186E+02  0.51100000000E-03 0.  1.
         12    1    3    3    0    0  0.14603593459E+02  0.38060017018E+02 -0.70154951351E+01  0.41364803992E+02  0.00000000000E+00 0. -1.
</event>
<event>
 7    1  0.1716782E-015  0.9000754E+02  0.7816164E-02  0.1186339E+00
        -11   -1    0    0    0    0  0.00000000000E+00  0.00000000000E+00  0.45593999997E+02  0.45594000000E+02  0.51100000000E-03 0. -1.
         11   -1    0    0    0    0 -0.00000000000E+00 -0.00000000000E+00 -0.45593999997E+02  0.45594000000E+02  0.51100000000E-03 0.  1.
    9900012    2    1    2    0    0 -0.85749206574E+00 -0.13238607627E+00  0.80041757762E+00  0.90007539490E+02  0.89999798212E+02 0.  0.
        -12    1    1    2    0    0  0.85749206574E+00  0.13238607627E+00 -0.80041757762E+00  0.11804605095E+01  0.00000000000E+00 0.  1.
         11    1    3    3    0    0  0.33755594946E+02 -0.17058285059E+02  0.17359375045E+02  0.41614578954E+02  0.51100000000E-03 0. -1.
        -11    1    3    3    0    0 -0.13314894613E+02 -0.81019728722E+00  0.39521985119E+01  0.13912681680E+02  0.51100000000E-03 0.  1.
        -12    1    3    3    0    0 -0.21298192399E+02  0.17736096270E+02 -0.20511155980E+02  0.34480278856E+02  0.00000000000E+00 0.  1.
</event>
<event>
 7    1  0.1716782E-015  0.9000774E+02  0.7816164E-02  0.1186339E+00
        -11   -1    0    0    0    0  0.00000000000E+00  0.00000000000E+00  0.45593999997E+02  0.45594000000E+02  0.51100000000E-03 0. -1.
         11   -1    0    0    0    0 -0.00000000000E+00 -0.00000000000E+00 -0.45593999997E+02  0.45594000000E+02  0.51100000000E-03 0.  1.
    9900012    2    1    2    0    0 -0.75849002214E+00 -0.10093005780E+00 -0.89861546964E+00  0.90007744200E+02  0.90000005624E+02 0.  0.
        -12    1    1    2    0    0  0.75849002214E+00  0.10093005780E+00  0.89861546964E+00  0.11802557996E+01  0.00000000000E+00 0.  1.
         11    1    3    3    0    0  0.10440016064E+02 -0.28746212341E+02 -0.25581819640E+02  0.39871896816E+02  0.51100000000E-03 0. -1.
        -11    1    3    3    0    0 -0.87552223841E+01 -0.13030957567E+01 -0.29330076363E+01  0.93249403002E+01  0.51100000000E-03 0.  1.
        -12    1    3    3    0    0 -0.24432837018E+01  0.29948378040E+02  0.27616211807E+02  0.40810907084E+02  0.00000000000E+00 0.  1.
</event>
<event>
 7    1  0.1716782E-015  0.9000774E+02  0.7816164E-02  0.1186339E+00
        -11   -1    0    0    0    0  0.00000000000E+00  0.00000000000E+00  0.45593999997E+02  0.45594000000E+02  0.51100000000E-03 0.  1.
         11   -1    0    0    0    0 -0.00000000000E+00 -0.00000000000E+00 -0.45593999997E+02  0.45594000000E+02  0.51100000000E-03 0. -1.
    9900012    2    1    2    0    0 -0.50980258507E+00  0.10127667192E+01 -0.32775860016E+00  0.90007736977E+02  0.89999998305E+02 0.  0.
        -12    1    1    2    0    0  0.50980258507E+00 -0.10127667192E+01  0.32775860016E+00  0.11802630229E+01  0.00000000000E+00 0.  1.
         11    1    3    3    0    0 -0.91575149734E+00 -0.37086387742E+01  0.84047463201E+01  0.92321375276E+01  0.51100000000E-03 0. -1.
        -11    1    3    3    0    0  0.39071446366E+02  0.58726267564E+01 -0.13605452843E+02  0.41787247020E+02  0.51100000000E-03 0.  1.
         12    1    3    3    0    0 -0.38665497454E+02 -0.11512212629E+01  0.48729479226E+01  0.38988352430E+02  0.00000000000E+00 0. -1.
</event>
<event>
 7    1  0.1716782E-015  0.9000763E+02  0.7816164E-02  0.1186339E+00
        -11   -1    0    0    0    0  0.00000000000E+00  0.00000000000E+00  0.45593999997E+02  0.45594000000E+02  0.51100000000E-03 0. -1.
         11   -1    0    0    0    0 -0.00000000000E+00 -0.00000000000E+00 -0.45593999997E+02  0.45594000000E+02  0.51100000000E-03 0.  1.
    9900012    2    1    2    0    0  0.35929339298E+00  0.90490290244E+00  0.66733709722E+00  0.90007627260E+02  0.89999887139E+02 0.  0.
        -12    1    1    2    0    0 -0.35929339298E+00 -0.90490290244E+00 -0.66733709722E+00  0.11803727405E+01  0.00000000000E+00 0.  1.
         11    1    3    3    0    0  0.22466945842E+02 -0.78089591603E+01  0.93024275514E+01  0.25539746617E+02  0.51100000000E-03 0. -1.
        -11    1    3    3    0    0  0.18820812470E+02  0.12052369664E+02 -0.68072661553E+01  0.23362822374E+02  0.51100000000E-03 0.  1.
         12    1    3    3    0    0 -0.40928464919E+02 -0.33385076008E+01 -0.18278242989E+01  0.41105058269E+02  0.00000000000E+00 0. -1.
</event>
<event>
 7    1  0.1716782E-015  0.9000774E+02  0.7816164E-02  0.1186339E+00
        -11   -1    0    0    0    0  0.00000000000E+00  0.00000000000E+00  0.45593999997E+02  0.45594000000E+02  0.51100000000E-03 0. -1.
         11   -1    0    0    0    0 -0.00000000000E+00 -0.00000000000E+00 -0.45593999997E+02  0.45594000000E+02  0.51100000000E-03 0.  1.
    9900012    2    1    2    0    0  0.69587981834E+00 -0.74096686824E+00  0.59978483810E+00  0.90007736270E+02  0.89999997588E+02 0.  0.
        -12    1    1    2    0    0 -0.69587981834E+00  0.74096686824E+00 -0.59978483810E+00  0.11802637304E+01  0.00000000000E+00 0.  1.
         11    1    3    3    0    0  0.27275745011E+01 -0.28172785821E+01 -0.54067516690E+01  0.66790482211E+01  0.51100000000E-03 0. -1.
        -11    1    3    3    0    0 -0.31290432089E+02 -0.87596612600E+01 -0.23722983467E+02  0.40231862379E+02  0.51100000000E-03 0.  1.
         12    1    3    3    0    0  0.29258737406E+02  0.10835972974E+02  0.29729519974E+02  0.43096825669E+02  0.00000000000E+00 0. -1.
</event>
<event>
 7    1  0.1716782E-015  0.9000778E+02  0.7816164E-02  0.1186339E+00
        -11   -1    0    0    0    0  0.00000000000E+00  0.00000000000E+00  0.45593999997E+02  0.45594000000E+02  0.51100000000E-03 0.  1.
         11   -1    0    0    0    0 -0.00000000000E+00 -0.00000000000E+00 -0.45593999997E+02  0.45594000000E+02  0.51100000000E-03 0. -1.
    9900012    2    1    2    0    0 -0.26670204263E+00  0.11496006306E+01 -0.14174922484E-01  0.90007782851E+02  0.90000044785E+02 0.  0.
        -12    1    1    2    0    0  0.26670204263E+00 -0.11496006306E+01  0.14174922484E-01  0.11802171486E+01  0.00000000000E+00 0.  1.
         11    1    3    3    0    0  0.26298011100E+01  0.69431976726E+01  0.46774077548E+01  0.87750778552E+01  0.51100000000E-03 0. -1.
        -11    1    3    3    0    0 -0.14250144043E+02 -0.10100022757E+02  0.35328805397E+02  0.39410678198E+02  0.51100000000E-03 0.  1.
         12    1    3    3    0    0  0.11353640890E+02  0.43064257148E+01 -0.40020388075E+02  0.41822026799E+02  0.00000000000E+00 0. -1.
</event>
<event>
 7    1  0.1716782E-015  0.9000770E+02  0.7816164E-02  0.1186339E+00
        -11   -1    0    0    0    0  0.00000000000E+00  0.00000000000E+00  0.45593999997E+02  0.45594000000E+02  0.51100000000E-03 0. -1.
         11   -1    0    0    0    0 -0.00000000000E+00 -0.00000000000E+00 -0.45593999997E+02  0.45594000000E+02  0.51100000000E-03 0.  1.
    9900012    2    1    2    0    0  0.10544813791E+00  0.91550995206E+00  0.73744966428E+00  0.90007699280E+02  0.89999960111E+02 0.  0.
        -12    1    1    2    0    0 -0.10544813791E+00 -0.91550995206E+00 -0.73744966428E+00  0.11803007199E+01  0.00000000000E+00 0.  1.
         11    1    3    3    0    0  0.90805909855E+01  0.25307434129E+01 -0.23646221440E+01  0.97187053157E+01  0.51100000000E-03 0. -1.
        -11    1    3    3    0    0  0.82621238632E+01  0.14319186146E+02 -0.33182864464E+02  0.37072958837E+02  0.51100000000E-03 0.  1.
         12    1    3    3    0    0 -0.17237266711E+02 -0.15934419607E+02  0.36284936272E+02  0.43216035128E+02  0.00000000000E+00 0. -1.
</event>
<event>
 7    1  0.1716782E-015  0.9000777E+02  0.7816164E-02  0.1186339E+00
        -11   -1    0    0    0    0  0.00000000000E+00  0.00000000000E+00  0.45593999997E+02  0.45594000000E+02  0.51100000000E-03 0.  1.
         11   -1    0    0    0    0 -0.00000000000E+00 -0.00000000000E+00 -0.45593999997E+02  0.45594000000E+02  0.51100000000E-03 0. -1.
    9900012    2    1    2    0    0  0.84121510673E+00  0.51495486117E+00 -0.64816588123E+00  0.90007771050E+02  0.90000032828E+02 0.  0.
        -12    1    1    2    0    0 -0.84121510673E+00 -0.51495486117E+00  0.64816588123E+00  0.11802289500E+01  0.00000000000E+00 0.  1.
         11    1    3    3    0    0  0.24360982787E+00 -0.85407311438E+01  0.47659454472E+01  0.97835407949E+01  0.51100000000E-03 0. -1.
        -11    1    3    3    0    0  0.26968684965E+02  0.11483960421E+02  0.25968681497E+02  0.39160742264E+02  0.51100000000E-03 0.  1.
         12    1    3    3    0    0 -0.26371079686E+02 -0.24282744164E+01 -0.31382792826E+02  0.41063487991E+02  0.00000000000E+00 0. -1.
</event>
<event>
 7    1  0.1716782E-015  0.9000759E+02  0.7816164E-02  0.1186339E+00
        -11   -1    0    0    0    0  0.00000000000E+00  0.00000000000E+00  0.45593999997E+02  0.45594000000E+02  0.51100000000E-03 0. -1.
         11   -1    0    0    0    0 -0.00000000000E+00 -0.00000000000E+00 -0.45593999997E+02  0.45594000000E+02  0.51100000000E-03 0.  1.
    9900012    2    1    2    0    0 -0.64728029814E+00  0.78876831478E+00 -0.59350710468E+00  0.90007585699E+02  0.89999845030E+02 0.  0.
        -12    1    1    2    0    0  0.64728029814E+00 -0.78876831478E+00  0.59350710468E+00  0.11804143010E+01  0.00000000000E+00 0.  1.
         11    1    3    3    0    0  0.16388158511E+02  0.30701693822E+02 -0.48979241057E+01  0.35144777759E+02  0.51100000000E-03 0. -1.
        -11    1    3    3    0    0 -0.85852610892E+01  0.10333496057E+02  0.27273513834E+01  0.13708621176E+02  0.51100000000E-03 0.  1.
        -12    1    3    3    0    0 -0.84501777200E+01 -0.40246421564E+02  0.15770656176E+01  0.41154186764E+02  0.00000000000E+00 0.  1.
</event>
<event>
 7    1  0.1716782E-015  0.9000774E+02  0.7816164E-02  0.1186339E+00
        -11   -1    0    0    0    0  0.00000000000E+00  0.00000000000E+00  0.45593999997E+02  0.45594000000E+02  0.51100000000E-03 0. -1.
         11   -1    0    0    0    0 -0.00000000000E+00 -0.00000000000E+00 -0.45593999997E+02  0.45594000000E+02  0.51100000000E-03 0.  1.
    9900012    2    1    2    0    0 -0.37095975575E+00 -0.27423150864E+00  0.10863685643E+01  0.90007741249E+02  0.90000002634E+02 0.  0.
        -12    1    1    2    0    0  0.37095975575E+00  0.27423150864E+00 -0.10863685643E+01  0.11802587505E+01  0.00000000000E+00 0.  1.
         11    1    3    3    0    0 -0.25347076829E+02 -0.22410057731E+02  0.78876836834E+01  0.34740474168E+02  0.51100000000E-03 0. -1.
        -11    1    3    3    0    0 -0.84371187818E+01  0.62956878951E+00  0.91381227444E+01  0.12453377765E+02  0.51100000000E-03 0.  1.
        -12    1    3    3    0    0  0.33413235855E+02  0.21506257432E+02 -0.15939437864E+02  0.42813889317E+02  0.00000000000E+00 0.  1.
</event>
<event>
 7    1  0.1716782E-015  0.9000775E+02  0.7816164E-02  0.1186339E+00
        -11   -1    0    0    0    0  0.00000000000E+00  0.00000000000E+00  0.45593999997E+02  0.45594000000E+02  0.51100000000E-03 0. -1.
         11   -1    0    0    0    0 -0.00000000000E+00 -0.00000000000E+00 -0.45593999997E+02  0.45594000000E+02  0.51100000000E-03 0.  1.
    9900012    2    1    2    0    0  0.29741210752E+00  0.82566068815E+00  0.78919545479E+00  0.90007746214E+02  0.90000007664E+02 0.  0.
        -12    1    1    2    0    0 -0.29741210752E+00 -0.82566068815E+00 -0.78919545479E+00  0.11802537861E+01  0.00000000000E+00 0.  1.
         11    1    3    3    0    0  0.30111868701E+02  0.13089285763E+02 -0.23830592415E+02  0.40570323804E+02  0.51100000000E-03 0. -1.
        -11    1    3    3    0    0  0.42066507853E+01 -0.39134656162E+01  0.98856935963E+01  0.11434074606E+02  0.51100000000E-03 0.  1.
        -12    1    3    3    0    0 -0.34021107379E+02 -0.83501594584E+01  0.14734094273E+02  0.38003347804E+02  0.00000000000E+00 0.  1.
</event>
<event>
 7    1  0.1716782E-015  0.9000780E+02  0.7816164E-02  0.1186339E+00
        -11   -1    0    0    0    0  0.00000000000E+00  0.00000000000E+00  0.45593999997E+02  0.45594000000E+02  0.51100000000E-03 0.  1.
         11   -1    0    0    0    0 -0.00000000000E+00 -0.00000000000E+00 -0.45593999997E+02  0.45594000000E+02  0.51100000000E-03 0. -1.
    9900012    2    1    2    0    0  0.96219185526E+00 -0.16672673109E+00 -0.66276786835E+00  0.90007799925E+02  0.90000062084E+02 0.  0.
        -12    1    1    2    0    0 -0.96219185526E+00  0.16672673109E+00  0.66276786835E+00  0.11802000748E+01  0.00000000000E+00 0.  1.
         11    1    3    3    0    0 -0.46913702649E+01 -0.68061301850E+01 -0.46467110125E+01  0.94828416918E+01  0.51100000000E-03 0. -1.
        -11    1    3    3    0    0 -0.18641982212E+02 -0.28831768238E+02  0.12789969876E+02  0.36638472815E+02  0.51100000000E-03 0.  1.
         12    1    3    3    0    0  0.24295544332E+02  0.35471171692E+02 -0.88060267314E+01  0.43886485419E+02  0.00000000000E+00 0. -1.
</event>
<event>
 7    1  0.1716782E-015  0.9000790E+02  0.7816164E-02  0.1186339E+00
        -11   -1    0    0    0    0  0.00000000000E+00  0.00000000000E+00  0.45593999997E+02  0.45594000000E+02  0.51100000000E-03 0. -1.
         11   -1    0    0    0    0 -0.00000000000E+00 -0.00000000000E+00 -0.45593999997E+02  0.45594000000E+02  0.51100000000E-03 0.  1.
    9900012    2    1    2    0    0  0.10063359857E+01  0.60884050291E+00 -0.96113157289E-01  0.90007899744E+02  0.90000163221E+02 0.  0.
        -12    1    1    2    0    0 -0.10063359857E+01 -0.60884050291E+00  0.96113157289E-01  0.11801002555E+01  0.00000000000E+00 0.  1.
         11    1    3    3    0    0 -0.77617143677E+01 -0.10955773459E+02 -0.16469257683E+02  0.21248755985E+02  0.51100000000E-03 0. -1.
        -11    1    3    3    0    0  0.13618716720E+01 -0.26270457439E+02 -0.13223066263E+01  0.26338946896E+02  0.51100000000E-03 0.  1.
         12    1    3    3    0    0  0.74061786814E+01  0.37835071400E+02  0.17695451152E+02  0.42420196864E+02  0.00000000000E+00 0. -1.
</event>
<event>
 7    1  0.1716782E-015  0.9000777E+02  0.7816164E-02  0.1186339E+00
        -11   -1    0    0    0    0  0.00000000000E+00  0.00000000000E+00  0.45593999997E+02  0.45594000000E+02  0.51100000000E-03 0.  1.
         11   -1    0    0    0    0 -0.00000000000E+00 -0.00000000000E+00 -0.45593999997E+02  0.45594000000E+02  0.51100000000E-03 0. -1.
    9900012    2    1    2    0    0 -0.27301756317E+00  0.75093357026E+00 -0.86862659616E+00  0.90007766133E+02  0.90000027846E+02 0.  0.
        -12    1    1    2    0    0  0.27301756317E+00 -0.75093357026E+00  0.86862659616E+00  0.11802338668E+01  0.00000000000E+00 0.  1.
         11    1    3    3    0    0 -0.67177689472E+01  0.32756259451E+01 -0.61533937304E+01  0.96810329833E+01  0.51100000000E-03 0. -1.
        -11    1    3    3    0    0 -0.25492401762E+02  0.64431351406E+01 -0.24355869117E+02  0.35841106271E+02  0.51100000000E-03 0.  1.
         12    1    3    3    0    0  0.31937153146E+02 -0.89678275154E+01  0.29640636251E+02  0.44485626879E+02  0.00000000000E+00 0. -1.
</event>
<event>
 7    1  0.1716782E-015  0.9000773E+02  0.7816164E-02  0.1186339E+00
        -11   -1    0    0    0    0  0.00000000000E+00  0.00000000000E+00  0.45593999997E+02  0.45594000000E+02  0.51100000000E-03 0.  1.
         11   -1    0    0    0    0 -0.00000000000E+00 -0.00000000000E+00 -0.45593999997E+02  0.45594000000E+02  0.51100000000E-03 0. -1.
    9900012    2    1    2    0    0 -0.14473097780E+00 -0.22606356347E+00 -0.11493420748E+01  0.90007729270E+02  0.89999990497E+02 0.  0.
        -12    1    1    2    0    0  0.14473097780E+00  0.22606356347E+00  0.11493420748E+01  0.11802707298E+01  0.00000000000E+00 0.  1.
         11    1    3    3    0    0  0.26902221726E+02  0.18519735429E+02 -0.22249099532E+02  0.39518762182E+02  0.51100000000E-03 0. -1.
        -11    1    3    3    0    0  0.64312026371E+01 -0.88697387724E+01  0.46342870730E+01  0.11895766061E+02  0.51100000000E-03 0.  1.
        -12    1    3    3    0    0 -0.33478155341E+02 -0.98760602203E+01  0.16465470384E+02  0.38593201027E+02  0.00000000000E+00 0.  1.
</event>
<event>
 7    1  0.1716782E-015  0.9000774E+02  0.7816164E-02  0.1186339E+00
        -11   -1    0    0    0    0  0.00000000000E+00  0.00000000000E+00  0.45593999997E+02  0.45594000000E+02  0.51100000000E-03 0.  1.
         11   -1    0    0    0    0 -0.00000000000E+00 -0.00000000000E+00 -0.45593999997E+02  0.45594000000E+02  0.51100000000E-03 0. -1.
    9900012    2    1    2    0    0  0.61704196500E-01  0.94298735006E+00  0.70708920053E+00  0.90007742533E+02  0.90000003935E+02 0.  0.
        -12    1    1    2    0    0 -0.61704196500E-01 -0.94298735006E+00 -0.70708920053E+00  0.11802574667E+01  0.00000000000E+00 0.  1.
         11    1    3    3    0    0  0.63174300948E+01 -0.30362589368E+01  0.73245737970E+01  0.10137957038E+02  0.51100000000E-03 0. -1.
        -11    1    3    3    0    0 -0.66082778148E+01 -0.31054201171E+02  0.18513764160E+02  0.36753125169E+02  0.51100000000E-03 0.  1.
         12    1    3    3    0    0  0.35255191644E+00  0.35033447458E+02 -0.25131248757E+02  0.43116660326E+02  0.00000000000E+00 0. -1.
</event>
<event>
 7    1  0.1716782E-015  0.9000777E+02  0.7816164E-02  0.1186339E+00
        -11   -1    0    0    0    0  0.00000000000E+00  0.00000000000E+00  0.45593999997E+02  0.45594000000E+02  0.51100000000E-03 0. -1.
         11   -1    0    0    0    0 -0.00000000000E+00 -0.00000000000E+00 -0.45593999997E+02  0.45594000000E+02  0.51100000000E-03 0.  1.
    9900012    2    1    2    0    0 -0.85284019979E+00  0.28716774256E+00  0.76364329186E+00  0.90007765788E+02  0.90000027496E+02 0.  0.
        -12    1    1    2    0    0  0.85284019979E+00 -0.28716774256E+00 -0.76364329186E+00  0.11802342123E+01  0.00000000000E+00 0.  1.
         11    1    3    3    0    0 -0.13979223231E+02  0.41959272161E+01  0.59105579949E+01  0.15746719766E+02  0.51100000000E-03 0. -1.
        -11    1    3    3    0    0  0.67135840796E+00 -0.26042648488E+02 -0.29304006721E+02  0.39209629844E+02  0.51100000000E-03 0.  1.
         12    1    3    3    0    0  0.12455024623E+02  0.22133889014E+02  0.24157092018E+02  0.35051416177E+02  0.00000000000E+00 0. -1.
</event>
<event>
 7    1  0.1716782E-015  0.9000784E+02  0.7816164E-02  0.1186339E+00
        -11   -1    0    0    0    0  0.00000000000E+00  0.00000000000E+00  0.45593999997E+02  0.45594000000E+02  0.51100000000E-03 0. -1.
         11   -1    0    0    0    0 -0.00000000000E+00 -0.00000000000E+00 -0.45593999997E+02  0.45594000000E+02  0.51100000000E-03 0.  1.
    9900012    2    1    2    0    0 -0.10844346259E+01 -0.71113586540E-01  0.46013001987E+00  0.90007841013E+02  0.90000103714E+02 0.  0.
        -12    1    1    2    0    0  0.10844346259E+01  0.71113586540E-01 -0.46013001987E+00  0.11801589872E+01  0.00000000000E+00 0.  1.
         11    1    3    3    0    0  0.60617006770E+01  0.31720790683E+02  0.25821160541E+02  0.41348338644E+02  0.51100000000E-03 0. -1.
        -11    1    3    3    0    0 -0.69785814918E+01 -0.76668891534E+01  0.35923300058E+01  0.10972083852E+02  0.51100000000E-03 0.  1.
        -12    1    3    3    0    0 -0.16755381099E+00 -0.24125015116E+02 -0.28953360527E+02  0.37687418517E+02  0.00000000000E+00 0.  1.
</event>
<event>
 7    1  0.1716782E-015  0.9000776E+02  0.7816164E-02  0.1186339E+00
        -11   -1    0    0    0    0  0.00000000000E+00  0.00000000000E+00  0.45593999997E+02  0.45594000000E+02  0.51100000000E-03 0.  1.
         11   -1    0    0    0    0 -0.00000000000E+00 -0.00000000000E+00 -0.45593999997E+02  0.45594000000E+02  0.51100000000E-03 0. -1.
    9900012    2    1    2    0    0  0.11274199431E+01 -0.98945348823E-01  0.33480180964E+00  0.90007763514E+02  0.90000025193E+02 0.  0.
        -12    1    1    2    0    0 -0.11274199431E+01  0.98945348823E-01 -0.33480180964E+00  0.11802364856E+01  0.00000000000E+00 0.  1.
         11    1    3    3    0    0  0.22922038977E+02  0.21899659406E+02  0.25284625758E+02  0.40550305214E+02  0.51100000000E-03 0. -1.
        -11    1    3    3    0    0  0.33629093587E+01  0.31615724944E+01  0.17888705945E+01  0.49502281016E+01  0.51100000000E-03 0.  1.
        -12    1    3    3    0    0 -0.25157528393E+02 -0.25160177249E+02 -0.26738694543E+02  0.44507230198E+02  0.00000000000E+00 0.  1.
</event>
<event>
 7    1  0.1716782E-015  0.9000773E+02  0.7816164E-02  0.1186339E+00
        -11   -1    0    0    0    0  0.00000000000E+00  0.00000000000E+00  0.45593999997E+02  0.45594000000E+02  0.51100000000E-03 0.  1.
         11   -1    0    0    0    0 -0.00000000000E+00 -0.00000000000E+00 -0.45593999997E+02  0.45594000000E+02  0.51100000000E-03 0. -1.
    9900012    2    1    2    0    0 -0.27921488238E+00  0.18401153898E+00 -0.11319052306E+01  0.90007732807E+02  0.89999994080E+02 0.  0.
        -12    1    1    2    0    0  0.27921488238E+00 -0.18401153898E+00  0.11319052306E+01  0.11802671935E+01  0.00000000000E+00 0.  1.
         11    1    3    3    0    0 -0.15032636777E+02 -0.11966589279E+02 -0.30018971340E+02  0.35641521685E+02  0.51100000000E-03 0. -1.
        -11    1    3    3    0    0 -0.37558228645E+01 -0.62832243298E+01 -0.68997398557E+01  0.10059399769E+02  0.51100000000E-03 0.  1.
        -12    1    3    3    0    0  0.18509244759E+02  0.18433825148E+02  0.35786805965E+02  0.44306811353E+02  0.00000000000E+00 0.  1.
</event>
<event>
 7    1  0.1716782E-015  0.9000773E+02  0.7816164E-02  0.1186339E+00
        -11   -1    0    0    0    0  0.00000000000E+00  0.00000000000E+00  0.45593999997E+02  0.45594000000E+02  0.51100000000E-03 0. -1.
         11   -1    0    0    0    0 -0.00000000000E+00 -0.00000000000E+00 -0.45593999997E+02  0.45594000000E+02  0.51100000000E-03 0.  1.
    9900012    2    1    2    0    0 -0.18383436018E+00 -0.41348053109E-01  0.11651334880E+01  0.90007728515E+02  0.89999989731E+02 0.  0.
        -12    1    1    2    0    0  0.18383436018E+00  0.41348053109E-01 -0.11651334880E+01  0.11802714850E+01  0.00000000000E+00 0.  1.
         11    1    3    3    0    0  0.94880414446E+01  0.57418519623E+01 -0.28941964827E+01  0.11461595349E+02  0.51100000000E-03 0. -1.
        -11    1    3    3    0    0 -0.26576514144E+02  0.96730352575E+01 -0.27568194325E+02  0.39495367497E+02  0.51100000000E-03 0.  1.
         12    1    3    3    0    0  0.16904638339E+02 -0.15456235273E+02  0.31627524296E+02  0.39050765668E+02  0.00000000000E+00 0. -1.
</event>
<event>
 7    1  0.1716782E-015  0.9000773E+02  0.7816164E-02  0.1186339E+00
        -11   -1    0    0    0    0  0.00000000000E+00  0.00000000000E+00  0.45593999997E+02  0.45594000000E+02  0.51100000000E-03 0.  1.
         11   -1    0    0    0    0 -0.00000000000E+00 -0.00000000000E+00 -0.45593999997E+02  0.45594000000E+02  0.51100000000E-03 0. -1.
    9900012    2    1    2    0    0 -0.10376619473E+01 -0.41239533989E+00 -0.38240793394E+00  0.90007725430E+02  0.89999986605E+02 0.  0.
        -12    1    1    2    0    0  0.10376619473E+01  0.41239533989E+00  0.38240793394E+00  0.11802745702E+01  0.00000000000E+00 0.  1.
         11    1    3    3    0    0 -0.10638748265E+02 -0.12323659237E+02 -0.35464797276E+02  0.39023164758E+02  0.51100000000E-03 0. -1.
        -11    1    3    3    0    0  0.98600852323E+01 -0.58297647114E+01 -0.23914431285E+00  0.11457077622E+02  0.51100000000E-03 0.  1.
        -12    1    3    3    0    0 -0.25899891508E+00  0.17741028609E+02  0.35321533655E+02  0.39527483050E+02  0.00000000000E+00 0.  1.
</event>
<event>
 7    1  0.1716782E-015  0.9000771E+02  0.7816164E-02  0.1186339E+00
        -11   -1    0    0    0    0  0.00000000000E+00  0.00000000000E+00  0.45593999997E+02  0.45594000000E+02  0.51100000000E-03 0.  1.
         11   -1    0    0    0    0 -0.00000000000E+00 -0.00000000000E+00 -0.45593999997E+02  0.45594000000E+02  0.51100000000E-03 0. -1.
    9900012    2    1    2    0    0  0.80303669725E+00 -0.56016375164E+00  0.65912188393E+00  0.90007706382E+02  0.89999967307E+02 0.  0.
        -12    1    1    2    0    0 -0.80303669725E+00  0.56016375164E+00 -0.65912188393E+00  0.11802936176E+01  0.00000000000E+00 0.  1.
         11    1    3    3    0    0 -0.31551850957E+02  0.14103374260E+02 -0.16684879151E+01  0.34600698208E+02  0.51100000000E-03 0. -1.
        -11    1    3    3    0    0 -0.12430956113E+01  0.11642081729E+02 -0.37752090538E+01  0.12301851785E+02  0.51100000000E-03 0.  1.
        -12    1    3    3    0    0  0.33597983265E+02 -0.26305619740E+02  0.61028188528E+01  0.43105156389E+02  0.00000000000E+00 0.  1.
</event>
<event>
 7    1  0.1716782E-015  0.9000753E+02  0.7816164E-02  0.1186339E+00
        -11   -1    0    0    0    0  0.00000000000E+00  0.00000000000E+00  0.45593999997E+02  0.45594000000E+02  0.51100000000E-03 0. -1.
         11   -1    0    0    0    0 -0.00000000000E+00 -0.00000000000E+00 -0.45593999997E+02  0.45594000000E+02  0.51100000000E-03 0.  1.
    9900012    2    1    2    0    0  0.31438072260E+00  0.10424744457E+01  0.45597655712E+00  0.90007532792E+02  0.89999791425E+02 0.  0.
        -12    1    1    2    0    0 -0.31438072260E+00 -0.10424744457E+01 -0.45597655712E+00  0.11804672080E+01  0.00000000000E+00 0.  1.
         11    1    3    3    0    0 -0.11132040620E+01  0.95658990884E+01 -0.37868789281E+01  0.10348241441E+02  0.51100000000E-03 0. -1.
        -11    1    3    3    0    0  0.13167287257E+02 -0.39429152782E+01 -0.35446114674E+02  0.38017773217E+02  0.51100000000E-03 0.  1.
         12    1    3    3    0    0 -0.11739702472E+02 -0.45805093645E+01  0.39688970159E+02  0.41641518134E+02  0.00000000000E+00 0. -1.
</event>
<event>
 7    1  0.1716782E-015  0.9000764E+02  0.7816164E-02  0.1186339E+00
        -11   -1    0    0    0    0  0.00000000000E+00  0.00000000000E+00  0.45593999997E+02  0.45594000000E+02  0.51100000000E-03 0. -1.
         11   -1    0    0    0    0 -0.00000000000E+00 -0.00000000000E+00 -0.45593999997E+02  0.45594000000E+02  0.51100000000E-03 0.  1.
    9900012    2    1    2    0    0  0.75719661808E+00 -0.98749665330E-01  0.90007933128E+00  0.90007643690E+02  0.89999903787E+02 0.  0.
        -12    1    1    2    0    0 -0.75719661808E+00  0.98749665330E-01 -0.90007933128E+00  0.11803563095E+01  0.00000000000E+00 0.  1.
         11    1    3    3    0    0 -0.15546055561E+02 -0.16520044855E+02  0.27682744983E+02  0.35790027879E+02  0.51100000000E-03 0. -1.
        -11    1    3    3    0    0  0.31221265022E+01 -0.31524205004E+01  0.97580549961E+01  0.10719378082E+02  0.51100000000E-03 0.  1.
        -12    1    3    3    0    0  0.13181125677E+02  0.19573715690E+02 -0.36540720648E+02  0.43498237729E+02  0.00000000000E+00 0.  1.
</event>
<event>
 7    1  0.1716782E-015  0.9000798E+02  0.7816164E-02  0.1186339E+00
        -11   -1    0    0    0    0  0.00000000000E+00  0.00000000000E+00  0.45593999997E+02  0.45594000000E+02  0.51100000000E-03 0.  1.
         11   -1    0    0    0    0 -0.00000000000E+00 -0.00000000000E+00 -0.45593999997E+02  0.45594000000E+02  0.51100000000E-03 0. -1.
    9900012    2    1    2    0    0 -0.65562517443E-01  0.77191632639E+00 -0.89010922740E+00  0.90007979790E+02  0.90000244323E+02 0.  0.
        -12    1    1    2    0    0  0.65562517443E-01 -0.77191632639E+00  0.89010922740E+00  0.11800202097E+01  0.00000000000E+00 0.  1.
         11    1    3    3    0    0 -0.14746786929E+01  0.76536190801E+01 -0.78655094955E+01  0.11073337444E+02  0.51100000000E-03 0. -1.
        -11    1    3    3    0    0  0.21355763646E+02  0.23897021351E+02  0.22446947974E+02  0.39128017379E+02  0.51100000000E-03 0.  1.
         12    1    3    3    0    0 -0.19946647471E+02 -0.30778724105E+02 -0.15471547706E+02  0.39806624967E+02  0.00000000000E+00 0. -1.
</event>
<event>
 7    1  0.1716782E-015  0.9000772E+02  0.7816164E-02  0.1186339E+00
        -11   -1    0    0    0    0  0.00000000000E+00  0.00000000000E+00  0.45593999997E+02  0.45594000000E+02  0.51100000000E-03 0.  1.
         11   -1    0    0    0    0 -0.00000000000E+00 -0.00000000000E+00 -0.45593999997E+02  0.45594000000E+02  0.51100000000E-03 0. -1.
    9900012    2    1    2    0    0 -0.70733432119E+00 -0.31093634354E+00 -0.89221403027E+00  0.90007724978E+02  0.89999986148E+02 0.  0.
        -12    1    1    2    0    0  0.70733432119E+00  0.31093634354E+00  0.89221403027E+00  0.11802750220E+01  0.00000000000E+00 0.  1.
         11    1    3    3    0    0  0.57944537282E+01 -0.34829000321E+02 -0.64931876164E+01  0.35899811184E+02  0.51100000000E-03 0. -1.
        -11    1    3    3    0    0 -0.14200965413E+01 -0.91904425029E+01  0.38651608791E+01  0.10070768415E+02  0.51100000000E-03 0.  1.
        -12    1    3    3    0    0 -0.50816915081E+01  0.43708506481E+02  0.17358127070E+01  0.44037145379E+02  0.00000000000E+00 0.  1.
</event>
<event>
 7    1  0.1716782E-015  0.9000770E+02  0.7816164E-02  0.1186339E+00
        -11   -1    0    0    0    0  0.00000000000E+00  0.00000000000E+00  0.45593999997E+02  0.45594000000E+02  0.51100000000E-03 0. -1.
         11   -1    0    0    0    0 -0.00000000000E+00 -0.00000000000E+00 -0.45593999997E+02  0.45594000000E+02  0.51100000000E-03 0.  1.
    9900012    2    1    2    0    0 -0.10219406324E+00  0.59441483834E+00  0.10145628463E+01  0.90007699023E+02  0.89999959850E+02 0.  0.
        -12    1    1    2    0    0  0.10219406324E+00 -0.59441483834E+00 -0.10145628463E+01  0.11803009767E+01  0.00000000000E+00 0.  1.
         11    1    3    3    0    0  0.65747993062E+01  0.77850473037E+01 -0.10437802835E+02  0.14587072212E+02  0.51100000000E-03 0. -1.
        -11    1    3    3    0    0 -0.33123867502E+02 -0.20081412160E+01 -0.16095936943E+02  0.36882277801E+02  0.51100000000E-03 0.  1.
         12    1    3    3    0    0  0.26446874133E+02 -0.51824912494E+01  0.27548302624E+02  0.38538349010E+02  0.00000000000E+00 0. -1.
</event>
<event>
 7    1  0.1716782E-015  0.9000771E+02  0.7816164E-02  0.1186339E+00
        -11   -1    0    0    0    0  0.00000000000E+00  0.00000000000E+00  0.45593999997E+02  0.45594000000E+02  0.51100000000E-03 0.  1.
         11   -1    0    0    0    0 -0.00000000000E+00 -0.00000000000E+00 -0.45593999997E+02  0.45594000000E+02  0.51100000000E-03 0. -1.
    9900012    2    1    2    0    0  0.10883656173E+01 -0.42042162486E+00  0.17832419360E+00  0.90007706148E+02  0.89999967069E+02 0.  0.
        -12    1    1    2    0    0 -0.10883656173E+01  0.42042162486E+00 -0.17832419360E+00  0.11802938522E+01  0.00000000000E+00 0.  1.
         11    1    3    3    0    0 -0.32478015649E+02 -0.74955452725E+01 -0.17111875215E+02  0.37467598976E+02  0.51100000000E-03 0. -1.
        -11    1    3    3    0    0 -0.76331482257E+01 -0.69015780642E+00  0.20823597452E+01  0.79421339704E+01  0.51100000000E-03 0.  1.
        -12    1    3    3    0    0  0.41199529492E+02  0.77652814540E+01  0.15207839663E+02  0.44597973201E+02  0.00000000000E+00 0.  1.
</event>
<event>
 7    1  0.1716782E-015  0.9000777E+02  0.7816164E-02  0.1186339E+00
        -11   -1    0    0    0    0  0.00000000000E+00  0.00000000000E+00  0.45593999997E+02  0.45594000000E+02  0.51100000000E-03 0. -1.
         11   -1    0    0    0    0 -0.00000000000E+00 -0.00000000000E+00 -0.45593999997E+02  0.45594000000E+02  0.51100000000E-03 0.  1.
    9900012    2    1    2    0    0  0.63156918434E+00 -0.40317156102E+00  0.91187379099E+00  0.90007770890E+02  0.90000032665E+02 0.  0.
        -12    1    1    2    0    0 -0.63156918434E+00  0.40317156102E+00 -0.91187379099E+00  0.11802291103E+01  0.00000000000E+00 0.  1.
         11    1    3    3    0    0  0.38857361025E+01  0.48397580238E+01  0.61521490529E+00  0.62370419614E+01  0.51100000000E-03 0. -1.
        -11    1    3    3    0    0  0.12484083482E+02 -0.23799767171E+02 -0.32982205388E+02  0.42545353804E+02  0.51100000000E-03 0.  1.
         12    1    3    3    0    0 -0.15738250400E+02  0.18556837586E+02  0.33278864273E+02  0.41225375125E+02  0.00000000000E+00 0. -1.
</event>
<event>
 7    1  0.1716782E-015  0.9000778E+02  0.7816164E-02  0.1186339E+00
        -11   -1    0    0    0    0  0.00000000000E+00  0.00000000000E+00  0.45593999997E+02  0.45594000000E+02  0.51100000000E-03 0. -1.
         11   -1    0    0    0    0 -0.00000000000E+00 -0.00000000000E+00 -0.45593999997E+02  0.45594000000E+02  0.51100000000E-03 0.  1.
    9900012    2    1    2    0    0 -0.51861828992E+00 -0.10110783472E+01 -0.31887590672E+00  0.90007777056E+02  0.90000038913E+02 0.  0.
        -12    1    1    2    0    0  0.51861828992E+00  0.10110783472E+01  0.31887590672E+00  0.11802229445E+01  0.00000000000E+00 0.  1.
         11    1    3    3    0    0  0.64121671130E+01  0.18474364964E+01  0.68407439004E+01  0.95563950350E+01  0.51100000000E-03 0. -1.
        -11    1    3    3    0    0  0.24710466371E+02 -0.17372719380E+02 -0.26886717661E+02  0.40439017221E+02  0.51100000000E-03 0.  1.
         12    1    3    3    0    0 -0.31641251774E+02  0.14514204536E+02  0.19727097854E+02  0.40012364800E+02  0.00000000000E+00 0. -1.
</event>
<event>
 7    1  0.1716782E-015  0.9000772E+02  0.7816164E-02  0.1186339E+00
        -11   -1    0    0    0    0  0.00000000000E+00  0.00000000000E+00  0.45593999997E+02  0.45594000000E+02  0.51100000000E-03 0.  1.
         11   -1    0    0    0    0 -0.00000000000E+00 -0.00000000000E+00 -0.45593999997E+02  0.45594000000E+02  0.51100000000E-03 0. -1.
    9900012    2    1    2    0    0 -0.68226197809E+00 -0.43137450650E+00 -0.86110783540E+00  0.90007715256E+02  0.89999976298E+02 0.  0.
        -12    1    1    2    0    0  0.68226197809E+00  0.43137450650E+00  0.86110783540E+00  0.11802847435E+01  0.00000000000E+00 0.  1.
         11    1    3    3    0    0 -0.83865788677E-01  0.96109544825E+01 -0.29482595764E+01  0.10053343440E+02  0.51100000000E-03 0. -1.
        -11    1    3    3    0    0 -0.23661905907E+01  0.31851333413E+02 -0.14223188317E+02  0.34962914413E+02  0.51100000000E-03 0.  1.
         12    1    3    3    0    0  0.17677944013E+01 -0.41893662402E+02  0.16310340058E+02  0.44991457403E+02  0.00000000000E+00 0. -1.
</event>
<event>
 7    1  0.1716782E-015  0.9000768E+02  0.7816164E-02  0.1186339E+00
        -11   -1    0    0    0    0  0.00000000000E+00  0.00000000000E+00  0.45593999997E+02  0.45594000000E+02  0.51100000000E-03 0.  1.
         11   -1    0    0    0    0 -0.00000000000E+00 -0.00000000000E+00 -0.45593999997E+02  0.45594000000E+02  0.51100000000E-03 0. -1.
    9900012    2    1    2    0    0  0.30868053834E+00  0.55782011930E+00 -0.99332645091E+00  0.90007684619E+02  0.89999945256E+02 0.  0.
        -12    1    1    2    0    0 -0.30868053834E+00 -0.55782011930E+00  0.99332645091E+00  0.11803153809E+01  0.00000000000E+00 0.  1.
         11    1    3    3    0    0 -0.10575726163E+02  0.47233592126E+01 -0.22689666732E+02  0.25475028613E+02  0.51100000000E-03 0. -1.
        -11    1    3    3    0    0 -0.11650340610E+02  0.48938298129E+01 -0.15568693560E+02  0.20051539243E+02  0.51100000000E-03 0.  1.
        -12    1    3    3    0    0  0.22534747311E+02 -0.90593689061E+01  0.37265033842E+02  0.44481116764E+02  0.00000000000E+00 0.  1.
</event>
<event>
 7    1  0.1716782E-015  0.9000774E+02  0.7816164E-02  0.1186339E+00
        -11   -1    0    0    0    0  0.00000000000E+00  0.00000000000E+00  0.45593999997E+02  0.45594000000E+02  0.51100000000E-03 0.  1.
         11   -1    0    0    0    0 -0.00000000000E+00 -0.00000000000E+00 -0.45593999997E+02  0.45594000000E+02  0.51100000000E-03 0. -1.
    9900012    2    1    2    0    0  0.31379087910E+00 -0.42341721503E+00 -0.10560631456E+01  0.90007738918E+02  0.90000000272E+02 0.  0.
        -12    1    1    2    0    0 -0.31379087910E+00  0.42341721503E+00  0.10560631456E+01  0.11802610819E+01  0.00000000000E+00 0.  1.
         11    1    3    3    0    0  0.98779018117E+01  0.12745861392E+02  0.12310376457E+02  0.20287318591E+02  0.51100000000E-03 0. -1.
        -11    1    3    3    0    0  0.24628154866E+02 -0.18992957795E+02  0.32322264533E+01  0.31268606397E+02  0.51100000000E-03 0.  1.
         12    1    3    3    0    0 -0.34192265798E+02  0.58236791883E+01 -0.16598666056E+02  0.38451813931E+02  0.00000000000E+00 0. -1.
</event>
<event>
 7    1  0.1716782E-015  0.9000779E+02  0.7816164E-02  0.1186339E+00
        -11   -1    0    0    0    0  0.00000000000E+00  0.00000000000E+00  0.45593999997E+02  0.45594000000E+02  0.51100000000E-03 0. -1.
         11   -1    0    0    0    0 -0.00000000000E+00 -0.00000000000E+00 -0.45593999997E+02  0.45594000000E+02  0.51100000000E-03 0.  1.
    9900012    2    1    2    0    0  0.67721287735E+00  0.76598885621E+00  0.58953095238E+00  0.90007786904E+02  0.90000048891E+02 0.  0.
        -12    1    1    2    0    0 -0.67721287735E+00 -0.76598885621E+00 -0.58953095238E+00  0.11802130964E+01  0.00000000000E+00 0.  1.
         11    1    3    3    0    0  0.35309843249E+02 -0.44129078916E+01  0.19327678185E+02  0.40494665459E+02  0.51100000000E-03 0. -1.
        -11    1    3    3    0    0  0.20730056069E+01  0.86698622177E+01 -0.45279633400E+01  0.99983156276E+01  0.51100000000E-03 0.  1.
        -12    1    3    3    0    0 -0.36705635979E+02 -0.34909654699E+01 -0.14210183893E+02  0.39514805817E+02  0.00000000000E+00 0.  1.
</event>
<event>
 7    1  0.1716782E-015  0.9000772E+02  0.7816164E-02  0.1186339E+00
        -11   -1    0    0    0    0  0.00000000000E+00  0.00000000000E+00  0.45593999997E+02  0.45594000000E+02  0.51100000000E-03 0. -1.
         11   -1    0    0    0    0 -0.00000000000E+00 -0.00000000000E+00 -0.45593999997E+02  0.45594000000E+02  0.51100000000E-03 0.  1.
    9900012    2    1    2    0    0 -0.10086475493E+01 -0.38748999267E-01  0.61171152397E+00  0.90007719376E+02  0.89999980471E+02 0.  0.
        -12    1    1    2    0    0  0.10086475493E+01  0.38748999267E-01 -0.61171152397E+00  0.11802806244E+01  0.00000000000E+00 0.  1.
         11    1    3    3    0    0  0.23865939075E+02  0.11682294345E+02  0.25878360765E+02  0.37091085253E+02  0.51100000000E-03 0. -1.
        -11    1    3    3    0    0 -0.36415089541E+01 -0.13432331877E+01  0.98504373778E+01  0.10587538886E+02  0.51100000000E-03 0.  1.
        -12    1    3    3    0    0 -0.21233077670E+02 -0.10377810156E+02 -0.35117086619E+02  0.42329095237E+02  0.00000000000E+00 0.  1.
</event>
<event>
 7    1  0.1716782E-015  0.9000771E+02  0.7816164E-02  0.1186339E+00
        -11   -1    0    0    0    0  0.00000000000E+00  0.00000000000E+00  0.45593999997E+02  0.45594000000E+02  0.51100000000E-03 0.  1.
         11   -1    0    0    0    0 -0.00000000000E+00 -0.00000000000E+00 -0.45593999997E+02  0.45594000000E+02  0.51100000000E-03 0. -1.
    9900012    2    1    2    0    0  0.91641207116E+00 -0.74318141588E+00 -0.30821178978E-01  0.90007712049E+02  0.89999973049E+02 0.  0.
        -12    1    1    2    0    0 -0.91641207116E+00  0.74318141588E+00  0.30821178978E-01  0.11802879505E+01  0.00000000000E+00 0.  1.
         11    1    3    3    0    0 -0.17730706567E+02 -0.29809602225E+02 -0.13254906388E+02  0.37130619222E+02  0.51100000000E-03 0. -1.
        -11    1    3    3    0    0 -0.61859388875E+01 -0.48496841815E+01 -0.20990804081E+01  0.81358106788E+01  0.51100000000E-03 0.  1.
        -12    1    3    3    0    0  0.24833057525E+02  0.33916104991E+02  0.15323165617E+02  0.44741282149E+02  0.00000000000E+00 0.  1.
</event>
<event>
 7    1  0.1716782E-015  0.9000777E+02  0.7816164E-02  0.1186339E+00
        -11   -1    0    0    0    0  0.00000000000E+00  0.00000000000E+00  0.45593999997E+02  0.45594000000E+02  0.51100000000E-03 0. -1.
         11   -1    0    0    0    0 -0.00000000000E+00 -0.00000000000E+00 -0.45593999997E+02  0.45594000000E+02  0.51100000000E-03 0.  1.
    9900012    2    1    2    0    0 -0.90849274191E+00  0.63680657205E+00  0.40256835121E+00  0.90007769959E+02  0.90000031722E+02 0.  0.
        -12    1    1    2    0    0  0.90849274191E+00 -0.63680657205E+00 -0.40256835121E+00  0.11802300410E+01  0.00000000000E+00 0.  1.
         11    1    3    3    0    0 -0.65012079775E+01  0.22062143084E+00 -0.41141862411E+01  0.76968115262E+01  0.51100000000E-03 0. -1.
        -11    1    3    3    0    0 -0.21810737079E+02 -0.51243640330E+00 -0.30710173356E+02  0.37670752459E+02  0.51100000000E-03 0.  1.
         12    1    3    3    0    0  0.27403452314E+02  0.92862154451E+00  0.35226927948E+02  0.44640205974E+02  0.00000000000E+00 0. -1.
</event>
<event>
 7    1  0.1716782E-015  0.9000767E+02  0.7816164E-02  0.1186339E+00
        -11   -1    0    0    0    0  0.00000000000E+00  0.00000000000E+00  0.45593999997E+02  0.45594000000E+02  0.51100000000E-03 0. -1.
         11   -1    0    0    0    0 -0.00000000000E+00 -0.00000000000E+00 -0.45593999997E+02  0.45594000000E+02  0.51100000000E-03 0.  1.
    9900012    2    1    2    0    0  0.96217054799E+00  0.39412780707E+00 -0.55864166916E+00  0.90007665553E+02  0.89999925938E+02 0.  0.
        -12    1    1    2    0    0 -0.96217054799E+00 -0.39412780707E+00  0.55864166916E+00  0.11803344468E+01  0.00000000000E+00 0.  1.
         11    1    3    3    0    0  0.73651529795E+01 -0.48533337847E+01  0.13593799944E+01  0.89245863471E+01  0.51100000000E-03 0. -1.
        -11    1    3    3    0    0  0.21398003641E+02  0.12476885561E+02 -0.31351226777E+02  0.39955558484E+02  0.51100000000E-03 0.  1.
         12    1    3    3    0    0 -0.27800986072E+02 -0.72294239691E+01  0.29433205113E+02  0.41127520722E+02  0.00000000000E+00 0. -1.
</event>
<event>
 7    1  0.1716782E-015  0.9000774E+02  0.7816164E-02  0.1186339E+00
        -11   -1    0    0    0    0  0.00000000000E+00  0.00000000000E+00  0.45593999997E+02  0.45594000000E+02  0.51100000000E-03 0.  1.
         11   -1    0    0    0    0 -0.00000000000E+00 -0.00000000000E+00 -0.45593999997E+02  0.45594000000E+02  0.51100000000E-03 0. -1.
    9900012    2    1    2    0    0 -0.74146841076E+00  0.14707019958E+00  0.90642256258E+00  0.90007742863E+02  0.90000004269E+02 0.  0.
        -12    1    1    2    0    0  0.74146841076E+00 -0.14707019958E+00 -0.90642256258E+00  0.11802571371E+01  0.00000000000E+00 0.  1.
         11    1    3    3    0    0  0.36989157985E+01  0.35892102937E+01 -0.38839784314E+02  0.39180266135E+02  0.51100000000E-03 0. -1.
        -11    1    3    3    0    0 -0.70930303881E+01 -0.68180246065E+01 -0.96936826271E+00  0.98861627901E+01  0.51100000000E-03 0.  1.
        -12    1    3    3    0    0  0.26526461789E+01  0.33758845124E+01  0.40715575139E+02  0.40941313937E+02  0.00000000000E+00 0.  1.
</event>
<event>
 7    1  0.1716782E-015  0.9000772E+02  0.7816164E-02  0.1186339E+00
        -11   -1    0    0    0    0  0.00000000000E+00  0.00000000000E+00  0.45593999997E+02  0.45594000000E+02  0.51100000000E-03 0. -1.
         11   -1    0    0    0    0 -0.00000000000E+00 -0.00000000000E+00 -0.45593999997E+02  0.45594000000E+02  0.51100000000E-03 0.  1.
    9900012    2    1    2    0    0  0.85312749276E+00  0.67185352488E+00 -0.46242416465E+00  0.90007724699E+02  0.89999985865E+02 0.  0.
        -12    1    1    2    0    0 -0.85312749276E+00 -0.67185352488E+00  0.46242416465E+00  0.11802753009E+01  0.00000000000E+00 0.  1.
         11    1    3    3    0    0  0.32409579637E+02  0.22213658118E+02  0.29536842006E+00  0.39292680005E+02  0.51100000000E-03 0. -1.
        -11    1    3    3    0    0  0.52026956601E+01 -0.27131740401E+01 -0.67922779817E+01  0.89757671508E+01  0.51100000000E-03 0.  1.
        -12    1    3    3    0    0 -0.36759147804E+02 -0.18828630553E+02  0.60344853970E+01  0.41739277543E+02  0.00000000000E+00 0.  1.
</event>
<event>
 7    1  0.1716782E-015  0.9000782E+02  0.7816164E-02  0.1186339E+00
        -11   -1    0    0    0    0  0.00000000000E+00  0.00000000000E+00  0.45593999997E+02  0.45594000000E+02  0.51100000000E-03 0. -1.
         11   -1    0    0    0    0 -0.00000000000E+00 -0.00000000000E+00 -0.45593999997E+02  0.45594000000E+02  0.51100000000E-03 0.  1.
    9900012    2    1    2    0    0 -0.82226715713E+00 -0.72598046191E+00  0.43548689020E+00  0.90007822157E+02  0.90000084610E+02 0.  0.
        -12    1    1    2    0    0  0.82226715713E+00  0.72598046191E+00 -0.43548689020E+00  0.11801778427E+01  0.00000000000E+00 0.  1.
         11    1    3    3    0    0 -0.26715068096E+02 -0.11589884279E+02  0.21221106199E+02  0.36032702224E+02  0.51100000000E-03 0. -1.
        -11    1    3    3    0    0 -0.28109177807E+01  0.29460486387E+01  0.10211567500E+02  0.10993478631E+02  0.51100000000E-03 0.  1.
        -12    1    3    3    0    0  0.28703718719E+02  0.79178551784E+01 -0.30997186809E+02  0.42981641302E+02  0.00000000000E+00 0.  1.
</event>
<event>
 7    1  0.1716782E-015  0.9000772E+02  0.7816164E-02  0.1186339E+00
        -11   -1    0    0    0    0  0.00000000000E+00  0.00000000000E+00  0.45593999997E+02  0.45594000000E+02  0.51100000000E-03 0. -1.
         11   -1    0    0    0    0 -0.00000000000E+00 -0.00000000000E+00 -0.45593999997E+02  0.45594000000E+02  0.51100000000E-03 0.  1.
    9900012    2    1    2    0    0 -0.31845929596E+00  0.10081977359E+01  0.52457533863E+00  0.90007721099E+02  0.89999982218E+02 0.  0.
        -12    1    1    2    0    0  0.31845929596E+00 -0.10081977359E+01 -0.52457533863E+00  0.11802789008E+01  0.00000000000E+00 0.  1.
         11    1    3    3    0    0  0.32734245106E+02 -0.19542313390E+02 -0.90309605600E+01  0.39178962011E+02  0.51100000000E-03 0. -1.
        -11    1    3    3    0    0 -0.18629938450E+01  0.48053069141E+01 -0.96642351618E+01  0.10952587006E+02  0.51100000000E-03 0.  1.
        -12    1    3    3    0    0 -0.31189710557E+02  0.15745204212E+02  0.19219771060E+02  0.39876172082E+02  0.00000000000E+00 0.  1.
</event>
<event>
 7    1  0.1716782E-015  0.9000763E+02  0.7816164E-02  0.1186339E+00
        -11   -1    0    0    0    0  0.00000000000E+00  0.00000000000E+00  0.45593999997E+02  0.45594000000E+02  0.51100000000E-03 0.  1.
         11   -1    0    0    0    0 -0.00000000000E+00 -0.00000000000E+00 -0.45593999997E+02  0.45594000000E+02  0.51100000000E-03 0. -1.
    9900012    2    1    2    0    0 -0.22345599733E+00  0.41578534918E+00 -0.10818810274E+01  0.90007628619E+02  0.89999888517E+02 0.  0.
        -12    1    1    2    0    0  0.22345599733E+00 -0.41578534918E+00  0.10818810274E+01  0.11803713809E+01  0.00000000000E+00 0.  1.
         11    1    3    3    0    0  0.11712887957E+01  0.93895620682E+01  0.17845656825E+01  0.96291468060E+01  0.51100000000E-03 0. -1.
        -11    1    3    3    0    0  0.37516385962E+02 -0.11181289837E+02  0.79186869618E+01  0.39940030815E+02  0.51100000000E-03 0.  1.
         12    1    3    3    0    0 -0.38911130755E+02  0.22075131184E+01 -0.10785133672E+02  0.40438450998E+02  0.00000000000E+00 0. -1.
</event>
<event>
 7    1  0.1716782E-015  0.9000842E+02  0.7816164E-02  0.1186338E+00
        -11   -1    0    0    0    0  0.00000000000E+00  0.00000000000E+00  0.45593999997E+02  0.45594000000E+02  0.51100000000E-03 0.  1.
         11   -1    0    0    0    0 -0.00000000000E+00 -0.00000000000E+00 -0.45593999997E+02  0.45594000000E+02  0.51100000000E-03 0. -1.
    9900012    2    1    2    0    0 -0.37901618404E+00  0.88444664528E-02 -0.11169944482E+01  0.90008420376E+02  0.90000690722E+02 0.  0.
        -12    1    1    2    0    0  0.37901618404E+00 -0.88444664528E-02  0.11169944482E+01  0.11795796241E+01  0.00000000000E+00 0.  1.
         11    1    3    3    0    0 -0.29516549629E+02  0.12238951609E+02 -0.19000265327E+02  0.37175646884E+02  0.51100000000E-03 0. -1.
        -11    1    3    3    0    0 -0.14570106772E+01 -0.48551086612E+01 -0.97259796105E+01  0.10967663373E+02  0.51100000000E-03 0.  1.
        -12    1    3    3    0    0  0.30594544122E+02 -0.73749984808E+01  0.27609250490E+02  0.41865110119E+02  0.00000000000E+00 0.  1.
</event>
<event>
 7    1  0.1716782E-015  0.9000781E+02  0.7816164E-02  0.1186339E+00
        -11   -1    0    0    0    0  0.00000000000E+00  0.00000000000E+00  0.45593999997E+02  0.45594000000E+02  0.51100000000E-03 0.  1.
         11   -1    0    0    0    0 -0.00000000000E+00 -0.00000000000E+00 -0.45593999997E+02  0.45594000000E+02  0.51100000000E-03 0. -1.
    9900012    2    1    2    0    0  0.51355058940E+00  0.82032768051E+00  0.67541053713E+00  0.90007808869E+02  0.90000071146E+02 0.  0.
        -12    1    1    2    0    0 -0.51355058940E+00 -0.82032768051E+00 -0.67541053713E+00  0.11801911307E+01  0.00000000000E+00 0.  1.
         11    1    3    3    0    0 -0.30642600921E+01 -0.45388657237E+01  0.69350285785E+01  0.88366064535E+01  0.51100000000E-03 0. -1.
        -11    1    3    3    0    0 -0.16971449754E+02  0.90029941036E+01  0.32153010559E+02  0.37455308007E+02  0.51100000000E-03 0.  1.
         12    1    3    3    0    0  0.20549260435E+02 -0.36438006994E+01 -0.38412628601E+02  0.43715894409E+02  0.00000000000E+00 0. -1.
</event>
<event>
 7    1  0.1716782E-015  0.9000696E+02  0.7816164E-02  0.1186341E+00
        -11   -1    0    0    0    0  0.00000000000E+00  0.00000000000E+00  0.45593999997E+02  0.45594000000E+02  0.51100000000E-03 0. -1.
         11   -1    0    0    0    0 -0.00000000000E+00 -0.00000000000E+00 -0.45593999997E+02  0.45594000000E+02  0.51100000000E-03 0.  1.
    9900012    2    1    2    0    0 -0.84423493667E+00 -0.37509270434E+00  0.73581775090E+00  0.90006960235E+02  0.89999211306E+02 0.  0.
        -12    1    1    2    0    0  0.84423493667E+00  0.37509270434E+00 -0.73581775090E+00  0.11810397655E+01  0.00000000000E+00 0.  1.
         11    1    3    3    0    0  0.68016001809E+01 -0.55435470018E+01 -0.17433293574E+01  0.89460536490E+01  0.51100000000E-03 0. -1.
        -11    1    3    3    0    0  0.16717494031E+02 -0.32257230928E+02  0.22812225375E+01  0.36403399983E+02  0.51100000000E-03 0.  1.
         12    1    3    3    0    0 -0.24363329148E+02  0.37425685225E+02  0.19792457081E+00  0.44657506602E+02  0.00000000000E+00 0. -1.
</event>
<event>
 7    1  0.1732306E-015  0.9000770E+02  0.7816164E-02  0.1186339E+00
        -11   -1    0    0    0    0  0.00000000000E+00  0.00000000000E+00  0.45593999997E+02  0.45594000000E+02  0.51100000000E-03 0.  1.
         11   -1    0    0    0    0 -0.00000000000E+00 -0.00000000000E+00 -0.45593999997E+02  0.45594000000E+02  0.51100000000E-03 0. -1.
    9900012    2    1    2    0    0 -0.11077291505E+01  0.13028377202E+00 -0.38609104288E+00  0.90007701722E+02  0.89999962585E+02 0.  0.
        -12    1    1    2    0    0  0.11077291505E+01 -0.13028377202E+00  0.38609104288E+00  0.11802982782E+01  0.00000000000E+00 0.  1.
         11    1    3    3    0    0 -0.61313034471E+01  0.28962680066E+02 -0.22563462160E+02  0.37222836317E+02  0.51100000000E-03 0. -1.
        -11    1    3    3    0    0  0.14448017148E+01  0.91851337280E+01  0.16899011668E+01  0.94503915163E+01  0.51100000000E-03 0.  1.
        -12    1    3    3    0    0  0.35787725818E+01 -0.38017530022E+02  0.20487469951E+02  0.43334473888E+02  0.00000000000E+00 0.  1.
</event>
<event>
 7    1  0.1716782E-015  0.9000772E+02  0.7816164E-02  0.1186339E+00
        -11   -1    0    0    0    0  0.00000000000E+00  0.00000000000E+00  0.45593999997E+02  0.45594000000E+02  0.51100000000E-03 0. -1.
         11   -1    0    0    0    0 -0.00000000000E+00 -0.00000000000E+00 -0.45593999997E+02  0.45594000000E+02  0.51100000000E-03 0.  1.
    9900012    2    1    2    0    0 -0.11033795760E+01  0.41835163112E+00 -0.24631775218E-01  0.90007715585E+02  0.89999976631E+02 0.  0.
        -12    1    1    2    0    0  0.11033795760E+01 -0.41835163112E+00  0.24631775218E-01  0.11802844150E+01  0.00000000000E+00 0.  1.
         11    1    3    3    0    0 -0.17996880995E+02  0.28784901152E+02  0.76828550794E+01  0.34806386229E+02  0.51100000000E-03 0. -1.
        -11    1    3    3    0    0 -0.37260158518E+01  0.42696152845E+01  0.10946585440E+02  0.12326416424E+02  0.51100000000E-03 0.  1.
        -12    1    3    3    0    0  0.20619517271E+02 -0.32636164806E+02 -0.18654072295E+02  0.42874912932E+02  0.00000000000E+00 0.  1.
</event>
<event>
 7    1  0.1716782E-015  0.9000770E+02  0.7816164E-02  0.1186339E+00
        -11   -1    0    0    0    0  0.00000000000E+00  0.00000000000E+00  0.45593999997E+02  0.45594000000E+02  0.51100000000E-03 0. -1.
         11   -1    0    0    0    0 -0.00000000000E+00 -0.00000000000E+00 -0.45593999997E+02  0.45594000000E+02  0.51100000000E-03 0.  1.
    9900012    2    1    2    0    0 -0.49284230152E+00 -0.25988121951E+00  0.10405139947E+01  0.90007702938E+02  0.89999963816E+02 0.  0.
        -12    1    1    2    0    0  0.49284230152E+00  0.25988121951E+00 -0.10405139947E+01  0.11802970624E+01  0.00000000000E+00 0.  1.
         11    1    3    3    0    0 -0.67720848127E+01 -0.23054787406E+01 -0.77889833220E+01  0.10575661983E+02  0.51100000000E-03 0. -1.
        -11    1    3    3    0    0  0.23097836429E+02  0.13571723888E+02 -0.27108786562E+02  0.38112833090E+02  0.51100000000E-03 0.  1.
         12    1    3    3    0    0 -0.16818593918E+02 -0.11526126367E+02  0.35938283879E+02  0.41319207865E+02  0.00000000000E+00 0. -1.
</event>
<event>
 7    1  0.1716782E-015  0.9000775E+02  0.7816164E-02  0.1186339E+00
        -11   -1    0    0    0    0  0.00000000000E+00  0.00000000000E+00  0.45593999997E+02  0.45594000000E+02  0.51100000000E-03 0.  1.
         11   -1    0    0    0    0 -0.00000000000E+00 -0.00000000000E+00 -0.45593999997E+02  0.45594000000E+02  0.51100000000E-03 0. -1.
    9900012    2    1    2    0    0 -0.11662673635E+01  0.10333694550E+00  0.14880469856E+00  0.90007745398E+02  0.90000006837E+02 0.  0.
        -12    1    1    2    0    0  0.11662673635E+01 -0.10333694550E+00 -0.14880469856E+00  0.11802546021E+01  0.00000000000E+00 0.  1.
         11    1    3    3    0    0  0.46628520639E+01 -0.35993313512E+00 -0.70596692886E+01  0.84682153939E+01  0.51100000000E-03 0. -1.
        -11    1    3    3    0    0  0.18929920603E+02  0.26376567658E+02 -0.18560376116E+02  0.37397229540E+02  0.51100000000E-03 0.  1.
         12    1    3    3    0    0 -0.24759040031E+02 -0.25913297578E+02  0.25768850103E+02  0.44142300464E+02  0.00000000000E+00 0. -1.
</event>
<event>
 7    1  0.1716782E-015  0.9000767E+02  0.7816164E-02  0.1186339E+00
        -11   -1    0    0    0    0  0.00000000000E+00  0.00000000000E+00  0.45593999997E+02  0.45594000000E+02  0.51100000000E-03 0.  1.
         11   -1    0    0    0    0 -0.00000000000E+00 -0.00000000000E+00 -0.45593999997E+02  0.45594000000E+02  0.51100000000E-03 0. -1.
    9900012    2    1    2    0    0 -0.10579829084E+01  0.20728097266E+00  0.48050287133E+00  0.90007671128E+02  0.89999931587E+02 0.  0.
        -12    1    1    2    0    0  0.10579829084E+01 -0.20728097266E+00 -0.48050287133E+00  0.11803288717E+01  0.00000000000E+00 0.  1.
         11    1    3    3    0    0 -0.26035804866E+02 -0.19791963364E+02 -0.10744541522E+02  0.34424266464E+02  0.51100000000E-03 0. -1.
        -11    1    3    3    0    0 -0.53393970474E+01 -0.32140203598E+01 -0.10085396959E+02  0.11855560712E+02  0.51100000000E-03 0.  1.
        -12    1    3    3    0    0  0.30317219005E+02  0.23213264697E+02  0.21310441353E+02  0.43727843952E+02  0.00000000000E+00 0.  1.
</event>
<event>
 7    1  0.1716782E-015  0.9000652E+02  0.7816164E-02  0.1186341E+00
        -11   -1    0    0    0    0  0.00000000000E+00  0.00000000000E+00  0.45593999997E+02  0.45594000000E+02  0.51100000000E-03 0.  1.
         11   -1    0    0    0    0 -0.00000000000E+00 -0.00000000000E+00 -0.45593999997E+02  0.45594000000E+02  0.51100000000E-03 0. -1.
    9900012    2    1    2    0    0  0.46786702004E+00 -0.86247606887E-01 -0.10814551691E+01  0.90006524871E+02  0.89998770191E+02 0.  0.
        -12    1    1    2    0    0 -0.46786702004E+00  0.86247606887E-01  0.10814551691E+01  0.11814751292E+01  0.00000000000E+00 0.  1.
         11    1    3    3    0    0 -0.37298985712E+02  0.20555511027E+01 -0.59452576512E+01  0.37825728205E+02  0.51100000000E-03 0. -1.
        -11    1    3    3    0    0 -0.76359111944E+00 -0.36268968576E+01 -0.10147178744E+02  0.10802901876E+02  0.51100000000E-03 0.  1.
        -12    1    3    3    0    0  0.38530443851E+02  0.14850981480E+01  0.15010981226E+02  0.41377894790E+02  0.00000000000E+00 0.  1.
</event>
<event>
 7    1  0.1716782E-015  0.9000774E+02  0.7816164E-02  0.1186339E+00
        -11   -1    0    0    0    0  0.00000000000E+00  0.00000000000E+00  0.45593999997E+02  0.45594000000E+02  0.51100000000E-03 0.  1.
         11   -1    0    0    0    0 -0.00000000000E+00 -0.00000000000E+00 -0.45593999997E+02  0.45594000000E+02  0.51100000000E-03 0. -1.
    9900012    2    1    2    0    0 -0.41116282804E+00 -0.79746432938E+00 -0.76681985249E+00  0.90007738625E+02  0.89999999975E+02 0.  0.
        -12    1    1    2    0    0  0.41116282804E+00  0.79746432938E+00  0.76681985249E+00  0.11802613753E+01  0.00000000000E+00 0.  1.
         11    1    3    3    0    0 -0.56360693314E+01 -0.43541918246E+01 -0.77646722105E+01  0.10536337065E+02  0.51100000000E-03 0. -1.
        -11    1    3    3    0    0  0.37469757528E+02  0.16801627352E+02  0.14977834025E+02  0.43710558487E+02  0.51100000000E-03 0.  1.
         12    1    3    3    0    0 -0.32244851025E+02 -0.13244899857E+02 -0.79799816673E+01  0.35760843072E+02  0.00000000000E+00 0. -1.
</event>
<event>
 7    1  0.1716782E-015  0.9000763E+02  0.7816164E-02  0.1186339E+00
        -11   -1    0    0    0    0  0.00000000000E+00  0.00000000000E+00  0.45593999997E+02  0.45594000000E+02  0.51100000000E-03 0.  1.
         11   -1    0    0    0    0 -0.00000000000E+00 -0.00000000000E+00 -0.45593999997E+02  0.45594000000E+02  0.51100000000E-03 0. -1.
    9900012    2    1    2    0    0 -0.46374889489E+00  0.98173160852E+00 -0.46304295429E+00  0.90007631936E+02  0.89999891878E+02 0.  0.
        -12    1    1    2    0    0  0.46374889489E+00 -0.98173160852E+00  0.46304295429E+00  0.11803680639E+01  0.00000000000E+00 0.  1.
         11    1    3    3    0    0 -0.14875064286E+02 -0.28056066476E+02 -0.25192055036E+02  0.40534553665E+02  0.51100000000E-03 0. -1.
        -11    1    3    3    0    0  0.28914677826E-01 -0.40708812450E+01  0.94224694630E+01  0.10264299353E+02  0.51100000000E-03 0.  1.
        -12    1    3    3    0    0  0.14382400714E+02  0.33108679330E+02  0.15306542619E+02  0.39208778917E+02  0.00000000000E+00 0.  1.
</event>
<event>
 7    1  0.1716782E-015  0.9000768E+02  0.7816164E-02  0.1186339E+00
        -11   -1    0    0    0    0  0.00000000000E+00  0.00000000000E+00  0.45593999997E+02  0.45594000000E+02  0.51100000000E-03 0.  1.
         11   -1    0    0    0    0 -0.00000000000E+00 -0.00000000000E+00 -0.45593999997E+02  0.45594000000E+02  0.51100000000E-03 0. -1.
    9900012    2    1    2    0    0 -0.97907972162E+00 -0.62766144404E+00 -0.20151083028E+00  0.90007676907E+02  0.89999937442E+02 0.  0.
        -12    1    1    2    0    0  0.97907972162E+00  0.62766144404E+00  0.20151083028E+00  0.11803230932E+01  0.00000000000E+00 0.  1.
         11    1    3    3    0    0 -0.25481033940E+02  0.15628721543E+02  0.24384205308E+02  0.38576281527E+02  0.51100000000E-03 0. -1.
        -11    1    3    3    0    0 -0.37824575062E+01  0.38243169735E+01  0.38196882222E+01  0.65971511636E+01  0.51100000000E-03 0.  1.
        -12    1    3    3    0    0  0.28284411724E+02 -0.20080699961E+02 -0.28405404361E+02  0.44834244216E+02  0.00000000000E+00 0.  1.
</event>
<event>
 7    1  0.1716782E-015  0.9000772E+02  0.7816164E-02  0.1186339E+00
        -11   -1    0    0    0    0  0.00000000000E+00  0.00000000000E+00  0.45593999997E+02  0.45594000000E+02  0.51100000000E-03 0.  1.
         11   -1    0    0    0    0 -0.00000000000E+00 -0.00000000000E+00 -0.45593999997E+02  0.45594000000E+02  0.51100000000E-03 0. -1.
    9900012    2    1    2    0    0  0.49027673925E-01 -0.11971887246E+00 -0.11731726488E+01  0.90007715973E+02  0.89999977023E+02 0.  0.
        -12    1    1    2    0    0 -0.49027673925E-01  0.11971887246E+00  0.11731726488E+01  0.11802840273E+01  0.00000000000E+00 0.  1.
         11    1    3    3    0    0 -0.34657483463E+02  0.59499746494E+01 -0.61369222968E+01  0.35696010615E+02  0.51100000000E-03 0. -1.
        -11    1    3    3    0    0 -0.91753873177E+01  0.21247024949E+01  0.23012596182E+00  0.94209899342E+01  0.51100000000E-03 0.  1.
        -12    1    3    3    0    0  0.43881898454E+02 -0.81943960168E+01  0.47336236861E+01  0.44890715423E+02  0.00000000000E+00 0.  1.
</event>
<event>
 7    1  0.1716782E-015  0.9000774E+02  0.7816164E-02  0.1186339E+00
        -11   -1    0    0    0    0  0.00000000000E+00  0.00000000000E+00  0.45593999997E+02  0.45594000000E+02  0.51100000000E-03 0. -1.
         11   -1    0    0    0    0 -0.00000000000E+00 -0.00000000000E+00 -0.45593999997E+02  0.45594000000E+02  0.51100000000E-03 0.  1.
    9900012    2    1    2    0    0  0.54166764028E+00  0.10484915862E+01 -0.16416268622E-01  0.90007742429E+02  0.90000003830E+02 0.  0.
        -12    1    1    2    0    0 -0.54166764028E+00 -0.10484915862E+01  0.16416268622E-01  0.11802575705E+01  0.00000000000E+00 0.  1.
         11    1    3    3    0    0 -0.23476603659E+02 -0.25257288194E+02  0.13791572314E+02  0.37138780182E+02  0.51100000000E-03 0. -1.
        -11    1    3    3    0    0  0.66959671426E+01 -0.84174800588E+01  0.20498963530E+01  0.10949521534E+02  0.51100000000E-03 0.  1.
        -12    1    3    3    0    0  0.17322304156E+02  0.34723259839E+02 -0.15857884935E+02  0.41919440713E+02  0.00000000000E+00 0.  1.
</event>
<event>
 7    1  0.1716782E-015  0.9000776E+02  0.7816164E-02  0.1186339E+00
        -11   -1    0    0    0    0  0.00000000000E+00  0.00000000000E+00  0.45593999997E+02  0.45594000000E+02  0.51100000000E-03 0.  1.
         11   -1    0    0    0    0 -0.00000000000E+00 -0.00000000000E+00 -0.45593999997E+02  0.45594000000E+02  0.51100000000E-03 0. -1.
    9900012    2    1    2    0    0 -0.90885256009E+00 -0.12410802888E+00  0.74267047425E+00  0.90007756291E+02  0.90000017874E+02 0.  0.
        -12    1    1    2    0    0  0.90885256009E+00  0.12410802888E+00 -0.74267047425E+00  0.11802437088E+01  0.00000000000E+00 0.  1.
         11    1    3    3    0    0 -0.65655122566E+01 -0.12077030795E+02 -0.37151626186E+02  0.39613179025E+02  0.51100000000E-03 0. -1.
        -11    1    3    3    0    0 -0.24122563366E+01  0.10191608335E+02 -0.11041176861E+01  0.10531236262E+02  0.51100000000E-03 0.  1.
        -12    1    3    3    0    0  0.80689160331E+01  0.17613144310E+01  0.38998414346E+02  0.39863341004E+02  0.00000000000E+00 0.  1.
</event>
<event>
 7    1  0.1716782E-015  0.9000766E+02  0.7816164E-02  0.1186339E+00
        -11   -1    0    0    0    0  0.00000000000E+00  0.00000000000E+00  0.45593999997E+02  0.45594000000E+02  0.51100000000E-03 0.  1.
         11   -1    0    0    0    0 -0.00000000000E+00 -0.00000000000E+00 -0.45593999997E+02  0.45594000000E+02  0.51100000000E-03 0. -1.
    9900012    2    1    2    0    0 -0.84920360464E+00  0.19145024478E+00 -0.79711742569E+00  0.90007662697E+02  0.89999923045E+02 0.  0.
        -12    1    1    2    0    0  0.84920360464E+00 -0.19145024478E+00  0.79711742569E+00  0.11803373029E+01  0.00000000000E+00 0.  1.
         11    1    3    3    0    0  0.27246841943E+02  0.10651236237E+02 -0.21561027878E+01  0.29334075897E+02  0.51100000000E-03 0. -1.
        -11    1    3    3    0    0 -0.39798348972E+00  0.19419276180E+02 -0.31697305768E+01  0.19680291421E+02  0.51100000000E-03 0.  1.
        -12    1    3    3    0    0 -0.27698062058E+02 -0.29879062172E+02  0.45287159389E+01  0.40993295380E+02  0.00000000000E+00 0.  1.
</event>
<event>
 7    1  0.1716782E-015  0.9000789E+02  0.7816164E-02  0.1186339E+00
        -11   -1    0    0    0    0  0.00000000000E+00  0.00000000000E+00  0.45593999997E+02  0.45594000000E+02  0.51100000000E-03 0. -1.
         11   -1    0    0    0    0 -0.00000000000E+00 -0.00000000000E+00 -0.45593999997E+02  0.45594000000E+02  0.51100000000E-03 0.  1.
    9900012    2    1    2    0    0 -0.11753210697E+01 -0.13965020248E-01 -0.10530065414E+00  0.90007888621E+02  0.90000151951E+02 0.  0.
        -12    1    1    2    0    0  0.11753210697E+01  0.13965020248E-01  0.10530065414E+00  0.11801113788E+01  0.00000000000E+00 0.  1.
         11    1    3    3    0    0 -0.14442639762E+01 -0.77110391594E+01 -0.90175922574E+01  0.11952530851E+02  0.51100000000E-03 0. -1.
        -11    1    3    3    0    0  0.39081452349E+01 -0.90978839548E+01 -0.32097751627E+02  0.33590337173E+02  0.51100000000E-03 0.  1.
         12    1    3    3    0    0 -0.36392023283E+01  0.16794958094E+02  0.41010043230E+02  0.44465020597E+02  0.00000000000E+00 0. -1.
</event>
<event>
 7    1  0.1716782E-015  0.9000772E+02  0.7816164E-02  0.1186339E+00
        -11   -1    0    0    0    0  0.00000000000E+00  0.00000000000E+00  0.45593999997E+02  0.45594000000E+02  0.51100000000E-03 0. -1.
         11   -1    0    0    0    0 -0.00000000000E+00 -0.00000000000E+00 -0.45593999997E+02  0.45594000000E+02  0.51100000000E-03 0.  1.
    9900012    2    1    2    0    0  0.60934123422E+00  0.87802673287E+00  0.50083700056E+00  0.90007718091E+02  0.89999979170E+02 0.  0.
        -12    1    1    2    0    0 -0.60934123422E+00 -0.87802673287E+00 -0.50083700056E+00  0.11802819089E+01  0.00000000000E+00 0.  1.
         11    1    3    3    0    0  0.30366604103E+02  0.15910080923E+02 -0.18043577714E+02  0.38740573263E+02  0.51100000000E-03 0. -1.
        -11    1    3    3    0    0 -0.68379316190E+01 -0.15020182089E+01 -0.10021018516E+02  0.12224327380E+02  0.51100000000E-03 0.  1.
        -12    1    3    3    0    0 -0.22919331250E+02 -0.13530035981E+02  0.28565433231E+02  0.39042817448E+02  0.00000000000E+00 0.  1.
</event>
<event>
 8    1  0.1716782E-015  0.9000773E+02  0.7816164E-02  0.1186339E+00
        -11   -1    0    0    0    0  0.00000000000E+00  0.00000000000E+00  0.45593999997E+02  0.45594000000E+02  0.51100000000E-03 0.  1.
         11   -1    0    0    0    0 -0.00000000000E+00 -0.00000000000E+00 -0.45593999997E+02  0.45594000000E+02  0.51100000000E-03 0. -1.
    9900012    2    1    2    0    0 -0.19737013372E+00 -0.10356840976E+01 -0.53050310950E+00  0.90007733052E+02  0.89999994328E+02 0.  0.
         23    2    3    3    0    0  0.11516356600E+02  0.21812214720E+02 -0.11347339529E+01  0.64324996257E+02  0.59397124021E+02 0.  0.
        -12    1    1    2    0    0  0.19737013372E+00  0.10356840976E+01  0.53050310950E+00  0.11802669482E+01  0.00000000000E+00 0.  1.
         11    1    4    4    0    0  0.13137676398E+02  0.41850252587E+02  0.23270763987E+01  0.43925590122E+02  0.51100000000E-03 0. -1.
        -11    1    4    4    0    0 -0.16213197979E+01 -0.20038037867E+02 -0.34618103517E+01  0.20399406134E+02  0.51100000000E-03 0.  1.
        -12    1    3    3    0    0 -0.11713726734E+02 -0.22847898818E+02  0.60423084342E+00  0.25682736795E+02  0.00000000000E+00 0.  1.
</event>
<event>
 7    1  0.1716782E-015  0.9000768E+02  0.7816164E-02  0.1186339E+00
        -11   -1    0    0    0    0  0.00000000000E+00  0.00000000000E+00  0.45593999997E+02  0.45594000000E+02  0.51100000000E-03 0. -1.
         11   -1    0    0    0    0 -0.00000000000E+00 -0.00000000000E+00 -0.45593999997E+02  0.45594000000E+02  0.51100000000E-03 0.  1.
    9900012    2    1    2    0    0 -0.10762249038E+01 -0.56847401728E-01  0.48132267957E+00  0.90007676658E+02  0.89999937189E+02 0.  0.
        -12    1    1    2    0    0  0.10762249038E+01  0.56847401728E-01 -0.48132267957E+00  0.11803233424E+01  0.00000000000E+00 0.  1.
         11    1    3    3    0    0  0.19585933841E+01  0.82101708471E+01 -0.33697219467E+01  0.90883452642E+01  0.51100000000E-03 0. -1.
        -11    1    3    3    0    0 -0.13339738219E+02  0.15545291936E+02 -0.31191621738E+02  0.37316510877E+02  0.51100000000E-03 0.  1.
         12    1    3    3    0    0  0.10304919931E+02 -0.23812310185E+02  0.35042666364E+02  0.43602820517E+02  0.00000000000E+00 0. -1.
</event>
<event>
 7    1  0.1716782E-015  0.9000776E+02  0.7816164E-02  0.1186339E+00
        -11   -1    0    0    0    0  0.00000000000E+00  0.00000000000E+00  0.45593999997E+02  0.45594000000E+02  0.51100000000E-03 0.  1.
         11   -1    0    0    0    0 -0.00000000000E+00 -0.00000000000E+00 -0.45593999997E+02  0.45594000000E+02  0.51100000000E-03 0. -1.
    9900012    2    1    2    0    0  0.36993689389E-01  0.73036332845E+00 -0.92637024198E+00  0.90007762333E+02  0.90000023996E+02 0.  0.
        -12    1    1    2    0    0 -0.36993689389E-01 -0.73036332845E+00  0.92637024198E+00  0.11802376667E+01  0.00000000000E+00 0.  1.
         11    1    3    3    0    0 -0.40048047478E+00 -0.21321652865E+02 -0.38316396592E+02  0.43851106184E+02  0.51100000000E-03 0. -1.
        -11    1    3    3    0    0 -0.55128848502E+01  0.15667282706E+01  0.79770874190E+01  0.98224467826E+01  0.51100000000E-03 0.  1.
        -12    1    3    3    0    0  0.59503590144E+01  0.20485287923E+02  0.29412938931E+02  0.36334209366E+02  0.00000000000E+00 0.  1.
</event>
<event>
 7    1  0.1716782E-015  0.9000769E+02  0.7816164E-02  0.1186339E+00
        -11   -1    0    0    0    0  0.00000000000E+00  0.00000000000E+00  0.45593999997E+02  0.45594000000E+02  0.51100000000E-03 0. -1.
         11   -1    0    0    0    0 -0.00000000000E+00 -0.00000000000E+00 -0.45593999997E+02  0.45594000000E+02  0.51100000000E-03 0.  1.
    9900012    2    1    2    0    0  0.40606316527E+00  0.10191460670E+01 -0.43542479806E+00  0.90007686163E+02  0.89999946820E+02 0.  0.
        -12    1    1    2    0    0 -0.40606316527E+00 -0.10191460670E+01  0.43542479806E+00  0.11803138374E+01  0.00000000000E+00 0.  1.
         11    1    3    3    0    0 -0.44545616849E+01 -0.78314476272E+01 -0.35147711180E+01  0.96710034647E+01  0.51100000000E-03 0. -1.
        -11    1    3    3    0    0 -0.82579385307E+01 -0.34164033355E+02 -0.11573983853E+01  0.35166948903E+02  0.51100000000E-03 0.  1.
         12    1    3    3    0    0  0.13118563381E+02  0.43014627049E+02  0.42367447052E+01  0.45169733795E+02  0.00000000000E+00 0. -1.
</event>
<event>
 7    1  0.1716782E-015  0.9000776E+02  0.7816164E-02  0.1186339E+00
        -11   -1    0    0    0    0  0.00000000000E+00  0.00000000000E+00  0.45593999997E+02  0.45594000000E+02  0.51100000000E-03 0.  1.
         11   -1    0    0    0    0 -0.00000000000E+00 -0.00000000000E+00 -0.45593999997E+02  0.45594000000E+02  0.51100000000E-03 0. -1.
    9900012    2    1    2    0    0 -0.24025215579E+00  0.95008565643E+00 -0.65770989678E+00  0.90007760126E+02  0.90000021759E+02 0.  0.
        -12    1    1    2    0    0  0.24025215579E+00 -0.95008565643E+00  0.65770989678E+00  0.11802398745E+01  0.00000000000E+00 0.  1.
         11    1    3    3    0    0 -0.19533584529E+02 -0.16963535934E+02  0.14179607164E+02  0.29502266617E+02  0.51100000000E-03 0. -1.
        -11    1    3    3    0    0 -0.17654650637E+02  0.13604146981E+00 -0.43508510779E+01  0.18183374323E+02  0.51100000000E-03 0.  1.
        -12    1    3    3    0    0  0.36947983011E+02  0.17777580121E+02 -0.10486465983E+02  0.42322119185E+02  0.00000000000E+00 0.  1.
</event>
<event>
 7    1  0.1716782E-015  0.9000763E+02  0.7816164E-02  0.1186339E+00
        -11   -1    0    0    0    0  0.00000000000E+00  0.00000000000E+00  0.45593999997E+02  0.45594000000E+02  0.51100000000E-03 0. -1.
         11   -1    0    0    0    0 -0.00000000000E+00 -0.00000000000E+00 -0.45593999997E+02  0.45594000000E+02  0.51100000000E-03 0.  1.
    9900012    2    1    2    0    0 -0.62713535842E+00  0.19057351397E+00  0.98165540102E+00  0.90007633808E+02  0.89999893774E+02 0.  0.
        -12    1    1    2    0    0  0.62713535842E+00 -0.19057351397E+00 -0.98165540102E+00  0.11803661925E+01  0.00000000000E+00 0.  1.
         11    1    3    3    0    0  0.44655030172E+01 -0.32834297684E+02  0.10215176815E+02  0.34675375401E+02  0.51100000000E-03 0. -1.
        -11    1    3    3    0    0 -0.37978440381E+01 -0.41213540901E+01  0.11484708471E+02  0.12779190420E+02  0.51100000000E-03 0.  1.
        -12    1    3    3    0    0 -0.12947943375E+01  0.37146225288E+02 -0.20718229885E+02  0.42553067987E+02  0.00000000000E+00 0.  1.
</event>
<event>
 7    1  0.1716782E-015  0.9000769E+02  0.7816164E-02  0.1186339E+00
        -11   -1    0    0    0    0  0.00000000000E+00  0.00000000000E+00  0.45593999997E+02  0.45594000000E+02  0.51100000000E-03 0. -1.
         11   -1    0    0    0    0 -0.00000000000E+00 -0.00000000000E+00 -0.45593999997E+02  0.45594000000E+02  0.51100000000E-03 0.  1.
    9900012    2    1    2    0    0 -0.44798467070E+00  0.31303431851E+00  0.10461550284E+01  0.90007694492E+02  0.89999955259E+02 0.  0.
        -12    1    1    2    0    0  0.44798467070E+00 -0.31303431851E+00 -0.10461550284E+01  0.11803055084E+01  0.00000000000E+00 0.  1.
         11    1    3    3    0    0 -0.54772963600E+01  0.14336144332E+01 -0.91440284011E+01  0.10754965431E+02  0.51100000000E-03 0. -1.
        -11    1    3    3    0    0  0.29080807001E+02 -0.83284813691E+01 -0.22738804305E+02  0.37843231353E+02  0.51100000000E-03 0.  1.
         12    1    3    3    0    0 -0.24051495312E+02  0.72079012545E+01  0.32928987734E+02  0.41409497708E+02  0.00000000000E+00 0. -1.
</event>
<event>
 7    1  0.1716782E-015  0.9000776E+02  0.7816164E-02  0.1186339E+00
        -11   -1    0    0    0    0  0.00000000000E+00  0.00000000000E+00  0.45593999997E+02  0.45594000000E+02  0.51100000000E-03 0.  1.
         11   -1    0    0    0    0 -0.00000000000E+00 -0.00000000000E+00 -0.45593999997E+02  0.45594000000E+02  0.51100000000E-03 0. -1.
    9900012    2    1    2    0    0 -0.63225554236E+00 -0.72936922081E+00  0.67914167418E+00  0.90007762759E+02  0.90000024428E+02 0.  0.
        -12    1    1    2    0    0  0.63225554236E+00  0.72936922081E+00 -0.67914167418E+00  0.11802372409E+01  0.00000000000E+00 0.  1.
         11    1    3    3    0    0 -0.10056322125E+01  0.21358450761E+02 -0.22391560974E+02  0.30960890138E+02  0.51100000000E-03 0. -1.
        -11    1    3    3    0    0  0.21432167686E+01  0.12739920917E+02 -0.54255647633E+01  0.14011984740E+02  0.51100000000E-03 0.  1.
        -12    1    3    3    0    0 -0.17698400985E+01 -0.34827740899E+02  0.28496267411E+02  0.45034887881E+02  0.00000000000E+00 0.  1.
</event>
<event>
 7    1  0.1716782E-015  0.9000778E+02  0.7816164E-02  0.1186339E+00
        -11   -1    0    0    0    0  0.00000000000E+00  0.00000000000E+00  0.45593999997E+02  0.45594000000E+02  0.51100000000E-03 0.  1.
         11   -1    0    0    0    0 -0.00000000000E+00 -0.00000000000E+00 -0.45593999997E+02  0.45594000000E+02  0.51100000000E-03 0. -1.
    9900012    2    1    2    0    0 -0.82704210377E+00  0.78856949048E+00  0.29508317992E+00  0.90007781984E+02  0.90000043906E+02 0.  0.
        -12    1    1    2    0    0  0.82704210377E+00 -0.78856949048E+00 -0.29508317992E+00  0.11802180162E+01  0.00000000000E+00 0.  1.
         11    1    3    3    0    0  0.85745986508E+01  0.13490332109E+00 -0.86456079730E+00  0.86191302672E+01  0.51100000000E-03 0. -1.
        -11    1    3    3    0    0 -0.21545592303E+02  0.19613667666E+02 -0.30733062408E+02  0.42348903555E+02  0.51100000000E-03 0.  1.
         12    1    3    3    0    0  0.12143951549E+02 -0.18960001497E+02  0.31892706385E+02  0.39039748162E+02  0.00000000000E+00 0. -1.
</event>
<event>
 7    1  0.1716782E-015  0.9000774E+02  0.7816164E-02  0.1186339E+00
        -11   -1    0    0    0    0  0.00000000000E+00  0.00000000000E+00  0.45593999997E+02  0.45594000000E+02  0.51100000000E-03 0.  1.
         11   -1    0    0    0    0 -0.00000000000E+00 -0.00000000000E+00 -0.45593999997E+02  0.45594000000E+02  0.51100000000E-03 0. -1.
    9900012    2    1    2    0    0  0.90172040068E+00 -0.53960285295E+00 -0.53735432329E+00  0.90007737068E+02  0.89999998397E+02 0.  0.
        -12    1    1    2    0    0 -0.90172040068E+00  0.53960285295E+00  0.53735432329E+00  0.11802629320E+01  0.00000000000E+00 0.  1.
         11    1    3    3    0    0  0.37404286340E+01 -0.76261255508E+01  0.46037691546E+01  0.96614330186E+01  0.51100000000E-03 0. -1.
        -11    1    3    3    0    0  0.26756323488E+01 -0.33857899033E+02  0.11426473720E+02  0.35834070901E+02  0.51100000000E-03 0.  1.
         12    1    3    3    0    0 -0.55143405821E+01  0.40944421731E+02 -0.16567597197E+02  0.44512233148E+02  0.00000000000E+00 0. -1.
</event>
<event>
 7    1  0.1716782E-015  0.9000773E+02  0.7816164E-02  0.1186339E+00
        -11   -1    0    0    0    0  0.00000000000E+00  0.00000000000E+00  0.45593999997E+02  0.45594000000E+02  0.51100000000E-03 0.  1.
         11   -1    0    0    0    0 -0.00000000000E+00 -0.00000000000E+00 -0.45593999997E+02  0.45594000000E+02  0.51100000000E-03 0. -1.
    9900012    2    1    2    0    0  0.28931607250E+00 -0.94144437238E-01 -0.11403796277E+01  0.90007731954E+02  0.89999993216E+02 0.  0.
        -12    1    1    2    0    0 -0.28931607250E+00  0.94144437238E-01  0.11403796277E+01  0.11802680459E+01  0.00000000000E+00 0.  1.
         11    1    3    3    0    0  0.27503516378E+02 -0.54617284312E+01 -0.22002571142E+02  0.35642489079E+02  0.51100000000E-03 0. -1.
        -11    1    3    3    0    0  0.39284966906E+01 -0.10340122361E+02 -0.37461119865E+01  0.11678380537E+02  0.51100000000E-03 0.  1.
        -12    1    3    3    0    0 -0.31142696996E+02  0.15707706355E+02  0.24608303501E+02  0.42686862339E+02  0.00000000000E+00 0.  1.
</event>
<event>
 7    1  0.1716782E-015  0.9000773E+02  0.7816164E-02  0.1186339E+00
        -11   -1    0    0    0    0  0.00000000000E+00  0.00000000000E+00  0.45593999997E+02  0.45594000000E+02  0.51100000000E-03 0. -1.
         11   -1    0    0    0    0 -0.00000000000E+00 -0.00000000000E+00 -0.45593999997E+02  0.45594000000E+02  0.51100000000E-03 0.  1.
    9900012    2    1    2    0    0 -0.58178980301E+00 -0.78257769796E+00  0.66493715489E+00  0.90007725181E+02  0.89999986353E+02 0.  0.
        -12    1    1    2    0    0  0.58178980301E+00  0.78257769796E+00 -0.66493715489E+00  0.11802748189E+01  0.00000000000E+00 0.  1.
         11    1    3    3    0    0 -0.13163174475E+02  0.37375583364E+01  0.89915720151E+01  0.16373358609E+02  0.51100000000E-03 0. -1.
        -11    1    3    3    0    0 -0.30091446395E+01  0.19303863204E+01 -0.38713145514E+02  0.38877872609E+02  0.51100000000E-03 0.  1.
         12    1    3    3    0    0  0.15590529312E+02 -0.64505223548E+01  0.30386510653E+02  0.34756493962E+02  0.00000000000E+00 0. -1.
</event>
<event>
 7    1  0.1716782E-015  0.9000775E+02  0.7816164E-02  0.1186339E+00
        -11   -1    0    0    0    0  0.00000000000E+00  0.00000000000E+00  0.45593999997E+02  0.45594000000E+02  0.51100000000E-03 0.  1.
         11   -1    0    0    0    0 -0.00000000000E+00 -0.00000000000E+00 -0.45593999997E+02  0.45594000000E+02  0.51100000000E-03 0. -1.
    9900012    2    1    2    0    0 -0.38826608149E+00 -0.93113804451E+00 -0.61255925173E+00  0.90007746873E+02  0.90000008331E+02 0.  0.
        -12    1    1    2    0    0  0.38826608149E+00  0.93113804451E+00  0.61255925173E+00  0.11802531275E+01  0.00000000000E+00 0.  1.
         11    1    3    3    0    0 -0.64786139444E+01  0.81386302256E+01 -0.85053247487E+01  0.13436900310E+02  0.51100000000E-03 0. -1.
        -11    1    3    3    0    0 -0.67321268650E+01 -0.34158729734E+02  0.25669615802E+02  0.43255861162E+02  0.51100000000E-03 0.  1.
         12    1    3    3    0    0  0.12822474728E+02  0.25088961464E+02 -0.17776850305E+02  0.33314985401E+02  0.00000000000E+00 0. -1.
</event>
<event>
 7    1  0.1716782E-015  0.9000775E+02  0.7816164E-02  0.1186339E+00
        -11   -1    0    0    0    0  0.00000000000E+00  0.00000000000E+00  0.45593999997E+02  0.45594000000E+02  0.51100000000E-03 0. -1.
         11   -1    0    0    0    0 -0.00000000000E+00 -0.00000000000E+00 -0.45593999997E+02  0.45594000000E+02  0.51100000000E-03 0.  1.
    9900012    2    1    2    0    0  0.29111399934E+00 -0.50113137600E+00  0.10281550328E+01  0.90007753082E+02  0.90000014622E+02 0.  0.
        -12    1    1    2    0    0 -0.29111399934E+00  0.50113137600E+00 -0.10281550328E+01  0.11802469183E+01  0.00000000000E+00 0.  1.
         11    1    3    3    0    0  0.30150738684E+02  0.20454907573E+02 -0.78043735252E+01  0.37260951859E+02  0.51100000000E-03 0. -1.
        -11    1    3    3    0    0  0.72795150679E+01 -0.10159544341E+01  0.76035575281E+01  0.10575329327E+02  0.51100000000E-03 0.  1.
        -12    1    3    3    0    0 -0.37139139753E+02 -0.19940084515E+02  0.12289710299E+01  0.42171471896E+02  0.00000000000E+00 0.  1.
</event>
<event>
 7    1  0.1716782E-015  0.9000766E+02  0.7816164E-02  0.1186339E+00
        -11   -1    0    0    0    0  0.00000000000E+00  0.00000000000E+00  0.45593999997E+02  0.45594000000E+02  0.51100000000E-03 0.  1.
         11   -1    0    0    0    0 -0.00000000000E+00 -0.00000000000E+00 -0.45593999997E+02  0.45594000000E+02  0.51100000000E-03 0. -1.
    9900012    2    1    2    0    0  0.60533978500E+00  0.90818551637E+00  0.44941475926E+00  0.90007656485E+02  0.89999916751E+02 0.  0.
        -12    1    1    2    0    0 -0.60533978500E+00 -0.90818551637E+00 -0.44941475926E+00  0.11803435149E+01  0.00000000000E+00 0.  1.
         11    1    3    3    0    0  0.20956633268E+00  0.69603471406E+01 -0.76909805315E+01  0.10375043719E+02  0.51100000000E-03 0. -1.
        -11    1    3    3    0    0  0.38511397597E+02 -0.11135039479E+02  0.93336055791E+01  0.41161062212E+02  0.51100000000E-03 0.  1.
         12    1    3    3    0    0 -0.38115624145E+02  0.50828778551E+01 -0.11932102883E+01  0.38471550554E+02  0.00000000000E+00 0. -1.
</event>
<event>
 7    1  0.1716782E-015  0.9000780E+02  0.7816164E-02  0.1186339E+00
        -11   -1    0    0    0    0  0.00000000000E+00  0.00000000000E+00  0.45593999997E+02  0.45594000000E+02  0.51100000000E-03 0. -1.
         11   -1    0    0    0    0 -0.00000000000E+00 -0.00000000000E+00 -0.45593999997E+02  0.45594000000E+02  0.51100000000E-03 0.  1.
    9900012    2    1    2    0    0 -0.82044278398E+00 -0.98749163994E-01  0.84260485224E+00  0.90007804806E+02  0.90000067029E+02 0.  0.
        -12    1    1    2    0    0  0.82044278398E+00  0.98749163994E-01 -0.84260485224E+00  0.11801951941E+01  0.00000000000E+00 0.  1.
         11    1    3    3    0    0 -0.23273569789E+02 -0.95928023919E+01  0.31222341655E+02  0.40106302835E+02  0.51100000000E-03 0. -1.
        -11    1    3    3    0    0 -0.47674940389E+01 -0.50365570087E+01 -0.12349924984E+02  0.14163917300E+02  0.51100000000E-03 0.  1.
        -12    1    3    3    0    0  0.27220621044E+02  0.14530610237E+02 -0.18029811819E+02  0.35737584671E+02  0.00000000000E+00 0.  1.
</event>
<event>
 7    1  0.1716782E-015  0.9000768E+02  0.7816164E-02  0.1186339E+00
        -11   -1    0    0    0    0  0.00000000000E+00  0.00000000000E+00  0.45593999997E+02  0.45594000000E+02  0.51100000000E-03 0. -1.
         11   -1    0    0    0    0 -0.00000000000E+00 -0.00000000000E+00 -0.45593999997E+02  0.45594000000E+02  0.51100000000E-03 0.  1.
    9900012    2    1    2    0    0 -0.10738033333E+01  0.17120397964E+00 -0.45912661297E+00  0.90007677312E+02  0.89999937852E+02 0.  0.
        -12    1    1    2    0    0  0.10738033333E+01 -0.17120397964E+00  0.45912661297E+00  0.11803226881E+01  0.00000000000E+00 0.  1.
         11    1    3    3    0    0 -0.12257363990E+02 -0.30629869393E+02 -0.20164617082E+02  0.38665794358E+02  0.51100000000E-03 0. -1.
        -11    1    3    3    0    0 -0.85166698360E+01 -0.22969448900E+01  0.25918378448E+01  0.91938699468E+01  0.51100000000E-03 0.  1.
        -12    1    3    3    0    0  0.19700230492E+02  0.33098018262E+02  0.17113652624E+02  0.42148013008E+02  0.00000000000E+00 0.  1.
</event>
<event>
 7    1  0.1716782E-015  0.9000774E+02  0.7816164E-02  0.1186339E+00
        -11   -1    0    0    0    0  0.00000000000E+00  0.00000000000E+00  0.45593999997E+02  0.45594000000E+02  0.51100000000E-03 0.  1.
         11   -1    0    0    0    0 -0.00000000000E+00 -0.00000000000E+00 -0.45593999997E+02  0.45594000000E+02  0.51100000000E-03 0. -1.
    9900012    2    1    2    0    0  0.86412224927E-01  0.10865110576E+01 -0.45282404203E+00  0.90007736062E+02  0.89999997378E+02 0.  0.
        -12    1    1    2    0    0 -0.86412224927E-01 -0.10865110576E+01  0.45282404203E+00  0.11802639382E+01  0.00000000000E+00 0.  1.
         11    1    3    3    0    0 -0.25824440922E+02  0.21806244459E+02  0.95900218702E+01  0.35133780981E+02  0.51100000000E-03 0. -1.
        -11    1    3    3    0    0 -0.53969152463E+01  0.14998504657E+01  0.10077641051E+02  0.11529748263E+02  0.51100000000E-03 0.  1.
        -12    1    3    3    0    0  0.31307768393E+02 -0.22219583867E+02 -0.20120486963E+02  0.43344206817E+02  0.00000000000E+00 0.  1.
</event>
<event>
 7    1  0.1716782E-015  0.9000770E+02  0.7816164E-02  0.1186339E+00
        -11   -1    0    0    0    0  0.00000000000E+00  0.00000000000E+00  0.45593999997E+02  0.45594000000E+02  0.51100000000E-03 0.  1.
         11   -1    0    0    0    0 -0.00000000000E+00 -0.00000000000E+00 -0.45593999997E+02  0.45594000000E+02  0.51100000000E-03 0. -1.
    9900012    2    1    2    0    0  0.39482146194E+00 -0.29372826734E+00 -0.10728240952E+01  0.90007698419E+02  0.89999959239E+02 0.  0.
        -12    1    1    2    0    0 -0.39482146194E+00  0.29372826734E+00  0.10728240952E+01  0.11803015806E+01  0.00000000000E+00 0.  1.
         11    1    3    3    0    0 -0.15230660866E+02  0.19660731797E+02 -0.23815518030E+02  0.34433941170E+02  0.51100000000E-03 0. -1.
        -11    1    3    3    0    0 -0.72628284770E+01  0.58330191940E+01 -0.56616404111E+01  0.10900778083E+02  0.51100000000E-03 0.  1.
        -12    1    3    3    0    0  0.22888310805E+02 -0.25787479258E+02  0.28404334346E+02  0.44672979167E+02  0.00000000000E+00 0.  1.
</event>
<event>
 7    1  0.1716782E-015  0.9000775E+02  0.7816164E-02  0.1186339E+00
        -11   -1    0    0    0    0  0.00000000000E+00  0.00000000000E+00  0.45593999997E+02  0.45594000000E+02  0.51100000000E-03 0. -1.
         11   -1    0    0    0    0 -0.00000000000E+00 -0.00000000000E+00 -0.45593999997E+02  0.45594000000E+02  0.51100000000E-03 0.  1.
    9900012    2    1    2    0    0  0.63297963082E+00 -0.35373939028E-01  0.99552482457E+00  0.90007752481E+02  0.90000014014E+02 0.  0.
        -12    1    1    2    0    0 -0.63297963082E+00  0.35373939028E-01 -0.99552482457E+00  0.11802475185E+01  0.00000000000E+00 0.  1.
         11    1    3    3    0    0  0.26851565286E+01 -0.25491917980E+01 -0.85152000805E+01  0.92853151308E+01  0.51100000000E-03 0. -1.
        -11    1    3    3    0    0 -0.24748980418E+02 -0.17540383199E+02 -0.21649879739E+02  0.37267873127E+02  0.51100000000E-03 0.  1.
         12    1    3    3    0    0  0.22696803520E+02  0.20054201058E+02  0.31160604644E+02  0.43454564223E+02  0.00000000000E+00 0. -1.
</event>
<event>
 7    1  0.1716782E-015  0.9000810E+02  0.7816164E-02  0.1186338E+00
        -11   -1    0    0    0    0  0.00000000000E+00  0.00000000000E+00  0.45593999997E+02  0.45594000000E+02  0.51100000000E-03 0. -1.
         11   -1    0    0    0    0 -0.00000000000E+00 -0.00000000000E+00 -0.45593999997E+02  0.45594000000E+02  0.51100000000E-03 0.  1.
    9900012    2    1    2    0    0 -0.85921604159E+00 -0.56638484360E+00  0.57716308859E+00  0.90008101179E+02  0.90000367314E+02 0.  0.
        -12    1    1    2    0    0  0.85921604159E+00  0.56638484360E+00 -0.57716308859E+00  0.11798988211E+01  0.00000000000E+00 0.  1.
         11    1    3    3    0    0  0.83484420090E+01 -0.40054439030E+01  0.26610043035E+01  0.96343660405E+01  0.51100000000E-03 0. -1.
        -11    1    3    3    0    0 -0.32158416877E+01  0.40729254915E+02 -0.93509002273E+01  0.41912446588E+02  0.51100000000E-03 0.  1.
         12    1    3    3    0    0 -0.59918163630E+01 -0.37290195855E+02  0.72670590124E+01  0.38461288550E+02  0.00000000000E+00 0. -1.
</event>
<event>
 7    1  0.1716782E-015  0.9000778E+02  0.7816164E-02  0.1186339E+00
        -11   -1    0    0    0    0  0.00000000000E+00  0.00000000000E+00  0.45593999997E+02  0.45594000000E+02  0.51100000000E-03 0.  1.
         11   -1    0    0    0    0 -0.00000000000E+00 -0.00000000000E+00 -0.45593999997E+02  0.45594000000E+02  0.51100000000E-03 0. -1.
    9900012    2    1    2    0    0 -0.39860151384E-01  0.45354879060E+00 -0.10888660828E+01  0.90007777697E+02  0.90000039563E+02 0.  0.
        -12    1    1    2    0    0  0.39860151384E-01 -0.45354879060E+00  0.10888660828E+01  0.11802223025E+01  0.00000000000E+00 0.  1.
         11    1    3    3    0    0 -0.27249454159E+01 -0.33277019316E+02 -0.14974740106E+02  0.36592734027E+02  0.51100000000E-03 0. -1.
        -11    1    3    3    0    0  0.16404385242E+01 -0.67922296416E+01 -0.51020981050E+01  0.86519840147E+01  0.51100000000E-03 0.  1.
        -12    1    3    3    0    0  0.10446467404E+01  0.40522797748E+02  0.18987972128E+02  0.44763059655E+02  0.00000000000E+00 0.  1.
</event>
<event>
 7    1  0.1716782E-015  0.9000771E+02  0.7816164E-02  0.1186339E+00
        -11   -1    0    0    0    0  0.00000000000E+00  0.00000000000E+00  0.45593999997E+02  0.45594000000E+02  0.51100000000E-03 0. -1.
         11   -1    0    0    0    0 -0.00000000000E+00 -0.00000000000E+00 -0.45593999997E+02  0.45594000000E+02  0.51100000000E-03 0.  1.
    9900012    2    1    2    0    0 -0.62240260611E+00 -0.10669964633E+00  0.99715503693E+00  0.90007708516E+02  0.89999969469E+02 0.  0.
        -12    1    1    2    0    0  0.62240260611E+00  0.10669964633E+00 -0.99715503693E+00  0.11802914836E+01  0.00000000000E+00 0.  1.
         11    1    3    3    0    0 -0.30473123767E+02 -0.18283038180E+02 -0.16088344973E+02  0.39009173299E+02  0.51100000000E-03 0. -1.
        -11    1    3    3    0    0  0.12098200496E-01 -0.74618404219E+01  0.73449143121E+01  0.10470290128E+02  0.51100000000E-03 0.  1.
        -12    1    3    3    0    0  0.29838622960E+02  0.25638178956E+02  0.97405856978E+01  0.40528245090E+02  0.00000000000E+00 0.  1.
</event>
<event>
 7    1  0.1716782E-015  0.9000774E+02  0.7816164E-02  0.1186339E+00
        -11   -1    0    0    0    0  0.00000000000E+00  0.00000000000E+00  0.45593999997E+02  0.45594000000E+02  0.51100000000E-03 0.  1.
         11   -1    0    0    0    0 -0.00000000000E+00 -0.00000000000E+00 -0.45593999997E+02  0.45594000000E+02  0.51100000000E-03 0. -1.
    9900012    2    1    2    0    0 -0.87724889826E+00 -0.61226033446E+00 -0.49859042100E+00  0.90007736998E+02  0.89999998326E+02 0.  0.
        -12    1    1    2    0    0  0.87724889826E+00  0.61226033446E+00  0.49859042100E+00  0.11802630023E+01  0.00000000000E+00 0.  1.
         11    1    3    3    0    0 -0.19677299441E+01 -0.83954004699E+01 -0.35888548842E+01  0.93399459219E+01  0.51100000000E-03 0. -1.
        -11    1    3    3    0    0  0.14076050231E+02 -0.33421948355E+02  0.81500459784E+01  0.37169679467E+02  0.51100000000E-03 0.  1.
         12    1    3    3    0    0 -0.12985569185E+02  0.41205088491E+02 -0.50597815153E+01  0.43498111609E+02  0.00000000000E+00 0. -1.
</event>
<event>
 7    1  0.1716782E-015  0.9000761E+02  0.7816164E-02  0.1186339E+00
        -11   -1    0    0    0    0  0.00000000000E+00  0.00000000000E+00  0.45593999997E+02  0.45594000000E+02  0.51100000000E-03 0. -1.
         11   -1    0    0    0    0 -0.00000000000E+00 -0.00000000000E+00 -0.45593999997E+02  0.45594000000E+02  0.51100000000E-03 0.  1.
    9900012    2    1    2    0    0 -0.68032486826E+00 -0.95913254695E+00  0.10265459295E+00  0.90007612295E+02  0.89999871977E+02 0.  0.
        -12    1    1    2    0    0  0.68032486826E+00  0.95913254695E+00 -0.10265459295E+00  0.11803877051E+01  0.00000000000E+00 0.  1.
         11    1    3    3    0    0 -0.24911506101E+02  0.29837575517E+02 -0.67009709247E+01  0.39443213111E+02  0.51100000000E-03 0. -1.
        -11    1    3    3    0    0  0.22407483884E+01  0.43100520237E+01  0.77288476946E+01  0.91286685083E+01  0.51100000000E-03 0.  1.
        -12    1    3    3    0    0  0.21990432844E+02 -0.35106760088E+02 -0.92522217695E+00  0.41435730675E+02  0.00000000000E+00 0.  1.
</event>
<event>
 7    1  0.1716782E-015  0.9000773E+02  0.7816164E-02  0.1186339E+00
        -11   -1    0    0    0    0  0.00000000000E+00  0.00000000000E+00  0.45593999997E+02  0.45594000000E+02  0.51100000000E-03 0. -1.
         11   -1    0    0    0    0 -0.00000000000E+00 -0.00000000000E+00 -0.45593999997E+02  0.45594000000E+02  0.51100000000E-03 0.  1.
    9900012    2    1    2    0    0  0.95025842613E+00  0.35890090467E+00  0.60102239384E+00  0.90007733567E+02  0.89999994850E+02 0.  0.
        -12    1    1    2    0    0 -0.95025842613E+00 -0.35890090467E+00 -0.60102239384E+00  0.11802664334E+01  0.00000000000E+00 0.  1.
         11    1    3    3    0    0  0.10215365012E+01  0.50543565660E+01 -0.33235309107E+01  0.61348117408E+01  0.51100000000E-03 0. -1.
        -11    1    3    3    0    0  0.25344818713E+02 -0.14108283792E+02 -0.29142304096E+02  0.41117847651E+02  0.51100000000E-03 0.  1.
         12    1    3    3    0    0 -0.25416096788E+02  0.94128281311E+01  0.33066857401E+02  0.42755074175E+02  0.00000000000E+00 0. -1.
</event>
<event>
 7    1  0.1716782E-015  0.9000787E+02  0.7816164E-02  0.1186339E+00
        -11   -1    0    0    0    0  0.00000000000E+00  0.00000000000E+00  0.45593999997E+02  0.45594000000E+02  0.51100000000E-03 0.  1.
         11   -1    0    0    0    0 -0.00000000000E+00 -0.00000000000E+00 -0.45593999997E+02  0.45594000000E+02  0.51100000000E-03 0. -1.
    9900012    2    1    2    0    0 -0.42045399849E-01 -0.79651648542E+00 -0.86976454257E+00  0.90007874292E+02  0.90000137433E+02 0.  0.
        -12    1    1    2    0    0  0.42045399849E-01  0.79651648542E+00  0.86976454257E+00  0.11801257080E+01  0.00000000000E+00 0.  1.
         11    1    3    3    0    0 -0.16571448279E+02  0.24128083532E+01 -0.29499727315E+02  0.33921504302E+02  0.51100000000E-03 0. -1.
        -11    1    3    3    0    0 -0.85950252492E+01 -0.95918861355E-01 -0.78778145493E+01  0.11659486344E+02  0.51100000000E-03 0.  1.
        -12    1    3    3    0    0  0.25124428128E+02 -0.31134059773E+01  0.36507777322E+02  0.44426883646E+02  0.00000000000E+00 0.  1.
</event>
<event>
 7    1  0.1716782E-015  0.9000775E+02  0.7816164E-02  0.1186339E+00
        -11   -1    0    0    0    0  0.00000000000E+00  0.00000000000E+00  0.45593999997E+02  0.45594000000E+02  0.51100000000E-03 0.  1.
         11   -1    0    0    0    0 -0.00000000000E+00 -0.00000000000E+00 -0.45593999997E+02  0.45594000000E+02  0.51100000000E-03 0. -1.
    9900012    2    1    2    0    0  0.65771756324E+00  0.71051863584E+00 -0.67494494443E+00  0.90007754346E+02  0.90000015904E+02 0.  0.
        -12    1    1    2    0    0 -0.65771756324E+00 -0.71051863584E+00  0.67494494443E+00  0.11802456536E+01  0.00000000000E+00 0.  1.
         11    1    3    3    0    0  0.20197794401E+01  0.67595580347E+00  0.12762418783E+02  0.12938924171E+02  0.51100000000E-03 0. -1.
        -11    1    3    3    0    0  0.35215081170E+01 -0.37228011638E+02 -0.74319160380E+00  0.37401580233E+02  0.51100000000E-03 0.  1.
         12    1    3    3    0    0 -0.48835699939E+01  0.37262574470E+02 -0.12694172124E+02  0.39667249942E+02  0.00000000000E+00 0. -1.
</event>
<event>
 7    1  0.1716782E-015  0.9000866E+02  0.7816164E-02  0.1186337E+00
        -11   -1    0    0    0    0  0.00000000000E+00  0.00000000000E+00  0.45593999997E+02  0.45594000000E+02  0.51100000000E-03 0.  1.
         11   -1    0    0    0    0 -0.00000000000E+00 -0.00000000000E+00 -0.45593999997E+02  0.45594000000E+02  0.51100000000E-03 0. -1.
    9900012    2    1    2    0    0  0.55735222608E+00 -0.63576075947E+00 -0.82220104355E+00  0.90008657894E+02  0.90000931373E+02 0.  0.
        -12    1    1    2    0    0 -0.55735222608E+00  0.63576075947E+00  0.82220104355E+00  0.11793421061E+01  0.00000000000E+00 0.  1.
         11    1    3    3    0    0  0.51004694140E+01 -0.60657304553E+01 -0.76695543909E+01  0.11028596421E+02  0.51100000000E-03 0. -1.
        -11    1    3    3    0    0  0.33728826860E+02 -0.20363408056E+01  0.18183641290E+02  0.38372193787E+02  0.51100000000E-03 0.  1.
         12    1    3    3    0    0 -0.38271944048E+02  0.74663105014E+01 -0.11336287943E+02  0.40607867686E+02  0.00000000000E+00 0. -1.
</event>
<event>
 7    1  0.1716782E-015  0.9000781E+02  0.7816164E-02  0.1186339E+00
        -11   -1    0    0    0    0  0.00000000000E+00  0.00000000000E+00  0.45593999997E+02  0.45594000000E+02  0.51100000000E-03 0. -1.
         11   -1    0    0    0    0 -0.00000000000E+00 -0.00000000000E+00 -0.45593999997E+02  0.45594000000E+02  0.51100000000E-03 0.  1.
    9900012    2    1    2    0    0 -0.23206684705E+00 -0.11150358895E+01  0.30934914141E+00  0.90007806394E+02  0.90000068638E+02 0.  0.
        -12    1    1    2    0    0  0.23206684705E+00  0.11150358895E+01 -0.30934914141E+00  0.11801936061E+01  0.00000000000E+00 0.  1.
         11    1    3    3    0    0  0.54525919117E+01  0.32928700367E+02 -0.22449707500E+02  0.40224612286E+02  0.51100000000E-03 0. -1.
        -11    1    3    3    0    0  0.90278247170E+01 -0.51819540891E+01  0.39260118279E+00  0.10416736689E+02  0.51100000000E-03 0.  1.
        -12    1    3    3    0    0 -0.14712483476E+02 -0.28861782168E+02  0.22366455459E+02  0.39366457419E+02  0.00000000000E+00 0.  1.
</event>
<event>
 7    1  0.1716782E-015  0.9000780E+02  0.7816164E-02  0.1186339E+00
        -11   -1    0    0    0    0  0.00000000000E+00  0.00000000000E+00  0.45593999997E+02  0.45594000000E+02  0.51100000000E-03 0. -1.
         11   -1    0    0    0    0 -0.00000000000E+00 -0.00000000000E+00 -0.45593999997E+02  0.45594000000E+02  0.51100000000E-03 0.  1.
    9900012    2    1    2    0    0  0.60937279230E-01  0.87556273386E+00  0.78902294470E+00  0.90007796348E+02  0.90000058460E+02 0.  0.
        -12    1    1    2    0    0 -0.60937279230E-01 -0.87556273386E+00 -0.78902294470E+00  0.11802036520E+01  0.00000000000E+00 0.  1.
         11    1    3    3    0    0  0.36499229956E+02  0.46163371820E+01  0.12372729357E+02  0.38814801150E+02  0.51100000000E-03 0. -1.
        -11    1    3    3    0    0  0.32377558867E+01  0.78786675956E+01 -0.22453144770E+01  0.88089672282E+01  0.51100000000E-03 0.  1.
        -12    1    3    3    0    0 -0.39676048563E+02 -0.11619442044E+02 -0.93383919356E+01  0.42384027970E+02  0.00000000000E+00 0.  1.
</event>
<event>
 7    1  0.1716782E-015  0.9000775E+02  0.7816164E-02  0.1186339E+00
        -11   -1    0    0    0    0  0.00000000000E+00  0.00000000000E+00  0.45593999997E+02  0.45594000000E+02  0.51100000000E-03 0.  1.
         11   -1    0    0    0    0 -0.00000000000E+00 -0.00000000000E+00 -0.45593999997E+02  0.45594000000E+02  0.51100000000E-03 0. -1.
    9900012    2    1    2    0    0  0.46886793073E+00  0.10629520104E+01  0.20805415381E+00  0.90007749754E+02  0.90000011251E+02 0.  0.
        -12    1    1    2    0    0 -0.46886793073E+00 -0.10629520104E+01 -0.20805415381E+00  0.11802502462E+01  0.00000000000E+00 0.  1.
         11    1    3    3    0    0 -0.10042535940E+02 -0.29816315142E+01 -0.11683570399E+01  0.10540764348E+02  0.51100000000E-03 0. -1.
        -11    1    3    3    0    0  0.39110331567E+02 -0.10109334070E+02 -0.15622996279E+02  0.43311599873E+02  0.51100000000E-03 0.  1.
         12    1    3    3    0    0 -0.28598927696E+02  0.14153917594E+02  0.16999407472E+02  0.36155385533E+02  0.00000000000E+00 0. -1.
</event>
<event>
 7    1  0.1716782E-015  0.9000779E+02  0.7816164E-02  0.1186339E+00
        -11   -1    0    0    0    0  0.00000000000E+00  0.00000000000E+00  0.45593999997E+02  0.45594000000E+02  0.51100000000E-03 0. -1.
         11   -1    0    0    0    0 -0.00000000000E+00 -0.00000000000E+00 -0.45593999997E+02  0.45594000000E+02  0.51100000000E-03 0.  1.
    9900012    2    1    2    0    0  0.89645743619E+00  0.90828099382E-01  0.76224573490E+00  0.90007786359E+02  0.90000048339E+02 0.  0.
        -12    1    1    2    0    0 -0.89645743619E+00 -0.90828099382E-01 -0.76224573490E+00  0.11802136412E+01  0.00000000000E+00 0.  1.
         11    1    3    3    0    0 -0.43234807482E+00 -0.44557661020E+01  0.36948940544E+02  0.37219148083E+02  0.51100000000E-03 0. -1.
        -11    1    3    3    0    0  0.82407615389E+01  0.50362566093E+01  0.51019109607E+01  0.10922615396E+02  0.51100000000E-03 0.  1.
        -12    1    3    3    0    0 -0.69119560279E+01 -0.48966240791E+00 -0.41288605770E+02  0.41866022880E+02  0.00000000000E+00 0.  1.
</event>
<event>
 7    1  0.1716782E-015  0.9000772E+02  0.7816164E-02  0.1186339E+00
        -11   -1    0    0    0    0  0.00000000000E+00  0.00000000000E+00  0.45593999997E+02  0.45594000000E+02  0.51100000000E-03 0. -1.
         11   -1    0    0    0    0 -0.00000000000E+00 -0.00000000000E+00 -0.45593999997E+02  0.45594000000E+02  0.51100000000E-03 0.  1.
    9900012    2    1    2    0    0 -0.82272286051E+00 -0.40176089011E+00  0.74482642367E+00  0.90007724134E+02  0.89999985293E+02 0.  0.
        -12    1    1    2    0    0  0.82272286051E+00  0.40176089011E+00 -0.74482642367E+00  0.11802758658E+01  0.00000000000E+00 0.  1.
         11    1    3    3    0    0  0.34210857646E+02  0.70127405653E+01  0.77551987614E+01  0.35772956534E+02  0.51100000000E-03 0. -1.
        -11    1    3    3    0    0 -0.74759816472E+01 -0.20959112881E+02  0.16987586891E+01  0.22317269002E+02  0.51100000000E-03 0.  1.
        -12    1    3    3    0    0 -0.27557598859E+02  0.13544611426E+02 -0.87091310269E+01  0.31917498599E+02  0.00000000000E+00 0.  1.
</event>
<event>
 7    1  0.1716782E-015  0.9000774E+02  0.7816164E-02  0.1186339E+00
        -11   -1    0    0    0    0  0.00000000000E+00  0.00000000000E+00  0.45593999997E+02  0.45594000000E+02  0.51100000000E-03 0.  1.
         11   -1    0    0    0    0 -0.00000000000E+00 -0.00000000000E+00 -0.45593999997E+02  0.45594000000E+02  0.51100000000E-03 0. -1.
    9900012    2    1    2    0    0 -0.39049421993E+00 -0.34103495456E+00 -0.10602978935E+01  0.90007736386E+02  0.89999997706E+02 0.  0.
        -12    1    1    2    0    0  0.39049421993E+00  0.34103495456E+00  0.10602978935E+01  0.11802636142E+01  0.00000000000E+00 0.  1.
         11    1    3    3    0    0  0.76077226785E+01  0.31327009441E+02 -0.16040963191E+02  0.36007936142E+02  0.51100000000E-03 0. -1.
        -11    1    3    3    0    0  0.19545890536E+01  0.93073399595E+01  0.93958471431E+00  0.95566633920E+01  0.51100000000E-03 0.  1.
        -12    1    3    3    0    0 -0.99528059521E+01 -0.40975384355E+02  0.14041080583E+02  0.44443136852E+02  0.00000000000E+00 0.  1.
</event>
<event>
 7    1  0.1716782E-015  0.9000774E+02  0.7816164E-02  0.1186339E+00
        -11   -1    0    0    0    0  0.00000000000E+00  0.00000000000E+00  0.45593999997E+02  0.45594000000E+02  0.51100000000E-03 0.  1.
         11   -1    0    0    0    0 -0.00000000000E+00 -0.00000000000E+00 -0.45593999997E+02  0.45594000000E+02  0.51100000000E-03 0. -1.
    9900012    2    1    2    0    0  0.73260601755E+00 -0.92292544917E+00 -0.67145580902E-01  0.90007740922E+02  0.90000002302E+02 0.  0.
        -12    1    1    2    0    0 -0.73260601755E+00  0.92292544917E+00  0.67145580902E-01  0.11802590778E+01  0.00000000000E+00 0.  1.
         11    1    3    3    0    0 -0.68601788691E+01 -0.21578787676E+00  0.65930761537E+01  0.95172092524E+01  0.51100000000E-03 0. -1.
        -11    1    3    3    0    0  0.20001202596E+02 -0.35753105352E+02 -0.12555433851E+02  0.42848238786E+02  0.51100000000E-03 0.  1.
         12    1    3    3    0    0 -0.12408417710E+02  0.35045967779E+02  0.58952121167E+01  0.37642292884E+02  0.00000000000E+00 0. -1.
</event>
<event>
 7    1  0.1716782E-015  0.9000772E+02  0.7816164E-02  0.1186339E+00
        -11   -1    0    0    0    0  0.00000000000E+00  0.00000000000E+00  0.45593999997E+02  0.45594000000E+02  0.51100000000E-03 0. -1.
         11   -1    0    0    0    0 -0.00000000000E+00 -0.00000000000E+00 -0.45593999997E+02  0.45594000000E+02  0.51100000000E-03 0.  1.
    9900012    2    1    2    0    0 -0.66733640904E+00 -0.57123300670E+00 -0.78829459050E+00  0.90007723171E+02  0.89999984317E+02 0.  0.
        -12    1    1    2    0    0  0.66733640904E+00  0.57123300670E+00  0.78829459050E+00  0.11802768286E+01  0.00000000000E+00 0.  1.
         11    1    3    3    0    0  0.71739632762E+01 -0.10188129222E+02  0.57403302534E+01  0.13719151498E+02  0.51100000000E-03 0. -1.
        -11    1    3    3    0    0 -0.24337367357E+02 -0.26104066937E+02 -0.91871473026E+01  0.36852861983E+02  0.51100000000E-03 0.  1.
         12    1    3    3    0    0  0.16496067671E+02  0.35720963153E+02  0.26585224588E+01  0.39435709691E+02  0.00000000000E+00 0. -1.
</event>
<event>
 7    1  0.1716782E-015  0.9000769E+02  0.7816164E-02  0.1186339E+00
        -11   -1    0    0    0    0  0.00000000000E+00  0.00000000000E+00  0.45593999997E+02  0.45594000000E+02  0.51100000000E-03 0.  1.
         11   -1    0    0    0    0 -0.00000000000E+00 -0.00000000000E+00 -0.45593999997E+02  0.45594000000E+02  0.51100000000E-03 0. -1.
    9900012    2    1    2    0    0 -0.61469337378E-01  0.11779212924E+01  0.42983255770E-01  0.90007693002E+02  0.89999953749E+02 0.  0.
        -12    1    1    2    0    0  0.61469337378E-01 -0.11779212924E+01 -0.42983255770E-01  0.11803069985E+01  0.00000000000E+00 0.  1.
         11    1    3    3    0    0 -0.12451829869E+02 -0.25312009663E+02  0.98916279561E+01  0.29892979178E+02  0.51100000000E-03 0. -1.
        -11    1    3    3    0    0 -0.21290883034E+01 -0.15072191518E+02 -0.36699515423E+01  0.15657985782E+02  0.51100000000E-03 0.  1.
        -12    1    3    3    0    0  0.14519448835E+02  0.41562122474E+02 -0.61786931580E+01  0.44456728041E+02  0.00000000000E+00 0.  1.
</event>
<event>
 7    1  0.1716782E-015  0.9000776E+02  0.7816164E-02  0.1186339E+00
        -11   -1    0    0    0    0  0.00000000000E+00  0.00000000000E+00  0.45593999997E+02  0.45594000000E+02  0.51100000000E-03 0.  1.
         11   -1    0    0    0    0 -0.00000000000E+00 -0.00000000000E+00 -0.45593999997E+02  0.45594000000E+02  0.51100000000E-03 0. -1.
    9900012    2    1    2    0    0 -0.11000899601E+01 -0.10716244176E+00  0.41385412732E+00  0.90007764029E+02  0.90000025714E+02 0.  0.
        -12    1    1    2    0    0  0.11000899601E+01  0.10716244176E+00 -0.41385412732E+00  0.11802359713E+01  0.00000000000E+00 0.  1.
         11    1    3    3    0    0  0.15530769808E+02  0.29915041881E+00 -0.34954484809E+02  0.38250624966E+02  0.51100000000E-03 0. -1.
        -11    1    3    3    0    0  0.39130883748E+00  0.74233834369E+01 -0.37921985992E+01  0.83450892586E+01  0.51100000000E-03 0.  1.
        -12    1    3    3    0    0 -0.17022168605E+02 -0.78296962974E+01  0.39160537535E+02  0.43412049804E+02  0.00000000000E+00 0.  1.
</event>
<event>
 7    1  0.1716782E-015  0.9000774E+02  0.7816164E-02  0.1186339E+00
        -11   -1    0    0    0    0  0.00000000000E+00  0.00000000000E+00  0.45593999997E+02  0.45594000000E+02  0.51100000000E-03 0. -1.
         11   -1    0    0    0    0 -0.00000000000E+00 -0.00000000000E+00 -0.45593999997E+02  0.45594000000E+02  0.51100000000E-03 0.  1.
    9900012    2    1    2    0    0  0.74708224069E+00 -0.90682781023E+00  0.11197704712E+00  0.90007742651E+02  0.90000004054E+02 0.  0.
        -12    1    1    2    0    0 -0.74708224069E+00  0.90682781023E+00 -0.11197704712E+00  0.11802573494E+01  0.00000000000E+00 0.  1.
         11    1    3    3    0    0  0.44034415985E+01 -0.10147980418E+02 -0.31801165444E+01  0.11510210509E+02  0.51100000000E-03 0. -1.
        -11    1    3    3    0    0 -0.17539076057E+02 -0.22290108516E+02 -0.21886168403E+02  0.35825584353E+02  0.51100000000E-03 0.  1.
         12    1    3    3    0    0  0.13882716699E+02  0.31531261124E+02  0.25178261994E+02  0.42671947788E+02  0.00000000000E+00 0. -1.
</event>
<event>
 7    1  0.1716782E-015  0.9000770E+02  0.7816164E-02  0.1186339E+00
        -11   -1    0    0    0    0  0.00000000000E+00  0.00000000000E+00  0.45593999997E+02  0.45594000000E+02  0.51100000000E-03 0.  1.
         11   -1    0    0    0    0 -0.00000000000E+00 -0.00000000000E+00 -0.45593999997E+02  0.45594000000E+02  0.51100000000E-03 0. -1.
    9900012    2    1    2    0    0  0.18706764929E+00  0.86168459070E+00 -0.78461265716E+00  0.90007698487E+02  0.89999959307E+02 0.  0.
        -12    1    1    2    0    0 -0.18706764929E+00 -0.86168459070E+00  0.78461265716E+00  0.11803015128E+01  0.00000000000E+00 0.  1.
         11    1    3    3    0    0 -0.33698515525E+02 -0.86032291292E+01  0.46265837783E+01  0.35085763178E+02  0.51100000000E-03 0. -1.
        -11    1    3    3    0    0 -0.88885218855E+01 -0.40648389590E+01 -0.42955341200E+00  0.97833150551E+01  0.51100000000E-03 0.  1.
        -12    1    3    3    0    0  0.42774105060E+02  0.13529752679E+02 -0.49816430235E+01  0.45138620254E+02  0.00000000000E+00 0.  1.
</event>
<event>
 7    1  0.1716782E-015  0.9000775E+02  0.7816164E-02  0.1186339E+00
        -11   -1    0    0    0    0  0.00000000000E+00  0.00000000000E+00  0.45593999997E+02  0.45594000000E+02  0.51100000000E-03 0.  1.
         11   -1    0    0    0    0 -0.00000000000E+00 -0.00000000000E+00 -0.45593999997E+02  0.45594000000E+02  0.51100000000E-03 0. -1.
    9900012    2    1    2    0    0 -0.64162833431E+00 -0.98498419198E+00  0.10541102083E+00  0.90007749069E+02  0.90000010556E+02 0.  0.
        -12    1    1    2    0    0  0.64162833431E+00  0.98498419198E+00 -0.10541102083E+00  0.11802509314E+01  0.00000000000E+00 0.  1.
         11    1    3    3    0    0 -0.24544098404E+02 -0.18586221855E+02 -0.11773313456E+01  0.30809844509E+02  0.51100000000E-03 0. -1.
        -11    1    3    3    0    0 -0.43759103830E+01  0.15317645648E+02 -0.18648236850E+02  0.24526222656E+02  0.51100000000E-03 0.  1.
        -12    1    3    3    0    0  0.28278380452E+02  0.22835920156E+01  0.19930979217E+02  0.34671681904E+02  0.00000000000E+00 0.  1.
</event>
<event>
 7    1  0.1716782E-015  0.9000777E+02  0.7816164E-02  0.1186339E+00
        -11   -1    0    0    0    0  0.00000000000E+00  0.00000000000E+00  0.45593999997E+02  0.45594000000E+02  0.51100000000E-03 0. -1.
         11   -1    0    0    0    0 -0.00000000000E+00 -0.00000000000E+00 -0.45593999997E+02  0.45594000000E+02  0.51100000000E-03 0.  1.
    9900012    2    1    2    0    0 -0.11563092679E+01 -0.34370875020E-01 -0.23390262483E+00  0.90007769972E+02  0.90000031736E+02 0.  0.
        -12    1    1    2    0    0  0.11563092679E+01  0.34370875020E-01  0.23390262483E+00  0.11802300276E+01  0.00000000000E+00 0.  1.
         11    1    3    3    0    0 -0.14636988627E+02 -0.98298593828E+01  0.34410397509E+02  0.38664493124E+02  0.51100000000E-03 0. -1.
        -11    1    3    3    0    0 -0.44559520490E+01 -0.85725543084E+01 -0.20920515436E+01  0.98853869907E+01  0.51100000000E-03 0.  1.
        -12    1    3    3    0    0  0.17936631408E+02  0.18368042816E+02 -0.32552248590E+02  0.41457889858E+02  0.00000000000E+00 0.  1.
</event>
<event>
 7    1  0.1716782E-015  0.9000780E+02  0.7816164E-02  0.1186339E+00
        -11   -1    0    0    0    0  0.00000000000E+00  0.00000000000E+00  0.45593999997E+02  0.45594000000E+02  0.51100000000E-03 0.  1.
         11   -1    0    0    0    0 -0.00000000000E+00 -0.00000000000E+00 -0.45593999997E+02  0.45594000000E+02  0.51100000000E-03 0. -1.
    9900012    2    1    2    0    0 -0.10204969998E+01  0.35346039481E+00 -0.47594576199E+00  0.90007799701E+02  0.90000061857E+02 0.  0.
        -12    1    1    2    0    0  0.10204969998E+01 -0.35346039481E+00  0.47594576199E+00  0.11802002990E+01  0.00000000000E+00 0.  1.
         11    1    3    3    0    0 -0.68257724334E+01  0.24143546008E+02 -0.26872806047E+02  0.36764788701E+02  0.51100000000E-03 0. -1.
        -11    1    3    3    0    0 -0.11350505224E+01 -0.48036728042E+01 -0.10257767644E+02  0.11383558731E+02  0.51100000000E-03 0.  1.
        -12    1    3    3    0    0  0.69403259559E+01 -0.18986412809E+02  0.36654627928E+02  0.41859452269E+02  0.00000000000E+00 0.  1.
</event>
<event>
 7    1  0.1716782E-015  0.9000771E+02  0.7816164E-02  0.1186339E+00
        -11   -1    0    0    0    0  0.00000000000E+00  0.00000000000E+00  0.45593999997E+02  0.45594000000E+02  0.51100000000E-03 0. -1.
         11   -1    0    0    0    0 -0.00000000000E+00 -0.00000000000E+00 -0.45593999997E+02  0.45594000000E+02  0.51100000000E-03 0.  1.
    9900012    2    1    2    0    0  0.25211593349E+00  0.78814311745E+00  0.84163532465E+00  0.90007711037E+02  0.89999972022E+02 0.  0.
        -12    1    1    2    0    0 -0.25211593349E+00 -0.78814311745E+00 -0.84163532465E+00  0.11802889634E+01  0.00000000000E+00 0.  1.
         11    1    3    3    0    0 -0.12699971592E+01  0.13642214430E+02  0.35141939961E+02  0.37718415287E+02  0.51100000000E-03 0. -1.
        -11    1    3    3    0    0  0.12694050017E+02 -0.15577856363E+01  0.17355930189E+01  0.12906505542E+02  0.51100000000E-03 0.  1.
        -12    1    3    3    0    0 -0.11171936924E+02 -0.11296285676E+02 -0.36035897655E+02  0.39382790207E+02  0.00000000000E+00 0.  1.
</event>
<event>
 7    1  0.1716782E-015  0.9000776E+02  0.7816164E-02  0.1186339E+00
        -11   -1    0    0    0    0  0.00000000000E+00  0.00000000000E+00  0.45593999997E+02  0.45594000000E+02  0.51100000000E-03 0. -1.
         11   -1    0    0    0    0 -0.00000000000E+00 -0.00000000000E+00 -0.45593999997E+02  0.45594000000E+02  0.51100000000E-03 0.  1.
    9900012    2    1    2    0    0 -0.11692013444E+01 -0.15153584432E+00  0.54568091228E-01  0.90007757409E+02  0.90000019007E+02 0.  0.
        -12    1    1    2    0    0  0.11692013444E+01  0.15153584432E+00 -0.54568091228E-01  0.11802425905E+01  0.00000000000E+00 0.  1.
         11    1    3    3    0    0  0.99080259768E+01 -0.28432718456E+02  0.25934128264E+02  0.39738740123E+02  0.51100000000E-03 0. -1.
        -11    1    3    3    0    0  0.69127235880E+01 -0.20846043744E+01 -0.77432442639E+01  0.10587216574E+02  0.51100000000E-03 0.  1.
        -12    1    3    3    0    0 -0.17989950909E+02  0.30365786986E+02 -0.18136315908E+02  0.39681800712E+02  0.00000000000E+00 0.  1.
</event>
<event>
 7    1  0.1716782E-015  0.9000773E+02  0.7816164E-02  0.1186339E+00
        -11   -1    0    0    0    0  0.00000000000E+00  0.00000000000E+00  0.45593999997E+02  0.45594000000E+02  0.51100000000E-03 0.  1.
         11   -1    0    0    0    0 -0.00000000000E+00 -0.00000000000E+00 -0.45593999997E+02  0.45594000000E+02  0.51100000000E-03 0. -1.
    9900012    2    1    2    0    0 -0.69482756483E+00  0.59056984475E+00 -0.74931966703E+00  0.90007729671E+02  0.89999990903E+02 0.  0.
        -12    1    1    2    0    0  0.69482756483E+00 -0.59056984475E+00  0.74931966703E+00  0.11802703291E+01  0.00000000000E+00 0.  1.
         11    1    3    3    0    0 -0.14205259678E+02 -0.25805459887E+02  0.28311415832E+02  0.40856424577E+02  0.51100000000E-03 0. -1.
        -11    1    3    3    0    0 -0.53276190195E+01  0.46242620711E+01  0.14493740913E+01  0.72019448510E+01  0.51100000000E-03 0.  1.
        -12    1    3    3    0    0  0.18838051133E+02  0.21771767661E+02 -0.30510109591E+02  0.41949360243E+02  0.00000000000E+00 0.  1.
</event>
<event>
 7    1  0.1716782E-015  0.9000760E+02  0.7816164E-02  0.1186339E+00
        -11   -1    0    0    0    0  0.00000000000E+00  0.00000000000E+00  0.45593999997E+02  0.45594000000E+02  0.51100000000E-03 0. -1.
         11   -1    0    0    0    0 -0.00000000000E+00 -0.00000000000E+00 -0.45593999997E+02  0.45594000000E+02  0.51100000000E-03 0.  1.
    9900012    2    1    2    0    0 -0.19701081293E+00  0.89972044570E+00  0.73825849862E+00  0.90007603562E+02  0.89999863129E+02 0.  0.
        -12    1    1    2    0    0  0.19701081293E+00 -0.89972044570E+00 -0.73825849862E+00  0.11803964383E+01  0.00000000000E+00 0.  1.
         11    1    3    3    0    0 -0.51551391440E+01 -0.21893463318E+02  0.21874843663E+02  0.31375276592E+02  0.51100000000E-03 0. -1.
        -11    1    3    3    0    0 -0.50684711658E+01  0.24950515582E+02  0.88389597598E+01  0.26950785474E+02  0.51100000000E-03 0.  1.
        -12    1    3    3    0    0  0.10026599497E+02 -0.21573318182E+01 -0.29975544924E+02  0.31681541496E+02  0.00000000000E+00 0.  1.
</event>
<event>
 7    1  0.1716782E-015  0.9000767E+02  0.7816164E-02  0.1186339E+00
        -11   -1    0    0    0    0  0.00000000000E+00  0.00000000000E+00  0.45593999997E+02  0.45594000000E+02  0.51100000000E-03 0.  1.
         11   -1    0    0    0    0 -0.00000000000E+00 -0.00000000000E+00 -0.45593999997E+02  0.45594000000E+02  0.51100000000E-03 0. -1.
    9900012    2    1    2    0    0 -0.76638043693E+00 -0.42508032659E+00 -0.79066342031E+00  0.90007669156E+02  0.89999929588E+02 0.  0.
        -12    1    1    2    0    0  0.76638043693E+00  0.42508032659E+00  0.79066342031E+00  0.11803308445E+01  0.00000000000E+00 0.  1.
         11    1    3    3    0    0  0.11162294158E+01  0.17733056248E+02 -0.35095514193E+02  0.39337035587E+02  0.51100000000E-03 0. -1.
        -11    1    3    3    0    0  0.96930129890E+01 -0.15314567278E+01 -0.11045362762E+01  0.98752144868E+01  0.51100000000E-03 0.  1.
        -12    1    3    3    0    0 -0.11575622842E+02 -0.16626679847E+02  0.35409387049E+02  0.40795419082E+02  0.00000000000E+00 0.  1.
</event>
<event>
 7    1  0.1716782E-015  0.9000777E+02  0.7816164E-02  0.1186339E+00
        -11   -1    0    0    0    0  0.00000000000E+00  0.00000000000E+00  0.45593999997E+02  0.45594000000E+02  0.51100000000E-03 0.  1.
         11   -1    0    0    0    0 -0.00000000000E+00 -0.00000000000E+00 -0.45593999997E+02  0.45594000000E+02  0.51100000000E-03 0. -1.
    9900012    2    1    2    0    0 -0.96172338694E+00  0.47473348161E+00 -0.49260494834E+00  0.90007769774E+02  0.90000031535E+02 0.  0.
        -12    1    1    2    0    0  0.96172338694E+00 -0.47473348161E+00  0.49260494834E+00  0.11802302261E+01  0.00000000000E+00 0.  1.
         11    1    3    3    0    0 -0.10974297817E+01 -0.42468772610E+01  0.93360170559E+01  0.10315111891E+02  0.51100000000E-03 0. -1.
        -11    1    3    3    0    0  0.29126036676E+02  0.28032512097E+02  0.25030225171E+01  0.40502010677E+02  0.51100000000E-03 0.  1.
         12    1    3    3    0    0 -0.28990330282E+02 -0.23310901354E+02 -0.12331644521E+02  0.39190647205E+02  0.00000000000E+00 0. -1.
</event>
<event>
 7    1  0.1716782E-015  0.9000748E+02  0.7816164E-02  0.1186340E+00
        -11   -1    0    0    0    0  0.00000000000E+00  0.00000000000E+00  0.45593999997E+02  0.45594000000E+02  0.51100000000E-03 0.  1.
         11   -1    0    0    0    0 -0.00000000000E+00 -0.00000000000E+00 -0.45593999997E+02  0.45594000000E+02  0.51100000000E-03 0. -1.
    9900012    2    1    2    0    0  0.98647816539E+00 -0.49966909573E+00 -0.41329317377E+00  0.90007483323E+02  0.89999741303E+02 0.  0.
        -12    1    1    2    0    0 -0.98647816539E+00  0.49966909573E+00  0.41329317377E+00  0.11805166765E+01  0.00000000000E+00 0.  1.
         11    1    3    3    0    0  0.26950175684E+02 -0.32004415112E+02 -0.12560968775E+02  0.43684922947E+02  0.51100000000E-03 0. -1.
        -11    1    3    3    0    0 -0.11713369923E+02  0.26110123644E+01  0.32580792059E+00  0.12005272658E+02  0.51100000000E-03 0.  1.
        -12    1    3    3    0    0 -0.14250327595E+02  0.28893733652E+02  0.11821867681E+02  0.34317287719E+02  0.00000000000E+00 0.  1.
</event>
<event>
 7    1  0.1716782E-015  0.9000768E+02  0.7816164E-02  0.1186339E+00
        -11   -1    0    0    0    0  0.00000000000E+00  0.00000000000E+00  0.45593999997E+02  0.45594000000E+02  0.51100000000E-03 0. -1.
         11   -1    0    0    0    0 -0.00000000000E+00 -0.00000000000E+00 -0.45593999997E+02  0.45594000000E+02  0.51100000000E-03 0.  1.
    9900012    2    1    2    0    0 -0.70262678629E+00  0.87060522080E+00  0.37619725587E+00  0.90007677067E+02  0.89999937604E+02 0.  0.
        -12    1    1    2    0    0  0.70262678629E+00 -0.87060522080E+00 -0.37619725587E+00  0.11803229332E+01  0.00000000000E+00 0.  1.
         11    1    3    3    0    0  0.62081188327E+01  0.73163848690E+01 -0.28520692239E+01  0.10010221082E+02  0.51100000000E-03 0. -1.
        -11    1    3    3    0    0 -0.49529997809E+01  0.31225767657E+02 -0.18333921226E+02  0.36547413594E+02  0.51100000000E-03 0.  1.
         12    1    3    3    0    0 -0.19577458380E+01 -0.37671547305E+02  0.21562187706E+02  0.43450042391E+02  0.00000000000E+00 0. -1.
</event>
<event>
 7    1  0.2937606E-015  0.9000775E+02  0.7816164E-02  0.1186339E+00
        -11   -1    0    0    0    0  0.00000000000E+00  0.00000000000E+00  0.45593999997E+02  0.45594000000E+02  0.51100000000E-03 0. -1.
         11   -1    0    0    0    0 -0.00000000000E+00 -0.00000000000E+00 -0.45593999997E+02  0.45594000000E+02  0.51100000000E-03 0.  1.
    9900012    2    1    2    0    0 -0.13141271764E+00  0.59680015419E-02  0.11728948602E+01  0.90007751182E+02  0.90000012698E+02 0.  0.
        -12    1    1    2    0    0  0.13141271764E+00 -0.59680015419E-02 -0.11728948602E+01  0.11802488181E+01  0.00000000000E+00 0.  1.
         11    1    3    3    0    0  0.91679712469E+01  0.31767203896E+02  0.27152047126E+02  0.42783648787E+02  0.51100000000E-03 0. -1.
        -11    1    3    3    0    0  0.28320865414E+00  0.86110742439E+00 -0.93156757269E+01  0.93596756166E+01  0.51100000000E-03 0.  1.
        -12    1    3    3    0    0 -0.95825926187E+01 -0.32622343319E+02 -0.16663476538E+02  0.37864426778E+02  0.00000000000E+00 0.  1.
</event>
<event>
 7    1  0.1716782E-015  0.9000802E+02  0.7816164E-02  0.1186338E+00
        -11   -1    0    0    0    0  0.00000000000E+00  0.00000000000E+00  0.45593999997E+02  0.45594000000E+02  0.51100000000E-03 0.  1.
         11   -1    0    0    0    0 -0.00000000000E+00 -0.00000000000E+00 -0.45593999997E+02  0.45594000000E+02  0.51100000000E-03 0. -1.
    9900012    2    1    2    0    0  0.50380402887E+00 -0.34088988814E+00 -0.10110974076E+01  0.90008024414E+02  0.90000289536E+02 0.  0.
        -12    1    1    2    0    0 -0.50380402887E+00  0.34088988814E+00  0.10110974076E+01  0.11799755858E+01  0.00000000000E+00 0.  1.
         11    1    3    3    0    0 -0.10536284694E+02  0.99693888744E+00 -0.32160813391E+01  0.11061209777E+02  0.51100000000E-03 0. -1.
        -11    1    3    3    0    0  0.13424220735E+02  0.95633016020E+01  0.38017191759E+02  0.41436376644E+02  0.51100000000E-03 0.  1.
         12    1    3    3    0    0 -0.23841320117E+01 -0.10901130378E+02 -0.35812207827E+02  0.37510437993E+02  0.00000000000E+00 0. -1.
</event>
<event>
 7    1  0.1716782E-015  0.9000758E+02  0.7816164E-02  0.1186339E+00
        -11   -1    0    0    0    0  0.00000000000E+00  0.00000000000E+00  0.45593999997E+02  0.45594000000E+02  0.51100000000E-03 0.  1.
         11   -1    0    0    0    0 -0.00000000000E+00 -0.00000000000E+00 -0.45593999997E+02  0.45594000000E+02  0.51100000000E-03 0. -1.
    9900012    2    1    2    0    0  0.51664890136E+00  0.10612262124E+01  0.16459192119E-01  0.90007577166E+02  0.89999836385E+02 0.  0.
        -12    1    1    2    0    0 -0.51664890136E+00 -0.10612262124E+01 -0.16459192119E-01  0.11804228336E+01  0.00000000000E+00 0.  1.
         11    1    3    3    0    0 -0.85153058883E+01 -0.18333514254E+01 -0.25077417613E+01  0.90642363618E+01  0.51100000000E-03 0. -1.
        -11    1    3    3    0    0 -0.27134688124E+01 -0.33113615041E+02 -0.18080957030E+02  0.37825856520E+02  0.51100000000E-03 0.  1.
         12    1    3    3    0    0  0.11745423602E+02  0.36008192679E+02  0.20605157983E+02  0.43117484285E+02  0.00000000000E+00 0. -1.
</event>
<event>
 7    1  0.1716782E-015  0.9000778E+02  0.7816164E-02  0.1186339E+00
        -11   -1    0    0    0    0  0.00000000000E+00  0.00000000000E+00  0.45593999997E+02  0.45594000000E+02  0.51100000000E-03 0.  1.
         11   -1    0    0    0    0 -0.00000000000E+00 -0.00000000000E+00 -0.45593999997E+02  0.45594000000E+02  0.51100000000E-03 0. -1.
    9900012    2    1    2    0    0 -0.87352929089E+00 -0.74311816983E+00 -0.27863422188E+00  0.90007781772E+02  0.90000043691E+02 0.  0.
        -12    1    1    2    0    0  0.87352929089E+00  0.74311816983E+00  0.27863422188E+00  0.11802182281E+01  0.00000000000E+00 0.  1.
         11    1    3    3    0    0  0.24908719948E+01  0.60971079020E+01  0.65205983381E+01  0.92680834594E+01  0.51100000000E-03 0. -1.
        -11    1    3    3    0    0  0.13313355227E+01 -0.13168798982E+02  0.35409091195E+02  0.37802029845E+02  0.51100000000E-03 0.  1.
         12    1    3    3    0    0 -0.46957368084E+01  0.63285729106E+01 -0.42208323755E+02  0.42937668467E+02  0.00000000000E+00 0. -1.
</event>
<event>
 7    1  0.1716782E-015  0.9000772E+02  0.7816164E-02  0.1186339E+00
        -11   -1    0    0    0    0  0.00000000000E+00  0.00000000000E+00  0.45593999997E+02  0.45594000000E+02  0.51100000000E-03 0.  1.
         11   -1    0    0    0    0 -0.00000000000E+00 -0.00000000000E+00 -0.45593999997E+02  0.45594000000E+02  0.51100000000E-03 0. -1.
    9900012    2    1    2    0    0 -0.81097637445E+00 -0.50964754817E+00  0.68966768462E+00  0.90007718331E+02  0.89999979413E+02 0.  0.
        -12    1    1    2    0    0  0.81097637445E+00  0.50964754817E+00 -0.68966768462E+00  0.11802816691E+01  0.00000000000E+00 0.  1.
         11    1    3    3    0    0  0.82893931082E+01 -0.19808891246E+02 -0.31629707957E+02  0.38230153494E+02  0.51100000000E-03 0. -1.
        -11    1    3    3    0    0  0.42116756810E+01 -0.15035763262E+01 -0.52003591691E+01  0.68587673498E+01  0.51100000000E-03 0.  1.
        -12    1    3    3    0    0 -0.13312045164E+02  0.20802820025E+02  0.37519734810E+02  0.44918797487E+02  0.00000000000E+00 0.  1.
</event>
<event>
 7    1  0.1716782E-015  0.9000774E+02  0.7816164E-02  0.1186339E+00
        -11   -1    0    0    0    0  0.00000000000E+00  0.00000000000E+00  0.45593999997E+02  0.45594000000E+02  0.51100000000E-03 0.  1.
         11   -1    0    0    0    0 -0.00000000000E+00 -0.00000000000E+00 -0.45593999997E+02  0.45594000000E+02  0.51100000000E-03 0. -1.
    9900012    2    1    2    0    0 -0.72608517136E+00 -0.80881887561E+00 -0.46003082342E+00  0.90007739008E+02  0.90000000363E+02 0.  0.
        -12    1    1    2    0    0  0.72608517136E+00  0.80881887561E+00  0.46003082342E+00  0.11802609915E+01  0.00000000000E+00 0.  1.
         11    1    3    3    0    0  0.10588894439E+02  0.12761914831E+02  0.14470311168E+02  0.22008658777E+02  0.51100000000E-03 0. -1.
        -11    1    3    3    0    0 -0.21077238988E+02  0.16518278763E+02  0.90902135850E+01  0.28279595470E+02  0.51100000000E-03 0.  1.
         12    1    3    3    0    0  0.97622593777E+01 -0.30089012469E+02 -0.24020555576E+02  0.39719484762E+02  0.00000000000E+00 0. -1.
</event>
<event>
 7    1  0.1716782E-015  0.9000765E+02  0.7816164E-02  0.1186339E+00
        -11   -1    0    0    0    0  0.00000000000E+00  0.00000000000E+00  0.45593999997E+02  0.45594000000E+02  0.51100000000E-03 0. -1.
         11   -1    0    0    0    0 -0.00000000000E+00 -0.00000000000E+00 -0.45593999997E+02  0.45594000000E+02  0.51100000000E-03 0.  1.
    9900012    2    1    2    0    0  0.11201567782E+01  0.18600370219E-01  0.37164862595E+00  0.90007652643E+02  0.89999912858E+02 0.  0.
        -12    1    1    2    0    0 -0.11201567782E+01 -0.18600370219E-01 -0.37164862595E+00  0.11803473568E+01  0.00000000000E+00 0.  1.
         11    1    3    3    0    0 -0.54749266838E+01 -0.57297299243E+01  0.65110463585E+00  0.79516391207E+01  0.51100000000E-03 0. -1.
        -11    1    3    3    0    0 -0.23583699838E+02 -0.41485750759E+01 -0.30118515473E+02  0.38477610993E+02  0.51100000000E-03 0.  1.
         12    1    3    3    0    0  0.30178783300E+02  0.98969053704E+01  0.29839059463E+02  0.43578402529E+02  0.00000000000E+00 0. -1.
</event>
<event>
 7    1  0.1716782E-015  0.9000714E+02  0.7816164E-02  0.1186340E+00
        -11   -1    0    0    0    0  0.00000000000E+00  0.00000000000E+00  0.45593999997E+02  0.45594000000E+02  0.51100000000E-03 0.  1.
         11   -1    0    0    0    0 -0.00000000000E+00 -0.00000000000E+00 -0.45593999997E+02  0.45594000000E+02  0.51100000000E-03 0. -1.
    9900012    2    1    2    0    0  0.87117282963E+00 -0.67952414689E+00 -0.41681541225E+00  0.90007140037E+02  0.89999393483E+02 0.  0.
        -12    1    1    2    0    0 -0.87117282963E+00  0.67952414689E+00  0.41681541225E+00  0.11808599634E+01  0.00000000000E+00 0.  1.
         11    1    3    3    0    0 -0.34631398385E+01 -0.71641230933E+01  0.38537858456E+01  0.88413609157E+01  0.51100000000E-03 0. -1.
        -11    1    3    3    0    0  0.30911257604E+02 -0.24015929562E+02 -0.97528130514E+01  0.40340898379E+02  0.51100000000E-03 0.  1.
         12    1    3    3    0    0 -0.26576944936E+02  0.30500528508E+02  0.54822117936E+01  0.40824880741E+02  0.00000000000E+00 0. -1.
</event>
<event>
 7    1  0.1716782E-015  0.9000780E+02  0.7816164E-02  0.1186339E+00
        -11   -1    0    0    0    0  0.00000000000E+00  0.00000000000E+00  0.45593999997E+02  0.45594000000E+02  0.51100000000E-03 0.  1.
         11   -1    0    0    0    0 -0.00000000000E+00 -0.00000000000E+00 -0.45593999997E+02  0.45594000000E+02  0.51100000000E-03 0. -1.
    9900012    2    1    2    0    0 -0.39128505453E+00  0.52205189329E+00 -0.98348420944E+00  0.90007795203E+02  0.90000057299E+02 0.  0.
        -12    1    1    2    0    0  0.39128505453E+00 -0.52205189329E+00  0.98348420944E+00  0.11802047972E+01  0.00000000000E+00 0.  1.
         11    1    3    3    0    0 -0.26367242819E+02  0.16779024423E+02  0.13373568472E+02  0.33994403781E+02  0.51100000000E-03 0. -1.
        -11    1    3    3    0    0 -0.62494400736E+01  0.92743948430E+01  0.26953931498E+01  0.11503697033E+02  0.51100000000E-03 0.  1.
        -12    1    3    3    0    0  0.32225397838E+02 -0.25531367373E+02 -0.17052445831E+02  0.44509694389E+02  0.00000000000E+00 0.  1.
</event>
<event>
 7    1  0.1716782E-015  0.9000764E+02  0.7816164E-02  0.1186339E+00
        -11   -1    0    0    0    0  0.00000000000E+00  0.00000000000E+00  0.45593999997E+02  0.45594000000E+02  0.51100000000E-03 0. -1.
         11   -1    0    0    0    0 -0.00000000000E+00 -0.00000000000E+00 -0.45593999997E+02  0.45594000000E+02  0.51100000000E-03 0.  1.
    9900012    2    1    2    0    0 -0.62707728809E-01  0.92494235641E+00 -0.73061307089E+00  0.90007641545E+02  0.89999901614E+02 0.  0.
        -12    1    1    2    0    0  0.62707728809E-01 -0.92494235641E+00  0.73061307089E+00  0.11803584546E+01  0.00000000000E+00 0.  1.
         11    1    3    3    0    0 -0.11046835415E+02  0.62353648520E+00 -0.11365866580E+02  0.15862039397E+02  0.51100000000E-03 0. -1.
        -11    1    3    3    0    0 -0.22146940686E+02  0.19103503156E+02 -0.98886077067E+01  0.30874186260E+02  0.51100000000E-03 0.  1.
         12    1    3    3    0    0  0.33131068373E+02 -0.18802097285E+02  0.20523861216E+02  0.43271415889E+02  0.00000000000E+00 0. -1.
</event>
<event>
 7    1  0.1716782E-015  0.9000747E+02  0.7816164E-02  0.1186340E+00
        -11   -1    0    0    0    0  0.00000000000E+00  0.00000000000E+00  0.45593999997E+02  0.45594000000E+02  0.51100000000E-03 0. -1.
         11   -1    0    0    0    0 -0.00000000000E+00 -0.00000000000E+00 -0.45593999997E+02  0.45594000000E+02  0.51100000000E-03 0.  1.
    9900012    2    1    2    0    0  0.56197192565E-01  0.73255801331E+00  0.92403603663E+00  0.90007473861E+02  0.89999731716E+02 0.  0.
        -12    1    1    2    0    0 -0.56197192565E-01 -0.73255801331E+00 -0.92403603663E+00  0.11805261388E+01  0.00000000000E+00 0.  1.
         11    1    3    3    0    0  0.65711640844E+01  0.72723012827E+01  0.11814775193E+02  0.15351074115E+02  0.51100000000E-03 0. -1.
        -11    1    3    3    0    0  0.24732834444E+02 -0.20273664435E+02 -0.21936652436E+02  0.38780810843E+02  0.51100000000E-03 0.  1.
         12    1    3    3    0    0 -0.31247801336E+02  0.13733921166E+02  0.11045913280E+02  0.35875588903E+02  0.00000000000E+00 0. -1.
</event>
<event>
 7    1  0.1716782E-015  0.9000896E+02  0.7816164E-02  0.1186337E+00
        -11   -1    0    0    0    0  0.00000000000E+00  0.00000000000E+00  0.45593999997E+02  0.45594000000E+02  0.51100000000E-03 0.  1.
         11   -1    0    0    0    0 -0.00000000000E+00 -0.00000000000E+00 -0.45593999997E+02  0.45594000000E+02  0.51100000000E-03 0. -1.
    9900012    2    1    2    0    0 -0.23147822848E-01  0.11405813422E+01  0.29779233245E+00  0.90008957213E+02  0.90001234640E+02 0.  0.
        -12    1    1    2    0    0  0.23147822848E-01 -0.11405813422E+01 -0.29779233245E+00  0.11790427868E+01  0.00000000000E+00 0.  1.
         11    1    3    3    0    0 -0.38438290718E+01 -0.42995114169E+01 -0.38032431465E+02  0.38467215441E+02  0.51100000000E-03 0. -1.
        -11    1    3    3    0    0  0.57239533972E+01 -0.59093168388E+01 -0.29096171683E+01  0.87263703979E+01  0.51100000000E-03 0.  1.
        -12    1    3    3    0    0 -0.19032721482E+01  0.11349409598E+02  0.41239840966E+02  0.42815371375E+02  0.00000000000E+00 0.  1.
</event>
<event>
 7    1  0.1716782E-015  0.9000767E+02  0.7816164E-02  0.1186339E+00
        -11   -1    0    0    0    0  0.00000000000E+00  0.00000000000E+00  0.45593999997E+02  0.45594000000E+02  0.51100000000E-03 0.  1.
         11   -1    0    0    0    0 -0.00000000000E+00 -0.00000000000E+00 -0.45593999997E+02  0.45594000000E+02  0.51100000000E-03 0. -1.
    9900012    2    1    2    0    0  0.60182029551E+00  0.44412358797E+00 -0.91309701455E+00  0.90007669713E+02  0.89999930153E+02 0.  0.
        -12    1    1    2    0    0 -0.60182029551E+00 -0.44412358797E+00  0.91309701455E+00  0.11803302874E+01  0.00000000000E+00 0.  1.
         11    1    3    3    0    0 -0.67094016569E+01 -0.46942318304E+01  0.84373549322E+01  0.11757586554E+02  0.51100000000E-03 0. -1.
        -11    1    3    3    0    0  0.63533969746E+01  0.12397836945E+02  0.32712098658E+02  0.35554935142E+02  0.51100000000E-03 0.  1.
         12    1    3    3    0    0  0.95782497783E+00 -0.72594815267E+01 -0.42062550605E+02  0.42695148016E+02  0.00000000000E+00 0. -1.
</event>
<event>
 7    1  0.1716782E-015  0.9000770E+02  0.7816164E-02  0.1186339E+00
        -11   -1    0    0    0    0  0.00000000000E+00  0.00000000000E+00  0.45593999997E+02  0.45594000000E+02  0.51100000000E-03 0. -1.
         11   -1    0    0    0    0 -0.00000000000E+00 -0.00000000000E+00 -0.45593999997E+02  0.45594000000E+02  0.51100000000E-03 0.  1.
    9900012    2    1    2    0    0  0.14585570640E+00 -0.69629925315E+00  0.94180566820E+00  0.90007701540E+02  0.89999962401E+02 0.  0.
        -12    1    1    2    0    0 -0.14585570640E+00  0.69629925315E+00 -0.94180566820E+00  0.11802984596E+01  0.00000000000E+00 0.  1.
         11    1    3    3    0    0  0.53575295421E+01 -0.95783069806E+01 -0.37959939052E+01  0.11612779917E+02  0.51100000000E-03 0. -1.
        -11    1    3    3    0    0  0.11441946734E+02 -0.25048268905E+02 -0.19276658869E+02  0.33614334705E+02  0.51100000000E-03 0.  1.
         12    1    3    3    0    0 -0.16653620570E+02  0.33930276633E+02  0.24014458443E+02  0.44780586919E+02  0.00000000000E+00 0. -1.
</event>
<event>
 7    1  0.1716782E-015  0.9000774E+02  0.7816164E-02  0.1186339E+00
        -11   -1    0    0    0    0  0.00000000000E+00  0.00000000000E+00  0.45593999997E+02  0.45594000000E+02  0.51100000000E-03 0.  1.
         11   -1    0    0    0    0 -0.00000000000E+00 -0.00000000000E+00 -0.45593999997E+02  0.45594000000E+02  0.51100000000E-03 0. -1.
    9900012    2    1    2    0    0  0.11317050813E+01  0.33337895929E+00  0.33272323409E-01  0.90007743685E+02  0.90000005102E+02 0.  0.
        -12    1    1    2    0    0 -0.11317050813E+01 -0.33337895929E+00 -0.33272323409E-01  0.11802563150E+01  0.00000000000E+00 0.  1.
         11    1    3    3    0    0 -0.42651619683E+01  0.46604244815E+01 -0.49072440643E+01  0.79995129559E+01  0.51100000000E-03 0. -1.
        -11    1    3    3    0    0 -0.31141002624E+02  0.15309701679E+02 -0.12673899409E+02  0.36942884788E+02  0.51100000000E-03 0.  1.
         12    1    3    3    0    0  0.36537869674E+02 -0.19636747201E+02  0.17614415797E+02  0.45065345941E+02  0.00000000000E+00 0. -1.
</event>
<event>
 7    1  0.1716782E-015  0.9000801E+02  0.7816164E-02  0.1186339E+00
        -11   -1    0    0    0    0  0.00000000000E+00  0.00000000000E+00  0.45593999997E+02  0.45594000000E+02  0.51100000000E-03 0.  1.
         11   -1    0    0    0    0 -0.00000000000E+00 -0.00000000000E+00 -0.45593999997E+02  0.45594000000E+02  0.51100000000E-03 0. -1.
    9900012    2    1    2    0    0  0.53731529835E+00  0.10494563109E+01  0.48163493831E-01  0.90008005932E+02  0.90000270810E+02 0.  0.
        -12    1    1    2    0    0 -0.53731529835E+00 -0.10494563109E+01 -0.48163493831E-01  0.11799940680E+01  0.00000000000E+00 0.  1.
         11    1    3    3    0    0 -0.29184838549E+01 -0.72583213485E+01  0.46672229015E+01  0.91095415188E+01  0.51100000000E-03 0. -1.
        -11    1    3    3    0    0  0.21351853786E+01 -0.33264993269E+02  0.12931040138E+02  0.35753749357E+02  0.51100000000E-03 0.  1.
         12    1    3    3    0    0  0.13206137746E+01  0.41572770929E+02 -0.17550099545E+02  0.45144715056E+02  0.00000000000E+00 0. -1.
</event>
<event>
 7    1  0.1716782E-015  0.9000770E+02  0.7816164E-02  0.1186339E+00
        -11   -1    0    0    0    0  0.00000000000E+00  0.00000000000E+00  0.45593999997E+02  0.45594000000E+02  0.51100000000E-03 0.  1.
         11   -1    0    0    0    0 -0.00000000000E+00 -0.00000000000E+00 -0.45593999997E+02  0.45594000000E+02  0.51100000000E-03 0. -1.
    9900012    2    1    2    0    0 -0.78832870457E+00 -0.67349000444E+00 -0.56396818447E+00  0.90007698748E+02  0.89999959571E+02 0.  0.
        -12    1    1    2    0    0  0.78832870457E+00  0.67349000444E+00  0.56396818447E+00  0.11803012521E+01  0.00000000000E+00 0.  1.
         11    1    3    3    0    0  0.12773416054E+02  0.26248120277E+02 -0.16324157160E+02  0.33445509161E+02  0.51100000000E-03 0. -1.
        -11    1    3    3    0    0 -0.70224089998E+01  0.80358382511E+01 -0.83888115851E+01  0.13574280262E+02  0.51100000000E-03 0.  1.
        -12    1    3    3    0    0 -0.65393357592E+01 -0.34957448533E+02  0.24149000560E+02  0.42987909325E+02  0.00000000000E+00 0.  1.
</event>
<event>
 7    1  0.1716782E-015  0.9000780E+02  0.7816164E-02  0.1186339E+00
        -11   -1    0    0    0    0  0.00000000000E+00  0.00000000000E+00  0.45593999997E+02  0.45594000000E+02  0.51100000000E-03 0.  1.
         11   -1    0    0    0    0 -0.00000000000E+00 -0.00000000000E+00 -0.45593999997E+02  0.45594000000E+02  0.51100000000E-03 0. -1.
    9900012    2    1    2    0    0 -0.40572277398E+00  0.12135032029E+00 -0.11016015465E+01  0.90007803899E+02  0.90000066110E+02 0.  0.
        -12    1    1    2    0    0  0.40572277398E+00 -0.12135032029E+00  0.11016015465E+01  0.11801961010E+01  0.00000000000E+00 0.  1.
         11    1    3    3    0    0 -0.32720690867E+00 -0.30587041837E+01  0.71685029495E+01  0.78006519242E+01  0.51100000000E-03 0. -1.
        -11    1    3    3    0    0 -0.14100332329E+02 -0.22681438822E+02  0.25841442272E+02  0.37162443108E+02  0.51100000000E-03 0.  1.
         12    1    3    3    0    0  0.14021816463E+02  0.25861493326E+02 -0.34111546768E+02  0.45044708867E+02  0.00000000000E+00 0. -1.
</event>
<event>
 7    1  0.1716782E-015  0.9000840E+02  0.7816164E-02  0.1186338E+00
        -11   -1    0    0    0    0  0.00000000000E+00  0.00000000000E+00  0.45593999997E+02  0.45594000000E+02  0.51100000000E-03 0.  1.
         11   -1    0    0    0    0 -0.00000000000E+00 -0.00000000000E+00 -0.45593999997E+02  0.45594000000E+02  0.51100000000E-03 0. -1.
    9900012    2    1    2    0    0 -0.93571384353E+00  0.67880906524E+00 -0.23476240819E+00  0.90008400266E+02  0.90000670347E+02 0.  0.
        -12    1    1    2    0    0  0.93571384353E+00 -0.67880906524E+00  0.23476240819E+00  0.11795997339E+01  0.00000000000E+00 0.  1.
         11    1    3    3    0    0  0.70998874795E+01  0.25676903180E+02 -0.30088800134E+02  0.40187655479E+02  0.51100000000E-03 0. -1.
        -11    1    3    3    0    0 -0.96684744734E+01  0.30881399798E+01  0.22285995507E+01  0.10391470704E+02  0.51100000000E-03 0.  1.
        -12    1    3    3    0    0  0.16328731504E+01 -0.28086234094E+02  0.27625438175E+02  0.39429274083E+02  0.00000000000E+00 0.  1.
</event>
<event>
 7    1  0.1716782E-015  0.9000797E+02  0.7816164E-02  0.1186339E+00
        -11   -1    0    0    0    0  0.00000000000E+00  0.00000000000E+00  0.45593999997E+02  0.45594000000E+02  0.51100000000E-03 0.  1.
         11   -1    0    0    0    0 -0.00000000000E+00 -0.00000000000E+00 -0.45593999997E+02  0.45594000000E+02  0.51100000000E-03 0. -1.
    9900012    2    1    2    0    0 -0.90000099290E+00  0.70676156991E+00  0.28804155542E+00  0.90007965407E+02  0.90000229750E+02 0.  0.
        -12    1    1    2    0    0  0.90000099290E+00 -0.70676156991E+00 -0.28804155542E+00  0.11800345934E+01  0.00000000000E+00 0.  1.
         11    1    3    3    0    0  0.81933359007E+01  0.10702455704E+02  0.20759927493E+01  0.13637560538E+02  0.51100000000E-03 0. -1.
        -11    1    3    3    0    0  0.25474592501E+02 -0.11080614030E+02  0.21111289622E+02  0.34891566605E+02  0.51100000000E-03 0.  1.
         12    1    3    3    0    0 -0.34567929395E+02  0.10849198959E+01 -0.22899240816E+02  0.41478838264E+02  0.00000000000E+00 0. -1.
</event>
<event>
 7    1  0.1716782E-015  0.9000722E+02  0.7816164E-02  0.1186340E+00
        -11   -1    0    0    0    0  0.00000000000E+00  0.00000000000E+00  0.45593999997E+02  0.45594000000E+02  0.51100000000E-03 0. -1.
         11   -1    0    0    0    0 -0.00000000000E+00 -0.00000000000E+00 -0.45593999997E+02  0.45594000000E+02  0.51100000000E-03 0.  1.
    9900012    2    1    2    0    0 -0.20730267251E+00 -0.40922051454E+00  0.10880303470E+01  0.90007218113E+02  0.89999472591E+02 0.  0.
        -12    1    1    2    0    0  0.20730267251E+00  0.40922051454E+00 -0.10880303470E+01  0.11807818865E+01  0.00000000000E+00 0.  1.
         11    1    3    3    0    0 -0.24613148319E+02 -0.26223998436E+02  0.42406337400E+01  0.36214474163E+02  0.51100000000E-03 0. -1.
        -11    1    3    3    0    0 -0.45269586354E+01 -0.79563636670E+01 -0.16188843156E+01  0.92961209101E+01  0.51100000000E-03 0.  1.
        -12    1    3    3    0    0  0.28932804282E+02  0.33771141588E+02 -0.15337190774E+01  0.44496623040E+02  0.00000000000E+00 0.  1.
</event>
<event>
 7    1  0.1716782E-015  0.9000783E+02  0.7816164E-02  0.1186339E+00
        -11   -1    0    0    0    0  0.00000000000E+00  0.00000000000E+00  0.45593999997E+02  0.45594000000E+02  0.51100000000E-03 0.  1.
         11   -1    0    0    0    0 -0.00000000000E+00 -0.00000000000E+00 -0.45593999997E+02  0.45594000000E+02  0.51100000000E-03 0. -1.
    9900012    2    1    2    0    0 -0.30110375916E-01  0.76451816913E-01 -0.11773030932E+01  0.90007833025E+02  0.90000095621E+02 0.  0.
        -12    1    1    2    0    0  0.30110375916E-01 -0.76451816913E-01  0.11773030932E+01  0.11801669747E+01  0.00000000000E+00 0.  1.
         11    1    3    3    0    0 -0.20514439002E+02 -0.35408754215E+02  0.93800565595E+01  0.41983419869E+02  0.51100000000E-03 0. -1.
        -11    1    3    3    0    0 -0.27136277507E+01  0.81923935024E+01  0.38062817300E+01  0.94322249621E+01  0.51100000000E-03 0.  1.
        -12    1    3    3    0    0  0.23197956377E+02  0.27292812529E+02 -0.14363641383E+02  0.38592188194E+02  0.00000000000E+00 0.  1.
</event>
<event>
 7    1  0.1716782E-015  0.9000772E+02  0.7816164E-02  0.1186339E+00
        -11   -1    0    0    0    0  0.00000000000E+00  0.00000000000E+00  0.45593999997E+02  0.45594000000E+02  0.51100000000E-03 0.  1.
         11   -1    0    0    0    0 -0.00000000000E+00 -0.00000000000E+00 -0.45593999997E+02  0.45594000000E+02  0.51100000000E-03 0. -1.
    9900012    2    1    2    0    0  0.90304989462E+00 -0.10928349439E+00 -0.75207218160E+00  0.90007722676E+02  0.89999983816E+02 0.  0.
        -12    1    1    2    0    0 -0.90304989462E+00  0.10928349439E+00  0.75207218160E+00  0.11802773236E+01  0.00000000000E+00 0.  1.
         11    1    3    3    0    0  0.34887898638E+02 -0.12844969310E+02  0.15453192822E+02  0.40261145992E+02  0.51100000000E-03 0. -1.
        -11    1    3    3    0    0  0.28542200852E+01  0.95298590353E+01 -0.20863124262E+01  0.10164520910E+02  0.51100000000E-03 0.  1.
        -12    1    3    3    0    0 -0.36839068828E+02  0.32058267802E+01 -0.14118952577E+02  0.39582055775E+02  0.00000000000E+00 0.  1.
</event>
<event>
 7    1  0.1716782E-015  0.9000775E+02  0.7816164E-02  0.1186339E+00
        -11   -1    0    0    0    0  0.00000000000E+00  0.00000000000E+00  0.45593999997E+02  0.45594000000E+02  0.51100000000E-03 0.  1.
         11   -1    0    0    0    0 -0.00000000000E+00 -0.00000000000E+00 -0.45593999997E+02  0.45594000000E+02  0.51100000000E-03 0. -1.
    9900012    2    1    2    0    0  0.16701352194E+00 -0.83940070592E+00 -0.81271784357E+00  0.90007746911E+02  0.90000008370E+02 0.  0.
        -12    1    1    2    0    0 -0.16701352194E+00  0.83940070592E+00  0.81271784357E+00  0.11802530893E+01  0.00000000000E+00 0.  1.
         11    1    3    3    0    0 -0.31723555350E+02  0.47620976000E+01  0.50426365825E+01  0.32472907501E+02  0.51100000000E-03 0. -1.
        -11    1    3    3    0    0 -0.54114098304E+01 -0.17297745425E+02 -0.11664962339E+01  0.18161940063E+02  0.51100000000E-03 0.  1.
        -12    1    3    3    0    0  0.37301978702E+02  0.11696247119E+02 -0.46888581922E+01  0.39372899346E+02  0.00000000000E+00 0.  1.
</event>
<event>
 7    1  0.1716782E-015  0.9000765E+02  0.7816164E-02  0.1186339E+00
        -11   -1    0    0    0    0  0.00000000000E+00  0.00000000000E+00  0.45593999997E+02  0.45594000000E+02  0.51100000000E-03 0. -1.
         11   -1    0    0    0    0 -0.00000000000E+00 -0.00000000000E+00 -0.45593999997E+02  0.45594000000E+02  0.51100000000E-03 0.  1.
    9900012    2    1    2    0    0  0.53893524945E-01 -0.25499482289E+00  0.11512146772E+01  0.90007651702E+02  0.89999911904E+02 0.  0.
        -12    1    1    2    0    0 -0.53893524945E-01  0.25499482289E+00 -0.11512146772E+01  0.11803482980E+01  0.00000000000E+00 0.  1.
         11    1    3    3    0    0  0.29038265282E+02  0.13257745525E+02 -0.26157762130E+02  0.41270051937E+02  0.51100000000E-03 0. -1.
        -11    1    3    3    0    0  0.27673019182E+01  0.23711456909E+01  0.68565360783E+01  0.77648167427E+01  0.51100000000E-03 0.  1.
        -12    1    3    3    0    0 -0.31751673675E+02 -0.15883886039E+02  0.20452440729E+02  0.40972783022E+02  0.00000000000E+00 0.  1.
</event>
<event>
 7    1  0.1716782E-015  0.9000810E+02  0.7816164E-02  0.1186338E+00
        -11   -1    0    0    0    0  0.00000000000E+00  0.00000000000E+00  0.45593999997E+02  0.45594000000E+02  0.51100000000E-03 0. -1.
         11   -1    0    0    0    0 -0.00000000000E+00 -0.00000000000E+00 -0.45593999997E+02  0.45594000000E+02  0.51100000000E-03 0.  1.
    9900012    2    1    2    0    0  0.99443670821E-01 -0.11690406454E+01 -0.12496965897E+00  0.90008100644E+02  0.90000366772E+02 0.  0.
        -12    1    1    2    0    0 -0.99443670821E-01  0.11690406454E+01  0.12496965897E+00  0.11798993558E+01  0.00000000000E+00 0.  1.
         11    1    3    3    0    0 -0.31830131331E+02  0.50462382298E+01  0.15519493266E+02  0.35769770090E+02  0.51100000000E-03 0. -1.
        -11    1    3    3    0    0 -0.84198966331E+01 -0.14123516060E+01  0.36144014325E+01  0.92710999535E+01  0.51100000000E-03 0.  1.
        -12    1    3    3    0    0  0.40349471635E+02 -0.48029272691E+01 -0.19258864357E+02  0.44967230601E+02  0.00000000000E+00 0.  1.
</event>
<event>
 7    1  0.1716782E-015  0.9000781E+02  0.7816164E-02  0.1186339E+00
        -11   -1    0    0    0    0  0.00000000000E+00  0.00000000000E+00  0.45593999997E+02  0.45594000000E+02  0.51100000000E-03 0. -1.
         11   -1    0    0    0    0 -0.00000000000E+00 -0.00000000000E+00 -0.45593999997E+02  0.45594000000E+02  0.51100000000E-03 0.  1.
    9900012    2    1    2    0    0  0.28976427202E+00  0.10528377851E+01  0.44767182897E+00  0.90007813234E+02  0.90000075569E+02 0.  0.
        -12    1    1    2    0    0 -0.28976427202E+00 -0.10528377851E+01 -0.44767182897E+00  0.11801867655E+01  0.00000000000E+00 0.  1.
         11    1    3    3    0    0  0.13309019054E-01  0.80073557635E+01 -0.58724558974E+01  0.99299376625E+01  0.51100000000E-03 0. -1.
        -11    1    3    3    0    0 -0.11389524636E+02 -0.55775342762E+01 -0.34944092095E+02  0.37174180995E+02  0.51100000000E-03 0.  1.
         12    1    3    3    0    0  0.11665979889E+02 -0.13769837023E+01  0.41264219821E+02  0.42903694577E+02  0.00000000000E+00 0. -1.
</event>
<event>
 7    1  0.1716782E-015  0.9000771E+02  0.7816164E-02  0.1186339E+00
        -11   -1    0    0    0    0  0.00000000000E+00  0.00000000000E+00  0.45593999997E+02  0.45594000000E+02  0.51100000000E-03 0.  1.
         11   -1    0    0    0    0 -0.00000000000E+00 -0.00000000000E+00 -0.45593999997E+02  0.45594000000E+02  0.51100000000E-03 0. -1.
    9900012    2    1    2    0    0 -0.41758133358E+00 -0.16104875835E+00 -0.10921417764E+01  0.90007709979E+02  0.89999970951E+02 0.  0.
        -12    1    1    2    0    0  0.41758133358E+00  0.16104875835E+00  0.10921417764E+01  0.11802900205E+01  0.00000000000E+00 0.  1.
         11    1    3    3    0    0 -0.67412109193E+01 -0.48772212519E+01  0.60354494344E+01  0.10279001018E+02  0.51100000000E-03 0. -1.
        -11    1    3    3    0    0 -0.63586581292E+01  0.31349556370E+02  0.21564257013E+02  0.38577770783E+02  0.51100000000E-03 0.  1.
         12    1    3    3    0    0  0.12682287715E+02 -0.26633383877E+02 -0.28691848224E+02  0.41150938178E+02  0.00000000000E+00 0. -1.
</event>
<event>
 7    1  0.1716782E-015  0.9000767E+02  0.7816164E-02  0.1186339E+00
        -11   -1    0    0    0    0  0.00000000000E+00  0.00000000000E+00  0.45593999997E+02  0.45594000000E+02  0.51100000000E-03 0. -1.
         11   -1    0    0    0    0 -0.00000000000E+00 -0.00000000000E+00 -0.45593999997E+02  0.45594000000E+02  0.51100000000E-03 0.  1.
    9900012    2    1    2    0    0 -0.25880826528E-01 -0.11588250263E+01  0.22280407955E+00  0.90007666608E+02  0.89999927007E+02 0.  0.
        -12    1    1    2    0    0  0.25880826528E-01  0.11588250263E+01 -0.22280407955E+00  0.11803333922E+01  0.00000000000E+00 0.  1.
         11    1    3    3    0    0  0.72690628601E+00 -0.10155740773E+02  0.33148926781E+01  0.10707753132E+02  0.51100000000E-03 0. -1.
        -11    1    3    3    0    0 -0.36261623977E+02 -0.12074233845E+01 -0.16682905311E+02  0.39933476865E+02  0.51100000000E-03 0.  1.
         12    1    3    3    0    0  0.35508836864E+02  0.10204339131E+02  0.13590816713E+02  0.39366436611E+02  0.00000000000E+00 0. -1.
</event>
<event>
 7    1  0.1716782E-015  0.9000782E+02  0.7816164E-02  0.1186339E+00
        -11   -1    0    0    0    0  0.00000000000E+00  0.00000000000E+00  0.45593999997E+02  0.45594000000E+02  0.51100000000E-03 0.  1.
         11   -1    0    0    0    0 -0.00000000000E+00 -0.00000000000E+00 -0.45593999997E+02  0.45594000000E+02  0.51100000000E-03 0. -1.
    9900012    2    1    2    0    0 -0.86569570897E+00 -0.80043691341E+00 -0.51908089921E-01  0.90007820877E+02  0.90000083312E+02 0.  0.
        -12    1    1    2    0    0  0.86569570897E+00  0.80043691341E+00  0.51908089921E-01  0.11801791231E+01  0.00000000000E+00 0.  1.
         11    1    3    3    0    0  0.74073708074E+01  0.63170082467E+01 -0.21268234181E+01  0.99647937048E+01  0.51100000000E-03 0. -1.
        -11    1    3    3    0    0  0.17444862399E+02  0.29337295091E+02 -0.61388601968E+01  0.34679759401E+02  0.51100000000E-03 0.  1.
         12    1    3    3    0    0 -0.25717928915E+02 -0.36454740251E+02  0.82137755250E+01  0.45363267771E+02  0.00000000000E+00 0. -1.
</event>
<event>
 7    1  0.1716782E-015  0.9000772E+02  0.7816164E-02  0.1186339E+00
        -11   -1    0    0    0    0  0.00000000000E+00  0.00000000000E+00  0.45593999997E+02  0.45594000000E+02  0.51100000000E-03 0.  1.
         11   -1    0    0    0    0 -0.00000000000E+00 -0.00000000000E+00 -0.45593999997E+02  0.45594000000E+02  0.51100000000E-03 0. -1.
    9900012    2    1    2    0    0  0.45377047848E+00 -0.51162028228E+00 -0.96197614565E+00  0.90007719921E+02  0.89999981024E+02 0.  0.
        -12    1    1    2    0    0 -0.45377047848E+00  0.51162028228E+00  0.96197614565E+00  0.11802800791E+01  0.00000000000E+00 0.  1.
         11    1    3    3    0    0 -0.68980321366E+01  0.34909896116E+02 -0.16540199430E+02  0.39241074038E+02  0.51100000000E-03 0. -1.
        -11    1    3    3    0    0 -0.96989288589E+01 -0.35038974125E+01 -0.20508033681E+01  0.10514385993E+02  0.51100000000E-03 0.  1.
        -12    1    3    3    0    0  0.17050731474E+02 -0.31917618986E+02  0.17629026652E+02  0.40252259890E+02  0.00000000000E+00 0.  1.
</event>
<event>
 7    1  0.1716782E-015  0.9000785E+02  0.7816164E-02  0.1186339E+00
        -11   -1    0    0    0    0  0.00000000000E+00  0.00000000000E+00  0.45593999997E+02  0.45594000000E+02  0.51100000000E-03 0.  1.
         11   -1    0    0    0    0 -0.00000000000E+00 -0.00000000000E+00 -0.45593999997E+02  0.45594000000E+02  0.51100000000E-03 0. -1.
    9900012    2    1    2    0    0 -0.34554718593E+00  0.68673570783E+00 -0.89539753388E+00  0.90007853596E+02  0.90000116464E+02 0.  0.
        -12    1    1    2    0    0  0.34554718593E+00 -0.68673570783E+00  0.89539753388E+00  0.11801464035E+01  0.00000000000E+00 0.  1.
         11    1    3    3    0    0 -0.64269583725E-01 -0.33394670666E+02 -0.11561606563E+02  0.35339480840E+02  0.51100000000E-03 0. -1.
        -11    1    3    3    0    0  0.18285917222E+01 -0.70022626654E+01 -0.68424259370E+01  0.99596296661E+01  0.51100000000E-03 0.  1.
        -12    1    3    3    0    0 -0.21098693244E+01  0.41083669040E+02  0.17508634966E+02  0.44708743090E+02  0.00000000000E+00 0.  1.
</event>
<event>
 7    1  0.1721686E-015  0.9000777E+02  0.7816164E-02  0.1186339E+00
        -11   -1    0    0    0    0  0.00000000000E+00  0.00000000000E+00  0.45593999997E+02  0.45594000000E+02  0.51100000000E-03 0.  1.
         11   -1    0    0    0    0 -0.00000000000E+00 -0.00000000000E+00 -0.45593999997E+02  0.45594000000E+02  0.51100000000E-03 0. -1.
    9900012    2    1    2    0    0 -0.34225582083E+00 -0.10347623194E+01 -0.45285180366E+00  0.90007768302E+02  0.90000030044E+02 0.  0.
        -12    1    1    2    0    0  0.34225582083E+00  0.10347623194E+01  0.45285180366E+00  0.11802316978E+01  0.00000000000E+00 0.  1.
         11    1    3    3    0    0  0.30145914225E+01  0.13899369155E+02 -0.33322607562E+02  0.36230876326E+02  0.51100000000E-03 0. -1.
        -11    1    3    3    0    0  0.45965118639E+01  0.12140903954E+01 -0.78943348072E+01  0.92153382528E+01  0.51100000000E-03 0.  1.
        -12    1    3    3    0    0 -0.79533591073E+01 -0.16148221870E+02  0.40764090565E+02  0.44561553724E+02  0.00000000000E+00 0.  1.
</event>
<event>
 7    1  0.1716782E-015  0.9000766E+02  0.7816164E-02  0.1186339E+00
        -11   -1    0    0    0    0  0.00000000000E+00  0.00000000000E+00  0.45593999997E+02  0.45594000000E+02  0.51100000000E-03 0. -1.
         11   -1    0    0    0    0 -0.00000000000E+00 -0.00000000000E+00 -0.45593999997E+02  0.45594000000E+02  0.51100000000E-03 0.  1.
    9900012    2    1    2    0    0  0.89822002865E+00 -0.76359207578E+00 -0.57729479529E-01  0.90007659045E+02  0.89999919344E+02 0.  0.
        -12    1    1    2    0    0 -0.89822002865E+00  0.76359207578E+00  0.57729479529E-01  0.11803409553E+01  0.00000000000E+00 0.  1.
         11    1    3    3    0    0 -0.19550352113E+01 -0.28010388034E+01  0.92498213351E+01  0.98603841735E+01  0.51100000000E-03 0. -1.
        -11    1    3    3    0    0  0.24662015815E+02 -0.27943321548E+02 -0.18991342058E+02  0.41829598571E+02  0.51100000000E-03 0.  1.
         12    1    3    3    0    0 -0.21808760575E+02  0.29980768276E+02  0.96837912430E+01  0.38317676300E+02  0.00000000000E+00 0. -1.
</event>
<event>
 7    1  0.1716782E-015  0.9000776E+02  0.7816164E-02  0.1186339E+00
        -11   -1    0    0    0    0  0.00000000000E+00  0.00000000000E+00  0.45593999997E+02  0.45594000000E+02  0.51100000000E-03 0. -1.
         11   -1    0    0    0    0 -0.00000000000E+00 -0.00000000000E+00 -0.45593999997E+02  0.45594000000E+02  0.51100000000E-03 0.  1.
    9900012    2    1    2    0    0  0.83462227014E+00 -0.77610889898E+00  0.30662159658E+00  0.90007764362E+02  0.90000026052E+02 0.  0.
        -12    1    1    2    0    0 -0.83462227014E+00  0.77610889898E+00 -0.30662159658E+00  0.11802356376E+01  0.00000000000E+00 0.  1.
         11    1    3    3    0    0 -0.32009789255E+02 -0.16110182692E+02 -0.21027247679E+02  0.41548883736E+02  0.51100000000E-03 0. -1.
        -11    1    3    3    0    0  0.10939457151E+02 -0.57845999611E+01  0.23523120272E+01  0.12596296742E+02  0.51100000000E-03 0.  1.
        -12    1    3    3    0    0  0.21904954374E+02  0.21118673754E+02  0.18981557248E+02  0.35862583884E+02  0.00000000000E+00 0.  1.
</event>
<event>
 7    1  0.1716782E-015  0.9000768E+02  0.7816164E-02  0.1186339E+00
        -11   -1    0    0    0    0  0.00000000000E+00  0.00000000000E+00  0.45593999997E+02  0.45594000000E+02  0.51100000000E-03 0.  1.
         11   -1    0    0    0    0 -0.00000000000E+00 -0.00000000000E+00 -0.45593999997E+02  0.45594000000E+02  0.51100000000E-03 0. -1.
    9900012    2    1    2    0    0 -0.10442427195E+01 -0.16026294807E+00  0.52633582461E+00  0.90007679505E+02  0.89999940075E+02 0.  0.
        -12    1    1    2    0    0  0.10442427195E+01  0.16026294807E+00 -0.52633582461E+00  0.11803204946E+01  0.00000000000E+00 0.  1.
         11    1    3    3    0    0  0.27106984339E+02  0.54445675340E+01 -0.24445487925E+02  0.36905471082E+02  0.51100000000E-03 0. -1.
        -11    1    3    3    0    0  0.78048807529E+01 -0.75444243774E+01  0.56666314037E+01  0.12245211900E+02  0.51100000000E-03 0.  1.
        -12    1    3    3    0    0 -0.35956107811E+02  0.19395938953E+01  0.19305192346E+02  0.40856996524E+02  0.00000000000E+00 0.  1.
</event>
<event>
 7    1  0.1716782E-015  0.9000768E+02  0.7816164E-02  0.1186339E+00
        -11   -1    0    0    0    0  0.00000000000E+00  0.00000000000E+00  0.45593999997E+02  0.45594000000E+02  0.51100000000E-03 0.  1.
         11   -1    0    0    0    0 -0.00000000000E+00 -0.00000000000E+00 -0.45593999997E+02  0.45594000000E+02  0.51100000000E-03 0. -1.
    9900012    2    1    2    0    0 -0.64067650523E+00 -0.94435547510E+00  0.30144931857E+00  0.90007684220E+02  0.89999944852E+02 0.  0.
        -12    1    1    2    0    0  0.64067650523E+00  0.94435547510E+00 -0.30144931857E+00  0.11803157795E+01  0.00000000000E+00 0.  1.
         11    1    3    3    0    0  0.33175983664E+02 -0.11790248004E+02 -0.47102233135E+01  0.35522416078E+02  0.51100000000E-03 0. -1.
        -11    1    3    3    0    0  0.92624912277E+01  0.17798723578E+01 -0.26581051557E+01  0.97993475616E+01  0.51100000000E-03 0.  1.
        -12    1    3    3    0    0 -0.43079151397E+02  0.90660201714E+01  0.76697777878E+01  0.44685920581E+02  0.00000000000E+00 0.  1.
</event>
<event>
 7    1  0.1716782E-015  0.9000785E+02  0.7816164E-02  0.1186339E+00
        -11   -1    0    0    0    0  0.00000000000E+00  0.00000000000E+00  0.45593999997E+02  0.45594000000E+02  0.51100000000E-03 0. -1.
         11   -1    0    0    0    0 -0.00000000000E+00 -0.00000000000E+00 -0.45593999997E+02  0.45594000000E+02  0.51100000000E-03 0.  1.
    9900012    2    1    2    0    0 -0.18367712353E+00  0.11643866585E+01 -0.56705447703E-01  0.90007852092E+02  0.90000114940E+02 0.  0.
        -12    1    1    2    0    0  0.18367712353E+00 -0.11643866585E+01  0.56705447703E-01  0.11801479077E+01  0.00000000000E+00 0.  1.
         11    1    3    3    0    0 -0.43480861904E+01  0.11527545268E+01 -0.10212872785E+02  0.11159635626E+02  0.51100000000E-03 0. -1.
        -11    1    3    3    0    0 -0.18813683481E+02  0.15795204210E+02 -0.24282429893E+02  0.34540983830E+02  0.51100000000E-03 0.  1.
         12    1    3    3    0    0  0.22978092548E+02 -0.15783572078E+02  0.34438597230E+02  0.44307232636E+02  0.00000000000E+00 0. -1.
</event>
<event>
 7    1  0.1716782E-015  0.9000798E+02  0.7816164E-02  0.1186339E+00
        -11   -1    0    0    0    0  0.00000000000E+00  0.00000000000E+00  0.45593999997E+02  0.45594000000E+02  0.51100000000E-03 0. -1.
         11   -1    0    0    0    0 -0.00000000000E+00 -0.00000000000E+00 -0.45593999997E+02  0.45594000000E+02  0.51100000000E-03 0.  1.
    9900012    2    1    2    0    0 -0.36776435460E+00  0.97594433723E+00 -0.55202946238E+00  0.90007976908E+02  0.90000241403E+02 0.  0.
        -12    1    1    2    0    0  0.36776435460E+00 -0.97594433723E+00  0.55202946238E+00  0.11800230918E+01  0.00000000000E+00 0.  1.
         11    1    3    3    0    0 -0.43287355150E+01 -0.66933121669E+01 -0.39698412427E+01  0.89049434965E+01  0.51100000000E-03 0. -1.
        -11    1    3    3    0    0 -0.31443423224E+02 -0.15922412142E+02 -0.97474405014E+01  0.36568082655E+02  0.51100000000E-03 0.  1.
         12    1    3    3    0    0  0.35404394385E+02  0.23591668646E+02  0.13165252282E+02  0.44534950757E+02  0.00000000000E+00 0. -1.
</event>
<event>
 7    1  0.1716782E-015  0.9000793E+02  0.7816164E-02  0.1186339E+00
        -11   -1    0    0    0    0  0.00000000000E+00  0.00000000000E+00  0.45593999997E+02  0.45594000000E+02  0.51100000000E-03 0.  1.
         11   -1    0    0    0    0 -0.00000000000E+00 -0.00000000000E+00 -0.45593999997E+02  0.45594000000E+02  0.51100000000E-03 0. -1.
    9900012    2    1    2    0    0 -0.92397526197E-01  0.82766305525E+00 -0.83606486728E+00  0.90007928859E+02  0.90000192720E+02 0.  0.
        -12    1    1    2    0    0  0.92397526197E-01 -0.82766305525E+00  0.83606486728E+00  0.11800711412E+01  0.00000000000E+00 0.  1.
         11    1    3    3    0    0  0.16361861266E+02  0.76525244332E+01 -0.18877234801E+02  0.26127028692E+02  0.51100000000E-03 0. -1.
        -11    1    3    3    0    0  0.21530631618E+02 -0.71876875465E+01  0.11092003756E+02  0.25263877329E+02  0.51100000000E-03 0.  1.
         12    1    3    3    0    0 -0.37984890410E+02  0.36282616852E+00  0.69491661778E+01  0.38617022838E+02  0.00000000000E+00 0. -1.
</event>
<event>
 7    1  0.1716782E-015  0.9000769E+02  0.7816164E-02  0.1186339E+00
        -11   -1    0    0    0    0  0.00000000000E+00  0.00000000000E+00  0.45593999997E+02  0.45594000000E+02  0.51100000000E-03 0.  1.
         11   -1    0    0    0    0 -0.00000000000E+00 -0.00000000000E+00 -0.45593999997E+02  0.45594000000E+02  0.51100000000E-03 0. -1.
    9900012    2    1    2    0    0 -0.10064531720E+01 -0.60954586039E+00 -0.92979768787E-01  0.90007686745E+02  0.89999947410E+02 0.  0.
        -12    1    1    2    0    0  0.10064531720E+01  0.60954586039E+00  0.92979768787E-01  0.11803132553E+01  0.00000000000E+00 0.  1.
         11    1    3    3    0    0 -0.97835013701E+01  0.29653452723E+02 -0.20647367488E+02  0.37434715731E+02  0.51100000000E-03 0. -1.
        -11    1    3    3    0    0  0.16828727493E+01 -0.74724769540E+00 -0.96060479085E+01  0.97809302466E+01  0.51100000000E-03 0.  1.
        -12    1    3    3    0    0  0.70941754488E+01 -0.29515750888E+02  0.30160435628E+02  0.42792040767E+02  0.00000000000E+00 0.  1.
</event>
<event>
 7    1  0.1716782E-015  0.9000777E+02  0.7816164E-02  0.1186339E+00
        -11   -1    0    0    0    0  0.00000000000E+00  0.00000000000E+00  0.45593999997E+02  0.45594000000E+02  0.51100000000E-03 0. -1.
         11   -1    0    0    0    0 -0.00000000000E+00 -0.00000000000E+00 -0.45593999997E+02  0.45594000000E+02  0.51100000000E-03 0.  1.
    9900012    2    1    2    0    0 -0.21651313061E+00  0.91807178291E+00  0.70937656385E+00  0.90007767462E+02  0.90000029193E+02 0.  0.
        -12    1    1    2    0    0  0.21651313061E+00 -0.91807178291E+00 -0.70937656385E+00  0.11802325379E+01  0.00000000000E+00 0.  1.
         11    1    3    3    0    0 -0.35579934462E+02  0.86600607651E+01 -0.37733478799E+01  0.36812586751E+02  0.51100000000E-03 0. -1.
        -11    1    3    3    0    0 -0.81728228841E+01 -0.41264410233E+01  0.23737718566E+01  0.94581891767E+01  0.51100000000E-03 0.  1.
        -12    1    3    3    0    0  0.43536244216E+02 -0.36155479589E+01  0.21089525872E+01  0.43736991534E+02  0.00000000000E+00 0.  1.
</event>
<event>
 7    1  0.1716782E-015  0.9000768E+02  0.7816164E-02  0.1186339E+00
        -11   -1    0    0    0    0  0.00000000000E+00  0.00000000000E+00  0.45593999997E+02  0.45594000000E+02  0.51100000000E-03 0.  1.
         11   -1    0    0    0    0 -0.00000000000E+00 -0.00000000000E+00 -0.45593999997E+02  0.45594000000E+02  0.51100000000E-03 0. -1.
    9900012    2    1    2    0    0 -0.10913531546E+01 -0.19969256689E-01 -0.44910602140E+00  0.90007683645E+02  0.89999944269E+02 0.  0.
        -12    1    1    2    0    0  0.10913531546E+01  0.19969256689E-01  0.44910602140E+00  0.11803163550E+01  0.00000000000E+00 0.  1.
         11    1    3    3    0    0  0.21900308503E+02 -0.58868995230E+01 -0.18779328100E+02  0.29443883281E+02  0.51100000000E-03 0. -1.
        -11    1    3    3    0    0  0.13026930001E+02 -0.15019795906E+01  0.19824207121E+02  0.23768803844E+02  0.51100000000E-03 0.  1.
         12    1    3    3    0    0 -0.36018591659E+02  0.73689098569E+01 -0.14939850425E+01  0.36794996519E+02  0.00000000000E+00 0. -1.
</event>
<event>
 7    1  0.1716782E-015  0.9000772E+02  0.7816164E-02  0.1186339E+00
        -11   -1    0    0    0    0  0.00000000000E+00  0.00000000000E+00  0.45593999997E+02  0.45594000000E+02  0.51100000000E-03 0.  1.
         11   -1    0    0    0    0 -0.00000000000E+00 -0.00000000000E+00 -0.45593999997E+02  0.45594000000E+02  0.51100000000E-03 0. -1.
    9900012    2    1    2    0    0 -0.33487917954E+00 -0.11142611473E+01 -0.19835715390E+00  0.90007717182E+02  0.89999978249E+02 0.  0.
        -12    1    1    2    0    0  0.33487917954E+00  0.11142611473E+01  0.19835715390E+00  0.11802828177E+01  0.00000000000E+00 0.  1.
         11    1    3    3    0    0 -0.16011819966E+02  0.78943321184E+01 -0.11171752206E+02  0.21059603649E+02  0.51100000000E-03 0. -1.
        -11    1    3    3    0    0 -0.15093219646E+02  0.18510313763E+02  0.13776749239E+02  0.27572374122E+02  0.51100000000E-03 0.  1.
         12    1    3    3    0    0  0.30770160433E+02 -0.27518907029E+02 -0.28033541866E+01  0.41375739411E+02  0.00000000000E+00 0. -1.
</event>
<event>
 7    1  0.1716782E-015  0.9000778E+02  0.7816164E-02  0.1186339E+00
        -11   -1    0    0    0    0  0.00000000000E+00  0.00000000000E+00  0.45593999997E+02  0.45594000000E+02  0.51100000000E-03 0.  1.
         11   -1    0    0    0    0 -0.00000000000E+00 -0.00000000000E+00 -0.45593999997E+02  0.45594000000E+02  0.51100000000E-03 0. -1.
    9900012    2    1    2    0    0  0.44045354324E+00 -0.10573022169E+01 -0.28467094208E+00  0.90007777628E+02  0.90000039493E+02 0.  0.
        -12    1    1    2    0    0 -0.44045354324E+00  0.10573022169E+01  0.28467094208E+00  0.11802223717E+01  0.00000000000E+00 0.  1.
         11    1    3    3    0    0 -0.21625951487E+01  0.63167955507E+01 -0.56677472661E+01  0.87579725473E+01  0.51100000000E-03 0. -1.
        -11    1    3    3    0    0 -0.38919662758E+02 -0.64952951831E+01  0.80404092654E+00  0.39466130933E+02  0.51100000000E-03 0.  1.
         12    1    3    3    0    0  0.41522711450E+02 -0.87880258450E+00  0.45790353974E+01  0.41783674148E+02  0.00000000000E+00 0. -1.
</event>
<event>
 7    1  0.1716782E-015  0.9000774E+02  0.7816164E-02  0.1186339E+00
        -11   -1    0    0    0    0  0.00000000000E+00  0.00000000000E+00  0.45593999997E+02  0.45594000000E+02  0.51100000000E-03 0. -1.
         11   -1    0    0    0    0 -0.00000000000E+00 -0.00000000000E+00 -0.45593999997E+02  0.45594000000E+02  0.51100000000E-03 0.  1.
    9900012    2    1    2    0    0  0.37004202092E+00 -0.10464796561E+01  0.40119618889E+00  0.90007741914E+02  0.90000003307E+02 0.  0.
        -12    1    1    2    0    0 -0.37004202092E+00  0.10464796561E+01 -0.40119618889E+00  0.11802580862E+01  0.00000000000E+00 0.  1.
         11    1    3    3    0    0  0.23181588168E+02 -0.33487627071E+01  0.37331187834E+02  0.44070600484E+02  0.51100000000E-03 0. -1.
        -11    1    3    3    0    0  0.92177673614E+00  0.33422345168E+01 -0.60969640347E+01  0.70137846145E+01  0.51100000000E-03 0.  1.
        -12    1    3    3    0    0 -0.23733322884E+02 -0.10399514658E+01 -0.30833027610E+02  0.38923356815E+02  0.00000000000E+00 0.  1.
</event>
<event>
 7    1  0.1716782E-015  0.9000784E+02  0.7816164E-02  0.1186339E+00
        -11   -1    0    0    0    0  0.00000000000E+00  0.00000000000E+00  0.45593999997E+02  0.45594000000E+02  0.51100000000E-03 0. -1.
         11   -1    0    0    0    0 -0.00000000000E+00 -0.00000000000E+00 -0.45593999997E+02  0.45594000000E+02  0.51100000000E-03 0.  1.
    9900012    2    1    2    0    0 -0.74972490878E+00 -0.19182268147E+00  0.89101243620E+00  0.90007836223E+02  0.90000098861E+02 0.  0.
        -12    1    1    2    0    0  0.74972490878E+00  0.19182268147E+00 -0.89101243620E+00  0.11801637774E+01  0.00000000000E+00 0.  1.
         11    1    3    3    0    0  0.19311720110E+01 -0.57700763120E+01 -0.62715649188E+01  0.87381767420E+01  0.51100000000E-03 0. -1.
        -11    1    3    3    0    0  0.10039468285E+02 -0.15256304647E+02 -0.30992892581E+02  0.35973672952E+02  0.51100000000E-03 0.  1.
         12    1    3    3    0    0 -0.12720365204E+02  0.20834558278E+02  0.38155469936E+02  0.45295986528E+02  0.00000000000E+00 0. -1.
</event>
<event>
 7    1  0.1716782E-015  0.9000789E+02  0.7816164E-02  0.1186339E+00
        -11   -1    0    0    0    0  0.00000000000E+00  0.00000000000E+00  0.45593999997E+02  0.45594000000E+02  0.51100000000E-03 0.  1.
         11   -1    0    0    0    0 -0.00000000000E+00 -0.00000000000E+00 -0.45593999997E+02  0.45594000000E+02  0.51100000000E-03 0. -1.
    9900012    2    1    2    0    0  0.10711301979E+01  0.48120865998E+00  0.11742412312E+00  0.90007885556E+02  0.90000148846E+02 0.  0.
        -12    1    1    2    0    0 -0.10711301979E+01 -0.48120865998E+00 -0.11742412312E+00  0.11801144436E+01  0.00000000000E+00 0.  1.
         11    1    3    3    0    0  0.90420813043E+01  0.27037292938E+02 -0.21431551859E+02  0.35666312665E+02  0.51100000000E-03 0. -1.
        -11    1    3    3    0    0 -0.10205873984E+01  0.59002392350E+01 -0.79381352119E+01  0.99432596552E+01  0.51100000000E-03 0.  1.
        -12    1    3    3    0    0 -0.69503637080E+01 -0.32456323513E+02  0.29487111194E+02  0.44398313236E+02  0.00000000000E+00 0.  1.
</event>
<event>
 7    1  0.1716782E-015  0.9000766E+02  0.7816164E-02  0.1186339E+00
        -11   -1    0    0    0    0  0.00000000000E+00  0.00000000000E+00  0.45593999997E+02  0.45594000000E+02  0.51100000000E-03 0.  1.
         11   -1    0    0    0    0 -0.00000000000E+00 -0.00000000000E+00 -0.45593999997E+02  0.45594000000E+02  0.51100000000E-03 0. -1.
    9900012    2    1    2    0    0 -0.66063181919E+00  0.69155954343E+00 -0.69175046824E+00  0.90007657798E+02  0.89999918081E+02 0.  0.
        -12    1    1    2    0    0  0.66063181919E+00 -0.69155954343E+00  0.69175046824E+00  0.11803422016E+01  0.00000000000E+00 0.  1.
         11    1    3    3    0    0 -0.23032184048E+01  0.82892636584E+01 -0.38082222913E+01  0.94084676913E+01  0.51100000000E-03 0. -1.
        -11    1    3    3    0    0 -0.16376867351E+02  0.32112734803E+02 -0.45137869629E+01  0.36329103950E+02  0.51100000000E-03 0.  1.
         12    1    3    3    0    0  0.18019453937E+02 -0.39710438918E+02  0.76302587860E+01  0.44270086157E+02  0.00000000000E+00 0. -1.
</event>
<event>
 7    1  0.1716782E-015  0.9000775E+02  0.7816164E-02  0.1186339E+00
        -11   -1    0    0    0    0  0.00000000000E+00  0.00000000000E+00  0.45593999997E+02  0.45594000000E+02  0.51100000000E-03 0.  1.
         11   -1    0    0    0    0 -0.00000000000E+00 -0.00000000000E+00 -0.45593999997E+02  0.45594000000E+02  0.51100000000E-03 0. -1.
    9900012    2    1    2    0    0 -0.47655459655E+00  0.47027762097E+00 -0.97197226451E+00  0.90007747736E+02  0.90000009206E+02 0.  0.
        -12    1    1    2    0    0  0.47655459655E+00 -0.47027762097E+00  0.97197226451E+00  0.11802522642E+01  0.00000000000E+00 0.  1.
         11    1    3    3    0    0 -0.71106007290E+01  0.67109409838E-01  0.73241704172E+01  0.10208262289E+02  0.51100000000E-03 0. -1.
        -11    1    3    3    0    0 -0.91406459828E+01  0.83789311118E+01  0.32798624462E+02  0.35064336047E+02  0.51100000000E-03 0.  1.
         12    1    3    3    0    0  0.15774692115E+02 -0.79757629006E+01 -0.41094767144E+02  0.44735149399E+02  0.00000000000E+00 0. -1.
</event>
<event>
 7    1  0.1716782E-015  0.9000780E+02  0.7816164E-02  0.1186339E+00
        -11   -1    0    0    0    0  0.00000000000E+00  0.00000000000E+00  0.45593999997E+02  0.45594000000E+02  0.51100000000E-03 0.  1.
         11   -1    0    0    0    0 -0.00000000000E+00 -0.00000000000E+00 -0.45593999997E+02  0.45594000000E+02  0.51100000000E-03 0. -1.
    9900012    2    1    2    0    0 -0.55114384821E+00  0.13527145789E+00 -0.10348071905E+01  0.90007795005E+02  0.90000057099E+02 0.  0.
        -12    1    1    2    0    0  0.55114384821E+00 -0.13527145789E+00  0.10348071905E+01  0.11802049951E+01  0.00000000000E+00 0.  1.
         11    1    3    3    0    0 -0.24434185182E+02  0.10435836239E+02 -0.16723245315E+02  0.31394315053E+02  0.51100000000E-03 0. -1.
        -11    1    3    3    0    0 -0.38167234965E+01 -0.19603432094E+02  0.20926879014E+02  0.28927429780E+02  0.51100000000E-03 0.  1.
         12    1    3    3    0    0  0.27699764830E+02  0.93028673135E+01 -0.52384408896E+01  0.29686050173E+02  0.00000000000E+00 0. -1.
</event>
<event>
 7    1  0.1716782E-015  0.9000776E+02  0.7816164E-02  0.1186339E+00
        -11   -1    0    0    0    0  0.00000000000E+00  0.00000000000E+00  0.45593999997E+02  0.45594000000E+02  0.51100000000E-03 0.  1.
         11   -1    0    0    0    0 -0.00000000000E+00 -0.00000000000E+00 -0.45593999997E+02  0.45594000000E+02  0.51100000000E-03 0. -1.
    9900012    2    1    2    0    0  0.85770944706E+00 -0.15837064080E+00  0.79511903227E+00  0.90007762299E+02  0.90000023961E+02 0.  0.
        -12    1    1    2    0    0 -0.85770944706E+00  0.15837064080E+00 -0.79511903227E+00  0.11802377010E+01  0.00000000000E+00 0.  1.
         11    1    3    3    0    0 -0.53113994850E+01  0.35318350433E+01  0.12986253267E+01  0.65093203380E+01  0.51100000000E-03 0. -1.
        -11    1    3    3    0    0 -0.96510619670E+01  0.17170880938E+02  0.34535833959E+02  0.39758093223E+02  0.51100000000E-03 0.  1.
         12    1    3    3    0    0  0.15820170899E+02 -0.20861086622E+02 -0.35039340253E+02  0.43740348738E+02  0.00000000000E+00 0. -1.
</event>
<event>
 7    1  0.1716782E-015  0.9000777E+02  0.7816164E-02  0.1186339E+00
        -11   -1    0    0    0    0  0.00000000000E+00  0.00000000000E+00  0.45593999997E+02  0.45594000000E+02  0.51100000000E-03 0. -1.
         11   -1    0    0    0    0 -0.00000000000E+00 -0.00000000000E+00 -0.45593999997E+02  0.45594000000E+02  0.51100000000E-03 0.  1.
    9900012    2    1    2    0    0 -0.99015208320E-02  0.86399858010E+00  0.80396531453E+00  0.90007766204E+02  0.90000027918E+02 0.  0.
        -12    1    1    2    0    0  0.99015208320E-02 -0.86399858010E+00 -0.80396531453E+00  0.11802337961E+01  0.00000000000E+00 0.  1.
         11    1    3    3    0    0  0.12233194184E+02 -0.19670160927E+01 -0.36804678785E+01  0.12925402752E+02  0.51100000000E-03 0. -1.
        -11    1    3    3    0    0  0.20461587763E+01  0.22237430060E+01 -0.34977922059E+02  0.35108215997E+02  0.51100000000E-03 0.  1.
         12    1    3    3    0    0 -0.14289254481E+02  0.60727166677E+00  0.39462355252E+02  0.41974147454E+02  0.00000000000E+00 0. -1.
</event>
<event>
 7    1  0.1716782E-015  0.9000759E+02  0.7816164E-02  0.1186339E+00
        -11   -1    0    0    0    0  0.00000000000E+00  0.00000000000E+00  0.45593999997E+02  0.45594000000E+02  0.51100000000E-03 0.  1.
         11   -1    0    0    0    0 -0.00000000000E+00 -0.00000000000E+00 -0.45593999997E+02  0.45594000000E+02  0.51100000000E-03 0. -1.
    9900012    2    1    2    0    0 -0.12719903565E+00 -0.11555329045E+01  0.20475768468E+00  0.90007592614E+02  0.89999852036E+02 0.  0.
        -12    1    1    2    0    0  0.12719903565E+00  0.11555329045E+01 -0.20475768468E+00  0.11804073863E+01  0.00000000000E+00 0.  1.
         11    1    3    3    0    0  0.50530533390E+01  0.38256372085E+02  0.93253108576E+01  0.39699430424E+02  0.51100000000E-03 0. -1.
        -11    1    3    3    0    0  0.22789702766E+01  0.58149755877E+00 -0.93327320899E+01  0.96245380905E+01  0.51100000000E-03 0.  1.
        -12    1    3    3    0    0 -0.74592226512E+01 -0.39993402548E+02  0.21217891697E+00  0.40683624099E+02  0.00000000000E+00 0.  1.
</event>
<event>
 7    1  0.1716782E-015  0.9000777E+02  0.7816164E-02  0.1186339E+00
        -11   -1    0    0    0    0  0.00000000000E+00  0.00000000000E+00  0.45593999997E+02  0.45594000000E+02  0.51100000000E-03 0.  1.
         11   -1    0    0    0    0 -0.00000000000E+00 -0.00000000000E+00 -0.45593999997E+02  0.45594000000E+02  0.51100000000E-03 0. -1.
    9900012    2    1    2    0    0  0.94134443414E+00  0.12516076674E+00 -0.70081595292E+00  0.90007772242E+02  0.90000034035E+02 0.  0.
        -12    1    1    2    0    0 -0.94134443414E+00 -0.12516076674E+00  0.70081595292E+00  0.11802277581E+01  0.00000000000E+00 0.  1.
         11    1    3    3    0    0 -0.46241441118E+01  0.16000573215E+02  0.57749768632E+01  0.17628142557E+02  0.51100000000E-03 0. -1.
        -11    1    3    3    0    0 -0.18231703982E+02  0.63920878357E+01  0.21873788958E+02  0.29184181685E+02  0.51100000000E-03 0.  1.
         12    1    3    3    0    0  0.23797192528E+02 -0.22267500284E+02 -0.28349581774E+02  0.43195448000E+02  0.00000000000E+00 0. -1.
</event>
<event>
 7    1  0.1716782E-015  0.9000767E+02  0.7816164E-02  0.1186339E+00
        -11   -1    0    0    0    0  0.00000000000E+00  0.00000000000E+00  0.45593999997E+02  0.45594000000E+02  0.51100000000E-03 0. -1.
         11   -1    0    0    0    0 -0.00000000000E+00 -0.00000000000E+00 -0.45593999997E+02  0.45594000000E+02  0.51100000000E-03 0.  1.
    9900012    2    1    2    0    0 -0.22903697993E-01  0.59565927168E+00  0.10187516018E+01  0.90007665567E+02  0.89999925953E+02 0.  0.
        -12    1    1    2    0    0  0.22903697993E-01 -0.59565927168E+00 -0.10187516018E+01  0.11803344329E+01  0.00000000000E+00 0.  1.
         11    1    3    3    0    0  0.23871449025E+02 -0.31407407247E+02 -0.26470343741E+00  0.39450492731E+02  0.51100000000E-03 0. -1.
        -11    1    3    3    0    0  0.57072517151E+01  0.17676682710E+01  0.53875720590E+01  0.80450796272E+01  0.51100000000E-03 0.  1.
        -12    1    3    3    0    0 -0.29601604439E+02  0.30235398247E+02 -0.41041170198E+01  0.42512093209E+02  0.00000000000E+00 0.  1.
</event>
<event>
 7    1  0.1716782E-015  0.9000780E+02  0.7816164E-02  0.1186339E+00
        -11   -1    0    0    0    0  0.00000000000E+00  0.00000000000E+00  0.45593999997E+02  0.45594000000E+02  0.51100000000E-03 0.  1.
         11   -1    0    0    0    0 -0.00000000000E+00 -0.00000000000E+00 -0.45593999997E+02  0.45594000000E+02  0.51100000000E-03 0. -1.
    9900012    2    1    2    0    0 -0.58244321098E+00  0.57850735883E+00  0.84791927344E+00  0.90007797495E+02  0.90000059622E+02 0.  0.
        -12    1    1    2    0    0  0.58244321098E+00 -0.57850735883E+00 -0.84791927344E+00  0.11802025049E+01  0.00000000000E+00 0.  1.
         11    1    3    3    0    0 -0.55982905016E+01  0.69946078322E+01 -0.41514988041E+00  0.89687092132E+01  0.51100000000E-03 0. -1.
        -11    1    3    3    0    0 -0.35302547780E+02 -0.54974189602E+01 -0.13355261776E+02  0.38142555136E+02  0.51100000000E-03 0.  1.
         12    1    3    3    0    0  0.40318395070E+02 -0.91868151318E+00  0.14618330930E+02  0.42896533146E+02  0.00000000000E+00 0. -1.
</event>
<event>
 7    1  0.1716782E-015  0.9000775E+02  0.7816164E-02  0.1186339E+00
        -11   -1    0    0    0    0  0.00000000000E+00  0.00000000000E+00  0.45593999997E+02  0.45594000000E+02  0.51100000000E-03 0.  1.
         11   -1    0    0    0    0 -0.00000000000E+00 -0.00000000000E+00 -0.45593999997E+02  0.45594000000E+02  0.51100000000E-03 0. -1.
    9900012    2    1    2    0    0 -0.94420675503E+00 -0.34583458301E+00 -0.61795916612E+00  0.90007745161E+02  0.90000006597E+02 0.  0.
        -12    1    1    2    0    0  0.94420675503E+00  0.34583458301E+00  0.61795916612E+00  0.11802548395E+01  0.00000000000E+00 0.  1.
         11    1    3    3    0    0 -0.68236862097E+01  0.80956491962E+00  0.75468668857E+01  0.10206531678E+02  0.51100000000E-03 0. -1.
        -11    1    3    3    0    0 -0.15473347141E+02  0.14601607311E+02  0.27861834751E+02  0.35055858908E+02  0.51100000000E-03 0.  1.
         12    1    3    3    0    0  0.21352826595E+02 -0.15757006814E+02 -0.36026660803E+02  0.44745354574E+02  0.00000000000E+00 0. -1.
</event>
<event>
 7    1  0.1716782E-015  0.9000774E+02  0.7816164E-02  0.1186339E+00
        -11   -1    0    0    0    0  0.00000000000E+00  0.00000000000E+00  0.45593999997E+02  0.45594000000E+02  0.51100000000E-03 0.  1.
         11   -1    0    0    0    0 -0.00000000000E+00 -0.00000000000E+00 -0.45593999997E+02  0.45594000000E+02  0.51100000000E-03 0. -1.
    9900012    2    1    2    0    0  0.11709386652E+01 -0.13927439785E+00  0.50259430564E-01  0.90007737010E+02  0.89999998338E+02 0.  0.
        -12    1    1    2    0    0 -0.11709386652E+01  0.13927439785E+00 -0.50259430564E-01  0.11802629901E+01  0.00000000000E+00 0.  1.
         11    1    3    3    0    0  0.14394330123E+02 -0.14448930001E+02 -0.32025153983E+02  0.37968128815E+02  0.51100000000E-03 0. -1.
        -11    1    3    3    0    0 -0.11717710969E+01 -0.39661548297E+01 -0.64889851245E+01  0.76948268235E+01  0.51100000000E-03 0.  1.
        -12    1    3    3    0    0 -0.12051620361E+02  0.18275810432E+02  0.38564398538E+02  0.44344781371E+02  0.00000000000E+00 0.  1.
</event>
<event>
 7    1  0.1716782E-015  0.9000798E+02  0.7816164E-02  0.1186339E+00
        -11   -1    0    0    0    0  0.00000000000E+00  0.00000000000E+00  0.45593999997E+02  0.45594000000E+02  0.51100000000E-03 0.  1.
         11   -1    0    0    0    0 -0.00000000000E+00 -0.00000000000E+00 -0.45593999997E+02  0.45594000000E+02  0.51100000000E-03 0. -1.
    9900012    2    1    2    0    0  0.96968173485E+00 -0.61795073159E+00 -0.26516397663E+00  0.90007975548E+02  0.90000240025E+02 0.  0.
        -12    1    1    2    0    0 -0.96968173485E+00  0.61795073159E+00  0.26516397663E+00  0.11800244523E+01  0.00000000000E+00 0.  1.
         11    1    3    3    0    0 -0.21581460030E+01  0.10123182015E+02 -0.11786765263E+01  0.10417566265E+02  0.51100000000E-03 0. -1.
        -11    1    3    3    0    0  0.30028380262E+02  0.14332241343E+02  0.19311126524E+02  0.38471240829E+02  0.51100000000E-03 0.  1.
         12    1    3    3    0    0 -0.26900552524E+02 -0.25073374090E+02 -0.18397613974E+02  0.41119168453E+02  0.00000000000E+00 0. -1.
</event>
<event>
 7    1  0.1716782E-015  0.9000785E+02  0.7816164E-02  0.1186339E+00
        -11   -1    0    0    0    0  0.00000000000E+00  0.00000000000E+00  0.45593999997E+02  0.45594000000E+02  0.51100000000E-03 0.  1.
         11   -1    0    0    0    0 -0.00000000000E+00 -0.00000000000E+00 -0.45593999997E+02  0.45594000000E+02  0.51100000000E-03 0. -1.
    9900012    2    1    2    0    0  0.73160685589E+00  0.90152577696E+00 -0.21154939138E+00  0.90007851508E+02  0.90000114348E+02 0.  0.
        -12    1    1    2    0    0 -0.73160685589E+00 -0.90152577696E+00  0.21154939138E+00  0.11801484920E+01  0.00000000000E+00 0.  1.
         11    1    3    3    0    0 -0.44486519313E+00 -0.56167497655E+01 -0.97018436149E+01  0.11219249207E+02  0.51100000000E-03 0. -1.
        -11    1    3    3    0    0  0.83007334041E+01 -0.34748851143E+02  0.92735147836E+01  0.36910471516E+02  0.51100000000E-03 0.  1.
         12    1    3    3    0    0 -0.71242613551E+01  0.41267126686E+02  0.21677943993E+00  0.41878130785E+02  0.00000000000E+00 0. -1.
</event>
<event>
 7    1  0.1716782E-015  0.9000779E+02  0.7816164E-02  0.1186339E+00
        -11   -1    0    0    0    0  0.00000000000E+00  0.00000000000E+00  0.45593999997E+02  0.45594000000E+02  0.51100000000E-03 0.  1.
         11   -1    0    0    0    0 -0.00000000000E+00 -0.00000000000E+00 -0.45593999997E+02  0.45594000000E+02  0.51100000000E-03 0. -1.
    9900012    2    1    2    0    0 -0.54958499811E+00  0.10113917373E+01  0.26065120306E+00  0.90007789864E+02  0.90000051890E+02 0.  0.
        -12    1    1    2    0    0  0.54958499811E+00 -0.10113917373E+01 -0.26065120306E+00  0.11802101364E+01  0.00000000000E+00 0.  1.
         11    1    3    3    0    0 -0.61144168872E+01  0.54326614397E+01  0.44618712024E+01  0.93170917714E+01  0.51100000000E-03 0. -1.
        -11    1    3    3    0    0 -0.19646372549E+02  0.20736660667E+02  0.22347278463E+02  0.36268304412E+02  0.51100000000E-03 0.  1.
         12    1    3    3    0    0  0.25211204438E+02 -0.25157930369E+02 -0.26548498462E+02  0.44422393680E+02  0.00000000000E+00 0. -1.
</event>
<event>
 7    1  0.1716782E-015  0.9000774E+02  0.7816164E-02  0.1186339E+00
        -11   -1    0    0    0    0  0.00000000000E+00  0.00000000000E+00  0.45593999997E+02  0.45594000000E+02  0.51100000000E-03 0.  1.
         11   -1    0    0    0    0 -0.00000000000E+00 -0.00000000000E+00 -0.45593999997E+02  0.45594000000E+02  0.51100000000E-03 0. -1.
    9900012    2    1    2    0    0 -0.10154440306E+01  0.27199547648E+00 -0.53657657553E+00  0.90007736241E+02  0.89999997560E+02 0.  0.
        -12    1    1    2    0    0  0.10154440306E+01 -0.27199547648E+00  0.53657657553E+00  0.11802637586E+01  0.00000000000E+00 0.  1.
         11    1    3    3    0    0 -0.25177135565E+01 -0.26013732872E+01  0.85068061502E+01  0.92450946815E+01  0.51100000000E-03 0. -1.
        -11    1    3    3    0    0 -0.21038762044E+01  0.34222473063E+00  0.35719710407E+02  0.35783252014E+02  0.51100000000E-03 0.  1.
         12    1    3    3    0    0  0.36061457303E+01  0.25311440331E+01 -0.44763093133E+02  0.44979389546E+02  0.00000000000E+00 0. -1.
</event>
<event>
 7    1  0.1716782E-015  0.9000780E+02  0.7816164E-02  0.1186339E+00
        -11   -1    0    0    0    0  0.00000000000E+00  0.00000000000E+00  0.45593999997E+02  0.45594000000E+02  0.51100000000E-03 0. -1.
         11   -1    0    0    0    0 -0.00000000000E+00 -0.00000000000E+00 -0.45593999997E+02  0.45594000000E+02  0.51100000000E-03 0.  1.
    9900012    2    1    2    0    0  0.69841339596E+00  0.50834693144E+00  0.80416508241E+00  0.90007796901E+02  0.90000059020E+02 0.  0.
        -12    1    1    2    0    0 -0.69841339596E+00 -0.50834693144E+00 -0.80416508241E+00  0.11802030987E+01  0.00000000000E+00 0.  1.
         11    1    3    3    0    0 -0.16818137633E+02 -0.34998067002E+02  0.13043212095E+02  0.40961443204E+02  0.51100000000E-03 0. -1.
        -11    1    3    3    0    0 -0.55342307792E+01  0.44762484201E+01 -0.70959078935E+01  0.10050692480E+02  0.51100000000E-03 0.  1.
        -12    1    3    3    0    0  0.23050781808E+02  0.31030165514E+02 -0.51431391195E+01  0.38995661217E+02  0.00000000000E+00 0.  1.
</event>
<event>
 7    1  0.1716782E-015  0.9000796E+02  0.7816164E-02  0.1186339E+00
        -11   -1    0    0    0    0  0.00000000000E+00  0.00000000000E+00  0.45593999997E+02  0.45594000000E+02  0.51100000000E-03 0.  1.
         11   -1    0    0    0    0 -0.00000000000E+00 -0.00000000000E+00 -0.45593999997E+02  0.45594000000E+02  0.51100000000E-03 0. -1.
    9900012    2    1    2    0    0  0.82632026099E+00  0.61016590816E+00 -0.58085895184E+00  0.90007955623E+02  0.90000219837E+02 0.  0.
        -12    1    1    2    0    0 -0.82632026099E+00 -0.61016590816E+00  0.58085895184E+00  0.11800443768E+01  0.00000000000E+00 0.  1.
         11    1    3    3    0    0 -0.19420470291E+01  0.11040388770E+02  0.10316259150E+02  0.15234399692E+02  0.51100000000E-03 0. -1.
        -11    1    3    3    0    0  0.23551790367E+02  0.53576627567E+00  0.23396042590E+02  0.33201636769E+02  0.51100000000E-03 0.  1.
         12    1    3    3    0    0 -0.20783423077E+02 -0.10965989138E+02 -0.34293160692E+02  0.41571919162E+02  0.00000000000E+00 0. -1.
</event>
<event>
 7    1  0.1716782E-015  0.9000773E+02  0.7816164E-02  0.1186339E+00
        -11   -1    0    0    0    0  0.00000000000E+00  0.00000000000E+00  0.45593999997E+02  0.45594000000E+02  0.51100000000E-03 0. -1.
         11   -1    0    0    0    0 -0.00000000000E+00 -0.00000000000E+00 -0.45593999997E+02  0.45594000000E+02  0.51100000000E-03 0.  1.
    9900012    2    1    2    0    0  0.10937940355E+01  0.22040686542E+00  0.38480803395E+00  0.90007728082E+02  0.89999989292E+02 0.  0.
        -12    1    1    2    0    0 -0.10937940355E+01 -0.22040686542E+00 -0.38480803395E+00  0.11802719184E+01  0.00000000000E+00 0.  1.
         11    1    3    3    0    0  0.93952404456E+01  0.14782066917E+02 -0.12552865945E+02  0.21548886029E+02  0.51100000000E-03 0. -1.
        -11    1    3    3    0    0  0.30051100117E+01  0.19253223454E+02 -0.13812060181E+02  0.23884938900E+02  0.51100000000E-03 0.  1.
         12    1    3    3    0    0 -0.11306556422E+02 -0.33814883506E+02  0.26749734161E+02  0.44573903153E+02  0.00000000000E+00 0. -1.
</event>
<event>
 7    1  0.1716782E-015  0.9000770E+02  0.7816164E-02  0.1186339E+00
        -11   -1    0    0    0    0  0.00000000000E+00  0.00000000000E+00  0.45593999997E+02  0.45594000000E+02  0.51100000000E-03 0.  1.
         11   -1    0    0    0    0 -0.00000000000E+00 -0.00000000000E+00 -0.45593999997E+02  0.45594000000E+02  0.51100000000E-03 0. -1.
    9900012    2    1    2    0    0  0.86541884234E-01  0.62955089285E+00 -0.99462380503E+00  0.90007703284E+02  0.89999964167E+02 0.  0.
        -12    1    1    2    0    0 -0.86541884234E-01 -0.62955089285E+00  0.99462380503E+00  0.11802967161E+01  0.00000000000E+00 0.  1.
         11    1    3    3    0    0  0.22117423579E+02  0.26955716978E+02  0.17974836151E+02  0.39228635440E+02  0.51100000000E-03 0. -1.
        -11    1    3    3    0    0  0.82817746965E+01 -0.29181982559E+01 -0.41651977085E+01  0.97186699396E+01  0.51100000000E-03 0.  1.
        -12    1    3    3    0    0 -0.30312656392E+02 -0.23407967829E+02 -0.14804262247E+02  0.41060397905E+02  0.00000000000E+00 0.  1.
</event>
<event>
 7    1  0.1716782E-015  0.9000777E+02  0.7816164E-02  0.1186339E+00
        -11   -1    0    0    0    0  0.00000000000E+00  0.00000000000E+00  0.45593999997E+02  0.45594000000E+02  0.51100000000E-03 0. -1.
         11   -1    0    0    0    0 -0.00000000000E+00 -0.00000000000E+00 -0.45593999997E+02  0.45594000000E+02  0.51100000000E-03 0.  1.
    9900012    2    1    2    0    0 -0.97376615665E+00  0.43127914294E+00  0.50864813159E+00  0.90007769027E+02  0.90000030779E+02 0.  0.
        -12    1    1    2    0    0  0.97376615665E+00 -0.43127914294E+00 -0.50864813159E+00  0.11802309726E+01  0.00000000000E+00 0.  1.
         11    1    3    3    0    0 -0.31977258384E+01  0.17493241245E+01 -0.87288710130E+01  0.94593221138E+01  0.51100000000E-03 0. -1.
        -11    1    3    3    0    0  0.21262066309E+02  0.16504895696E+01 -0.30016135298E+02  0.36820754447E+02  0.51100000000E-03 0.  1.
         12    1    3    3    0    0 -0.19038106627E+02 -0.29685345511E+01  0.39253654443E+02  0.43727692467E+02  0.00000000000E+00 0. -1.
</event>
<event>
 7    1  0.1716782E-015  0.9000776E+02  0.7816164E-02  0.1186339E+00
        -11   -1    0    0    0    0  0.00000000000E+00  0.00000000000E+00  0.45593999997E+02  0.45594000000E+02  0.51100000000E-03 0. -1.
         11   -1    0    0    0    0 -0.00000000000E+00 -0.00000000000E+00 -0.45593999997E+02  0.45594000000E+02  0.51100000000E-03 0.  1.
    9900012    2    1    2    0    0  0.10234471406E+01  0.33864904089E+00  0.48045214430E+00  0.90007762106E+02  0.90000023766E+02 0.  0.
        -12    1    1    2    0    0 -0.10234471406E+01 -0.33864904089E+00 -0.48045214430E+00  0.11802378936E+01  0.00000000000E+00 0.  1.
         11    1    3    3    0    0  0.27277599862E+02 -0.19143494314E+02  0.17371904663E+02  0.37580898083E+02  0.51100000000E-03 0. -1.
        -11    1    3    3    0    0  0.88666316629E+00 -0.89189660991E+01  0.14369484203E+01  0.90773866763E+01  0.51100000000E-03 0.  1.
        -12    1    3    3    0    0 -0.27140815888E+02  0.28401109454E+02 -0.18328400939E+02  0.43349477347E+02  0.00000000000E+00 0.  1.
</event>
<event>
 7    1  0.1716782E-015  0.9000760E+02  0.7816164E-02  0.1186339E+00
        -11   -1    0    0    0    0  0.00000000000E+00  0.00000000000E+00  0.45593999997E+02  0.45594000000E+02  0.51100000000E-03 0. -1.
         11   -1    0    0    0    0 -0.00000000000E+00 -0.00000000000E+00 -0.45593999997E+02  0.45594000000E+02  0.51100000000E-03 0.  1.
    9900012    2    1    2    0    0 -0.79275872919E-01 -0.69598472844E+00  0.95008352977E+00  0.90007602559E+02  0.89999862112E+02 0.  0.
        -12    1    1    2    0    0  0.79275872919E-01  0.69598472844E+00 -0.95008352977E+00  0.11803974415E+01  0.00000000000E+00 0.  1.
         11    1    3    3    0    0  0.23120015985E+02 -0.28912546932E+02 -0.66272405550E+01  0.37608387720E+02  0.51100000000E-03 0. -1.
        -11    1    3    3    0    0 -0.16311783365E+01 -0.72690216049E+01 -0.50449025180E+01  0.89972473309E+01  0.51100000000E-03 0.  1.
        -12    1    3    3    0    0 -0.21568113522E+02  0.35485583809E+02  0.12622226603E+02  0.43401967508E+02  0.00000000000E+00 0.  1.
</event>
<event>
 7    1  0.1716782E-015  0.9000748E+02  0.7816164E-02  0.1186340E+00
        -11   -1    0    0    0    0  0.00000000000E+00  0.00000000000E+00  0.45593999997E+02  0.45594000000E+02  0.51100000000E-03 0. -1.
         11   -1    0    0    0    0 -0.00000000000E+00 -0.00000000000E+00 -0.45593999997E+02  0.45594000000E+02  0.51100000000E-03 0.  1.
    9900012    2    1    2    0    0 -0.65151716192E+00  0.87047516714E+00  0.45981155930E+00  0.90007479649E+02  0.89999737580E+02 0.  0.
        -12    1    1    2    0    0  0.65151716192E+00 -0.87047516714E+00 -0.45981155930E+00  0.11805203509E+01  0.00000000000E+00 0.  1.
         11    1    3    3    0    0 -0.60221382958E+01 -0.31245862621E+01  0.35028065432E+01  0.76353678957E+01  0.51100000000E-03 0. -1.
        -11    1    3    3    0    0 -0.16089172951E+02 -0.31929543128E+02  0.12286825295E+02  0.37806392141E+02  0.51100000000E-03 0.  1.
         12    1    3    3    0    0  0.21459794085E+02  0.35924604557E+02 -0.15329820279E+02  0.44565719612E+02  0.00000000000E+00 0. -1.
</event>
<event>
 7    1  0.1716782E-015  0.9000778E+02  0.7816164E-02  0.1186339E+00
        -11   -1    0    0    0    0  0.00000000000E+00  0.00000000000E+00  0.45593999997E+02  0.45594000000E+02  0.51100000000E-03 0.  1.
         11   -1    0    0    0    0 -0.00000000000E+00 -0.00000000000E+00 -0.45593999997E+02  0.45594000000E+02  0.51100000000E-03 0. -1.
    9900012    2    1    2    0    0  0.62839466449E+00 -0.83178374981E+00  0.55333353813E+00  0.90007778807E+02  0.90000040687E+02 0.  0.
        -12    1    1    2    0    0 -0.62839466449E+00  0.83178374981E+00 -0.55333353813E+00  0.11802211934E+01  0.00000000000E+00 0.  1.
         11    1    3    3    0    0  0.88338051957E+01 -0.35930328446E+02 -0.10354315560E+02  0.38421822802E+02  0.51100000000E-03 0. -1.
        -11    1    3    3    0    0  0.71621082497E+01 -0.24130580411E+01  0.79064979099E+01  0.10937611858E+02  0.51100000000E-03 0.  1.
        -12    1    3    3    0    0 -0.15367518781E+02  0.37511602737E+02  0.30011511886E+01  0.40648344147E+02  0.00000000000E+00 0.  1.
</event>
<event>
 7    1  0.1716782E-015  0.9000783E+02  0.7816164E-02  0.1186339E+00
        -11   -1    0    0    0    0  0.00000000000E+00  0.00000000000E+00  0.45593999997E+02  0.45594000000E+02  0.51100000000E-03 0.  1.
         11   -1    0    0    0    0 -0.00000000000E+00 -0.00000000000E+00 -0.45593999997E+02  0.45594000000E+02  0.51100000000E-03 0. -1.
    9900012    2    1    2    0    0 -0.66467306113E+00  0.80382729614E+00 -0.55215222963E+00  0.90007830230E+02  0.90000092789E+02 0.  0.
        -12    1    1    2    0    0  0.66467306113E+00 -0.80382729614E+00  0.55215222963E+00  0.11801697695E+01  0.00000000000E+00 0.  1.
         11    1    3    3    0    0  0.57418798519E+01  0.23212602397E+01  0.24351960814E+01  0.66548939548E+01  0.51100000000E-03 0. -1.
        -11    1    3    3    0    0  0.17243907044E+02  0.25129679716E+02  0.23889030715E+02  0.38723880507E+02  0.51100000000E-03 0.  1.
         12    1    3    3    0    0 -0.23650459957E+02 -0.26647112659E+02 -0.26876379026E+02  0.44629055769E+02  0.00000000000E+00 0. -1.
</event>
<event>
 7    1  0.1716782E-015  0.9000778E+02  0.7816164E-02  0.1186339E+00
        -11   -1    0    0    0    0  0.00000000000E+00  0.00000000000E+00  0.45593999997E+02  0.45594000000E+02  0.51100000000E-03 0.  1.
         11   -1    0    0    0    0 -0.00000000000E+00 -0.00000000000E+00 -0.45593999997E+02  0.45594000000E+02  0.51100000000E-03 0. -1.
    9900012    2    1    2    0    0 -0.94268226955E+00  0.64183992693E+00 -0.30382715653E+00  0.90007779981E+02  0.90000041876E+02 0.  0.
        -12    1    1    2    0    0  0.94268226955E+00 -0.64183992693E+00  0.30382715653E+00  0.11802200194E+01  0.00000000000E+00 0.  1.
         11    1    3    3    0    0 -0.19355663443E+02  0.25351132786E+02 -0.25874220717E+02  0.41070633533E+02  0.51100000000E-03 0. -1.
        -11    1    3    3    0    0 -0.32999954571E+00 -0.89755627611E+01 -0.45991193653E+01  0.10090665279E+02  0.51100000000E-03 0.  1.
        -12    1    3    3    0    0  0.18742980719E+02 -0.15733730098E+02  0.30169512925E+02  0.38846481169E+02  0.00000000000E+00 0.  1.
</event>
<event>
 7    1  0.1716782E-015  0.9000772E+02  0.7816164E-02  0.1186339E+00
        -11   -1    0    0    0    0  0.00000000000E+00  0.00000000000E+00  0.45593999997E+02  0.45594000000E+02  0.51100000000E-03 0. -1.
         11   -1    0    0    0    0 -0.00000000000E+00 -0.00000000000E+00 -0.45593999997E+02  0.45594000000E+02  0.51100000000E-03 0.  1.
    9900012    2    1    2    0    0  0.41027402489E-01  0.11095056302E+01  0.40047610188E+00  0.90007717365E+02  0.89999978434E+02 0.  0.
        -12    1    1    2    0    0 -0.41027402489E-01 -0.11095056302E+01 -0.40047610188E+00  0.11802826354E+01  0.00000000000E+00 0.  1.
         11    1    3    3    0    0 -0.80868570601E+01 -0.89213410367E+01 -0.50901743467E+01  0.13072775457E+02  0.51100000000E-03 0. -1.
        -11    1    3    3    0    0 -0.80658268529E+01  0.30072776414E+02 -0.22858623964E+02  0.38625718555E+02  0.51100000000E-03 0.  1.
         12    1    3    3    0    0  0.16193711315E+02 -0.20041929747E+02  0.28349274413E+02  0.38309223353E+02  0.00000000000E+00 0. -1.
</event>
<event>
 7    1  0.1716782E-015  0.9000775E+02  0.7816164E-02  0.1186339E+00
        -11   -1    0    0    0    0  0.00000000000E+00  0.00000000000E+00  0.45593999997E+02  0.45594000000E+02  0.51100000000E-03 0. -1.
         11   -1    0    0    0    0 -0.00000000000E+00 -0.00000000000E+00 -0.45593999997E+02  0.45594000000E+02  0.51100000000E-03 0.  1.
    9900012    2    1    2    0    0 -0.44244617440E+00  0.45329790298E+00  0.99586863939E+00  0.90007749199E+02  0.90000010689E+02 0.  0.
        -12    1    1    2    0    0  0.44244617440E+00 -0.45329790298E+00 -0.99586863939E+00  0.11802508009E+01  0.00000000000E+00 0.  1.
         11    1    3    3    0    0 -0.67788725776E+01 -0.66098213501E+01 -0.10748612143E+00  0.94686010176E+01  0.51100000000E-03 0. -1.
        -11    1    3    3    0    0 -0.21160523644E+02  0.35049067939E+02  0.43460791517E+01  0.41171511127E+02  0.51100000000E-03 0.  1.
         12    1    3    3    0    0  0.27496950048E+02 -0.27985948685E+02 -0.32427243909E+01  0.39367637054E+02  0.00000000000E+00 0. -1.
</event>
<event>
 7    1  0.1716782E-015  0.9000772E+02  0.7816164E-02  0.1186339E+00
        -11   -1    0    0    0    0  0.00000000000E+00  0.00000000000E+00  0.45593999997E+02  0.45594000000E+02  0.51100000000E-03 0. -1.
         11   -1    0    0    0    0 -0.00000000000E+00 -0.00000000000E+00 -0.45593999997E+02  0.45594000000E+02  0.51100000000E-03 0.  1.
    9900012    2    1    2    0    0 -0.22317785372E+00  0.95849639885E+00  0.65156170412E+00  0.90007721916E+02  0.89999983045E+02 0.  0.
        -12    1    1    2    0    0  0.22317785372E+00 -0.95849639885E+00 -0.65156170412E+00  0.11802780839E+01  0.00000000000E+00 0.  1.
         11    1    3    3    0    0 -0.70474544954E+01 -0.39057664875E+01 -0.58033018601E+01  0.99297502214E+01  0.51100000000E-03 0. -1.
        -11    1    3    3    0    0  0.36667393582E+02 -0.40354816943E+01 -0.17460788471E+02  0.40812522575E+02  0.51100000000E-03 0.  1.
         12    1    3    3    0    0 -0.29843116940E+02  0.88997445806E+01  0.23915652035E+02  0.39265449120E+02  0.00000000000E+00 0. -1.
</event>
<event>
 7    1  0.1716782E-015  0.9000781E+02  0.7816164E-02  0.1186339E+00
        -11   -1    0    0    0    0  0.00000000000E+00  0.00000000000E+00  0.45593999997E+02  0.45594000000E+02  0.51100000000E-03 0. -1.
         11   -1    0    0    0    0 -0.00000000000E+00 -0.00000000000E+00 -0.45593999997E+02  0.45594000000E+02  0.51100000000E-03 0.  1.
    9900012    2    1    2    0    0 -0.90053982673E+00 -0.74341373738E+00  0.17090497779E+00  0.90007811678E+02  0.90000073992E+02 0.  0.
        -12    1    1    2    0    0  0.90053982673E+00  0.74341373738E+00 -0.17090497779E+00  0.11801883222E+01  0.00000000000E+00 0.  1.
         11    1    3    3    0    0  0.27021049952E+02  0.26985808458E+02  0.15110475073E+02  0.41069422395E+02  0.51100000000E-03 0. -1.
        -11    1    3    3    0    0 -0.92480653251E+01  0.26020926345E+01 -0.83216669345E+01  0.12710143161E+02  0.51100000000E-03 0.  1.
        -12    1    3    3    0    0 -0.18673524454E+02 -0.30331314830E+02 -0.66179031610E+01  0.36228246122E+02  0.00000000000E+00 0.  1.
</event>
<event>
 7    1  0.1716782E-015  0.9000768E+02  0.7816164E-02  0.1186339E+00
        -11   -1    0    0    0    0  0.00000000000E+00  0.00000000000E+00  0.45593999997E+02  0.45594000000E+02  0.51100000000E-03 0.  1.
         11   -1    0    0    0    0 -0.00000000000E+00 -0.00000000000E+00 -0.45593999997E+02  0.45594000000E+02  0.51100000000E-03 0. -1.
    9900012    2    1    2    0    0  0.72434907927E+00  0.19432897760E+00 -0.91143246021E+00  0.90007680353E+02  0.89999940933E+02 0.  0.
        -12    1    1    2    0    0 -0.72434907927E+00 -0.19432897760E+00  0.91143246021E+00  0.11803196473E+01  0.00000000000E+00 0.  1.
         11    1    3    3    0    0  0.97351693279E+01 -0.30847305641E+02  0.21506152287E+02  0.38843846020E+02  0.51100000000E-03 0. -1.
        -11    1    3    3    0    0  0.65976887378E+01  0.30185660473E+01  0.51265497312E+01  0.88838477064E+01  0.51100000000E-03 0.  1.
        -12    1    3    3    0    0 -0.15608508986E+02  0.28023068572E+02 -0.27544134479E+02  0.42279986626E+02  0.00000000000E+00 0.  1.
</event>
<event>
 7    1  0.1716782E-015  0.9000795E+02  0.7816164E-02  0.1186339E+00
        -11   -1    0    0    0    0  0.00000000000E+00  0.00000000000E+00  0.45593999997E+02  0.45594000000E+02  0.51100000000E-03 0.  1.
         11   -1    0    0    0    0 -0.00000000000E+00 -0.00000000000E+00 -0.45593999997E+02  0.45594000000E+02  0.51100000000E-03 0. -1.
    9900012    2    1    2    0    0  0.11081404797E+01  0.35210870904E+00 -0.20139724787E+00  0.90007950545E+02  0.90000214692E+02 0.  0.
        -12    1    1    2    0    0 -0.11081404797E+01 -0.35210870904E+00  0.20139724787E+00  0.11800494554E+01  0.00000000000E+00 0.  1.
         11    1    3    3    0    0  0.37860452805E+02  0.75174760523E+01  0.75492881123E+00  0.38606945625E+02  0.51100000000E-03 0. -1.
        -11    1    3    3    0    0  0.47154701556E+01 -0.84915874585E+01 -0.19193765574E+01  0.99008445592E+01  0.51100000000E-03 0.  1.
        -12    1    3    3    0    0 -0.41467782480E+02  0.13262201153E+01  0.96305049828E+00  0.41500160360E+02  0.00000000000E+00 0.  1.
</event>
<event>
 7    1  0.1716782E-015  0.9000765E+02  0.7816164E-02  0.1186339E+00
        -11   -1    0    0    0    0  0.00000000000E+00  0.00000000000E+00  0.45593999997E+02  0.45594000000E+02  0.51100000000E-03 0. -1.
         11   -1    0    0    0    0 -0.00000000000E+00 -0.00000000000E+00 -0.45593999997E+02  0.45594000000E+02  0.51100000000E-03 0.  1.
    9900012    2    1    2    0    0 -0.83115923666E+00 -0.64443725770E+00  0.53582567120E+00  0.90007646576E+02  0.89999906711E+02 0.  0.
        -12    1    1    2    0    0  0.83115923666E+00  0.64443725770E+00 -0.53582567120E+00  0.11803534241E+01  0.00000000000E+00 0.  1.
         11    1    3    3    0    0 -0.80533764703E+01 -0.54893225285E+01  0.36200697187E+01  0.10396847571E+02  0.51100000000E-03 0. -1.
        -11    1    3    3    0    0 -0.29115964199E+02 -0.11450879821E+02 -0.19133619148E+02  0.36673660874E+02  0.51100000000E-03 0.  1.
         12    1    3    3    0    0  0.36338181433E+02  0.16295765092E+02  0.16049375100E+02  0.42937138131E+02  0.00000000000E+00 0. -1.
</event>
<event>
 7    1  0.1716782E-015  0.9000772E+02  0.7816164E-02  0.1186339E+00
        -11   -1    0    0    0    0  0.00000000000E+00  0.00000000000E+00  0.45593999997E+02  0.45594000000E+02  0.51100000000E-03 0.  1.
         11   -1    0    0    0    0 -0.00000000000E+00 -0.00000000000E+00 -0.45593999997E+02  0.45594000000E+02  0.51100000000E-03 0. -1.
    9900012    2    1    2    0    0 -0.86852780274E-01  0.20882511256E+00 -0.11584115334E+01  0.90007716723E+02  0.89999977784E+02 0.  0.
        -12    1    1    2    0    0  0.86852780274E-01 -0.20882511256E+00  0.11584115334E+01  0.11802832769E+01  0.00000000000E+00 0.  1.
         11    1    3    3    0    0  0.16439097723E+00  0.28951205329E+02 -0.32016007014E+02  0.43165078707E+02  0.51100000000E-03 0. -1.
        -11    1    3    3    0    0 -0.74230330362E+01 -0.47765288116E+01  0.28182345254E+01  0.92660181873E+01  0.51100000000E-03 0.  1.
        -12    1    3    3    0    0  0.71717892787E+01 -0.23965851405E+02  0.28039360955E+02  0.37576619829E+02  0.00000000000E+00 0.  1.
</event>
<event>
 7    1  0.1716782E-015  0.9000777E+02  0.7816164E-02  0.1186339E+00
        -11   -1    0    0    0    0  0.00000000000E+00  0.00000000000E+00  0.45593999997E+02  0.45594000000E+02  0.51100000000E-03 0.  1.
         11   -1    0    0    0    0 -0.00000000000E+00 -0.00000000000E+00 -0.45593999997E+02  0.45594000000E+02  0.51100000000E-03 0. -1.
    9900012    2    1    2    0    0 -0.18142142470E-01  0.61840433333E+00 -0.10050814020E+01  0.90007770496E+02  0.90000032267E+02 0.  0.
        -12    1    1    2    0    0  0.18142142470E-01 -0.61840433333E+00  0.10050814020E+01  0.11802295037E+01  0.00000000000E+00 0.  1.
         11    1    3    3    0    0 -0.37048430043E+02 -0.21177442158E+02  0.95465570962E+01  0.43728788889E+02  0.51100000000E-03 0. -1.
        -11    1    3    3    0    0  0.37197967713E+01  0.76610753098E+01 -0.43604809168E+01  0.95677979185E+01  0.51100000000E-03 0.  1.
        -12    1    3    3    0    0  0.33310491130E+02  0.14134771181E+02 -0.61911575814E+01  0.36711183689E+02  0.00000000000E+00 0.  1.
</event>
<event>
 7    1  0.1716782E-015  0.9000776E+02  0.7816164E-02  0.1186339E+00
        -11   -1    0    0    0    0  0.00000000000E+00  0.00000000000E+00  0.45593999997E+02  0.45594000000E+02  0.51100000000E-03 0.  1.
         11   -1    0    0    0    0 -0.00000000000E+00 -0.00000000000E+00 -0.45593999997E+02  0.45594000000E+02  0.51100000000E-03 0. -1.
    9900012    2    1    2    0    0 -0.59519133518E+00 -0.91894676140E+00 -0.44075098903E+00  0.90007755402E+02  0.90000016974E+02 0.  0.
        -12    1    1    2    0    0  0.59519133518E+00  0.91894676140E+00  0.44075098903E+00  0.11802445976E+01  0.00000000000E+00 0.  1.
         11    1    3    3    0    0 -0.66139226612E+01 -0.13296137803E+01 -0.62702924006E+01  0.92102341351E+01  0.51100000000E-03 0. -1.
        -11    1    3    3    0    0 -0.12387017611E+02 -0.45555388660E+01  0.39751725617E+02  0.41885448898E+02  0.51100000000E-03 0.  1.
         12    1    3    3    0    0  0.18405748937E+02  0.49662058849E+01 -0.33922184205E+02  0.38912072369E+02  0.00000000000E+00 0. -1.
</event>
<event>
 7    1  0.1716782E-015  0.9000773E+02  0.7816164E-02  0.1186339E+00
        -11   -1    0    0    0    0  0.00000000000E+00  0.00000000000E+00  0.45593999997E+02  0.45594000000E+02  0.51100000000E-03 0.  1.
         11   -1    0    0    0    0 -0.00000000000E+00 -0.00000000000E+00 -0.45593999997E+02  0.45594000000E+02  0.51100000000E-03 0. -1.
    9900012    2    1    2    0    0  0.17940515644E+00 -0.93263715789E+00 -0.70074585980E+00  0.90007727558E+02  0.89999988761E+02 0.  0.
        -12    1    1    2    0    0 -0.17940515644E+00  0.93263715789E+00  0.70074585980E+00  0.11802724425E+01  0.00000000000E+00 0.  1.
         11    1    3    3    0    0 -0.12663191387E+02  0.17973843447E+02 -0.58679872739E+01  0.22756290103E+02  0.51100000000E-03 0. -1.
        -11    1    3    3    0    0 -0.16699159328E+02  0.13993994729E+02 -0.38478270072E+01  0.22124637481E+02  0.51100000000E-03 0.  1.
        -12    1    3    3    0    0  0.29541755872E+02 -0.32900475333E+02  0.90150684213E+01  0.45126799973E+02  0.00000000000E+00 0.  1.
</event>
<event>
 7    1  0.1716782E-015  0.9000772E+02  0.7816164E-02  0.1186339E+00
        -11   -1    0    0    0    0  0.00000000000E+00  0.00000000000E+00  0.45593999997E+02  0.45594000000E+02  0.51100000000E-03 0.  1.
         11   -1    0    0    0    0 -0.00000000000E+00 -0.00000000000E+00 -0.45593999997E+02  0.45594000000E+02  0.51100000000E-03 0. -1.
    9900012    2    1    2    0    0 -0.48616370107E+00 -0.93478833796E+00 -0.53185430114E+00  0.90007723177E+02  0.89999984323E+02 0.  0.
        -12    1    1    2    0    0  0.48616370107E+00  0.93478833796E+00  0.53185430114E+00  0.11802768229E+01  0.00000000000E+00 0.  1.
         11    1    3    3    0    0  0.30946913143E+01  0.78733217916E+01  0.62694380716E+01  0.10529585194E+02  0.51100000000E-03 0. -1.
        -11    1    3    3    0    0 -0.39668404860E+02 -0.49877182999E+01  0.71209733939E+01  0.40609948785E+02  0.51100000000E-03 0.  1.
         12    1    3    3    0    0  0.36087549844E+02 -0.38203918296E+01 -0.13922265767E+02  0.38868189198E+02  0.00000000000E+00 0. -1.
</event>
<event>
 7    1  0.1716782E-015  0.9000773E+02  0.7816164E-02  0.1186339E+00
        -11   -1    0    0    0    0  0.00000000000E+00  0.00000000000E+00  0.45593999997E+02  0.45594000000E+02  0.51100000000E-03 0.  1.
         11   -1    0    0    0    0 -0.00000000000E+00 -0.00000000000E+00 -0.45593999997E+02  0.45594000000E+02  0.51100000000E-03 0. -1.
    9900012    2    1    2    0    0  0.10566242065E+01 -0.52566944018E+00  0.16291922241E-01  0.90007725243E+02  0.89999986417E+02 0.  0.
        -12    1    1    2    0    0 -0.10566242065E+01  0.52566944018E+00 -0.16291922241E-01  0.11802747565E+01  0.00000000000E+00 0.  1.
         11    1    3    3    0    0 -0.50068068709E+01 -0.26751271367E+02 -0.27339402438E+02  0.38576437895E+02  0.51100000000E-03 0. -1.
        -11    1    3    3    0    0 -0.86029651303E+01  0.17188797053E+01 -0.34466206670E+01  0.94257493473E+01  0.51100000000E-03 0.  1.
        -12    1    3    3    0    0  0.14666396208E+02  0.24506722221E+02  0.30802315027E+02  0.42005538001E+02  0.00000000000E+00 0.  1.
</event>
<event>
 7    1  0.2518465E-015  0.9000777E+02  0.7816164E-02  0.1186339E+00
        -11   -1    0    0    0    0  0.00000000000E+00  0.00000000000E+00  0.45593999997E+02  0.45594000000E+02  0.51100000000E-03 0. -1.
         11   -1    0    0    0    0 -0.00000000000E+00 -0.00000000000E+00 -0.45593999997E+02  0.45594000000E+02  0.51100000000E-03 0.  1.
    9900012    2    1    2    0    0  0.14657602530E-01 -0.36154227044E+00  0.11233931241E+01  0.90007771306E+02  0.90000033087E+02 0.  0.
        -12    1    1    2    0    0 -0.14657602530E-01  0.36154227044E+00 -0.11233931241E+01  0.11802286939E+01  0.00000000000E+00 0.  1.
         11    1    3    3    0    0 -0.30422172881E+02 -0.27824584475E+01  0.22543777699E+02  0.37966730055E+02  0.51100000000E-03 0. -1.
        -11    1    3    3    0    0  0.14026031425E+01 -0.69295153840E+01  0.72875706794E+01  0.10153529716E+02  0.51100000000E-03 0.  1.
        -12    1    3    3    0    0  0.29034227341E+02  0.93504315610E+01 -0.28707955255E+02  0.41887511535E+02  0.00000000000E+00 0.  1.
</event>
<event>
 7    1  0.1716782E-015  0.9000783E+02  0.7816164E-02  0.1186339E+00
        -11   -1    0    0    0    0  0.00000000000E+00  0.00000000000E+00  0.45593999997E+02  0.45594000000E+02  0.51100000000E-03 0.  1.
         11   -1    0    0    0    0 -0.00000000000E+00 -0.00000000000E+00 -0.45593999997E+02  0.45594000000E+02  0.51100000000E-03 0. -1.
    9900012    2    1    2    0    0 -0.25015989776E+00 -0.10466656742E+01 -0.48446329242E+00  0.90007833194E+02  0.90000095792E+02 0.  0.
        -12    1    1    2    0    0  0.25015989776E+00  0.10466656742E+01  0.48446329242E+00  0.11801668058E+01  0.00000000000E+00 0.  1.
         11    1    3    3    0    0 -0.27216903626E+02  0.28181454042E+02 -0.20363047891E+01  0.39231374337E+02  0.51100000000E-03 0. -1.
        -11    1    3    3    0    0 -0.45248239801E+01 -0.39597504657E+01  0.78754626111E+01  0.99084089238E+01  0.51100000000E-03 0.  1.
        -12    1    3    3    0    0  0.31491567709E+02 -0.25268369251E+02 -0.63236211144E+01  0.40868049933E+02  0.00000000000E+00 0.  1.
</event>
<event>
 7    1  0.3814723E-015  0.9000777E+02  0.7816164E-02  0.1186339E+00
        -11   -1    0    0    0    0  0.00000000000E+00  0.00000000000E+00  0.45593999997E+02  0.45594000000E+02  0.51100000000E-03 0. -1.
         11   -1    0    0    0    0 -0.00000000000E+00 -0.00000000000E+00 -0.45593999997E+02  0.45594000000E+02  0.51100000000E-03 0.  1.
    9900012    2    1    2    0    0  0.45158457878E+00 -0.10058411738E+01  0.42107024404E+00  0.90007768985E+02  0.90000030735E+02 0.  0.
        -12    1    1    2    0    0 -0.45158457878E+00  0.10058411738E+01 -0.42107024404E+00  0.11802310152E+01  0.00000000000E+00 0.  1.
         11    1    3    3    0    0 -0.32748213273E+02 -0.47818059463E+01  0.19438935913E+02  0.38382070949E+02  0.51100000000E-03 0. -1.
        -11    1    3    3    0    0 -0.64769858471E+01  0.50546231857E+01 -0.44200350498E+01  0.93293767913E+01  0.51100000000E-03 0.  1.
        -12    1    3    3    0    0  0.39676783698E+02 -0.12786584132E+01 -0.14597830620E+02  0.42296321244E+02  0.00000000000E+00 0.  1.
</event>
<event>
 7    1  0.1716782E-015  0.9000766E+02  0.7816164E-02  0.1186339E+00
        -11   -1    0    0    0    0  0.00000000000E+00  0.00000000000E+00  0.45593999997E+02  0.45594000000E+02  0.51100000000E-03 0.  1.
         11   -1    0    0    0    0 -0.00000000000E+00 -0.00000000000E+00 -0.45593999997E+02  0.45594000000E+02  0.51100000000E-03 0. -1.
    9900012    2    1    2    0    0 -0.74935808836E+00 -0.90587143113E+00 -0.10514447945E+00  0.90007662779E+02  0.89999923127E+02 0.  0.
        -12    1    1    2    0    0  0.74935808836E+00  0.90587143113E+00  0.10514447945E+00  0.11803372213E+01  0.00000000000E+00 0.  1.
         11    1    3    3    0    0  0.32639121421E+02 -0.23286198484E+02 -0.26276452771E+01  0.40180390826E+02  0.51100000000E-03 0. -1.
        -11    1    3    3    0    0  0.42161628501E+01  0.77798561542E+01 -0.24515520511E+01  0.91821728735E+01  0.51100000000E-03 0.  1.
        -12    1    3    3    0    0 -0.37604642359E+02  0.14600470899E+02  0.49740528487E+01  0.40645099079E+02  0.00000000000E+00 0.  1.
</event>
<event>
 7    1  0.1716782E-015  0.9000769E+02  0.7816164E-02  0.1186339E+00
        -11   -1    0    0    0    0  0.00000000000E+00  0.00000000000E+00  0.45593999997E+02  0.45594000000E+02  0.51100000000E-03 0. -1.
         11   -1    0    0    0    0 -0.00000000000E+00 -0.00000000000E+00 -0.45593999997E+02  0.45594000000E+02  0.51100000000E-03 0.  1.
    9900012    2    1    2    0    0  0.49880968685E+00 -0.11970419106E+00  0.10630057998E+01  0.90007694308E+02  0.89999955072E+02 0.  0.
        -12    1    1    2    0    0 -0.49880968685E+00  0.11970419106E+00 -0.10630057998E+01  0.11803056924E+01  0.00000000000E+00 0.  1.
         11    1    3    3    0    0  0.27970414418E+02  0.25798896724E+02 -0.93715878780E+01  0.39188694983E+02  0.51100000000E-03 0. -1.
        -11    1    3    3    0    0  0.90421686106E+00  0.19279754600E+01  0.10852854763E+02  0.11059799016E+02  0.51100000000E-03 0.  1.
        -12    1    3    3    0    0 -0.28375821593E+02 -0.27846576375E+02 -0.41826108493E+00  0.39759200309E+02  0.00000000000E+00 0.  1.
</event>
<event>
 7    1  0.1716782E-015  0.9000773E+02  0.7816164E-02  0.1186339E+00
        -11   -1    0    0    0    0  0.00000000000E+00  0.00000000000E+00  0.45593999997E+02  0.45594000000E+02  0.51100000000E-03 0. -1.
         11   -1    0    0    0    0 -0.00000000000E+00 -0.00000000000E+00 -0.45593999997E+02  0.45594000000E+02  0.51100000000E-03 0.  1.
    9900012    2    1    2    0    0 -0.65557017845E+00 -0.97982376526E+00 -0.56558508666E-01  0.90007734888E+02  0.89999996188E+02 0.  0.
        -12    1    1    2    0    0  0.65557017845E+00  0.97982376526E+00  0.56558508666E-01  0.11802651121E+01  0.00000000000E+00 0.  1.
         11    1    3    3    0    0 -0.20650447176E+02  0.32871902447E+02  0.70461933064E+00  0.38826529947E+02  0.51100000000E-03 0. -1.
        -11    1    3    3    0    0  0.81321193484E+01 -0.10970182317E+01 -0.12034505596E+02  0.14565855255E+02  0.51100000000E-03 0.  1.
        -12    1    3    3    0    0  0.11862757649E+02 -0.32754707981E+02  0.11273327757E+02  0.36615349686E+02  0.00000000000E+00 0.  1.
</event>
<event>
 7    1  0.1716782E-015  0.9000777E+02  0.7816164E-02  0.1186339E+00
        -11   -1    0    0    0    0  0.00000000000E+00  0.00000000000E+00  0.45593999997E+02  0.45594000000E+02  0.51100000000E-03 0.  1.
         11   -1    0    0    0    0 -0.00000000000E+00 -0.00000000000E+00 -0.45593999997E+02  0.45594000000E+02  0.51100000000E-03 0. -1.
    9900012    2    1    2    0    0 -0.64401396516E+00 -0.44177052094E+00  0.88489029313E+00  0.90007768662E+02  0.90000030408E+02 0.  0.
        -12    1    1    2    0    0  0.64401396516E+00  0.44177052094E+00 -0.88489029313E+00  0.11802313381E+01  0.00000000000E+00 0.  1.
         11    1    3    3    0    0 -0.12858240244E+02  0.41813494854E+02  0.73514691131E+01  0.44359292065E+02  0.51100000000E-03 0. -1.
        -11    1    3    3    0    0  0.24956741285E+01 -0.89074366437E+01  0.28610000921E+01  0.96827753617E+01  0.51100000000E-03 0.  1.
        -12    1    3    3    0    0  0.97185521507E+01 -0.33347828731E+02 -0.93275789121E+01  0.35965701236E+02  0.00000000000E+00 0.  1.
</event>
<event>
 7    1  0.1716782E-015  0.9000776E+02  0.7816164E-02  0.1186339E+00
        -11   -1    0    0    0    0  0.00000000000E+00  0.00000000000E+00  0.45593999997E+02  0.45594000000E+02  0.51100000000E-03 0. -1.
         11   -1    0    0    0    0 -0.00000000000E+00 -0.00000000000E+00 -0.45593999997E+02  0.45594000000E+02  0.51100000000E-03 0.  1.
    9900012    2    1    2    0    0 -0.11088422804E+01 -0.16082329974E+00  0.37089449422E+00  0.90007763557E+02  0.90000025235E+02 0.  0.
        -12    1    1    2    0    0  0.11088422804E+01  0.16082329974E+00 -0.37089449422E+00  0.11802364434E+01  0.00000000000E+00 0.  1.
         11    1    3    3    0    0  0.31685437218E+01  0.49466616893E+01  0.42114594468E+02  0.42522325885E+02  0.51100000000E-03 0. -1.
        -11    1    3    3    0    0  0.74629089325E+01 -0.35539249063E+01 -0.71789052321E+01  0.10948153843E+02  0.51100000000E-03 0.  1.
        -12    1    3    3    0    0 -0.11740294935E+02 -0.15535600828E+01 -0.34564794741E+02  0.36537283829E+02  0.00000000000E+00 0.  1.
</event>
<event>
 7    1  0.1716782E-015  0.9000775E+02  0.7816164E-02  0.1186339E+00
        -11   -1    0    0    0    0  0.00000000000E+00  0.00000000000E+00  0.45593999997E+02  0.45594000000E+02  0.51100000000E-03 0.  1.
         11   -1    0    0    0    0 -0.00000000000E+00 -0.00000000000E+00 -0.45593999997E+02  0.45594000000E+02  0.51100000000E-03 0. -1.
    9900012    2    1    2    0    0  0.11535322659E+01  0.22328731321E+00 -0.11181316116E+00  0.90007747444E+02  0.90000008910E+02 0.  0.
        -12    1    1    2    0    0 -0.11535322659E+01 -0.22328731321E+00  0.11181316116E+00  0.11802525559E+01  0.00000000000E+00 0.  1.
         11    1    3    3    0    0 -0.73551256427E+00 -0.11627780652E+02 -0.48260023356E+01  0.12610969845E+02  0.51100000000E-03 0. -1.
        -11    1    3    3    0    0 -0.30521723738E+02  0.11375891003E+02  0.23284905269E+02  0.40039646973E+02  0.51100000000E-03 0.  1.
         12    1    3    3    0    0  0.32410768569E+02  0.47517696182E+00 -0.18570716095E+02  0.37357130626E+02  0.00000000000E+00 0. -1.
</event>
<event>
 7    1  0.1716782E-015  0.9000775E+02  0.7816164E-02  0.1186339E+00
        -11   -1    0    0    0    0  0.00000000000E+00  0.00000000000E+00  0.45593999997E+02  0.45594000000E+02  0.51100000000E-03 0. -1.
         11   -1    0    0    0    0 -0.00000000000E+00 -0.00000000000E+00 -0.45593999997E+02  0.45594000000E+02  0.51100000000E-03 0.  1.
    9900012    2    1    2    0    0  0.43190414604E+00  0.94367487207E+00  0.56206650961E+00  0.90007753324E+02  0.90000014868E+02 0.  0.
        -12    1    1    2    0    0 -0.43190414604E+00 -0.94367487207E+00 -0.56206650961E+00  0.11802466762E+01  0.00000000000E+00 0.  1.
         11    1    3    3    0    0  0.73995139031E+01  0.68774233199E+01 -0.27961866406E+01  0.10481909059E+02  0.51100000000E-03 0. -1.
        -11    1    3    3    0    0 -0.23549842049E+02  0.12068824018E+02 -0.28800980216E+02  0.39111993498E+02  0.51100000000E-03 0.  1.
         12    1    3    3    0    0  0.16582232292E+02 -0.18002572465E+02  0.32159233366E+02  0.40413850767E+02  0.00000000000E+00 0. -1.
</event>
<event>
 7    1  0.1716782E-015  0.9000773E+02  0.7816164E-02  0.1186339E+00
        -11   -1    0    0    0    0  0.00000000000E+00  0.00000000000E+00  0.45593999997E+02  0.45594000000E+02  0.51100000000E-03 0.  1.
         11   -1    0    0    0    0 -0.00000000000E+00 -0.00000000000E+00 -0.45593999997E+02  0.45594000000E+02  0.51100000000E-03 0. -1.
    9900012    2    1    2    0    0  0.78446315561E+00  0.83537285868E+00 -0.28249875725E+00  0.90007730623E+02  0.89999991867E+02 0.  0.
        -12    1    1    2    0    0 -0.78446315561E+00 -0.83537285868E+00  0.28249875725E+00  0.11802693775E+01  0.00000000000E+00 0.  1.
         11    1    3    3    0    0 -0.82065971821E+01 -0.14622231266E+02 -0.42321137885E+01  0.17293602050E+02  0.51100000000E-03 0.  1.
        -11    1    3    3    0    0 -0.27580237259E+02 -0.84047291191E+01  0.34999654557E+01  0.29044082311E+02  0.51100000000E-03 0. -1.
        -12    1    3    3    0    0  0.36571297597E+02  0.23862333243E+02  0.44964957561E+00  0.43670046261E+02  0.00000000000E+00 0.  1.
</event>
<event>
 7    1  0.1716782E-015  0.9000773E+02  0.7816164E-02  0.1186339E+00
        -11   -1    0    0    0    0  0.00000000000E+00  0.00000000000E+00  0.45593999997E+02  0.45594000000E+02  0.51100000000E-03 0.  1.
         11   -1    0    0    0    0 -0.00000000000E+00 -0.00000000000E+00 -0.45593999997E+02  0.45594000000E+02  0.51100000000E-03 0. -1.
    9900012    2    1    2    0    0  0.97385710959E+00 -0.33314079265E+00  0.57763195418E+00  0.90007729212E+02  0.89999990438E+02 0.  0.
        -12    1    1    2    0    0 -0.97385710959E+00  0.33314079265E+00 -0.57763195418E+00  0.11802707876E+01  0.00000000000E+00 0.  1.
         11    1    3    3    0    0 -0.29617771970E+00  0.89958471076E+01 -0.58986515318E+01  0.10761369642E+02  0.51100000000E-03 0. -1.
        -11    1    3    3    0    0 -0.34853643849E+02 -0.14330723272E+02 -0.10354592049E+02  0.39081500685E+02  0.51100000000E-03 0.  1.
         12    1    3    3    0    0  0.36123678678E+02  0.50017353716E+01  0.16830875535E+02  0.40164858885E+02  0.00000000000E+00 0. -1.
</event>
<event>
 7    1  0.1716782E-015  0.9000750E+02  0.7816164E-02  0.1186340E+00
        -11   -1    0    0    0    0  0.00000000000E+00  0.00000000000E+00  0.45593999997E+02  0.45594000000E+02  0.51100000000E-03 0. -1.
         11   -1    0    0    0    0 -0.00000000000E+00 -0.00000000000E+00 -0.45593999997E+02  0.45594000000E+02  0.51100000000E-03 0.  1.
    9900012    2    1    2    0    0 -0.91857322479E-01  0.57645042378E+00  0.10260822997E+01  0.90007501061E+02  0.89999759275E+02 0.  0.
        -12    1    1    2    0    0  0.91857322479E-01 -0.57645042378E+00 -0.10260822997E+01  0.11804989388E+01  0.00000000000E+00 0.  1.
         11    1    3    3    0    0 -0.73258939554E+01 -0.56163423544E+00  0.49858515407E+01  0.88793508269E+01  0.51100000000E-03 0. -1.
        -11    1    3    3    0    0 -0.98420896857E+01 -0.59417308943E+01 -0.39461470465E+02  0.41102050398E+02  0.51100000000E-03 0.  1.
         12    1    3    3    0    0  0.17076126319E+02  0.70798155535E+01  0.35501701224E+02  0.40026099836E+02  0.00000000000E+00 0. -1.
</event>
<event>
 7    1  0.1716782E-015  0.9000767E+02  0.7816164E-02  0.1186339E+00
        -11   -1    0    0    0    0  0.00000000000E+00  0.00000000000E+00  0.45593999997E+02  0.45594000000E+02  0.51100000000E-03 0. -1.
         11   -1    0    0    0    0 -0.00000000000E+00 -0.00000000000E+00 -0.45593999997E+02  0.45594000000E+02  0.51100000000E-03 0.  1.
    9900012    2    1    2    0    0 -0.98167064336E+00  0.38245648813E+00 -0.53218934815E+00  0.90007671351E+02  0.89999931813E+02 0.  0.
        -12    1    1    2    0    0  0.98167064336E+00 -0.38245648813E+00  0.53218934815E+00  0.11803286490E+01  0.00000000000E+00 0.  1.
         11    1    3    3    0    0 -0.25545514291E+02 -0.28852628644E+02  0.96901393352E+01  0.39735957024E+02  0.51100000000E-03 0. -1.
        -11    1    3    3    0    0  0.10888081188E+01  0.56199452539E+01  0.98493804848E+01  0.11392084268E+02  0.51100000000E-03 0.  1.
        -12    1    3    3    0    0  0.23475035529E+02  0.23615139878E+02 -0.20071709168E+02  0.38879630058E+02  0.00000000000E+00 0.  1.
</event>
<event>
 7    1  0.1716782E-015  0.9000782E+02  0.7816164E-02  0.1186339E+00
        -11   -1    0    0    0    0  0.00000000000E+00  0.00000000000E+00  0.45593999997E+02  0.45594000000E+02  0.51100000000E-03 0.  1.
         11   -1    0    0    0    0 -0.00000000000E+00 -0.00000000000E+00 -0.45593999997E+02  0.45594000000E+02  0.51100000000E-03 0. -1.
    9900012    2    1    2    0    0 -0.57937644500E+00 -0.81555229583E+00 -0.62611579917E+00  0.90007820519E+02  0.90000082950E+02 0.  0.
        -12    1    1    2    0    0  0.57937644500E+00  0.81555229583E+00  0.62611579917E+00  0.11801794805E+01  0.00000000000E+00 0.  1.
         11    1    3    3    0    0  0.33772245827E+02  0.10442618840E+02 -0.98164944193E+01  0.36687551559E+02  0.51100000000E-03 0. -1.
        -11    1    3    3    0    0  0.48962284033E+01  0.75164309964E+01  0.24030631059E+01  0.92867916986E+01  0.51100000000E-03 0.  1.
        -12    1    3    3    0    0 -0.39247850676E+02 -0.18774602132E+02  0.67873155142E+01  0.44033477262E+02  0.00000000000E+00 0.  1.
</event>
<event>
 7    1  0.1716782E-015  0.9000750E+02  0.7816164E-02  0.1186340E+00
        -11   -1    0    0    0    0  0.00000000000E+00  0.00000000000E+00  0.45593999997E+02  0.45594000000E+02  0.51100000000E-03 0. -1.
         11   -1    0    0    0    0 -0.00000000000E+00 -0.00000000000E+00 -0.45593999997E+02  0.45594000000E+02  0.51100000000E-03 0.  1.
    9900012    2    1    2    0    0 -0.98930173978E+00 -0.19677188465E+00 -0.61330768837E+00  0.90007498654E+02  0.89999756836E+02 0.  0.
        -12    1    1    2    0    0  0.98930173978E+00  0.19677188465E+00  0.61330768837E+00  0.11805013458E+01  0.00000000000E+00 0.  1.
         11    1    3    3    0    0 -0.19939311249E+01  0.32415152827E+02  0.67996274683E+01  0.33180609218E+02  0.51100000000E-03 0. -1.
        -11    1    3    3    0    0 -0.38342523455E+01  0.10672570274E+02  0.36070534683E+01  0.11900255555E+02  0.51100000000E-03 0.  1.
        -12    1    3    3    0    0  0.48388817306E+01 -0.43284494985E+02 -0.11019988625E+02  0.44926633881E+02  0.00000000000E+00 0.  1.
</event>
<event>
 7    1  0.1716782E-015  0.9000773E+02  0.7816164E-02  0.1186339E+00
        -11   -1    0    0    0    0  0.00000000000E+00  0.00000000000E+00  0.45593999997E+02  0.45594000000E+02  0.51100000000E-03 0.  1.
         11   -1    0    0    0    0 -0.00000000000E+00 -0.00000000000E+00 -0.45593999997E+02  0.45594000000E+02  0.51100000000E-03 0. -1.
    9900012    2    1    2    0    0  0.36578424296E+00  0.37048253962E+00 -0.10592358474E+01  0.90007730537E+02  0.89999991780E+02 0.  0.
        -12    1    1    2    0    0 -0.36578424296E+00 -0.37048253962E+00  0.10592358474E+01  0.11802694628E+01  0.00000000000E+00 0.  1.
         11    1    3    3    0    0  0.33888574444E+02 -0.12109974091E+02  0.21385988478E+02  0.41862243773E+02  0.51100000000E-03 0. -1.
        -11    1    3    3    0    0 -0.84887715730E+01  0.50561954815E+01  0.42925185795E+01  0.10772653878E+02  0.51100000000E-03 0.  1.
        -12    1    3    3    0    0 -0.25034018628E+02  0.74242611489E+01 -0.26737742905E+02  0.37372832886E+02  0.00000000000E+00 0.  1.
</event>
<event>
 7    1  0.1716782E-015  0.9000803E+02  0.7816164E-02  0.1186338E+00
        -11   -1    0    0    0    0  0.00000000000E+00  0.00000000000E+00  0.45593999997E+02  0.45594000000E+02  0.51100000000E-03 0. -1.
         11   -1    0    0    0    0 -0.00000000000E+00 -0.00000000000E+00 -0.45593999997E+02  0.45594000000E+02  0.51100000000E-03 0.  1.
    9900012    2    1    2    0    0 -0.59426332693E+00 -0.45508344276E+00  0.91218574749E+00  0.90008028526E+02  0.90000293702E+02 0.  0.
        -12    1    1    2    0    0  0.59426332693E+00  0.45508344276E+00 -0.91218574749E+00  0.11799714740E+01  0.00000000000E+00 0.  1.
         11    1    3    3    0    0  0.19735051204E+02  0.24847636336E+02 -0.17163924031E+02  0.36075997088E+02  0.51100000000E-03 0. -1.
        -11    1    3    3    0    0  0.82924274860E+01 -0.14903191219E+01 -0.53151620344E+01  0.99617444460E+01  0.51100000000E-03 0.  1.
        -12    1    3    3    0    0 -0.28621742017E+02 -0.23812400657E+02  0.23391271812E+02  0.43970286992E+02  0.00000000000E+00 0.  1.
</event>
<event>
 7    1  0.1716782E-015  0.9000770E+02  0.7816164E-02  0.1186339E+00
        -11   -1    0    0    0    0  0.00000000000E+00  0.00000000000E+00  0.45593999997E+02  0.45594000000E+02  0.51100000000E-03 0.  1.
         11   -1    0    0    0    0 -0.00000000000E+00 -0.00000000000E+00 -0.45593999997E+02  0.45594000000E+02  0.51100000000E-03 0. -1.
    9900012    2    1    2    0    0  0.76725451795E-01 -0.11384729649E+01 -0.30181125460E+00  0.90007704478E+02  0.89999965377E+02 0.  0.
        -12    1    1    2    0    0 -0.76725451795E-01  0.11384729649E+01  0.30181125460E+00  0.11802955224E+01  0.00000000000E+00 0.  1.
         11    1    3    3    0    0 -0.28368075016E+02  0.13857283161E+01  0.96856617572E+01  0.30007998384E+02  0.51100000000E-03 0. -1.
        -11    1    3    3    0    0 -0.44209129131E+01 -0.93188604535E+01  0.14967889996E+02  0.18177551054E+02  0.51100000000E-03 0.  1.
         12    1    3    3    0    0  0.32865713381E+02  0.67946591725E+01 -0.24955363008E+02  0.41822155039E+02  0.00000000000E+00 0. -1.
</event>
<event>
 7    1  0.1716782E-015  0.9000745E+02  0.7816164E-02  0.1186340E+00
        -11   -1    0    0    0    0  0.00000000000E+00  0.00000000000E+00  0.45593999997E+02  0.45594000000E+02  0.51100000000E-03 0.  1.
         11   -1    0    0    0    0 -0.00000000000E+00 -0.00000000000E+00 -0.45593999997E+02  0.45594000000E+02  0.51100000000E-03 0. -1.
    9900012    2    1    2    0    0 -0.90227516538E+00  0.13780178107E+00 -0.74873322761E+00  0.90007452987E+02  0.89999710565E+02 0.  0.
        -12    1    1    2    0    0  0.90227516538E+00 -0.13780178107E+00  0.74873322761E+00  0.11805470135E+01  0.00000000000E+00 0.  1.
         11    1    3    3    0    0 -0.41100733138E+01  0.87283541991E+01 -0.30015024222E+01  0.10103756070E+02  0.51100000000E-03 0. -1.
        -11    1    3    3    0    0 -0.35979611880E+02  0.34180954596E+01 -0.93029635059E+01  0.37319712993E+02  0.51100000000E-03 0.  1.
         12    1    3    3    0    0  0.39187410028E+02 -0.12008647878E+02  0.11555732700E+02  0.42583983924E+02  0.00000000000E+00 0. -1.
</event>
<event>
 7    1  0.1716782E-015  0.9000773E+02  0.7816164E-02  0.1186339E+00
        -11   -1    0    0    0    0  0.00000000000E+00  0.00000000000E+00  0.45593999997E+02  0.45594000000E+02  0.51100000000E-03 0.  1.
         11   -1    0    0    0    0 -0.00000000000E+00 -0.00000000000E+00 -0.45593999997E+02  0.45594000000E+02  0.51100000000E-03 0. -1.
    9900012    2    1    2    0    0  0.89695302031E+00 -0.64740758014E+00  0.41156543707E+00  0.90007725708E+02  0.89999986887E+02 0.  0.
        -12    1    1    2    0    0 -0.89695302031E+00  0.64740758014E+00 -0.41156543707E+00  0.11802742920E+01  0.00000000000E+00 0.  1.
         11    1    3    3    0    0  0.67618637679E+00 -0.28782237170E+02 -0.29073306038E+02  0.40916152419E+02  0.51100000000E-03 0. -1.
        -11    1    3    3    0    0  0.62657949140E+01 -0.21060889841E+01  0.11842812311E+02  0.13562743101E+02  0.51100000000E-03 0.  1.
        -12    1    3    3    0    0 -0.60450282705E+01  0.30240918574E+02  0.17642059164E+02  0.35528830188E+02  0.00000000000E+00 0.  1.
</event>
<event>
 7    1  0.1716782E-015  0.9000772E+02  0.7816164E-02  0.1186339E+00
        -11   -1    0    0    0    0  0.00000000000E+00  0.00000000000E+00  0.45593999997E+02  0.45594000000E+02  0.51100000000E-03 0. -1.
         11   -1    0    0    0    0 -0.00000000000E+00 -0.00000000000E+00 -0.45593999997E+02  0.45594000000E+02  0.51100000000E-03 0.  1.
    9900012    2    1    2    0    0 -0.85980392824E+00  0.46178096400E+00 -0.66374586266E+00  0.90007719091E+02  0.89999980183E+02 0.  0.
        -12    1    1    2    0    0  0.85980392824E+00 -0.46178096400E+00  0.66374586266E+00  0.11802809089E+01  0.00000000000E+00 0.  1.
         11    1    3    3    0    0  0.36672249149E+01  0.75506183066E+01 -0.17964681839E+01  0.85841524675E+01  0.51100000000E-03 0. -1.
        -11    1    3    3    0    0  0.22244296163E+02  0.21275215045E+02 -0.20346420365E+02  0.36897429570E+02  0.51100000000E-03 0.  1.
         12    1    3    3    0    0 -0.26771325006E+02 -0.28364052387E+02  0.21479142686E+02  0.44526137054E+02  0.00000000000E+00 0. -1.
</event>
<event>
 7    1  0.1716782E-015  0.9000763E+02  0.7816164E-02  0.1186339E+00
        -11   -1    0    0    0    0  0.00000000000E+00  0.00000000000E+00  0.45593999997E+02  0.45594000000E+02  0.51100000000E-03 0. -1.
         11   -1    0    0    0    0 -0.00000000000E+00 -0.00000000000E+00 -0.45593999997E+02  0.45594000000E+02  0.51100000000E-03 0.  1.
    9900012    2    1    2    0    0 -0.12442015473E+00  0.13845692816E+00  0.11655955289E+01  0.90007634111E+02  0.89999894081E+02 0.  0.
        -12    1    1    2    0    0  0.12442015473E+00 -0.13845692816E+00 -0.11655955289E+01  0.11803658894E+01  0.00000000000E+00 0.  1.
         11    1    3    3    0    0  0.14346196990E+01 -0.17858303051E+01 -0.92533850234E+01  0.95327046641E+01  0.51100000000E-03 0. -1.
        -11    1    3    3    0    0 -0.32880687724E+02 -0.39307663241E+01 -0.18076895415E+02  0.37727505844E+02  0.51100000000E-03 0.  1.
         12    1    3    3    0    0  0.31321647871E+02  0.58550535574E+01  0.28495875967E+02  0.42747423602E+02  0.00000000000E+00 0. -1.
</event>
<event>
 7    1  0.1716782E-015  0.9000775E+02  0.7816164E-02  0.1186339E+00
        -11   -1    0    0    0    0  0.00000000000E+00  0.00000000000E+00  0.45593999997E+02  0.45594000000E+02  0.51100000000E-03 0.  1.
         11   -1    0    0    0    0 -0.00000000000E+00 -0.00000000000E+00 -0.45593999997E+02  0.45594000000E+02  0.51100000000E-03 0. -1.
    9900012    2    1    2    0    0  0.35790891118E-01 -0.14104312763E+00 -0.11712488899E+01  0.90007746589E+02  0.90000008044E+02 0.  0.
        -12    1    1    2    0    0 -0.35790891118E-01  0.14104312763E+00  0.11712488899E+01  0.11802534108E+01  0.00000000000E+00 0.  1.
         11    1    3    3    0    0 -0.24071842556E+00 -0.46917927140E+01 -0.41298537054E+02  0.41564889357E+02  0.51100000000E-03 0. -1.
        -11    1    3    3    0    0 -0.77702686614E+01 -0.63003712288E-03  0.53841974431E+00  0.77889005354E+01  0.51100000000E-03 0.  1.
        -12    1    3    3    0    0  0.80467779781E+01  0.45513796235E+01  0.39588868420E+02  0.40653956696E+02  0.00000000000E+00 0.  1.
</event>
<event>
 7    1  0.1716782E-015  0.9000688E+02  0.7816164E-02  0.1186341E+00
        -11   -1    0    0    0    0  0.00000000000E+00  0.00000000000E+00  0.45593999997E+02  0.45594000000E+02  0.51100000000E-03 0. -1.
         11   -1    0    0    0    0 -0.00000000000E+00 -0.00000000000E+00 -0.45593999997E+02  0.45594000000E+02  0.51100000000E-03 0.  1.
    9900012    2    1    2    0    0  0.41741900828E+00  0.52618464570E+00  0.97156168184E+00  0.90006881457E+02  0.89999131489E+02 0.  0.
        -12    1    1    2    0    0 -0.41741900828E+00 -0.52618464570E+00 -0.97156168184E+00  0.11811185425E+01  0.00000000000E+00 0.  1.
         11    1    3    3    0    0  0.38334102383E+02  0.14445732984E+02 -0.88403481887E+01  0.41908643062E+02  0.51100000000E-03 0. -1.
        -11    1    3    3    0    0  0.11212446805E+01 -0.65615626800E+01  0.44632416612E+01  0.80144757049E+01  0.51100000000E-03 0.  1.
        -12    1    3    3    0    0 -0.39037928055E+02 -0.73579856581E+01  0.53486682093E+01  0.40083762690E+02  0.00000000000E+00 0.  1.
</event>
<event>
 7    1  0.1716782E-015  0.9000776E+02  0.7816164E-02  0.1186339E+00
        -11   -1    0    0    0    0  0.00000000000E+00  0.00000000000E+00  0.45593999997E+02  0.45594000000E+02  0.51100000000E-03 0.  1.
         11   -1    0    0    0    0 -0.00000000000E+00 -0.00000000000E+00 -0.45593999997E+02  0.45594000000E+02  0.51100000000E-03 0. -1.
    9900012    2    1    2    0    0 -0.72544094263E+00 -0.18682264271E-01 -0.93078159531E+00  0.90007759361E+02  0.90000020984E+02 0.  0.
        -12    1    1    2    0    0  0.72544094263E+00  0.18682264271E-01  0.93078159531E+00  0.11802406392E+01  0.00000000000E+00 0.  1.
         11    1    3    3    0    0 -0.19518216888E+02  0.25533930513E+02 -0.29220024693E+02  0.43436761404E+02  0.51100000000E-03 0. -1.
        -11    1    3    3    0    0  0.55618380821E+00  0.10588754747E+01  0.87990914940E+01  0.88800095203E+01  0.51100000000E-03 0.  1.
        -12    1    3    3    0    0  0.18236592137E+02 -0.26611488252E+02  0.19490151604E+02  0.37690988436E+02  0.00000000000E+00 0.  1.
</event>
<event>
 7    1  0.1716782E-015  0.9000775E+02  0.7816164E-02  0.1186339E+00
        -11   -1    0    0    0    0  0.00000000000E+00  0.00000000000E+00  0.45593999997E+02  0.45594000000E+02  0.51100000000E-03 0. -1.
         11   -1    0    0    0    0 -0.00000000000E+00 -0.00000000000E+00 -0.45593999997E+02  0.45594000000E+02  0.51100000000E-03 0.  1.
    9900012    2    1    2    0    0 -0.88907914804E+00  0.77571907093E+00 -0.28085119689E-01  0.90007749780E+02  0.90000011277E+02 0.  0.
        -12    1    1    2    0    0  0.88907914804E+00 -0.77571907093E+00  0.28085119689E-01  0.11802502203E+01  0.00000000000E+00 0.  1.
         11    1    3    3    0    0  0.90821024139E+01 -0.52059851555E+01  0.38712173932E+02  0.40102609348E+02  0.51100000000E-03 0. -1.
        -11    1    3    3    0    0 -0.60647919033E+01  0.73294050742E+01  0.13446383678E+01  0.96078057940E+01  0.51100000000E-03 0.  1.
        -12    1    3    3    0    0 -0.39063896586E+01 -0.13477008479E+01 -0.40084897420E+02  0.40297334638E+02  0.00000000000E+00 0.  1.
</event>
<event>
 7    1  0.1716782E-015  0.9000773E+02  0.7816164E-02  0.1186339E+00
        -11   -1    0    0    0    0  0.00000000000E+00  0.00000000000E+00  0.45593999997E+02  0.45594000000E+02  0.51100000000E-03 0.  1.
         11   -1    0    0    0    0 -0.00000000000E+00 -0.00000000000E+00 -0.45593999997E+02  0.45594000000E+02  0.51100000000E-03 0. -1.
    9900012    2    1    2    0    0  0.60573331287E+00 -0.42807546116E+00 -0.91808625137E+00  0.90007727230E+02  0.89999988429E+02 0.  0.
        -12    1    1    2    0    0 -0.60573331287E+00  0.42807546116E+00  0.91808625137E+00  0.11802727701E+01  0.00000000000E+00 0.  1.
         11    1    3    3    0    0  0.13176021373E+01  0.37545967074E+01  0.10325166481E+02  0.11065357425E+02  0.51100000000E-03 0. -1.
        -11    1    3    3    0    0 -0.16637813803E+02  0.31468499928E+02  0.62767300971E+01  0.36145271846E+02  0.51100000000E-03 0.  1.
         12    1    3    3    0    0  0.15925944979E+02 -0.35651172097E+02 -0.17519982829E+02  0.42797097958E+02  0.00000000000E+00 0. -1.
</event>
<event>
 7    1  0.1716782E-015  0.9000781E+02  0.7816164E-02  0.1186339E+00
        -11   -1    0    0    0    0  0.00000000000E+00  0.00000000000E+00  0.45593999997E+02  0.45594000000E+02  0.51100000000E-03 0.  1.
         11   -1    0    0    0    0 -0.00000000000E+00 -0.00000000000E+00 -0.45593999997E+02  0.45594000000E+02  0.51100000000E-03 0. -1.
    9900012    2    1    2    0    0  0.19947286936E+00  0.82038406198E+00 -0.82464530923E+00  0.90007805389E+02  0.90000067620E+02 0.  0.
        -12    1    1    2    0    0 -0.19947286936E+00 -0.82038406198E+00  0.82464530923E+00  0.11801946114E+01  0.00000000000E+00 0.  1.
         11    1    3    3    0    0  0.10560421995E+01  0.61601901897E+01 -0.54102440901E+01  0.82664327056E+01  0.51100000000E-03 0. -1.
        -11    1    3    3    0    0  0.30763160134E+02  0.72420901058E+01 -0.22041613833E+02  0.38531190367E+02  0.51100000000E-03 0.  1.
         12    1    3    3    0    0 -0.31619729464E+02 -0.12581896234E+02  0.26627212613E+02  0.43210182316E+02  0.00000000000E+00 0. -1.
</event>
<event>
 7    1  0.1716782E-015  0.9000775E+02  0.7816164E-02  0.1186339E+00
        -11   -1    0    0    0    0  0.00000000000E+00  0.00000000000E+00  0.45593999997E+02  0.45594000000E+02  0.51100000000E-03 0.  1.
         11   -1    0    0    0    0 -0.00000000000E+00 -0.00000000000E+00 -0.45593999997E+02  0.45594000000E+02  0.51100000000E-03 0. -1.
    9900012    2    1    2    0    0 -0.28596577948E-01  0.11341949509E+01 -0.32521445599E+00  0.90007754096E+02  0.90000015650E+02 0.  0.
        -12    1    1    2    0    0  0.28596577948E-01 -0.11341949509E+01  0.32521445599E+00  0.11802459037E+01  0.00000000000E+00 0.  1.
         11    1    3    3    0    0  0.87375581322E+01  0.46020254018E+00 -0.83249418956E+00  0.87891839967E+01  0.51100000000E-03 0. -1.
        -11    1    3    3    0    0  0.22044412774E+02 -0.24121458372E+02  0.18739838829E+02  0.37669383432E+02  0.51100000000E-03 0.  1.
         12    1    3    3    0    0 -0.30810567484E+02  0.24795450783E+02 -0.18232559096E+02  0.43549186667E+02  0.00000000000E+00 0. -1.
</event>
<event>
 7    1  0.1716782E-015  0.9000778E+02  0.7816164E-02  0.1186339E+00
        -11   -1    0    0    0    0  0.00000000000E+00  0.00000000000E+00  0.45593999997E+02  0.45594000000E+02  0.51100000000E-03 0.  1.
         11   -1    0    0    0    0 -0.00000000000E+00 -0.00000000000E+00 -0.45593999997E+02  0.45594000000E+02  0.51100000000E-03 0. -1.
    9900012    2    1    2    0    0  0.10117691546E+01 -0.57610269527E+00  0.19323862893E+00  0.90007782941E+02  0.90000044876E+02 0.  0.
        -12    1    1    2    0    0 -0.10117691546E+01  0.57610269527E+00 -0.19323862893E+00  0.11802170586E+01  0.00000000000E+00 0.  1.
         11    1    3    3    0    0 -0.37946075940E+02  0.24532071551E+01 -0.17494953309E+02  0.41856854829E+02  0.51100000000E-03 0. -1.
        -11    1    3    3    0    0  0.88507440195E+01  0.31563805562E+01 -0.43258205617E+01  0.10344618490E+02  0.51100000000E-03 0.  1.
        -12    1    3    3    0    0  0.30107101075E+02 -0.61856904066E+01  0.22014012499E+02  0.37806309623E+02  0.00000000000E+00 0.  1.
</event>
<event>
 7    1  0.1716782E-015  0.9000769E+02  0.7816164E-02  0.1186339E+00
        -11   -1    0    0    0    0  0.00000000000E+00  0.00000000000E+00  0.45593999997E+02  0.45594000000E+02  0.51100000000E-03 0. -1.
         11   -1    0    0    0    0 -0.00000000000E+00 -0.00000000000E+00 -0.45593999997E+02  0.45594000000E+02  0.51100000000E-03 0.  1.
    9900012    2    1    2    0    0 -0.11128353270E+01 -0.35053516431E+00 -0.17848153303E+00  0.90007689437E+02  0.89999950138E+02 0.  0.
        -12    1    1    2    0    0  0.11128353270E+01  0.35053516431E+00  0.17848153303E+00  0.11803105626E+01  0.00000000000E+00 0.  1.
         11    1    3    3    0    0 -0.91953130255E+01 -0.10222773328E+01  0.19555718692E+01  0.94563784917E+01  0.51100000000E-03 0. -1.
        -11    1    3    3    0    0  0.26431704121E+02  0.12804900435E+02  0.29756487837E+02  0.41809676231E+02  0.51100000000E-03 0.  1.
         12    1    3    3    0    0 -0.18349226423E+02 -0.12133158266E+02 -0.31890541239E+02  0.38741634715E+02  0.00000000000E+00 0. -1.
</event>
<event>
 7    1  0.1716782E-015  0.9000780E+02  0.7816164E-02  0.1186339E+00
        -11   -1    0    0    0    0  0.00000000000E+00  0.00000000000E+00  0.45593999997E+02  0.45594000000E+02  0.51100000000E-03 0.  1.
         11   -1    0    0    0    0 -0.00000000000E+00 -0.00000000000E+00 -0.45593999997E+02  0.45594000000E+02  0.51100000000E-03 0. -1.
    9900012    2    1    2    0    0  0.11331506461E+00 -0.59139577529E+00 -0.10150246896E+01  0.90007803242E+02  0.90000065445E+02 0.  0.
        -12    1    1    2    0    0 -0.11331506461E+00  0.59139577529E+00  0.10150246896E+01  0.11801967579E+01  0.00000000000E+00 0.  1.
         11    1    3    3    0    0  0.41854535834E+01  0.17254094820E+01  0.44072903277E+01  0.63181696616E+01  0.51100000000E-03 0. -1.
        -11    1    3    3    0    0  0.11964536305E+02  0.29469352583E+02  0.22065831210E+02  0.38710383335E+02  0.51100000000E-03 0.  1.
         12    1    3    3    0    0 -0.16036674824E+02 -0.31786157840E+02 -0.27488146227E+02  0.44979250246E+02  0.00000000000E+00 0. -1.
</event>
<event>
 7    1  0.1716782E-015  0.9000783E+02  0.7816164E-02  0.1186339E+00
        -11   -1    0    0    0    0  0.00000000000E+00  0.00000000000E+00  0.45593999997E+02  0.45594000000E+02  0.51100000000E-03 0.  1.
         11   -1    0    0    0    0 -0.00000000000E+00 -0.00000000000E+00 -0.45593999997E+02  0.45594000000E+02  0.51100000000E-03 0. -1.
    9900012    2    1    2    0    0  0.19494942938E+00  0.34304135433E+00 -0.11122601038E+01  0.90007828322E+02  0.90000090856E+02 0.  0.
        -12    1    1    2    0    0 -0.19494942938E+00 -0.34304135433E+00  0.11122601038E+01  0.11801716779E+01  0.00000000000E+00 0.  1.
         11    1    3    3    0    0 -0.67295835128E+01 -0.33838127432E+01  0.52408091999E+01  0.91762500112E+01  0.51100000000E-03 0. -1.
        -11    1    3    3    0    0  0.21925925670E+02 -0.32645811986E+02  0.55743367977E+01  0.39718616387E+02  0.51100000000E-03 0.  1.
         12    1    3    3    0    0 -0.15001392728E+02  0.36372666084E+02 -0.11927406101E+02  0.41112961924E+02  0.00000000000E+00 0. -1.
</event>
<event>
 7    1  0.1716782E-015  0.9000770E+02  0.7816164E-02  0.1186339E+00
        -11   -1    0    0    0    0  0.00000000000E+00  0.00000000000E+00  0.45593999997E+02  0.45594000000E+02  0.51100000000E-03 0.  1.
         11   -1    0    0    0    0 -0.00000000000E+00 -0.00000000000E+00 -0.45593999997E+02  0.45594000000E+02  0.51100000000E-03 0. -1.
    9900012    2    1    2    0    0  0.10380065700E+01  0.13345819126E+00  0.54574617561E+00  0.90007700201E+02  0.89999961043E+02 0.  0.
        -12    1    1    2    0    0 -0.10380065700E+01 -0.13345819126E+00 -0.54574617561E+00  0.11802997994E+01  0.00000000000E+00 0.  1.
         11    1    3    3    0    0 -0.25869424801E+02 -0.30946801180E+02 -0.54471729711E+00  0.40338918677E+02  0.51100000000E-03 0. -1.
        -11    1    3    3    0    0  0.84650617826E+01 -0.38121919937E+01 -0.35308946298E+01  0.99326379139E+01  0.51100000000E-03 0.  1.
        -12    1    3    3    0    0  0.18442369588E+02  0.34892451365E+02  0.46213581025E+01  0.39736143610E+02  0.00000000000E+00 0.  1.
</event>
<event>
 7    1  0.1716782E-015  0.9000793E+02  0.7816164E-02  0.1186339E+00
        -11   -1    0    0    0    0  0.00000000000E+00  0.00000000000E+00  0.45593999997E+02  0.45594000000E+02  0.51100000000E-03 0. -1.
         11   -1    0    0    0    0 -0.00000000000E+00 -0.00000000000E+00 -0.45593999997E+02  0.45594000000E+02  0.51100000000E-03 0.  1.
    9900012    2    1    2    0    0 -0.23039201924E+00 -0.28170837475E+00  0.11225541601E+01  0.90007928844E+02  0.90000192704E+02 0.  0.
        -12    1    1    2    0    0  0.23039201924E+00  0.28170837475E+00 -0.11225541601E+01  0.11800711560E+01  0.00000000000E+00 0.  1.
         11    1    3    3    0    0  0.26436422408E+02 -0.70551543935E+00  0.20176451517E+02  0.33263664528E+02  0.51100000000E-03 0. -1.
        -11    1    3    3    0    0  0.51726425138E+01  0.15627255413E+02 -0.12933565646E+02  0.20934289166E+02  0.51100000000E-03 0.  1.
        -12    1    3    3    0    0 -0.31839456941E+02 -0.15203448348E+02 -0.61203317106E+01  0.35809975149E+02  0.00000000000E+00 0.  1.
</event>
<event>
 7    1  0.1716782E-015  0.9000772E+02  0.7816164E-02  0.1186339E+00
        -11   -1    0    0    0    0  0.00000000000E+00  0.00000000000E+00  0.45593999997E+02  0.45594000000E+02  0.51100000000E-03 0.  1.
         11   -1    0    0    0    0 -0.00000000000E+00 -0.00000000000E+00 -0.45593999997E+02  0.45594000000E+02  0.51100000000E-03 0. -1.
    9900012    2    1    2    0    0 -0.26295328522E+00 -0.10630673594E+01  0.44023914413E+00  0.90007717345E+02  0.89999978414E+02 0.  0.
        -12    1    1    2    0    0  0.26295328522E+00  0.10630673594E+01 -0.44023914413E+00  0.11802826547E+01  0.00000000000E+00 0.  1.
         11    1    3    3    0    0 -0.39772006230E+01 -0.34275786622E+01 -0.80066228631E+01  0.95745720643E+01  0.51100000000E-03 0. -1.
        -11    1    3    3    0    0 -0.24682092015E+02  0.30092562671E+02  0.11620309454E+02  0.40617725027E+02  0.51100000000E-03 0.  1.
         12    1    3    3    0    0  0.28396339353E+02 -0.27728051368E+02 -0.31734474467E+01  0.39815420254E+02  0.00000000000E+00 0. -1.
</event>
<event>
 7    1  0.1716782E-015  0.9000799E+02  0.7816164E-02  0.1186339E+00
        -11   -1    0    0    0    0  0.00000000000E+00  0.00000000000E+00  0.45593999997E+02  0.45594000000E+02  0.51100000000E-03 0.  1.
         11   -1    0    0    0    0 -0.00000000000E+00 -0.00000000000E+00 -0.45593999997E+02  0.45594000000E+02  0.51100000000E-03 0. -1.
    9900012    2    1    2    0    0  0.27436876888E+00  0.11426462339E+01  0.10725518850E+00  0.90007990546E+02  0.90000255220E+02 0.  0.
        -12    1    1    2    0    0 -0.27436876888E+00 -0.11426462339E+01 -0.10725518850E+00  0.11800094545E+01  0.00000000000E+00 0.  1.
         11    1    3    3    0    0 -0.75815259888E+01 -0.15649017748E+02 -0.38202529636E+02  0.41973855716E+02  0.51100000000E-03 0. -1.
        -11    1    3    3    0    0 -0.45036090682E+01 -0.31119098467E+01  0.59740017408E+01  0.81027880753E+01  0.51100000000E-03 0.  1.
        -12    1    3    3    0    0  0.12359503826E+02  0.19903573828E+02  0.32335783084E+02  0.39931346754E+02  0.00000000000E+00 0.  1.
</event>
<event>
 7    1  0.1716782E-015  0.9000760E+02  0.7816164E-02  0.1186339E+00
        -11   -1    0    0    0    0  0.00000000000E+00  0.00000000000E+00  0.45593999997E+02  0.45594000000E+02  0.51100000000E-03 0.  1.
         11   -1    0    0    0    0 -0.00000000000E+00 -0.00000000000E+00 -0.45593999997E+02  0.45594000000E+02  0.51100000000E-03 0. -1.
    9900012    2    1    2    0    0  0.79972300557E+00  0.75229389818E+00 -0.43340333279E+00  0.90007601151E+02  0.89999860686E+02 0.  0.
        -12    1    1    2    0    0 -0.79972300557E+00 -0.75229389818E+00  0.43340333279E+00  0.11803988494E+01  0.00000000000E+00 0.  1.
         11    1    3    3    0    0  0.79884059617E+01  0.64665404570E+01 -0.86121832632E+00  0.10313703145E+02  0.51100000000E-03 0. -1.
        -11    1    3    3    0    0  0.14486274715E+01  0.41252699331E+01  0.38853595389E+02  0.39098826689E+02  0.51100000000E-03 0.  1.
         12    1    3    3    0    0 -0.86373104277E+01 -0.98395164919E+01 -0.38425780395E+02  0.40595071317E+02  0.00000000000E+00 0. -1.
</event>
<event>
 7    1  0.1716782E-015  0.9000773E+02  0.7816164E-02  0.1186339E+00
        -11   -1    0    0    0    0  0.00000000000E+00  0.00000000000E+00  0.45593999997E+02  0.45594000000E+02  0.51100000000E-03 0.  1.
         11   -1    0    0    0    0 -0.00000000000E+00 -0.00000000000E+00 -0.45593999997E+02  0.45594000000E+02  0.51100000000E-03 0. -1.
    9900012    2    1    2    0    0  0.12722156618E+00 -0.86568572968E+00 -0.79211083229E+00  0.90007730251E+02  0.89999991490E+02 0.  0.
        -12    1    1    2    0    0 -0.12722156618E+00  0.86568572968E+00  0.79211083229E+00  0.11802697489E+01  0.00000000000E+00 0.  1.
         11    1    3    3    0    0  0.25099783352E+02  0.31424527565E+02  0.16049044692E+01  0.40250164914E+02  0.51100000000E-03 0. -1.
        -11    1    3    3    0    0 -0.68708653444E+01  0.42927526740E+01  0.28866216171E+01  0.86005290955E+01  0.51100000000E-03 0.  1.
        -12    1    3    3    0    0 -0.18101696441E+02 -0.36582965968E+02 -0.52836369186E+01  0.41157036242E+02  0.00000000000E+00 0.  1.
</event>
<event>
 7    1  0.1716782E-015  0.9000783E+02  0.7816164E-02  0.1186339E+00
        -11   -1    0    0    0    0  0.00000000000E+00  0.00000000000E+00  0.45593999997E+02  0.45594000000E+02  0.51100000000E-03 0.  1.
         11   -1    0    0    0    0 -0.00000000000E+00 -0.00000000000E+00 -0.45593999997E+02  0.45594000000E+02  0.51100000000E-03 0. -1.
    9900012    2    1    2    0    0 -0.17342424923E+00  0.45718812601E+00 -0.10741053951E+01  0.90007830795E+02  0.90000093361E+02 0.  0.
        -12    1    1    2    0    0  0.17342424923E+00 -0.45718812601E+00  0.10741053951E+01  0.11801692050E+01  0.00000000000E+00 0.  1.
         11    1    3    3    0    0  0.93736233551E+01  0.31586660731E+02 -0.17908181706E+02  0.37500465640E+02  0.51100000000E-03 0. -1.
        -11    1    3    3    0    0  0.89557316299E+01  0.27108837448E+00 -0.47582435961E+01  0.10144924855E+02  0.51100000000E-03 0.  1.
        -12    1    3    3    0    0 -0.18502779234E+02 -0.31400560980E+02  0.21592319907E+02  0.42362440300E+02  0.00000000000E+00 0.  1.
</event>
<event>
 7    1  0.1716782E-015  0.9000776E+02  0.7816164E-02  0.1186339E+00
        -11   -1    0    0    0    0  0.00000000000E+00  0.00000000000E+00  0.45593999997E+02  0.45594000000E+02  0.51100000000E-03 0.  1.
         11   -1    0    0    0    0 -0.00000000000E+00 -0.00000000000E+00 -0.45593999997E+02  0.45594000000E+02  0.51100000000E-03 0. -1.
    9900012    2    1    2    0    0 -0.10428369718E+01 -0.38437759794E-01 -0.55134416259E+00  0.90007759856E+02  0.90000021486E+02 0.  0.
        -12    1    1    2    0    0  0.10428369718E+01  0.38437759794E-01  0.55134416259E+00  0.11802401437E+01  0.00000000000E+00 0.  1.
         11    1    3    3    0    0  0.82387795549E+01 -0.53870568779E+01 -0.28282766407E+01  0.10241924593E+02  0.51100000000E-03 0. -1.
        -11    1    3    3    0    0 -0.48020724809E+00 -0.17150454368E+02  0.35065507819E+02  0.39037911354E+02  0.51100000000E-03 0.  1.
         12    1    3    3    0    0 -0.88014092786E+01  0.22499073487E+02 -0.32788575341E+02  0.40727923909E+02  0.00000000000E+00 0. -1.
</event>
<event>
 7    1  0.1716782E-015  0.9000758E+02  0.7816164E-02  0.1186339E+00
        -11   -1    0    0    0    0  0.00000000000E+00  0.00000000000E+00  0.45593999997E+02  0.45594000000E+02  0.51100000000E-03 0.  1.
         11   -1    0    0    0    0 -0.00000000000E+00 -0.00000000000E+00 -0.45593999997E+02  0.45594000000E+02  0.51100000000E-03 0. -1.
    9900012    2    1    2    0    0  0.89499932000E+00 -0.76914035293E+00  0.28034657298E-01  0.90007582020E+02  0.89999841303E+02 0.  0.
        -12    1    1    2    0    0 -0.89499932000E+00  0.76914035293E+00 -0.28034657298E-01  0.11804179799E+01  0.00000000000E+00 0.  1.
         11    1    3    3    0    0  0.14902286375E+02  0.33092164639E+02 -0.10093646418E+01  0.36306863220E+02  0.51100000000E-03 0. -1.
        -11    1    3    3    0    0  0.22910670406E+01  0.82066417117E+01  0.10579862880E+01  0.85858774517E+01  0.51100000000E-03 0.  1.
        -12    1    3    3    0    0 -0.16298354095E+02 -0.42067946703E+02 -0.20586988856E-01  0.45114841348E+02  0.00000000000E+00 0.  1.
</event>
<event>
 7    1  0.1716782E-015  0.9000729E+02  0.7816164E-02  0.1186340E+00
        -11   -1    0    0    0    0  0.00000000000E+00  0.00000000000E+00  0.45593999997E+02  0.45594000000E+02  0.51100000000E-03 0.  1.
         11   -1    0    0    0    0 -0.00000000000E+00 -0.00000000000E+00 -0.45593999997E+02  0.45594000000E+02  0.51100000000E-03 0. -1.
    9900012    2    1    2    0    0 -0.84486462809E+00  0.59782287838E+00 -0.56823886847E+00  0.90007286722E+02  0.89999542105E+02 0.  0.
        -12    1    1    2    0    0  0.84486462809E+00 -0.59782287838E+00  0.56823886847E+00  0.11807132782E+01  0.00000000000E+00 0.  1.
         11    1    3    3    0    0  0.81214184330E+00 -0.87114172920E+01  0.44683178081E+01  0.98241656085E+01  0.51100000000E-03 0. -1.
        -11    1    3    3    0    0  0.12506392012E+02 -0.40306755789E+01  0.34063337918E+02  0.36509823023E+02  0.51100000000E-03 0.  1.
         12    1    3    3    0    0 -0.14163398483E+02  0.13339915749E+02 -0.39099894595E+02  0.43673298090E+02  0.00000000000E+00 0. -1.
</event>
<event>
 7    1  0.1716782E-015  0.9000774E+02  0.7816164E-02  0.1186339E+00
        -11   -1    0    0    0    0  0.00000000000E+00  0.00000000000E+00  0.45593999997E+02  0.45594000000E+02  0.51100000000E-03 0. -1.
         11   -1    0    0    0    0 -0.00000000000E+00 -0.00000000000E+00 -0.45593999997E+02  0.45594000000E+02  0.51100000000E-03 0.  1.
    9900012    2    1    2    0    0  0.36091372101E+00 -0.54543234113E+00  0.98246976323E+00  0.90007744948E+02  0.90000006381E+02 0.  0.
        -12    1    1    2    0    0 -0.36091372101E+00  0.54543234113E+00 -0.98246976323E+00  0.11802550523E+01  0.00000000000E+00 0.  1.
         11    1    3    3    0    0 -0.71666937459E+01  0.49163389550E+01 -0.85071835190E+01  0.12161581298E+02  0.51100000000E-03 0. -1.
        -11    1    3    3    0    0  0.61931199560E+01  0.49196357143E+01 -0.33078052957E+02  0.34010515110E+02  0.51100000000E-03 0.  1.
         12    1    3    3    0    0  0.13344875109E+01 -0.10381407010E+02  0.42567706240E+02  0.43835648540E+02  0.00000000000E+00 0. -1.
</event>
<event>
 7    1  0.1716782E-015  0.9000779E+02  0.7816164E-02  0.1186339E+00
        -11   -1    0    0    0    0  0.00000000000E+00  0.00000000000E+00  0.45593999997E+02  0.45594000000E+02  0.51100000000E-03 0.  1.
         11   -1    0    0    0    0 -0.00000000000E+00 -0.00000000000E+00 -0.45593999997E+02  0.45594000000E+02  0.51100000000E-03 0. -1.
    9900012    2    1    2    0    0 -0.58298942708E+00 -0.81552425703E+00 -0.62285384042E+00  0.90007786717E+02  0.90000048702E+02 0.  0.
        -12    1    1    2    0    0  0.58298942708E+00  0.81552425703E+00  0.62285384042E+00  0.11802132826E+01  0.00000000000E+00 0.  1.
         11    1    3    3    0    0 -0.39195039886E+01  0.29908232262E+01 -0.10556239497E+02  0.11650825192E+02  0.51100000000E-03 0. -1.
        -11    1    3    3    0    0 -0.30266896239E+02  0.16967497083E+02 -0.69613281952E+01  0.35389843963E+02  0.51100000000E-03 0.  1.
         12    1    3    3    0    0  0.33603410801E+02 -0.20773844566E+02  0.16894713851E+02  0.42967117562E+02  0.00000000000E+00 0. -1.
</event>
<event>
 7    1  0.1716782E-015  0.9000776E+02  0.7816164E-02  0.1186339E+00
        -11   -1    0    0    0    0  0.00000000000E+00  0.00000000000E+00  0.45593999997E+02  0.45594000000E+02  0.51100000000E-03 0.  1.
         11   -1    0    0    0    0 -0.00000000000E+00 -0.00000000000E+00 -0.45593999997E+02  0.45594000000E+02  0.51100000000E-03 0. -1.
    9900012    2    1    2    0    0 -0.65596961298E-01  0.10324201082E+01 -0.56813745474E+00  0.90007756632E+02  0.90000018219E+02 0.  0.
        -12    1    1    2    0    0  0.65596961298E-01 -0.10324201082E+01  0.56813745474E+00  0.11802433684E+01  0.00000000000E+00 0.  1.
         11    1    3    3    0    0  0.80893109756E+01  0.87117208416E+00  0.50623110025E+01  0.95824258832E+01  0.51100000000E-03 0. -1.
        -11    1    3    3    0    0  0.27917386856E+02  0.23826661414E+02  0.13212052753E+01  0.36726500877E+02  0.51100000000E-03 0.  1.
         12    1    3    3    0    0 -0.36072294793E+02 -0.23665413390E+02 -0.69516537325E+01  0.43698829872E+02  0.00000000000E+00 0. -1.
</event>
<event>
 7    1  0.1716782E-015  0.9000779E+02  0.7816164E-02  0.1186339E+00
        -11   -1    0    0    0    0  0.00000000000E+00  0.00000000000E+00  0.45593999997E+02  0.45594000000E+02  0.51100000000E-03 0. -1.
         11   -1    0    0    0    0 -0.00000000000E+00 -0.00000000000E+00 -0.45593999997E+02  0.45594000000E+02  0.51100000000E-03 0.  1.
    9900012    2    1    2    0    0  0.81490157099E+00  0.83099383823E+00  0.19563088336E+00  0.90007793759E+02  0.90000055836E+02 0.  0.
        -12    1    1    2    0    0 -0.81490157099E+00 -0.83099383823E+00 -0.19563088336E+00  0.11802062413E+01  0.00000000000E+00 0.  1.
         11    1    3    3    0    0 -0.28705461328E+02 -0.15023566028E+02  0.13944772771E+02  0.35272761930E+02  0.51100000000E-03 0. -1.
        -11    1    3    3    0    0 -0.41743130034E+01 -0.68307619772E+01  0.55728197516E+01  0.97540001274E+01  0.51100000000E-03 0.  1.
        -12    1    3    3    0    0  0.33694675903E+02  0.22685321843E+02 -0.19321961639E+02  0.44981031701E+02  0.00000000000E+00 0.  1.
</event>
<event>
 7    1  0.1716782E-015  0.9000778E+02  0.7816164E-02  0.1186339E+00
        -11   -1    0    0    0    0  0.00000000000E+00  0.00000000000E+00  0.45593999997E+02  0.45594000000E+02  0.51100000000E-03 0.  1.
         11   -1    0    0    0    0 -0.00000000000E+00 -0.00000000000E+00 -0.45593999997E+02  0.45594000000E+02  0.51100000000E-03 0. -1.
    9900012    2    1    2    0    0 -0.19843793629E+00 -0.10316123400E+01 -0.53789288019E+00  0.90007775282E+02  0.90000037116E+02 0.  0.
        -12    1    1    2    0    0  0.19843793629E+00  0.10316123400E+01  0.53789288019E+00  0.11802247181E+01  0.00000000000E+00 0.  1.
         11    1    3    3    0    0 -0.68222106273E+00 -0.86277608986E+01 -0.31712181451E+01  0.92173916315E+01  0.51100000000E-03 0. -1.
        -11    1    3    3    0    0  0.15693073636E+01 -0.19025752654E+02  0.34392157993E+02  0.39335257993E+02  0.51100000000E-03 0.  1.
         12    1    3    3    0    0 -0.10855242372E+01  0.26621901213E+02 -0.31758832728E+02  0.41455125658E+02  0.00000000000E+00 0. -1.
</event>
<event>
 7    1  0.1716782E-015  0.9000719E+02  0.7816164E-02  0.1186340E+00
        -11   -1    0    0    0    0  0.00000000000E+00  0.00000000000E+00  0.45593999997E+02  0.45594000000E+02  0.51100000000E-03 0.  1.
         11   -1    0    0    0    0 -0.00000000000E+00 -0.00000000000E+00 -0.45593999997E+02  0.45594000000E+02  0.51100000000E-03 0. -1.
    9900012    2    1    2    0    0 -0.64036562501E+00 -0.43972083908E+00 -0.88932071168E+00  0.90007189313E+02  0.89999443410E+02 0.  0.
        -12    1    1    2    0    0  0.64036562501E+00  0.43972083908E+00  0.88932071168E+00  0.11808106869E+01  0.00000000000E+00 0.  1.
         11    1    3    3    0    0 -0.57126420962E+01  0.24465721927E+02 -0.34635600748E+02  0.42788207120E+02  0.51100000000E-03 0. -1.
        -11    1    3    3    0    0 -0.68342701192E+01 -0.19370678319E+01  0.62001099361E+01  0.94287243744E+01  0.51100000000E-03 0.  1.
        -12    1    3    3    0    0  0.11906546590E+02 -0.22968374934E+02  0.27546170100E+02  0.37790257819E+02  0.00000000000E+00 0.  1.
</event>
<event>
 7    1  0.2089312E-015  0.9000765E+02  0.7816164E-02  0.1186339E+00
        -11   -1    0    0    0    0  0.00000000000E+00  0.00000000000E+00  0.45593999997E+02  0.45594000000E+02  0.51100000000E-03 0. -1.
         11   -1    0    0    0    0 -0.00000000000E+00 -0.00000000000E+00 -0.45593999997E+02  0.45594000000E+02  0.51100000000E-03 0.  1.
    9900012    2    1    2    0    0 -0.76630836422E+00 -0.35647623978E+00  0.82396870565E+00  0.90007649100E+02  0.89999909268E+02 0.  0.
        -12    1    1    2    0    0  0.76630836422E+00  0.35647623978E+00 -0.82396870565E+00  0.11803508997E+01  0.00000000000E+00 0.  1.
         11    1    3    3    0    0 -0.48562305445E+01  0.83922164759E+01  0.53243829613E+00  0.97106005623E+01  0.51100000000E-03 0. -1.
        -11    1    3    3    0    0 -0.48448688247E+01 -0.14449358022E+02 -0.37801056239E+02  0.40757533711E+02  0.51100000000E-03 0.  1.
         12    1    3    3    0    0  0.89347910051E+01  0.57006653060E+01  0.38092586648E+02  0.39539514827E+02  0.00000000000E+00 0. -1.
</event>
<event>
 7    1  0.1716782E-015  0.9000769E+02  0.7816164E-02  0.1186339E+00
        -11   -1    0    0    0    0  0.00000000000E+00  0.00000000000E+00  0.45593999997E+02  0.45594000000E+02  0.51100000000E-03 0.  1.
         11   -1    0    0    0    0 -0.00000000000E+00 -0.00000000000E+00 -0.45593999997E+02  0.45594000000E+02  0.51100000000E-03 0. -1.
    9900012    2    1    2    0    0  0.90492849679E+00 -0.50405571868E+00 -0.56582935363E+00  0.90007690460E+02  0.89999951174E+02 0.  0.
        -12    1    1    2    0    0 -0.90492849679E+00  0.50405571868E+00  0.56582935363E+00  0.11803095396E+01  0.00000000000E+00 0.  1.
         11    1    3    3    0    0  0.59308655116E+01  0.19832047516E+01  0.14979021256E+02  0.16232046847E+02  0.51100000000E-03 0. -1.
        -11    1    3    3    0    0 -0.33352155220E+01 -0.33526718544E+02  0.81799940797E+01  0.34670979541E+02  0.51100000000E-03 0.  1.
         12    1    3    3    0    0 -0.16907214928E+01  0.31039458074E+02 -0.23724844689E+02  0.39104664072E+02  0.00000000000E+00 0. -1.
</event>
<event>
 7    1  0.1716782E-015  0.9000899E+02  0.7816164E-02  0.1186337E+00
        -11   -1    0    0    0    0  0.00000000000E+00  0.00000000000E+00  0.45593999997E+02  0.45594000000E+02  0.51100000000E-03 0. -1.
         11   -1    0    0    0    0 -0.00000000000E+00 -0.00000000000E+00 -0.45593999997E+02  0.45594000000E+02  0.51100000000E-03 0.  1.
    9900012    2    1    2    0    0  0.11824743656E+00 -0.11480709896E+01 -0.24083969020E+00  0.90008994822E+02  0.90001272745E+02 0.  0.
        -12    1    1    2    0    0 -0.11824743656E+00  0.11480709896E+01  0.24083969020E+00  0.11790051781E+01  0.00000000000E+00 0.  1.
         11    1    3    3    0    0 -0.38362916580E+02 -0.19394572375E+02  0.68978832088E+00  0.42992308781E+02  0.51100000000E-03 0. -1.
        -11    1    3    3    0    0  0.81708130579E+01 -0.14318251681E+01  0.59771501656E+01  0.10224413612E+02  0.51100000000E-03 0.  1.
        -12    1    3    3    0    0  0.30310350959E+02  0.19678326554E+02 -0.69077781766E+01  0.36792272429E+02  0.00000000000E+00 0.  1.
</event>
<event>
 7    1  0.1716782E-015  0.9000796E+02  0.7816164E-02  0.1186339E+00
        -11   -1    0    0    0    0  0.00000000000E+00  0.00000000000E+00  0.45593999997E+02  0.45594000000E+02  0.51100000000E-03 0.  1.
         11   -1    0    0    0    0 -0.00000000000E+00 -0.00000000000E+00 -0.45593999997E+02  0.45594000000E+02  0.51100000000E-03 0. -1.
    9900012    2    1    2    0    0 -0.54406785921E+00 -0.69772850205E+00 -0.78081012591E+00  0.90007957903E+02  0.90000222147E+02 0.  0.
        -12    1    1    2    0    0  0.54406785921E+00  0.69772850205E+00  0.78081012591E+00  0.11800420970E+01  0.00000000000E+00 0.  1.
         11    1    3    3    0    0  0.19321493435E+02  0.33724181545E+02 -0.49597938603E+01  0.39182139871E+02  0.51100000000E-03 0. -1.
        -11    1    3    3    0    0  0.79417279186E+01 -0.25757822795E+01  0.76598830786E-01  0.83493451436E+01  0.51100000000E-03 0.  1.
        -12    1    3    3    0    0 -0.27807289212E+02 -0.31846127768E+02  0.41023849036E+01  0.42476472889E+02  0.00000000000E+00 0.  1.
</event>
<event>
 7    1  0.1716782E-015  0.9000773E+02  0.7816164E-02  0.1186339E+00
        -11   -1    0    0    0    0  0.00000000000E+00  0.00000000000E+00  0.45593999997E+02  0.45594000000E+02  0.51100000000E-03 0. -1.
         11   -1    0    0    0    0 -0.00000000000E+00 -0.00000000000E+00 -0.45593999997E+02  0.45594000000E+02  0.51100000000E-03 0.  1.
    9900012    2    1    2    0    0 -0.96499111569E+00 -0.57830527252E+00  0.35692727845E+00  0.90007728030E+02  0.89999989240E+02 0.  0.
        -12    1    1    2    0    0  0.96499111569E+00  0.57830527252E+00 -0.35692727845E+00  0.11802719702E+01  0.00000000000E+00 0.  1.
         11    1    3    3    0    0 -0.65959258097E+00  0.24530254942E+01  0.97992927414E+01  0.10123168226E+02  0.51100000000E-03 0. -1.
        -11    1    3    3    0    0 -0.37014819471E+02  0.94292504104E+01  0.49839341442E+01  0.38520737578E+02  0.51100000000E-03 0.  1.
         12    1    3    3    0    0  0.36709420936E+02 -0.12460581177E+02 -0.14426299607E+02  0.41363822225E+02  0.00000000000E+00 0. -1.
</event>
<event>
 7    1  0.1716782E-015  0.9000770E+02  0.7816164E-02  0.1186339E+00
        -11   -1    0    0    0    0  0.00000000000E+00  0.00000000000E+00  0.45593999997E+02  0.45594000000E+02  0.51100000000E-03 0. -1.
         11   -1    0    0    0    0 -0.00000000000E+00 -0.00000000000E+00 -0.45593999997E+02  0.45594000000E+02  0.51100000000E-03 0.  1.
    9900012    2    1    2    0    0  0.49924908452E+00 -0.10458667178E+01  0.22363519325E+00  0.90007703622E+02  0.89999964510E+02 0.  0.
        -12    1    1    2    0    0 -0.49924908452E+00  0.10458667178E+01 -0.22363519325E+00  0.11802963778E+01  0.00000000000E+00 0.  1.
         11    1    3    3    0    0 -0.74631322390E+01 -0.28850270913E+02 -0.20273508714E+02  0.36042358836E+02  0.51100000000E-03 0. -1.
        -11    1    3    3    0    0 -0.14126187555E+02  0.12492766369E+02 -0.19358011080E+01  0.18956943651E+02  0.51100000000E-03 0.  1.
        -12    1    3    3    0    0  0.22088568878E+02  0.15311637826E+02  0.22432945016E+02  0.35008401136E+02  0.00000000000E+00 0.  1.
</event>
<event>
 7    1  0.1716782E-015  0.9000768E+02  0.7816164E-02  0.1186339E+00
        -11   -1    0    0    0    0  0.00000000000E+00  0.00000000000E+00  0.45593999997E+02  0.45594000000E+02  0.51100000000E-03 0. -1.
         11   -1    0    0    0    0 -0.00000000000E+00 -0.00000000000E+00 -0.45593999997E+02  0.45594000000E+02  0.51100000000E-03 0.  1.
    9900012    2    1    2    0    0 -0.89291893327E+00 -0.76375941600E+00 -0.11190567619E+00  0.90007679896E+02  0.89999940471E+02 0.  0.
        -12    1    1    2    0    0  0.89291893327E+00  0.76375941600E+00  0.11190567619E+00  0.11803201037E+01  0.00000000000E+00 0.  1.
         11    1    3    3    0    0  0.72549847278E+01 -0.11646292107E+01  0.50256738781E+01  0.89021661852E+01  0.51100000000E-03 0. -1.
        -11    1    3    3    0    0  0.32805225101E+02 -0.14966027262E+02  0.44335067772E+01  0.36329337299E+02  0.51100000000E-03 0.  1.
         12    1    3    3    0    0 -0.40953128762E+02  0.15366897056E+02 -0.95710863315E+01  0.44776176413E+02  0.00000000000E+00 0. -1.
</event>
<event>
 7    1  0.1994210E-015  0.9000771E+02  0.7816164E-02  0.1186339E+00
        -11   -1    0    0    0    0  0.00000000000E+00  0.00000000000E+00  0.45593999997E+02  0.45594000000E+02  0.51100000000E-03 0. -1.
         11   -1    0    0    0    0 -0.00000000000E+00 -0.00000000000E+00 -0.45593999997E+02  0.45594000000E+02  0.51100000000E-03 0.  1.
    9900012    2    1    2    0    0  0.38637424909E+00 -0.60615960942E+00  0.93614113669E+00  0.90007714119E+02  0.89999975146E+02 0.  0.
        -12    1    1    2    0    0 -0.38637424909E+00  0.60615960942E+00 -0.93614113669E+00  0.11802858807E+01  0.00000000000E+00 0.  1.
         11    1    3    3    0    0 -0.11662759106E+02  0.39991519350E+02  0.37707634597E+01  0.41827744706E+02  0.51100000000E-03 0. -1.
        -11    1    3    3    0    0 -0.21292406202E+01 -0.47157160764E+01 -0.77165747740E+01  0.92907034307E+01  0.51100000000E-03 0.  1.
        -12    1    3    3    0    0  0.14178373976E+02 -0.35881962883E+02  0.48819524511E+01  0.38889265982E+02  0.00000000000E+00 0.  1.
</event>
<event>
 7    1  0.1716782E-015  0.9000765E+02  0.7816164E-02  0.1186339E+00
        -11   -1    0    0    0    0  0.00000000000E+00  0.00000000000E+00  0.45593999997E+02  0.45594000000E+02  0.51100000000E-03 0.  1.
         11   -1    0    0    0    0 -0.00000000000E+00 -0.00000000000E+00 -0.45593999997E+02  0.45594000000E+02  0.51100000000E-03 0. -1.
    9900012    2    1    2    0    0 -0.30408535756E+00  0.11317300923E+01 -0.14119755837E+00  0.90007653586E+02  0.89999913813E+02 0.  0.
        -12    1    1    2    0    0  0.30408535756E+00 -0.11317300923E+01  0.14119755837E+00  0.11803464140E+01  0.00000000000E+00 0.  1.
         11    1    3    3    0    0 -0.63766137911E+01 -0.52368395546E+01 -0.33888640998E+01  0.89202069544E+01  0.51100000000E-03 0. -1.
        -11    1    3    3    0    0 -0.24695049206E+02  0.26040298583E+02 -0.16580469458E+02  0.39532955534E+02  0.51100000000E-03 0.  1.
         12    1    3    3    0    0  0.30767577639E+02 -0.19671728936E+02  0.19828135999E+02  0.41554491097E+02  0.00000000000E+00 0. -1.
</event>
<event>
 7    1  0.1716782E-015  0.9000776E+02  0.7816164E-02  0.1186339E+00
        -11   -1    0    0    0    0  0.00000000000E+00  0.00000000000E+00  0.45593999997E+02  0.45594000000E+02  0.51100000000E-03 0. -1.
         11   -1    0    0    0    0 -0.00000000000E+00 -0.00000000000E+00 -0.45593999997E+02  0.45594000000E+02  0.51100000000E-03 0.  1.
    9900012    2    1    2    0    0  0.57089197707E+00 -0.10297421582E+01 -0.81791595605E-01  0.90007755777E+02  0.90000017353E+02 0.  0.
        -12    1    1    2    0    0 -0.57089197707E+00  0.10297421582E+01  0.81791595605E-01  0.11802442234E+01  0.00000000000E+00 0.  1.
         11    1    3    3    0    0  0.80368060933E+01  0.19183416473E+01  0.62227886106E+01  0.10343760690E+02  0.51100000000E-03 0. -1.
        -11    1    3    3    0    0  0.32086303805E+02 -0.94641780534E+01  0.12075418360E+02  0.35565675685E+02  0.51100000000E-03 0.  1.
         12    1    3    3    0    0 -0.39552217922E+02  0.65160942480E+01 -0.18379998566E+02  0.44098319402E+02  0.00000000000E+00 0. -1.
</event>
<event>
 7    1  0.1716782E-015  0.9000762E+02  0.7816164E-02  0.1186339E+00
        -11   -1    0    0    0    0  0.00000000000E+00  0.00000000000E+00  0.45593999997E+02  0.45594000000E+02  0.51100000000E-03 0.  1.
         11   -1    0    0    0    0 -0.00000000000E+00 -0.00000000000E+00 -0.45593999997E+02  0.45594000000E+02  0.51100000000E-03 0. -1.
    9900012    2    1    2    0    0  0.15628069191E+00  0.66018531611E+00 -0.96593240555E+00  0.90007621367E+02  0.89999881168E+02 0.  0.
        -12    1    1    2    0    0 -0.15628069191E+00 -0.66018531611E+00  0.96593240555E+00  0.11803786335E+01  0.00000000000E+00 0.  1.
         11    1    3    3    0    0 -0.41377098762E+01 -0.90796883866E+01 -0.12949810932E+00  0.99788854206E+01  0.51100000000E-03 0. -1.
        -11    1    3    3    0    0 -0.21639034227E+02  0.36249948305E+02 -0.57962848291E+01  0.42613418925E+02  0.51100000000E-03 0.  1.
         12    1    3    3    0    0  0.25933024795E+02 -0.26510074603E+02  0.49598505329E+01  0.37415317021E+02  0.00000000000E+00 0. -1.
</event>
<event>
 7    1  0.1716782E-015  0.9000768E+02  0.7816164E-02  0.1186339E+00
        -11   -1    0    0    0    0  0.00000000000E+00  0.00000000000E+00  0.45593999997E+02  0.45594000000E+02  0.51100000000E-03 0. -1.
         11   -1    0    0    0    0 -0.00000000000E+00 -0.00000000000E+00 -0.45593999997E+02  0.45594000000E+02  0.51100000000E-03 0.  1.
    9900012    2    1    2    0    0  0.75178839052E+00 -0.45641143007E+00  0.78718544237E+00  0.90007678816E+02  0.89999939376E+02 0.  0.
        -12    1    1    2    0    0 -0.75178839052E+00  0.45641143007E+00 -0.78718544237E+00  0.11803211844E+01  0.00000000000E+00 0.  1.
         11    1    3    3    0    0  0.12326791878E+02  0.82789025998E+01 -0.10251886963E+02  0.18044146220E+02  0.51100000000E-03 0. -1.
        -11    1    3    3    0    0  0.62378009001E+01 -0.30893223043E+02 -0.13615735657E+02  0.34332049863E+02  0.51100000000E-03 0.  1.
         12    1    3    3    0    0 -0.17812804387E+02  0.22157909013E+02  0.24654808063E+02  0.37631482732E+02  0.00000000000E+00 0. -1.
</event>
<event>
 7    1  0.1716782E-015  0.9000766E+02  0.7816164E-02  0.1186339E+00
        -11   -1    0    0    0    0  0.00000000000E+00  0.00000000000E+00  0.45593999997E+02  0.45594000000E+02  0.51100000000E-03 0. -1.
         11   -1    0    0    0    0 -0.00000000000E+00 -0.00000000000E+00 -0.45593999997E+02  0.45594000000E+02  0.51100000000E-03 0.  1.
    9900012    2    1    2    0    0  0.75327058609E-01  0.46082296786E+00  0.10840546261E+01  0.90007658352E+02  0.89999918642E+02 0.  0.
        -12    1    1    2    0    0 -0.75327058609E-01 -0.46082296786E+00 -0.10840546261E+01  0.11803416479E+01  0.00000000000E+00 0.  1.
         11    1    3    3    0    0 -0.36916361695E+02  0.91286776595E+01 -0.57381061449E+01  0.38458762058E+02  0.51100000000E-03 0. -1.
        -11    1    3    3    0    0 -0.22519720163E+01  0.35702204328E+01  0.94576609416E+01  0.10356891553E+02  0.51100000000E-03 0.  1.
        -12    1    3    3    0    0  0.39243660770E+02 -0.12238075124E+02 -0.26355001706E+01  0.41192004741E+02  0.00000000000E+00 0.  1.
</event>
<event>
 7    1  0.1716782E-015  0.9000763E+02  0.7816164E-02  0.1186339E+00
        -11   -1    0    0    0    0  0.00000000000E+00  0.00000000000E+00  0.45593999997E+02  0.45594000000E+02  0.51100000000E-03 0.  1.
         11   -1    0    0    0    0 -0.00000000000E+00 -0.00000000000E+00 -0.45593999997E+02  0.45594000000E+02  0.51100000000E-03 0. -1.
    9900012    2    1    2    0    0  0.45388414105E+00  0.60617867931E+00 -0.90542893113E+00  0.90007633551E+02  0.89999893514E+02 0.  0.
        -12    1    1    2    0    0 -0.45388414105E+00 -0.60617867931E+00  0.90542893113E+00  0.11803664491E+01  0.00000000000E+00 0.  1.
         11    1    3    3    0    0  0.45979202416E+00  0.22518118059E+01 -0.84471917013E+01  0.87542625625E+01  0.51100000000E-03 0. -1.
        -11    1    3    3    0    0 -0.38644509832E+02 -0.11465625294E+02  0.92221596218E+01  0.41351020929E+02  0.51100000000E-03 0.  1.
         12    1    3    3    0    0  0.38638601948E+02  0.98199921675E+01 -0.16803968517E+01  0.39902350060E+02  0.00000000000E+00 0. -1.
</event>
<event>
 7    1  0.1716782E-015  0.9000774E+02  0.7816164E-02  0.1186339E+00
        -11   -1    0    0    0    0  0.00000000000E+00  0.00000000000E+00  0.45593999997E+02  0.45594000000E+02  0.51100000000E-03 0.  1.
         11   -1    0    0    0    0 -0.00000000000E+00 -0.00000000000E+00 -0.45593999997E+02  0.45594000000E+02  0.51100000000E-03 0. -1.
    9900012    2    1    2    0    0 -0.94842278738E+00 -0.59806828365E+00 -0.36852654361E+00  0.90007744405E+02  0.90000005831E+02 0.  0.
        -12    1    1    2    0    0  0.94842278738E+00  0.59806828365E+00  0.36852654361E+00  0.11802555947E+01  0.00000000000E+00 0.  1.
         11    1    3    3    0    0 -0.19869151048E+02 -0.24704348447E+02  0.90639718865E+01  0.32973376870E+02  0.51100000000E-03 0. -1.
        -11    1    3    3    0    0 -0.97623803718E+01  0.60509585031E+01 -0.18656854381E+02  0.21908819799E+02  0.51100000000E-03 0.  1.
        -12    1    3    3    0    0  0.28683108633E+02  0.18055321661E+02  0.92243559508E+01  0.35125547737E+02  0.00000000000E+00 0.  1.
</event>
<event>
 7    1  0.1716782E-015  0.9000775E+02  0.7816164E-02  0.1186339E+00
        -11   -1    0    0    0    0  0.00000000000E+00  0.00000000000E+00  0.45593999997E+02  0.45594000000E+02  0.51100000000E-03 0.  1.
         11   -1    0    0    0    0 -0.00000000000E+00 -0.00000000000E+00 -0.45593999997E+02  0.45594000000E+02  0.51100000000E-03 0. -1.
    9900012    2    1    2    0    0  0.31596268660E+00 -0.47252441938E+00 -0.10343436955E+01  0.90007754845E+02  0.90000016409E+02 0.  0.
        -12    1    1    2    0    0 -0.31596268660E+00  0.47252441938E+00  0.10343436955E+01  0.11802451553E+01  0.00000000000E+00 0.  1.
         11    1    3    3    0    0  0.10077261218E+02 -0.17918407140E+02 -0.49555487235E+01  0.21146582974E+02  0.51100000000E-03 0. -1.
        -11    1    3    3    0    0 -0.12570831784E+01  0.74404560893E+01  0.34640581685E+02  0.35452934218E+02  0.51100000000E-03 0.  1.
         12    1    3    3    0    0 -0.85042153526E+01  0.10005426631E+02 -0.30719376657E+02  0.33408237652E+02  0.00000000000E+00 0. -1.
</event>
<event>
 7    1  0.1716782E-015  0.9000779E+02  0.7816164E-02  0.1186339E+00
        -11   -1    0    0    0    0  0.00000000000E+00  0.00000000000E+00  0.45593999997E+02  0.45594000000E+02  0.51100000000E-03 0.  1.
         11   -1    0    0    0    0 -0.00000000000E+00 -0.00000000000E+00 -0.45593999997E+02  0.45594000000E+02  0.51100000000E-03 0. -1.
    9900012    2    1    2    0    0 -0.10154118394E+01  0.57656093501E+00 -0.17149217214E+00  0.90007791001E+02  0.90000053043E+02 0.  0.
        -12    1    1    2    0    0  0.10154118394E+01 -0.57656093501E+00  0.17149217214E+00  0.11802089986E+01  0.00000000000E+00 0.  1.
         11    1    3    3    0    0  0.73235543430E+01  0.77710120821E+01 -0.42393756289E+01  0.11488924361E+02  0.51100000000E-03 0. -1.
        -11    1    3    3    0    0  0.25441314685E+02  0.21636336868E+02 -0.30691895634E+01  0.33538209416E+02  0.51100000000E-03 0.  1.
         12    1    3    3    0    0 -0.33780280868E+02 -0.28830788015E+02  0.71370730202E+01  0.44980657224E+02  0.00000000000E+00 0. -1.
</event>
<event>
 7    1  0.1716782E-015  0.9000786E+02  0.7816164E-02  0.1186339E+00
        -11   -1    0    0    0    0  0.00000000000E+00  0.00000000000E+00  0.45593999997E+02  0.45594000000E+02  0.51100000000E-03 0.  1.
         11   -1    0    0    0    0 -0.00000000000E+00 -0.00000000000E+00 -0.45593999997E+02  0.45594000000E+02  0.51100000000E-03 0. -1.
    9900012    2    1    2    0    0  0.28153547282E+00  0.35238899097E+00 -0.10905452352E+01  0.90007860545E+02  0.90000123504E+02 0.  0.
        -12    1    1    2    0    0 -0.28153547282E+00 -0.35238899097E+00  0.10905452352E+01  0.11801394551E+01  0.00000000000E+00 0.  1.
         11    1    3    3    0    0  0.26600467478E+02  0.47774799102E+01 -0.50597246811E+01  0.27495635989E+02  0.51100000000E-03 0. -1.
        -11    1    3    3    0    0  0.18857997479E+01 -0.26499633488E+02  0.13701336505E+01  0.26601956359E+02  0.51100000000E-03 0.  1.
        -12    1    3    3    0    0 -0.28204731753E+02  0.22074542568E+02  0.25990457955E+01  0.35910268196E+02  0.00000000000E+00 0.  1.
</event>
<event>
 7    1  0.1716782E-015  0.9000776E+02  0.7816164E-02  0.1186339E+00
        -11   -1    0    0    0    0  0.00000000000E+00  0.00000000000E+00  0.45593999997E+02  0.45594000000E+02  0.51100000000E-03 0.  1.
         11   -1    0    0    0    0 -0.00000000000E+00 -0.00000000000E+00 -0.45593999997E+02  0.45594000000E+02  0.51100000000E-03 0. -1.
    9900012    2    1    2    0    0 -0.82063430837E+00  0.58601306729E+00 -0.61327758216E+00  0.90007762153E+02  0.90000023813E+02 0.  0.
        -12    1    1    2    0    0  0.82063430837E+00 -0.58601306729E+00  0.61327758216E+00  0.11802378472E+01  0.00000000000E+00 0.  1.
         11    1    3    3    0    0  0.17238063065E+01  0.89452987215E+01 -0.38415592735E+01  0.98867312754E+01  0.51100000000E-03 0. -1.
        -11    1    3    3    0    0  0.32996119058E+02 -0.23278414313E+02 -0.50546965086E+01  0.40696171846E+02  0.51100000000E-03 0.  1.
         12    1    3    3    0    0 -0.35540559673E+02  0.14919128659E+02  0.82829782000E+01  0.39424859032E+02  0.00000000000E+00 0. -1.
</event>
<event>
 7    1  0.1716782E-015  0.9000779E+02  0.7816164E-02  0.1186339E+00
        -11   -1    0    0    0    0  0.00000000000E+00  0.00000000000E+00  0.45593999997E+02  0.45594000000E+02  0.51100000000E-03 0.  1.
         11   -1    0    0    0    0 -0.00000000000E+00 -0.00000000000E+00 -0.45593999997E+02  0.45594000000E+02  0.51100000000E-03 0. -1.
    9900012    2    1    2    0    0 -0.10567483360E+01  0.33284103135E+00 -0.40669827439E+00  0.90007786594E+02  0.90000048577E+02 0.  0.
        -12    1    1    2    0    0  0.10567483360E+01 -0.33284103135E+00  0.40669827439E+00  0.11802134062E+01  0.00000000000E+00 0.  1.
         11    1    3    3    0    0  0.20522159739E+02  0.22532331536E+01 -0.35896700114E+02  0.41410254519E+02  0.51100000000E-03 0. -1.
        -11    1    3    3    0    0 -0.20073403161E+01  0.11858887706E+01 -0.38771116314E+01  0.45241288868E+01  0.51100000000E-03 0.  1.
        -12    1    3    3    0    0 -0.19571567759E+02 -0.31062808929E+01  0.39367113471E+02  0.44073403188E+02  0.00000000000E+00 0.  1.
</event>
<event>
 7    1  0.1716782E-015  0.9000773E+02  0.7816164E-02  0.1186339E+00
        -11   -1    0    0    0    0  0.00000000000E+00  0.00000000000E+00  0.45593999997E+02  0.45594000000E+02  0.51100000000E-03 0. -1.
         11   -1    0    0    0    0 -0.00000000000E+00 -0.00000000000E+00 -0.45593999997E+02  0.45594000000E+02  0.51100000000E-03 0.  1.
    9900012    2    1    2    0    0 -0.11476356053E+01  0.18712627703E+00  0.20234068936E+00  0.90007734996E+02  0.89999996298E+02 0.  0.
        -12    1    1    2    0    0  0.11476356053E+01 -0.18712627703E+00 -0.20234068936E+00  0.11802650044E+01  0.00000000000E+00 0.  1.
         11    1    3    3    0    0  0.78694912658E+01 -0.18746925030E+01 -0.31110191872E+01  0.86672836234E+01  0.51100000000E-03 0. -1.
        -11    1    3    3    0    0  0.29638979565E+02  0.68010621129E+01 -0.19577040460E+02  0.36166062392E+02  0.51100000000E-03 0.  1.
         12    1    3    3    0    0 -0.38656106436E+02 -0.47392433328E+01  0.22890400336E+02  0.45174388980E+02  0.00000000000E+00 0. -1.
</event>
<event>
 7    1  0.1716782E-015  0.9000785E+02  0.7816164E-02  0.1186339E+00
        -11   -1    0    0    0    0  0.00000000000E+00  0.00000000000E+00  0.45593999997E+02  0.45594000000E+02  0.51100000000E-03 0. -1.
         11   -1    0    0    0    0 -0.00000000000E+00 -0.00000000000E+00 -0.45593999997E+02  0.45594000000E+02  0.51100000000E-03 0.  1.
    9900012    2    1    2    0    0 -0.60395419046E+00 -0.80623872191E+00  0.61479172201E+00  0.90007851534E+02  0.90000114374E+02 0.  0.
        -12    1    1    2    0    0  0.60395419046E+00  0.80623872191E+00 -0.61479172201E+00  0.11801484662E+01  0.00000000000E+00 0.  1.
         11    1    3    3    0    0 -0.58773627895E+01 -0.78394002394E+01  0.80291080839E+00  0.98307810219E+01  0.51100000000E-03 0. -1.
        -11    1    3    3    0    0  0.22761058658E+02 -0.30871818355E+02 -0.18444303036E+01  0.38399698998E+02  0.51100000000E-03 0.  1.
         12    1    3    3    0    0 -0.17487650059E+02  0.37904979873E+02  0.16563112173E+01  0.41777371513E+02  0.00000000000E+00 0. -1.
</event>
<event>
 7    1  0.1716782E-015  0.9000772E+02  0.7816164E-02  0.1186339E+00
        -11   -1    0    0    0    0  0.00000000000E+00  0.00000000000E+00  0.45593999997E+02  0.45594000000E+02  0.51100000000E-03 0.  1.
         11   -1    0    0    0    0 -0.00000000000E+00 -0.00000000000E+00 -0.45593999997E+02  0.45594000000E+02  0.51100000000E-03 0. -1.
    9900012    2    1    2    0    0 -0.10564013029E+01 -0.36921829607E+00  0.37515945049E+00  0.90007724407E+02  0.89999985569E+02 0.  0.
        -12    1    1    2    0    0  0.10564013029E+01  0.36921829607E+00 -0.37515945049E+00  0.11802755933E+01  0.00000000000E+00 0.  1.
         11    1    3    3    0    0 -0.71688156736E+01  0.49430604863E+01 -0.23255935310E+01  0.90129989829E+01  0.51100000000E-03 0. -1.
        -11    1    3    3    0    0 -0.18510353910E+02  0.22594911337E+02 -0.21791173532E+02  0.36441987657E+02  0.51100000000E-03 0.  1.
         12    1    3    3    0    0  0.24622768281E+02 -0.27907190119E+02  0.24491926514E+02  0.44552737767E+02  0.00000000000E+00 0. -1.
</event>
<event>
 7    1  0.1716782E-015  0.9000769E+02  0.7816164E-02  0.1186339E+00
        -11   -1    0    0    0    0  0.00000000000E+00  0.00000000000E+00  0.45593999997E+02  0.45594000000E+02  0.51100000000E-03 0.  1.
         11   -1    0    0    0    0 -0.00000000000E+00 -0.00000000000E+00 -0.45593999997E+02  0.45594000000E+02  0.51100000000E-03 0. -1.
    9900012    2    1    2    0    0 -0.11210554583E+00 -0.68515287033E+00 -0.95452839039E+00  0.90007692177E+02  0.89999952914E+02 0.  0.
        -12    1    1    2    0    0  0.11210554583E+00  0.68515287033E+00  0.95452839039E+00  0.11803078231E+01  0.00000000000E+00 0.  1.
         11    1    3    3    0    0  0.80928623852E+01 -0.22859952397E+01  0.60271817342E+00  0.84311010716E+01  0.51100000000E-03 0. -1.
        -11    1    3    3    0    0 -0.10187346584E+01 -0.37576295577E+02  0.12068088880E+02  0.39479799633E+02  0.51100000000E-03 0.  1.
         12    1    3    3    0    0 -0.71862332727E+01  0.39177137946E+02 -0.13625335444E+02  0.42096791472E+02  0.00000000000E+00 0. -1.
</event>
<event>
 7    1  0.1716782E-015  0.9000766E+02  0.7816164E-02  0.1186339E+00
        -11   -1    0    0    0    0  0.00000000000E+00  0.00000000000E+00  0.45593999997E+02  0.45594000000E+02  0.51100000000E-03 0.  1.
         11   -1    0    0    0    0 -0.00000000000E+00 -0.00000000000E+00 -0.45593999997E+02  0.45594000000E+02  0.51100000000E-03 0. -1.
    9900012    2    1    2    0    0  0.10793783229E+01 -0.29987279004E+00 -0.37177062543E+00  0.90007663331E+02  0.89999923687E+02 0.  0.
        -12    1    1    2    0    0 -0.10793783229E+01  0.29987279004E+00  0.37177062543E+00  0.11803366689E+01  0.00000000000E+00 0.  1.
         11    1    3    3    0    0  0.31176017792E+01  0.92895664010E+01  0.22487964876E+01  0.10053485499E+02  0.51100000000E-03 0. -1.
        -11    1    3    3    0    0  0.63113700182E+01  0.30883404837E+02  0.15146081923E+02  0.34971729779E+02  0.51100000000E-03 0.  1.
         12    1    3    3    0    0 -0.83495934746E+01 -0.40472844028E+02 -0.17766649036E+02  0.44982448053E+02  0.00000000000E+00 0. -1.
</event>
<event>
 7    1  0.1716782E-015  0.9000780E+02  0.7816164E-02  0.1186339E+00
        -11   -1    0    0    0    0  0.00000000000E+00  0.00000000000E+00  0.45593999997E+02  0.45594000000E+02  0.51100000000E-03 0. -1.
         11   -1    0    0    0    0 -0.00000000000E+00 -0.00000000000E+00 -0.45593999997E+02  0.45594000000E+02  0.51100000000E-03 0.  1.
    9900012    2    1    2    0    0  0.91817937072E+00  0.22962128710E+00  0.70504992680E+00  0.90007798877E+02  0.90000061022E+02 0.  0.
        -12    1    1    2    0    0 -0.91817937072E+00 -0.22962128710E+00 -0.70504992680E+00  0.11802011234E+01  0.00000000000E+00 0.  1.
         11    1    3    3    0    0 -0.80148205333E-01 -0.73616377223E+01  0.13129365667E+01  0.74782308322E+01  0.51100000000E-03 0. -1.
        -11    1    3    3    0    0  0.22162198521E+02 -0.23469599041E+02 -0.22205989334E+02  0.39180238451E+02  0.51100000000E-03 0.  1.
         12    1    3    3    0    0 -0.21163870945E+02  0.31060858051E+02  0.21598102694E+02  0.43349329594E+02  0.00000000000E+00 0. -1.
</event>
<event>
 7    1  0.1716782E-015  0.9000890E+02  0.7816164E-02  0.1186337E+00
        -11   -1    0    0    0    0  0.00000000000E+00  0.00000000000E+00  0.45593999997E+02  0.45594000000E+02  0.51100000000E-03 0.  1.
         11   -1    0    0    0    0 -0.00000000000E+00 -0.00000000000E+00 -0.45593999997E+02  0.45594000000E+02  0.51100000000E-03 0. -1.
    9900012    2    1    2    0    0  0.82992526140E+00  0.80840968949E+00 -0.21903950458E+00  0.90008898448E+02  0.90001175100E+02 0.  0.
        -12    1    1    2    0    0 -0.82992526140E+00 -0.80840968949E+00  0.21903950458E+00  0.11791015521E+01  0.00000000000E+00 0.  1.
         11    1    3    3    0    0  0.27530167591E+01 -0.65257606410E+01  0.66593221845E+01  0.97216884047E+01  0.51100000000E-03 0. -1.
        -11    1    3    3    0    0 -0.52281586597E+01 -0.35714166876E+02  0.22234489100E+01  0.36163228340E+02  0.51100000000E-03 0.  1.
         12    1    3    3    0    0  0.33050671620E+01  0.43048337207E+02 -0.91018105991E+01  0.44123981704E+02  0.00000000000E+00 0. -1.
</event>
<event>
 7    1  0.1716782E-015  0.9000775E+02  0.7816164E-02  0.1186339E+00
        -11   -1    0    0    0    0  0.00000000000E+00  0.00000000000E+00  0.45593999997E+02  0.45594000000E+02  0.51100000000E-03 0.  1.
         11   -1    0    0    0    0 -0.00000000000E+00 -0.00000000000E+00 -0.45593999997E+02  0.45594000000E+02  0.51100000000E-03 0. -1.
    9900012    2    1    2    0    0 -0.99902947425E+00  0.58985887341E+00  0.21680604788E+00  0.90007746534E+02  0.90000007989E+02 0.  0.
        -12    1    1    2    0    0  0.99902947425E+00 -0.58985887341E+00 -0.21680604788E+00  0.11802534657E+01  0.00000000000E+00 0.  1.
         11    1    3    3    0    0  0.12856212331E+02  0.14303282353E+01 -0.57906597606E+01  0.14172500664E+02  0.51100000000E-03 0. -1.
        -11    1    3    3    0    0 -0.68202700741E+01 -0.23911302209E+02  0.31902075940E+02  0.40447606935E+02  0.51100000000E-03 0.  1.
         12    1    3    3    0    0 -0.70349717310E+01  0.23070832847E+02 -0.25894610132E+02  0.35387638935E+02  0.00000000000E+00 0. -1.
</event>
<event>
 7    1  0.1716782E-015  0.9000769E+02  0.7816164E-02  0.1186339E+00
        -11   -1    0    0    0    0  0.00000000000E+00  0.00000000000E+00  0.45593999997E+02  0.45594000000E+02  0.51100000000E-03 0.  1.
         11   -1    0    0    0    0 -0.00000000000E+00 -0.00000000000E+00 -0.45593999997E+02  0.45594000000E+02  0.51100000000E-03 0. -1.
    9900012    2    1    2    0    0  0.10312985941E+01 -0.57034125905E+00 -0.65249879392E-01  0.90007693477E+02  0.89999954231E+02 0.  0.
        -12    1    1    2    0    0 -0.10312985941E+01  0.57034125905E+00  0.65249879392E-01  0.11803065232E+01  0.00000000000E+00 0.  1.
         11    1    3    3    0    0 -0.29784449606E+02 -0.17462353579E+02 -0.14490435077E+02  0.37443556720E+02  0.51100000000E-03 0. -1.
        -11    1    3    3    0    0 -0.30052072757E+01  0.32859310444E+01 -0.84321930957E+01  0.95357482278E+01  0.51100000000E-03 0.  1.
        -12    1    3    3    0    0  0.33820955476E+02  0.13606081275E+02  0.22857378294E+02  0.43028388529E+02  0.00000000000E+00 0.  1.
</event>
<event>
 7    1  0.1716782E-015  0.9000802E+02  0.7816164E-02  0.1186338E+00
        -11   -1    0    0    0    0  0.00000000000E+00  0.00000000000E+00  0.45593999997E+02  0.45594000000E+02  0.51100000000E-03 0. -1.
         11   -1    0    0    0    0 -0.00000000000E+00 -0.00000000000E+00 -0.45593999997E+02  0.45594000000E+02  0.51100000000E-03 0.  1.
    9900012    2    1    2    0    0 -0.65858448779E+00 -0.66198248178E+00  0.72139083162E+00  0.90008017345E+02  0.90000282374E+02 0.  0.
        -12    1    1    2    0    0  0.65858448779E+00  0.66198248178E+00 -0.72139083162E+00  0.11799826548E+01  0.00000000000E+00 0.  1.
         11    1    3    3    0    0 -0.38141986131E+01 -0.69336795134E+01  0.53270941664E+01  0.95394944925E+01  0.51100000000E-03 0. -1.
        -11    1    3    3    0    0 -0.31072299955E+02 -0.85517495581E+01 -0.22293766188E+02  0.39187144016E+02  0.51100000000E-03 0.  1.
         12    1    3    3    0    0  0.34227914081E+02  0.14823446590E+02  0.17688062854E+02  0.41281378836E+02  0.00000000000E+00 0. -1.
</event>
<event>
 7    1  0.1716782E-015  0.9000748E+02  0.7816164E-02  0.1186340E+00
        -11   -1    0    0    0    0  0.00000000000E+00  0.00000000000E+00  0.45593999997E+02  0.45594000000E+02  0.51100000000E-03 0.  1.
         11   -1    0    0    0    0 -0.00000000000E+00 -0.00000000000E+00 -0.45593999997E+02  0.45594000000E+02  0.51100000000E-03 0. -1.
    9900012    2    1    2    0    0 -0.30446695118E+00  0.90389025531E+00 -0.69563576200E+00  0.90007480271E+02  0.89999738210E+02 0.  0.
        -12    1    1    2    0    0  0.30446695118E+00 -0.90389025531E+00  0.69563576200E+00  0.11805197293E+01  0.00000000000E+00 0.  1.
         11    1    3    3    0    0 -0.39972355698E+00 -0.38963190734E+02 -0.12348360166E+02  0.40875078105E+02  0.51100000000E-03 0. -1.
        -11    1    3    3    0    0 -0.88920937729E+01  0.69177310705E+01 -0.34594460740E+01  0.11785249350E+02  0.51100000000E-03 0.  1.
        -12    1    3    3    0    0  0.89873503787E+01  0.32949349919E+02  0.15112170478E+02  0.37347152816E+02  0.00000000000E+00 0.  1.
</event>
<event>
 7    1  0.1716782E-015  0.9000779E+02  0.7816164E-02  0.1186339E+00
        -11   -1    0    0    0    0  0.00000000000E+00  0.00000000000E+00  0.45593999997E+02  0.45594000000E+02  0.51100000000E-03 0.  1.
         11   -1    0    0    0    0 -0.00000000000E+00 -0.00000000000E+00 -0.45593999997E+02  0.45594000000E+02  0.51100000000E-03 0. -1.
    9900012    2    1    2    0    0  0.57233656079E+00  0.10191061627E+01 -0.16352475545E+00  0.90007793723E+02  0.90000055801E+02 0.  0.
        -12    1    1    2    0    0 -0.57233656079E+00 -0.10191061627E+01  0.16352475545E+00  0.11802062766E+01  0.00000000000E+00 0.  1.
         11    1    3    3    0    0  0.16022399696E+02 -0.28835584200E+02 -0.25741745465E+02  0.41843107772E+02  0.51100000000E-03 0. -1.
        -11    1    3    3    0    0 -0.91552757315E+01  0.12644056870E+01 -0.71566342671E-01  0.92424519183E+01  0.51100000000E-03 0.  1.
        -12    1    3    3    0    0 -0.62947874033E+01  0.28590284676E+02  0.25649787052E+02  0.38922234033E+02  0.00000000000E+00 0.  1.
</event>
<event>
 7    1  0.1716782E-015  0.9000773E+02  0.7816164E-02  0.1186339E+00
        -11   -1    0    0    0    0  0.00000000000E+00  0.00000000000E+00  0.45593999997E+02  0.45594000000E+02  0.51100000000E-03 0.  1.
         11   -1    0    0    0    0 -0.00000000000E+00 -0.00000000000E+00 -0.45593999997E+02  0.45594000000E+02  0.51100000000E-03 0. -1.
    9900012    2    1    2    0    0 -0.39062558851E+00 -0.61779870583E-01 -0.11120359517E+01  0.90007733479E+02  0.89999994761E+02 0.  0.
        -12    1    1    2    0    0  0.39062558851E+00  0.61779870583E-01  0.11120359517E+01  0.11802665210E+01  0.00000000000E+00 0.  1.
         11    1    3    3    0    0 -0.82233815014E+00 -0.21642161337E+02 -0.10452216679E+02  0.24048039861E+02  0.51100000000E-03 0. -1.
        -11    1    3    3    0    0  0.37505905309E+01 -0.15548793110E+02 -0.14600695982E+02  0.21656689958E+02  0.51100000000E-03 0.  1.
         12    1    3    3    0    0 -0.33188779693E+01  0.37129174576E+02  0.23940876710E+02  0.44303003660E+02  0.00000000000E+00 0. -1.
</event>
<event>
 7    1  0.1716782E-015  0.9000851E+02  0.7816164E-02  0.1186337E+00
        -11   -1    0    0    0    0  0.00000000000E+00  0.00000000000E+00  0.45593999997E+02  0.45594000000E+02  0.51100000000E-03 0.  1.
         11   -1    0    0    0    0 -0.00000000000E+00 -0.00000000000E+00 -0.45593999997E+02  0.45594000000E+02  0.51100000000E-03 0. -1.
    9900012    2    1    2    0    0  0.78813290610E+00  0.23234632265E+00 -0.84619570516E+00  0.90008514747E+02  0.90000786338E+02 0.  0.
        -12    1    1    2    0    0 -0.78813290610E+00 -0.23234632265E+00  0.84619570516E+00  0.11794852533E+01  0.00000000000E+00 0.  1.
         11    1    3    3    0    0  0.16968305824E+02  0.98002444563E+01 -0.35712099043E+02  0.40734778903E+02  0.51100000000E-03 0. -1.
        -11    1    3    3    0    0  0.69462339654E+01  0.35120806334E+01  0.47741882160E+01  0.91311417720E+01  0.51100000000E-03 0.  1.
        -12    1    3    3    0    0 -0.23126406883E+02 -0.13079978767E+02  0.30091715122E+02  0.40142594072E+02  0.00000000000E+00 0.  1.
</event>
<event>
 7    1  0.1716782E-015  0.9000818E+02  0.7816164E-02  0.1186338E+00
        -11   -1    0    0    0    0  0.00000000000E+00  0.00000000000E+00  0.45593999997E+02  0.45594000000E+02  0.51100000000E-03 0.  1.
         11   -1    0    0    0    0 -0.00000000000E+00 -0.00000000000E+00 -0.45593999997E+02  0.45594000000E+02  0.51100000000E-03 0. -1.
    9900012    2    1    2    0    0 -0.96404662084E+00 -0.25017102175E+00 -0.63246055450E+00  0.90008178920E+02  0.90000446081E+02 0.  0.
        -12    1    1    2    0    0  0.96404662084E+00  0.25017102175E+00  0.63246055450E+00  0.11798210798E+01  0.00000000000E+00 0.  1.
         11    1    3    3    0    0 -0.77753592260E+01 -0.47557238180E+01  0.20106906678E+00  0.91166632688E+01  0.51100000000E-03 0. -1.
        -11    1    3    3    0    0 -0.25998550944E+02 -0.25205662698E+02 -0.44356517275E+01  0.36481846030E+02  0.51100000000E-03 0.  1.
         12    1    3    3    0    0  0.32809863549E+02  0.29711215494E+02  0.36021221063E+01  0.44409669622E+02  0.00000000000E+00 0. -1.
</event>
<event>
 7    1  0.1716782E-015  0.9000736E+02  0.7816164E-02  0.1186340E+00
        -11   -1    0    0    0    0  0.00000000000E+00  0.00000000000E+00  0.45593999997E+02  0.45594000000E+02  0.51100000000E-03 0.  1.
         11   -1    0    0    0    0 -0.00000000000E+00 -0.00000000000E+00 -0.45593999997E+02  0.45594000000E+02  0.51100000000E-03 0. -1.
    9900012    2    1    2    0    0  0.49794748794E+00 -0.48227650018E+00 -0.95570002929E+00  0.90007362516E+02  0.89999618900E+02 0.  0.
        -12    1    1    2    0    0 -0.49794748794E+00  0.48227650018E+00  0.95570002929E+00  0.11806374843E+01  0.00000000000E+00 0.  1.
         11    1    3    3    0    0 -0.64621097285E+01 -0.15754483171E+01  0.73430545682E+01  0.99076410005E+01  0.51100000000E-03 0. -1.
        -11    1    3    3    0    0  0.21302240058E+02  0.33998860864E+02 -0.16329381338E+02  0.43316932794E+02  0.51100000000E-03 0.  1.
         12    1    3    3    0    0 -0.14342182841E+02 -0.32905689047E+02  0.80306267409E+01  0.36782788722E+02  0.00000000000E+00 0. -1.
</event>
<event>
 7    1  0.1716782E-015  0.9000778E+02  0.7816164E-02  0.1186339E+00
        -11   -1    0    0    0    0  0.00000000000E+00  0.00000000000E+00  0.45593999997E+02  0.45594000000E+02  0.51100000000E-03 0.  1.
         11   -1    0    0    0    0 -0.00000000000E+00 -0.00000000000E+00 -0.45593999997E+02  0.45594000000E+02  0.51100000000E-03 0. -1.
    9900012    2    1    2    0    0 -0.25579056521E+00  0.11405446487E+01  0.16326742715E+00  0.90007776648E+02  0.90000038499E+02 0.  0.
        -12    1    1    2    0    0  0.25579056521E+00 -0.11405446487E+01 -0.16326742715E+00  0.11802233524E+01  0.00000000000E+00 0.  1.
         11    1    3    3    0    0 -0.10475329232E+02 -0.37554185868E+02  0.59463744138E+01  0.39438670967E+02  0.51100000000E-03 0. -1.
        -11    1    3    3    0    0 -0.54307934125E+01  0.75925464823E+00 -0.77398245612E+01  0.94855083791E+01  0.51100000000E-03 0.  1.
        -12    1    3    3    0    0  0.15650332079E+02  0.37935475868E+02  0.19567175745E+01  0.41083597301E+02  0.00000000000E+00 0.  1.
</event>
<event>
 7    1  0.1716782E-015  0.9000770E+02  0.7816164E-02  0.1186339E+00
        -11   -1    0    0    0    0  0.00000000000E+00  0.00000000000E+00  0.45593999997E+02  0.45594000000E+02  0.51100000000E-03 0.  1.
         11   -1    0    0    0    0 -0.00000000000E+00 -0.00000000000E+00 -0.45593999997E+02  0.45594000000E+02  0.51100000000E-03 0. -1.
    9900012    2    1    2    0    0 -0.11406941588E+00  0.22728582987E+00 -0.11525836281E+01  0.90007695082E+02  0.89999955857E+02 0.  0.
        -12    1    1    2    0    0  0.11406941588E+00 -0.22728582987E+00  0.11525836281E+01  0.11803049182E+01  0.00000000000E+00 0.  1.
         11    1    3    3    0    0  0.26461665753E+02 -0.88600336161E+01 -0.25300475044E+02  0.37667412810E+02  0.51100000000E-03 0. -1.
        -11    1    3    3    0    0  0.93448353934E+01 -0.12280477189E+00  0.44568039440E+01  0.10353942785E+02  0.51100000000E-03 0.  1.
        -12    1    3    3    0    0 -0.35920570562E+02  0.92101242179E+01  0.19691087472E+02  0.41986339486E+02  0.00000000000E+00 0.  1.
</event>
<event>
 7    1  0.1716782E-015  0.9000777E+02  0.7816164E-02  0.1186339E+00
        -11   -1    0    0    0    0  0.00000000000E+00  0.00000000000E+00  0.45593999997E+02  0.45594000000E+02  0.51100000000E-03 0.  1.
         11   -1    0    0    0    0 -0.00000000000E+00 -0.00000000000E+00 -0.45593999997E+02  0.45594000000E+02  0.51100000000E-03 0. -1.
    9900012    2    1    2    0    0 -0.10755152983E+01  0.39480189776E+00  0.28346279526E+00  0.90007765764E+02  0.90000027472E+02 0.  0.
        -12    1    1    2    0    0  0.10755152983E+01 -0.39480189776E+00 -0.28346279526E+00  0.11802342359E+01  0.00000000000E+00 0.  1.
         11    1    3    3    0    0 -0.43799595851E+01  0.85420448115E+00  0.10408837854E+02  0.11325087946E+02  0.51100000000E-03 0. -1.
        -11    1    3    3    0    0  0.21743090225E+02  0.17141447347E+02  0.23618696500E+02  0.36392774205E+02  0.51100000000E-03 0.  1.
         12    1    3    3    0    0 -0.18438645938E+02 -0.17600849931E+02 -0.33744071558E+02  0.42289903613E+02  0.00000000000E+00 0. -1.
</event>
<event>
 7    1  0.1716782E-015  0.9000784E+02  0.7816164E-02  0.1186339E+00
        -11   -1    0    0    0    0  0.00000000000E+00  0.00000000000E+00  0.45593999997E+02  0.45594000000E+02  0.51100000000E-03 0.  1.
         11   -1    0    0    0    0 -0.00000000000E+00 -0.00000000000E+00 -0.45593999997E+02  0.45594000000E+02  0.51100000000E-03 0. -1.
    9900012    2    1    2    0    0  0.76508433729E+00  0.38732767855E+00 -0.81080672854E+00  0.90007837162E+02  0.90000099812E+02 0.  0.
        -12    1    1    2    0    0 -0.76508433729E+00 -0.38732767855E+00  0.81080672854E+00  0.11801628383E+01  0.00000000000E+00 0.  1.
         11    1    3    3    0    0 -0.19774633112E+01  0.50922754369E+01 -0.61196014986E+01  0.82031184946E+01  0.51100000000E-03 0. -1.
        -11    1    3    3    0    0  0.33693950851E+01  0.22870702358E+02  0.34573270627E+02  0.41590057606E+02  0.51100000000E-03 0.  1.
         12    1    3    3    0    0 -0.62684743668E+00 -0.27575650117E+02 -0.29264475857E+02  0.40214661061E+02  0.00000000000E+00 0. -1.
</event>
<event>
 7    1  0.1716782E-015  0.9000773E+02  0.7816164E-02  0.1186339E+00
        -11   -1    0    0    0    0  0.00000000000E+00  0.00000000000E+00  0.45593999997E+02  0.45594000000E+02  0.51100000000E-03 0. -1.
         11   -1    0    0    0    0 -0.00000000000E+00 -0.00000000000E+00 -0.45593999997E+02  0.45594000000E+02  0.51100000000E-03 0.  1.
    9900012    2    1    2    0    0 -0.40657005290E+00 -0.77837404864E+00 -0.78858222058E+00  0.90007734231E+02  0.89999995523E+02 0.  0.
        -12    1    1    2    0    0  0.40657005290E+00  0.77837404864E+00  0.78858222058E+00  0.11802657693E+01  0.00000000000E+00 0.  1.
         11    1    3    3    0    0  0.10090932538E+02 -0.26911612444E+02  0.18618816793E+02  0.34245030922E+02  0.51100000000E-03 0. -1.
        -11    1    3    3    0    0  0.27554870915E+01 -0.10922048369E+02  0.12205190885E+01  0.11330203740E+02  0.51100000000E-03 0.  1.
        -12    1    3    3    0    0 -0.13252989683E+02  0.37055286764E+02 -0.20627918102E+02  0.44432499569E+02  0.00000000000E+00 0.  1.
</event>
<event>
 7    1  0.1716782E-015  0.9000776E+02  0.7816164E-02  0.1186339E+00
        -11   -1    0    0    0    0  0.00000000000E+00  0.00000000000E+00  0.45593999997E+02  0.45594000000E+02  0.51100000000E-03 0.  1.
         11   -1    0    0    0    0 -0.00000000000E+00 -0.00000000000E+00 -0.45593999997E+02  0.45594000000E+02  0.51100000000E-03 0. -1.
    9900012    2    1    2    0    0 -0.35076875423E-01  0.11486382865E+01 -0.26901254671E+00  0.90007759325E+02  0.90000020948E+02 0.  0.
        -12    1    1    2    0    0  0.35076875423E-01 -0.11486382865E+01  0.26901254671E+00  0.11802406749E+01  0.00000000000E+00 0.  1.
         11    1    3    3    0    0 -0.10427138335E+02 -0.15447588706E+02 -0.32454626925E+02  0.37425339274E+02  0.51100000000E-03 0. -1.
        -11    1    3    3    0    0  0.64575121901E+01  0.64360301408E+01 -0.72632351904E+01  0.11656608999E+02  0.51100000000E-03 0.  1.
        -12    1    3    3    0    0  0.39345492693E+01  0.10160196852E+02  0.39448849568E+02  0.40925811052E+02  0.00000000000E+00 0.  1.
</event>
<event>
 7    1  0.1716782E-015  0.9000774E+02  0.7816164E-02  0.1186339E+00
        -11   -1    0    0    0    0  0.00000000000E+00  0.00000000000E+00  0.45593999997E+02  0.45594000000E+02  0.51100000000E-03 0.  1.
         11   -1    0    0    0    0 -0.00000000000E+00 -0.00000000000E+00 -0.45593999997E+02  0.45594000000E+02  0.51100000000E-03 0. -1.
    9900012    2    1    2    0    0 -0.34119713144E+00  0.24454335352E+00 -0.11030861712E+01  0.90007738997E+02  0.90000000352E+02 0.  0.
        -12    1    1    2    0    0  0.34119713144E+00 -0.24454335352E+00  0.11030861712E+01  0.11802610031E+01  0.00000000000E+00 0.  1.
         11    1    3    3    0    0  0.21229999575E+02  0.76579345250E+01 -0.32037524940E+02  0.39188771959E+02  0.51100000000E-03 0. -1.
        -11    1    3    3    0    0  0.85881616922E+01 -0.34172466027E+01  0.35980543769E+01  0.99186738607E+01  0.51100000000E-03 0.  1.
        -12    1    3    3    0    0 -0.30159358398E+02 -0.39961445688E+01  0.27336384391E+02  0.40900293177E+02  0.00000000000E+00 0.  1.
</event>
<event>
 7    1  0.1716782E-015  0.9000771E+02  0.7816164E-02  0.1186339E+00
        -11   -1    0    0    0    0  0.00000000000E+00  0.00000000000E+00  0.45593999997E+02  0.45594000000E+02  0.51100000000E-03 0.  1.
         11   -1    0    0    0    0 -0.00000000000E+00 -0.00000000000E+00 -0.45593999997E+02  0.45594000000E+02  0.51100000000E-03 0. -1.
    9900012    2    1    2    0    0 -0.11277592600E+01 -0.34818761554E+00  0.39704253751E-02  0.90007707101E+02  0.89999968034E+02 0.  0.
        -12    1    1    2    0    0  0.11277592600E+01  0.34818761554E+00 -0.39704253751E-02  0.11802928994E+01  0.00000000000E+00 0.  1.
         11    1    3    3    0    0  0.52248764029E+01  0.78314002051E+01  0.43657571995E+00  0.94244767079E+01  0.51100000000E-03 0. -1.
        -11    1    3    3    0    0  0.14971976662E+02  0.27183183434E+02  0.17426829889E+02  0.35591852256E+02  0.51100000000E-03 0.  1.
         12    1    3    3    0    0 -0.21324612325E+02 -0.35362771254E+02 -0.17859435184E+02  0.44991378137E+02  0.00000000000E+00 0. -1.
</event>
<event>
 7    1  0.1716782E-015  0.9000768E+02  0.7816164E-02  0.1186339E+00
        -11   -1    0    0    0    0  0.00000000000E+00  0.00000000000E+00  0.45593999997E+02  0.45594000000E+02  0.51100000000E-03 0. -1.
         11   -1    0    0    0    0 -0.00000000000E+00 -0.00000000000E+00 -0.45593999997E+02  0.45594000000E+02  0.51100000000E-03 0.  1.
    9900012    2    1    2    0    0 -0.11039013278E+01  0.28503127012E-01  0.41683707628E+00  0.90007676435E+02  0.89999936964E+02 0.  0.
        -12    1    1    2    0    0  0.11039013278E+01 -0.28503127012E-01 -0.41683707628E+00  0.11803235649E+01  0.00000000000E+00 0.  1.
         11    1    3    3    0    0 -0.21672460183E+02 -0.33996245439E+02 -0.98131845555E+01  0.41493840816E+02  0.51100000000E-03 0. -1.
        -11    1    3    3    0    0 -0.13979574966E+01 -0.25201165334E+01  0.47067334925E+01  0.55189322278E+01  0.51100000000E-03 0.  1.
        -12    1    3    3    0    0  0.21966516352E+02  0.36544865099E+02  0.55232881393E+01  0.42994903391E+02  0.00000000000E+00 0.  1.
</event>
<event>
 7    1  0.1716782E-015  0.9000771E+02  0.7816164E-02  0.1186339E+00
        -11   -1    0    0    0    0  0.00000000000E+00  0.00000000000E+00  0.45593999997E+02  0.45594000000E+02  0.51100000000E-03 0. -1.
         11   -1    0    0    0    0 -0.00000000000E+00 -0.00000000000E+00 -0.45593999997E+02  0.45594000000E+02  0.51100000000E-03 0.  1.
    9900012    2    1    2    0    0 -0.10272375824E+00  0.28924271561E+00  0.11396790662E+01  0.90007711098E+02  0.89999972084E+02 0.  0.
        -12    1    1    2    0    0  0.10272375824E+00 -0.28924271561E+00 -0.11396790662E+01  0.11802889023E+01  0.00000000000E+00 0.  1.
         11    1    3    3    0    0 -0.51121342800E+01  0.43150298091E+02  0.14162665921E+01  0.43475141789E+02  0.51100000000E-03 0. -1.
        -11    1    3    3    0    0 -0.25278242678E+01 -0.93311351644E+01  0.63044477278E+01  0.11541492122E+02  0.51100000000E-03 0.  1.
        -12    1    3    3    0    0  0.75372347895E+01 -0.33529920212E+02 -0.65810352536E+01  0.34991077187E+02  0.00000000000E+00 0.  1.
</event>
<event>
 7    1  0.1716782E-015  0.9000776E+02  0.7816164E-02  0.1186339E+00
        -11   -1    0    0    0    0  0.00000000000E+00  0.00000000000E+00  0.45593999997E+02  0.45594000000E+02  0.51100000000E-03 0.  1.
         11   -1    0    0    0    0 -0.00000000000E+00 -0.00000000000E+00 -0.45593999997E+02  0.45594000000E+02  0.51100000000E-03 0. -1.
    9900012    2    1    2    0    0  0.96458069121E+00 -0.37270764555E+00  0.56889907909E+00  0.90007757202E+02  0.90000018798E+02 0.  0.
        -12    1    1    2    0    0 -0.96458069121E+00  0.37270764555E+00 -0.56889907909E+00  0.11802427975E+01  0.00000000000E+00 0.  1.
         11    1    3    3    0    0 -0.61022439564E+01  0.40617386903E+01 -0.38144066736E+01  0.82634618063E+01  0.51100000000E-03 0. -1.
        -11    1    3    3    0    0 -0.16043358422E+02  0.19907201093E+02 -0.26003874658E+02  0.36467622657E+02  0.51100000000E-03 0.  1.
         12    1    3    3    0    0  0.23110183069E+02 -0.24341647428E+02  0.30387180410E+02  0.45276672739E+02  0.00000000000E+00 0. -1.
</event>
<event>
 7    1  0.1716782E-015  0.9000767E+02  0.7816164E-02  0.1186339E+00
        -11   -1    0    0    0    0  0.00000000000E+00  0.00000000000E+00  0.45593999997E+02  0.45594000000E+02  0.51100000000E-03 0.  1.
         11   -1    0    0    0    0 -0.00000000000E+00 -0.00000000000E+00 -0.45593999997E+02  0.45594000000E+02  0.51100000000E-03 0. -1.
    9900012    2    1    2    0    0 -0.78909359134E+00 -0.44614160760E-02 -0.87778072074E+00  0.90007666321E+02  0.89999926716E+02 0.  0.
        -12    1    1    2    0    0  0.78909359134E+00  0.44614160760E-02  0.87778072074E+00  0.11803336790E+01  0.00000000000E+00 0.  1.
         11    1    3    3    0    0  0.22299712242E+02 -0.38002836246E+00 -0.27731798551E+02  0.35587557359E+02  0.51100000000E-03 0. -1.
        -11    1    3    3    0    0  0.39386360590E+01  0.25814171462E+01 -0.85877900894E+01  0.97942180581E+01  0.51100000000E-03 0.  1.
        -12    1    3    3    0    0 -0.27027441892E+02 -0.22058501998E+01  0.35441807920E+02  0.44625890904E+02  0.00000000000E+00 0.  1.
</event>
<event>
 7    1  0.1716782E-015  0.9000795E+02  0.7816164E-02  0.1186339E+00
        -11   -1    0    0    0    0  0.00000000000E+00  0.00000000000E+00  0.45593999997E+02  0.45594000000E+02  0.51100000000E-03 0. -1.
         11   -1    0    0    0    0 -0.00000000000E+00 -0.00000000000E+00 -0.45593999997E+02  0.45594000000E+02  0.51100000000E-03 0.  1.
    9900012    2    1    2    0    0  0.73120222291E+00 -0.90482660403E+00 -0.19784762528E+00  0.90007952731E+02  0.90000216907E+02 0.  0.
        -12    1    1    2    0    0 -0.73120222291E+00  0.90482660403E+00  0.19784762528E+00  0.11800472690E+01  0.00000000000E+00 0.  1.
         11    1    3    3    0    0  0.44380926992E+01 -0.18561960751E+02  0.37282149703E+02  0.41883191623E+02  0.51100000000E-03 0. -1.
        -11    1    3    3    0    0  0.20819106595E+01  0.71077116027E+01  0.13010141969E+01  0.75197443057E+01  0.51100000000E-03 0.  1.
        -12    1    3    3    0    0 -0.57888011358E+01  0.10549422544E+02 -0.38781011526E+02  0.40605016803E+02  0.00000000000E+00 0.  1.
</event>
<event>
 7    1  0.1716782E-015  0.9000776E+02  0.7816164E-02  0.1186339E+00
        -11   -1    0    0    0    0  0.00000000000E+00  0.00000000000E+00  0.45593999997E+02  0.45594000000E+02  0.51100000000E-03 0.  1.
         11   -1    0    0    0    0 -0.00000000000E+00 -0.00000000000E+00 -0.45593999997E+02  0.45594000000E+02  0.51100000000E-03 0. -1.
    9900012    2    1    2    0    0 -0.10844940220E+00  0.11752415481E+01  0.94646838730E-03  0.90007764911E+02  0.90000026608E+02 0.  0.
        -12    1    1    2    0    0  0.10844940220E+00 -0.11752415481E+01 -0.94646838731E-03  0.11802350889E+01  0.00000000000E+00 0.  1.
         11    1    3    3    0    0 -0.36373846055E+01 -0.18430752622E+01  0.90917599645E+01  0.99643159677E+01  0.51100000000E-03 0. -1.
        -11    1    3    3    0    0 -0.13937358280E+02 -0.20641965195E+02  0.24816280679E+02  0.35159471980E+02  0.51100000000E-03 0.  1.
         12    1    3    3    0    0  0.17466293483E+02  0.23660282005E+02 -0.33907094176E+02  0.44883976963E+02  0.00000000000E+00 0. -1.
</event>
<event>
 7    1  0.2565757E-015  0.9000810E+02  0.7816164E-02  0.1186338E+00
        -11   -1    0    0    0    0  0.00000000000E+00  0.00000000000E+00  0.45593999997E+02  0.45594000000E+02  0.51100000000E-03 0. -1.
         11   -1    0    0    0    0 -0.00000000000E+00 -0.00000000000E+00 -0.45593999997E+02  0.45594000000E+02  0.51100000000E-03 0.  1.
    9900012    2    1    2    0    0  0.52617422572E+00  0.60246717387E-01  0.10543610468E+01  0.90008099072E+02  0.90000365179E+02 0.  0.
        -12    1    1    2    0    0 -0.52617422572E+00 -0.60246717387E-01 -0.10543610468E+01  0.11799009280E+01  0.00000000000E+00 0.  1.
         11    1    3    3    0    0  0.22937915450E+02  0.10650460628E+00  0.35947880460E+02  0.42642812035E+02  0.51100000000E-03 0. -1.
        -11    1    3    3    0    0  0.16169920451E+01 -0.68264445542E+01 -0.66148048727E+01  0.96421290330E+01  0.51100000000E-03 0.  1.
        -12    1    3    3    0    0 -0.24028733269E+02  0.67801866653E+01 -0.28278714541E+02  0.37723158004E+02  0.00000000000E+00 0.  1.
</event>
<event>
 7    1  0.1716782E-015  0.9000768E+02  0.7816164E-02  0.1186339E+00
        -11   -1    0    0    0    0  0.00000000000E+00  0.00000000000E+00  0.45593999997E+02  0.45594000000E+02  0.51100000000E-03 0. -1.
         11   -1    0    0    0    0 -0.00000000000E+00 -0.00000000000E+00 -0.45593999997E+02  0.45594000000E+02  0.51100000000E-03 0.  1.
    9900012    2    1    2    0    0 -0.10704775046E+01 -0.45057316208E+00 -0.21028808345E+00  0.90007678290E+02  0.89999938843E+02 0.  0.
        -12    1    1    2    0    0  0.10704775046E+01  0.45057316208E+00  0.21028808345E+00  0.11803217105E+01  0.00000000000E+00 0.  1.
         11    1    3    3    0    0 -0.90542571604E+01 -0.30563580228E+01  0.20148133921E+01  0.97662874398E+01  0.51100000000E-03 0. -1.
        -11    1    3    3    0    0 -0.28469818564E+02  0.83356074338E+01 -0.23322213975E+02  0.37735110776E+02  0.51100000000E-03 0.  1.
         12    1    3    3    0    0  0.36453598220E+02 -0.57298225731E+01  0.21097112499E+02  0.42506280073E+02  0.00000000000E+00 0. -1.
</event>
<event>
 7    1  0.1716782E-015  0.9000806E+02  0.7816164E-02  0.1186338E+00
        -11   -1    0    0    0    0  0.00000000000E+00  0.00000000000E+00  0.45593999997E+02  0.45594000000E+02  0.51100000000E-03 0.  1.
         11   -1    0    0    0    0 -0.00000000000E+00 -0.00000000000E+00 -0.45593999997E+02  0.45594000000E+02  0.51100000000E-03 0. -1.
    9900012    2    1    2    0    0  0.33655406867E+00  0.11291057164E+01  0.64118518487E-01  0.90008059517E+02  0.90000325102E+02 0.  0.
        -12    1    1    2    0    0 -0.33655406867E+00 -0.11291057164E+01 -0.64118518487E-01  0.11799404834E+01  0.00000000000E+00 0.  1.
         11    1    3    3    0    0 -0.82329595043E+01 -0.37539995210E+02  0.56242995712E+00  0.38436300424E+02  0.51100000000E-03 0. -1.
        -11    1    3    3    0    0 -0.73793687473E+01 -0.12916522996E+01 -0.38360674053E+01  0.84165825708E+01  0.51100000000E-03 0.  1.
        -12    1    3    3    0    0  0.15948882320E+02  0.39960753227E+02  0.33377559667E+01  0.43155176521E+02  0.00000000000E+00 0.  1.
</event>
<event>
 7    1  0.2492844E-015  0.9000767E+02  0.7816164E-02  0.1186339E+00
        -11   -1    0    0    0    0  0.00000000000E+00  0.00000000000E+00  0.45593999997E+02  0.45594000000E+02  0.51100000000E-03 0. -1.
         11   -1    0    0    0    0 -0.00000000000E+00 -0.00000000000E+00 -0.45593999997E+02  0.45594000000E+02  0.51100000000E-03 0.  1.
    9900012    2    1    2    0    0  0.24596582813E+00  0.49157065017E+00  0.10445307970E+01  0.90007667217E+02  0.89999927624E+02 0.  0.
        -12    1    1    2    0    0 -0.24596582813E+00 -0.49157065017E+00 -0.10445307970E+01  0.11803327830E+01  0.00000000000E+00 0.  1.
         11    1    3    3    0    0 -0.34026969158E+02  0.82921994629E+01  0.69415536753E+01  0.35704066570E+02  0.51100000000E-03 0. -1.
        -11    1    3    3    0    0 -0.74996265450E+01  0.70774613555E+00  0.64545837234E+01  0.99200279340E+01  0.51100000000E-03 0.  1.
        -12    1    3    3    0    0  0.41772561531E+02 -0.85083749483E+01 -0.12351606602E+02  0.44383572713E+02  0.00000000000E+00 0.  1.
</event>
<event>
 7    1  0.4170649E-015  0.9000775E+02  0.7816164E-02  0.1186339E+00
        -11   -1    0    0    0    0  0.00000000000E+00  0.00000000000E+00  0.45593999997E+02  0.45594000000E+02  0.51100000000E-03 0. -1.
         11   -1    0    0    0    0 -0.00000000000E+00 -0.00000000000E+00 -0.45593999997E+02  0.45594000000E+02  0.51100000000E-03 0.  1.
    9900012    2    1    2    0    0  0.42999186605E+00  0.59646569471E+00  0.92320862145E+00  0.90007754903E+02  0.90000016468E+02 0.  0.
        -12    1    1    2    0    0 -0.42999186605E+00 -0.59646569471E+00 -0.92320862145E+00  0.11802450968E+01  0.00000000000E+00 0.  1.
         11    1    3    3    0    0 -0.13472887576E+02  0.23373998541E+02  0.30187796012E+02  0.40486609339E+02  0.51100000000E-03 0. -1.
        -11    1    3    3    0    0  0.52006080847E+01 -0.56011974031E+01  0.57478435672E+01  0.95633384722E+01  0.51100000000E-03 0.  1.
        -12    1    3    3    0    0  0.87022713571E+01 -0.17176335443E+02 -0.35012430958E+02  0.39957807092E+02  0.00000000000E+00 0.  1.
</event>
<event>
 7    1  0.1716782E-015  0.9000782E+02  0.7816164E-02  0.1186339E+00
        -11   -1    0    0    0    0  0.00000000000E+00  0.00000000000E+00  0.45593999997E+02  0.45594000000E+02  0.51100000000E-03 0.  1.
         11   -1    0    0    0    0 -0.00000000000E+00 -0.00000000000E+00 -0.45593999997E+02  0.45594000000E+02  0.51100000000E-03 0. -1.
    9900012    2    1    2    0    0 -0.10007247109E+01  0.11098060440E+00  0.61568556613E+00  0.90007815541E+02  0.90000077906E+02 0.  0.
        -12    1    1    2    0    0  0.10007247109E+01 -0.11098060440E+00 -0.61568556613E+00  0.11801844593E+01  0.00000000000E+00 0.  1.
         11    1    3    3    0    0  0.70484530702E+01  0.20461319790E+01  0.68722675315E+01  0.10054621228E+02  0.51100000000E-03 0. -1.
        -11    1    3    3    0    0 -0.20833483619E+02  0.32041103998E+02  0.10983450314E+02  0.39765595257E+02  0.51100000000E-03 0.  1.
         12    1    3    3    0    0  0.12784305838E+02 -0.33976255372E+02 -0.17240032279E+02  0.40187599056E+02  0.00000000000E+00 0. -1.
</event>
<event>
 7    1  0.1716782E-015  0.9000775E+02  0.7816164E-02  0.1186339E+00
        -11   -1    0    0    0    0  0.00000000000E+00  0.00000000000E+00  0.45593999997E+02  0.45594000000E+02  0.51100000000E-03 0. -1.
         11   -1    0    0    0    0 -0.00000000000E+00 -0.00000000000E+00 -0.45593999997E+02  0.45594000000E+02  0.51100000000E-03 0.  1.
    9900012    2    1    2    0    0 -0.51231675325E+00  0.84856859597E+00  0.64066148729E+00  0.90007752459E+02  0.90000013991E+02 0.  0.
        -12    1    1    2    0    0  0.51231675325E+00 -0.84856859597E+00 -0.64066148729E+00  0.11802475414E+01  0.00000000000E+00 0.  1.
         11    1    3    3    0    0  0.98121640197E+01  0.12697194423E+02  0.70817850093E+01  0.17539925546E+02  0.51100000000E-03 0. -1.
        -11    1    3    3    0    0 -0.13750643739E+02 -0.40311807197E+02  0.18239958218E+01  0.42631548925E+02  0.51100000000E-03 0.  1.
         12    1    3    3    0    0  0.34261629665E+01  0.28463181370E+02 -0.82651193438E+01  0.29836277987E+02  0.00000000000E+00 0. -1.
</event>
<event>
 7    1  0.1716782E-015  0.9000775E+02  0.7816164E-02  0.1186339E+00
        -11   -1    0    0    0    0  0.00000000000E+00  0.00000000000E+00  0.45593999997E+02  0.45594000000E+02  0.51100000000E-03 0.  1.
         11   -1    0    0    0    0 -0.00000000000E+00 -0.00000000000E+00 -0.45593999997E+02  0.45594000000E+02  0.51100000000E-03 0. -1.
    9900012    2    1    2    0    0  0.10031655657E+01  0.56085195987E+00  0.26848206258E+00  0.90007754817E+02  0.90000016381E+02 0.  0.
        -12    1    1    2    0    0 -0.10031655657E+01 -0.56085195987E+00 -0.26848206258E+00  0.11802451826E+01  0.00000000000E+00 0.  1.
         11    1    3    3    0    0  0.40005365000E+01 -0.34552459365E+02  0.13181481731E+02  0.37197153134E+02  0.51100000000E-03 0. -1.
        -11    1    3    3    0    0  0.94636278138E+01 -0.37334420986E+01 -0.46501721685E+01  0.11185836704E+02  0.51100000000E-03 0.  1.
        -12    1    3    3    0    0 -0.12460998748E+02  0.38846753423E+02 -0.82628274995E+01  0.41624764979E+02  0.00000000000E+00 0.  1.
</event>
<event>
 7    1  0.1716782E-015  0.9000778E+02  0.7816164E-02  0.1186339E+00
        -11   -1    0    0    0    0  0.00000000000E+00  0.00000000000E+00  0.45593999997E+02  0.45594000000E+02  0.51100000000E-03 0. -1.
         11   -1    0    0    0    0 -0.00000000000E+00 -0.00000000000E+00 -0.45593999997E+02  0.45594000000E+02  0.51100000000E-03 0.  1.
    9900012    2    1    2    0    0 -0.47795359055E-01 -0.11790183870E+01  0.23423830895E-01  0.90007780771E+02  0.90000042677E+02 0.  0.
        -12    1    1    2    0    0  0.47795359055E-01  0.11790183870E+01 -0.23423830894E-01  0.11802192292E+01  0.00000000000E+00 0.  1.
         11    1    3    3    0    0  0.49234680368E+01  0.74225096839E+01  0.53799661793E+01  0.10405682288E+02  0.51100000000E-03 0. -1.
        -11    1    3    3    0    0  0.29089923400E+02  0.16265616399E+02 -0.14668207736E+02  0.36413599640E+02  0.51100000000E-03 0.  1.
         12    1    3    3    0    0 -0.34061186796E+02 -0.24867144470E+02  0.93116653878E+01  0.43188498843E+02  0.00000000000E+00 0. -1.
</event>
<event>
 7    1  0.1716782E-015  0.9000771E+02  0.7816164E-02  0.1186339E+00
        -11   -1    0    0    0    0  0.00000000000E+00  0.00000000000E+00  0.45593999997E+02  0.45594000000E+02  0.51100000000E-03 0. -1.
         11   -1    0    0    0    0 -0.00000000000E+00 -0.00000000000E+00 -0.45593999997E+02  0.45594000000E+02  0.51100000000E-03 0.  1.
    9900012    2    1    2    0    0  0.76351263995E+00  0.28173599363E+00  0.85484663065E+00  0.90007707882E+02  0.89999968826E+02 0.  0.
        -12    1    1    2    0    0 -0.76351263995E+00 -0.28173599363E+00 -0.85484663065E+00  0.11802921178E+01  0.00000000000E+00 0.  1.
         11    1    3    3    0    0  0.48297613098E+01  0.58740254944E+01  0.41691310336E+01  0.86725096514E+01  0.51100000000E-03 0. -1.
        -11    1    3    3    0    0  0.14814856938E+02  0.15068314260E+02  0.30710293036E+02  0.37278092486E+02  0.51100000000E-03 0.  1.
         12    1    3    3    0    0 -0.18881105607E+02 -0.20660603761E+02 -0.34024577439E+02  0.44057105745E+02  0.00000000000E+00 0. -1.
</event>
<event>
 7    1  0.1716782E-015  0.9000765E+02  0.7816164E-02  0.1186339E+00
        -11   -1    0    0    0    0  0.00000000000E+00  0.00000000000E+00  0.45593999997E+02  0.45594000000E+02  0.51100000000E-03 0.  1.
         11   -1    0    0    0    0 -0.00000000000E+00 -0.00000000000E+00 -0.45593999997E+02  0.45594000000E+02  0.51100000000E-03 0. -1.
    9900012    2    1    2    0    0  0.37320145982E+00  0.10704996317E+01 -0.32860877701E+00  0.90007647290E+02  0.89999907434E+02 0.  0.
        -12    1    1    2    0    0 -0.37320145982E+00 -0.10704996317E+01  0.32860877701E+00  0.11803527097E+01  0.00000000000E+00 0.  1.
         11    1    3    3    0    0  0.16056659409E+01  0.11651186351E+02  0.52228331877E+01  0.12868810872E+02  0.51100000000E-03 0. -1.
        -11    1    3    3    0    0 -0.68649093712E+01  0.28132608895E+02  0.15360148033E+02  0.32779640202E+02  0.51100000000E-03 0.  1.
         12    1    3    3    0    0  0.56324448901E+01 -0.38713295614E+02 -0.20911589997E+02  0.44359196216E+02  0.00000000000E+00 0. -1.
</event>
<event>
 7    1  0.2101684E-015  0.9000773E+02  0.7816164E-02  0.1186339E+00
        -11   -1    0    0    0    0  0.00000000000E+00  0.00000000000E+00  0.45593999997E+02  0.45594000000E+02  0.51100000000E-03 0. -1.
         11   -1    0    0    0    0 -0.00000000000E+00 -0.00000000000E+00 -0.45593999997E+02  0.45594000000E+02  0.51100000000E-03 0.  1.
    9900012    2    1    2    0    0 -0.83435562906E+00 -0.27009788973E+00  0.78990191609E+00  0.90007725785E+02  0.89999986965E+02 0.  0.
        -12    1    1    2    0    0  0.83435562906E+00  0.27009788973E+00 -0.78990191609E+00  0.11802742151E+01  0.00000000000E+00 0.  1.
         11    1    3    3    0    0 -0.59547237306E+01 -0.20568688056E+02  0.35130498339E+02  0.41142211619E+02  0.51100000000E-03 0. -1.
        -11    1    3    3    0    0 -0.65518016002E+01  0.60418137524E+01  0.10418304992E+01  0.89730166988E+01  0.51100000000E-03 0.  1.
        -12    1    3    3    0    0  0.11672169702E+02  0.14256776414E+02 -0.35382426922E+02  0.39892497467E+02  0.00000000000E+00 0.  1.
</event>
<event>
 7    1  0.1716782E-015  0.9000779E+02  0.7816164E-02  0.1186339E+00
        -11   -1    0    0    0    0  0.00000000000E+00  0.00000000000E+00  0.45593999997E+02  0.45594000000E+02  0.51100000000E-03 0.  1.
         11   -1    0    0    0    0 -0.00000000000E+00 -0.00000000000E+00 -0.45593999997E+02  0.45594000000E+02  0.51100000000E-03 0. -1.
    9900012    2    1    2    0    0  0.45468858544E+00 -0.49954457859E+00 -0.96778187347E+00  0.90007793132E+02  0.90000055202E+02 0.  0.
        -12    1    1    2    0    0 -0.45468858544E+00  0.49954457859E+00  0.96778187347E+00  0.11802068676E+01  0.00000000000E+00 0.  1.
         11    1    3    3    0    0 -0.30805210102E+02 -0.23930349031E+02  0.15429582649E+02  0.41948713868E+02  0.51100000000E-03 0. -1.
        -11    1    3    3    0    0  0.53186733945E+01  0.46714857507E+01 -0.14325021978E+02  0.15978652031E+02  0.51100000000E-03 0.  1.
        -12    1    3    3    0    0  0.25941225293E+02  0.18759318702E+02 -0.20723425445E+01  0.32080427233E+02  0.00000000000E+00 0.  1.
</event>
<event>
 7    1  0.1716782E-015  0.9000771E+02  0.7816164E-02  0.1186339E+00
        -11   -1    0    0    0    0  0.00000000000E+00  0.00000000000E+00  0.45593999997E+02  0.45594000000E+02  0.51100000000E-03 0.  1.
         11   -1    0    0    0    0 -0.00000000000E+00 -0.00000000000E+00 -0.45593999997E+02  0.45594000000E+02  0.51100000000E-03 0. -1.
    9900012    2    1    2    0    0 -0.58929970077E+00  0.74637520204E+00  0.69909134097E+00  0.90007712415E+02  0.89999973419E+02 0.  0.
        -12    1    1    2    0    0  0.58929970077E+00 -0.74637520204E+00 -0.69909134097E+00  0.11802875847E+01  0.00000000000E+00 0.  1.
         11    1    3    3    0    0 -0.12701628096E+02 -0.51150070972E+01  0.23339775467E+02  0.27059929287E+02  0.51100000000E-03 0. -1.
        -11    1    3    3    0    0  0.85149256477E+01 -0.25383933316E+02 -0.63033394310E+01  0.27506001484E+02  0.51100000000E-03 0.  1.
         12    1    3    3    0    0  0.35974027474E+01  0.31245315616E+02 -0.16337344695E+02  0.35441781644E+02  0.00000000000E+00 0. -1.
</event>
<event>
 7    1  0.1716782E-015  0.9000763E+02  0.7816164E-02  0.1186339E+00
        -11   -1    0    0    0    0  0.00000000000E+00  0.00000000000E+00  0.45593999997E+02  0.45594000000E+02  0.51100000000E-03 0.  1.
         11   -1    0    0    0    0 -0.00000000000E+00 -0.00000000000E+00 -0.45593999997E+02  0.45594000000E+02  0.51100000000E-03 0. -1.
    9900012    2    1    2    0    0 -0.48058278864E+00 -0.10772252076E+01 -0.43566755154E-01  0.90007630555E+02  0.89999890478E+02 0.  0.
        -12    1    1    2    0    0  0.48058278864E+00  0.10772252076E+01  0.43566755154E-01  0.11803694451E+01  0.00000000000E+00 0.  1.
         11    1    3    3    0    0 -0.69453933530E+01  0.34479105682E+01  0.53210073053E+01  0.94042381466E+01  0.51100000000E-03 0. -1.
        -11    1    3    3    0    0 -0.13128355047E+02  0.72294429368E+01  0.32833997746E+02  0.36092796507E+02  0.51100000000E-03 0.  1.
         12    1    3    3    0    0  0.19593165612E+02 -0.11754578713E+02 -0.38198571807E+02  0.44510595901E+02  0.00000000000E+00 0. -1.
</event>
<event>
 7    1  0.1716782E-015  0.9000778E+02  0.7816164E-02  0.1186339E+00
        -11   -1    0    0    0    0  0.00000000000E+00  0.00000000000E+00  0.45593999997E+02  0.45594000000E+02  0.51100000000E-03 0. -1.
         11   -1    0    0    0    0 -0.00000000000E+00 -0.00000000000E+00 -0.45593999997E+02  0.45594000000E+02  0.51100000000E-03 0.  1.
    9900012    2    1    2    0    0 -0.11476447804E+01 -0.27278776233E+00  0.37558481517E-01  0.90007782925E+02  0.90000044859E+02 0.  0.
        -12    1    1    2    0    0  0.11476447804E+01  0.27278776233E+00 -0.37558481517E-01  0.11802170753E+01  0.00000000000E+00 0.  1.
         11    1    3    3    0    0 -0.86018115727E+01  0.33324736852E+01 -0.42118837088E+01  0.10140833685E+02  0.51100000000E-03 0. -1.
        -11    1    3    3    0    0  0.84662212006E+01  0.36667109973E+02 -0.64609145596E+01  0.38182420987E+02  0.51100000000E-03 0.  1.
         12    1    3    3    0    0 -0.10120544083E+01 -0.40272371420E+02  0.10710356750E+02  0.41684528253E+02  0.00000000000E+00 0. -1.
</event>
<event>
 7    1  0.1716782E-015  0.9000775E+02  0.7816164E-02  0.1186339E+00
        -11   -1    0    0    0    0  0.00000000000E+00  0.00000000000E+00  0.45593999997E+02  0.45594000000E+02  0.51100000000E-03 0.  1.
         11   -1    0    0    0    0 -0.00000000000E+00 -0.00000000000E+00 -0.45593999997E+02  0.45594000000E+02  0.51100000000E-03 0. -1.
    9900012    2    1    2    0    0  0.10478918518E-01 -0.50279924250E+00 -0.10677470803E+01  0.90007745488E+02  0.90000006928E+02 0.  0.
        -12    1    1    2    0    0 -0.10478918518E-01  0.50279924250E+00  0.10677470803E+01  0.11802545122E+01  0.00000000000E+00 0.  1.
         11    1    3    3    0    0 -0.39284470749E+01 -0.28950663081E+01  0.10821719950E+02  0.11871130034E+02  0.51100000000E-03 0. -1.
        -11    1    3    3    0    0 -0.12479985201E+02  0.18891168613E+02  0.25495529221E+02  0.34097628843E+02  0.51100000000E-03 0.  1.
         12    1    3    3    0    0  0.16418911195E+02 -0.16498901547E+02 -0.37384996251E+02  0.44038986611E+02  0.00000000000E+00 0. -1.
</event>
<event>
 7    1  0.1716782E-015  0.9000774E+02  0.7816164E-02  0.1186339E+00
        -11   -1    0    0    0    0  0.00000000000E+00  0.00000000000E+00  0.45593999997E+02  0.45594000000E+02  0.51100000000E-03 0.  1.
         11   -1    0    0    0    0 -0.00000000000E+00 -0.00000000000E+00 -0.45593999997E+02  0.45594000000E+02  0.51100000000E-03 0. -1.
    9900012    2    1    2    0    0  0.93274144703E+00  0.54816633036E+00 -0.47172392529E+00  0.90007738845E+02  0.90000000198E+02 0.  0.
        -12    1    1    2    0    0 -0.93274144703E+00 -0.54816633036E+00  0.47172392529E+00  0.11802611552E+01  0.00000000000E+00 0.  1.
         11    1    3    3    0    0  0.14381082845E+00  0.30025609334E+01  0.72595698499E+01  0.78573155963E+01  0.51100000000E-03 0. -1.
        -11    1    3    3    0    0 -0.36115999232E+02  0.17032967702E+02 -0.60110017367E+01  0.40380930295E+02  0.51100000000E-03 0.  1.
         12    1    3    3    0    0  0.36904929851E+02 -0.19487362305E+02 -0.17202920385E+01  0.41769492954E+02  0.00000000000E+00 0. -1.
</event>
<event>
 7    1  0.1716782E-015  0.9000771E+02  0.7816164E-02  0.1186339E+00
        -11   -1    0    0    0    0  0.00000000000E+00  0.00000000000E+00  0.45593999997E+02  0.45594000000E+02  0.51100000000E-03 0. -1.
         11   -1    0    0    0    0 -0.00000000000E+00 -0.00000000000E+00 -0.45593999997E+02  0.45594000000E+02  0.51100000000E-03 0.  1.
    9900012    2    1    2    0    0  0.94640781735E-01  0.11679886321E+01  0.14118419600E+00  0.90007708807E+02  0.89999969764E+02 0.  0.
        -12    1    1    2    0    0 -0.94640781735E-01 -0.11679886321E+01 -0.14118419600E+00  0.11802911927E+01  0.00000000000E+00 0.  1.
         11    1    3    3    0    0 -0.29801510538E+01 -0.16216705656E+01 -0.96190805170E+01  0.10199893430E+02  0.51100000000E-03 0. -1.
        -11    1    3    3    0    0 -0.20896543588E+02  0.18961005421E+02 -0.22788468414E+02  0.36269816011E+02  0.51100000000E-03 0.  1.
         12    1    3    3    0    0  0.23971335424E+02 -0.16171346224E+02  0.32548733127E+02  0.43537999367E+02  0.00000000000E+00 0. -1.
</event>
<event>
 7    1  0.1716782E-015  0.9000775E+02  0.7816164E-02  0.1186339E+00
        -11   -1    0    0    0    0  0.00000000000E+00  0.00000000000E+00  0.45593999997E+02  0.45594000000E+02  0.51100000000E-03 0.  1.
         11   -1    0    0    0    0 -0.00000000000E+00 -0.00000000000E+00 -0.45593999997E+02  0.45594000000E+02  0.51100000000E-03 0. -1.
    9900012    2    1    2    0    0  0.11203178714E+01 -0.39915451591E-01 -0.36915888541E+00  0.90007752713E+02  0.90000014249E+02 0.  0.
        -12    1    1    2    0    0 -0.11203178714E+01  0.39915451591E-01  0.36915888541E+00  0.11802472872E+01  0.00000000000E+00 0.  1.
         11    1    3    3    0    0 -0.43646554830E+01 -0.33340228986E+01 -0.35686945169E+01  0.65499241972E+01  0.51100000000E-03 0. -1.
        -11    1    3    3    0    0 -0.12905070545E+02 -0.36828214880E+02 -0.16329743177E+01  0.39057967976E+02  0.51100000000E-03 0.  1.
         12    1    3    3    0    0  0.18390043899E+02  0.40122322327E+02  0.48325099492E+01  0.44399860540E+02  0.00000000000E+00 0. -1.
</event>
<event>
 7    1  0.1716782E-015  0.9000781E+02  0.7816164E-02  0.1186339E+00
        -11   -1    0    0    0    0  0.00000000000E+00  0.00000000000E+00  0.45593999997E+02  0.45594000000E+02  0.51100000000E-03 0.  1.
         11   -1    0    0    0    0 -0.00000000000E+00 -0.00000000000E+00 -0.45593999997E+02  0.45594000000E+02  0.51100000000E-03 0. -1.
    9900012    2    1    2    0    0  0.48301367315E+00 -0.81381046983E+00 -0.70517168892E+00  0.90007806457E+02  0.90000068702E+02 0.  0.
        -12    1    1    2    0    0 -0.48301367315E+00  0.81381046983E+00  0.70517168892E+00  0.11801935435E+01  0.00000000000E+00 0.  1.
         11    1    3    3    0    0 -0.10159214268E+02  0.30704661151E+01  0.30185466064E+01  0.11033993863E+02  0.51100000000E-03 0. -1.
        -11    1    3    3    0    0 -0.41698367712E+01  0.12913019605E+02  0.33156858528E+02  0.35826120104E+02  0.51100000000E-03 0.  1.
         12    1    3    3    0    0  0.14812064712E+02 -0.16797296190E+02 -0.36880576823E+02  0.43147692489E+02  0.00000000000E+00 0. -1.
</event>
<event>
 7    1  0.1716782E-015  0.9000774E+02  0.7816164E-02  0.1186339E+00
        -11   -1    0    0    0    0  0.00000000000E+00  0.00000000000E+00  0.45593999997E+02  0.45594000000E+02  0.51100000000E-03 0.  1.
         11   -1    0    0    0    0 -0.00000000000E+00 -0.00000000000E+00 -0.45593999997E+02  0.45594000000E+02  0.51100000000E-03 0. -1.
    9900012    2    1    2    0    0 -0.14156248544E+00  0.67963336476E+00 -0.95449486120E+00  0.90007744990E+02  0.90000006424E+02 0.  0.
        -12    1    1    2    0    0  0.14156248544E+00 -0.67963336476E+00  0.95449486120E+00  0.11802550097E+01  0.00000000000E+00 0.  1.
         11    1    3    3    0    0 -0.17076650591E+01  0.20887556643E+02 -0.30859612320E+02  0.37303107314E+02  0.51100000000E-03 0. -1.
        -11    1    3    3    0    0  0.25286584476E+01 -0.58383787950E+01 -0.91125405090E+01  0.11113918089E+02  0.51100000000E-03 0.  1.
        -12    1    3    3    0    0 -0.96255587396E+00 -0.14369544483E+02  0.39017657968E+02  0.41590719587E+02  0.00000000000E+00 0.  1.
</event>
<event>
 7    1  0.1716782E-015  0.9000770E+02  0.7816164E-02  0.1186339E+00
        -11   -1    0    0    0    0  0.00000000000E+00  0.00000000000E+00  0.45593999997E+02  0.45594000000E+02  0.51100000000E-03 0.  1.
         11   -1    0    0    0    0 -0.00000000000E+00 -0.00000000000E+00 -0.45593999997E+02  0.45594000000E+02  0.51100000000E-03 0. -1.
    9900012    2    1    2    0    0 -0.48083052978E+00  0.10597578420E+01  0.19701683089E+00  0.90007703294E+02  0.89999964178E+02 0.  0.
        -12    1    1    2    0    0  0.48083052978E+00 -0.10597578420E+01 -0.19701683089E+00  0.11802967058E+01  0.00000000000E+00 0.  1.
         11    1    3    3    0    0 -0.34835529491E+01  0.41665827011E+01  0.89428169227E+01  0.10462768626E+02  0.51100000000E-03 0. -1.
        -11    1    3    3    0    0 -0.23255319783E+02 -0.19671650921E+02  0.20642293800E+02  0.36795217648E+02  0.51100000000E-03 0.  1.
         12    1    3    3    0    0  0.26258042202E+02  0.16564826062E+02 -0.29388093891E+02  0.42749717020E+02  0.00000000000E+00 0. -1.
</event>
<event>
 7    1  0.1716782E-015  0.9000776E+02  0.7816164E-02  0.1186339E+00
        -11   -1    0    0    0    0  0.00000000000E+00  0.00000000000E+00  0.45593999997E+02  0.45594000000E+02  0.51100000000E-03 0.  1.
         11   -1    0    0    0    0 -0.00000000000E+00 -0.00000000000E+00 -0.45593999997E+02  0.45594000000E+02  0.51100000000E-03 0. -1.
    9900012    2    1    2    0    0 -0.89929804917E-01  0.25974839943E+00 -0.11477838675E+01  0.90007760869E+02  0.90000022512E+02 0.  0.
        -12    1    1    2    0    0  0.89929804917E-01 -0.25974839943E+00  0.11477838675E+01  0.11802391314E+01  0.00000000000E+00 0.  1.
         11    1    3    3    0    0  0.31560559856E+01 -0.86894102120E+01  0.40241071219E+01  0.10082657269E+02  0.51100000000E-03 0. -1.
        -11    1    3    3    0    0  0.33245899803E+02 -0.65325706236E+01  0.13036389696E+02  0.36303054819E+02  0.51100000000E-03 0.  1.
         12    1    3    3    0    0 -0.36491885593E+02  0.15481729235E+02 -0.18208280686E+02  0.43622048780E+02  0.00000000000E+00 0. -1.
</event>
<event>
 7    1  0.1716782E-015  0.9000768E+02  0.7816164E-02  0.1186339E+00
        -11   -1    0    0    0    0  0.00000000000E+00  0.00000000000E+00  0.45593999997E+02  0.45594000000E+02  0.51100000000E-03 0. -1.
         11   -1    0    0    0    0 -0.00000000000E+00 -0.00000000000E+00 -0.45593999997E+02  0.45594000000E+02  0.51100000000E-03 0.  1.
    9900012    2    1    2    0    0  0.14324519311E+00 -0.40252017649E+00  0.11002757173E+01  0.90007682953E+02  0.89999943568E+02 0.  0.
        -12    1    1    2    0    0 -0.14324519311E+00  0.40252017649E+00 -0.11002757173E+01  0.11803170472E+01  0.00000000000E+00 0.  1.
         11    1    3    3    0    0  0.12915305876E+02  0.12234323865E+02  0.35978794259E+02  0.40136734333E+02  0.51100000000E-03 0. -1.
        -11    1    3    3    0    0 -0.58876642581E+01 -0.86779942038E+01  0.32070725692E+01  0.10966197542E+02  0.51100000000E-03 0.  1.
        -12    1    3    3    0    0 -0.68843964252E+01 -0.39588498377E+01 -0.38085591111E+02  0.38904751078E+02  0.00000000000E+00 0.  1.
</event>
<event>
 7    1  0.1716782E-015  0.9000781E+02  0.7816164E-02  0.1186339E+00
        -11   -1    0    0    0    0  0.00000000000E+00  0.00000000000E+00  0.45593999997E+02  0.45594000000E+02  0.51100000000E-03 0. -1.
         11   -1    0    0    0    0 -0.00000000000E+00 -0.00000000000E+00 -0.45593999997E+02  0.45594000000E+02  0.51100000000E-03 0.  1.
    9900012    2    1    2    0    0 -0.49245963091E+00  0.99580617799E+00  0.39836997818E+00  0.90007811425E+02  0.90000073736E+02 0.  0.
        -12    1    1    2    0    0  0.49245963091E+00 -0.99580617799E+00 -0.39836997818E+00  0.11801885746E+01  0.00000000000E+00 0.  1.
         11    1    3    3    0    0  0.38456039591E+02  0.36083504540E+01  0.21484580752E+01  0.38684661643E+02  0.51100000000E-03 0. -1.
        -11    1    3    3    0    0  0.41686070621E+01 -0.45016150151E+01 -0.51786459084E+01  0.80287107488E+01  0.51100000000E-03 0.  1.
        -12    1    3    3    0    0 -0.43117106284E+02  0.18890707391E+01  0.34285578114E+01  0.43294439034E+02  0.00000000000E+00 0.  1.
</event>
<event>
 7    1  0.1716782E-015  0.9000784E+02  0.7816164E-02  0.1186339E+00
        -11   -1    0    0    0    0  0.00000000000E+00  0.00000000000E+00  0.45593999997E+02  0.45594000000E+02  0.51100000000E-03 0.  1.
         11   -1    0    0    0    0 -0.00000000000E+00 -0.00000000000E+00 -0.45593999997E+02  0.45594000000E+02  0.51100000000E-03 0. -1.
    9900012    2    1    2    0    0 -0.10399091460E+01 -0.39607129491E-01 -0.55659694854E+00  0.90007839028E+02  0.90000101703E+02 0.  0.
        -12    1    1    2    0    0  0.10399091460E+01  0.39607129491E-01  0.55659694854E+00  0.11801609720E+01  0.00000000000E+00 0.  1.
         11    1    3    3    0    0 -0.38817119954E+02 -0.11653674154E+02  0.45175649456E+01  0.40779716970E+02  0.51100000000E-03 0. -1.
        -11    1    3    3    0    0 -0.10681815883E+01  0.89563862148E+01 -0.49560140662E+01  0.10291741428E+02  0.51100000000E-03 0.  1.
        -12    1    3    3    0    0  0.38845392396E+02  0.26576808102E+01 -0.11814782795E+00  0.38936380631E+02  0.00000000000E+00 0.  1.
</event>
<event>
 7    1  0.1716782E-015  0.9000792E+02  0.7816164E-02  0.1186339E+00
        -11   -1    0    0    0    0  0.00000000000E+00  0.00000000000E+00  0.45593999997E+02  0.45594000000E+02  0.51100000000E-03 0.  1.
         11   -1    0    0    0    0 -0.00000000000E+00 -0.00000000000E+00 -0.45593999997E+02  0.45594000000E+02  0.51100000000E-03 0. -1.
    9900012    2    1    2    0    0  0.90989999852E+00 -0.74635760861E+00  0.87325970509E-01  0.90007918006E+02  0.90000181724E+02 0.  0.
        -12    1    1    2    0    0 -0.90989999852E+00  0.74635760861E+00 -0.87325970509E-01  0.11800819939E+01  0.00000000000E+00 0.  1.
         11    1    3    3    0    0 -0.80019601255E+00  0.34632090812E+01  0.87903749061E+01  0.94818153351E+01  0.51100000000E-03 0. -1.
        -11    1    3    3    0    0 -0.16809368154E+02 -0.24028539301E+02  0.24102710345E+02  0.37958743458E+02  0.51100000000E-03 0.  1.
         12    1    3    3    0    0  0.18519464165E+02  0.19818972612E+02 -0.32805759281E+02  0.42567359213E+02  0.00000000000E+00 0. -1.
</event>
<event>
 7    1  0.1716782E-015  0.9000771E+02  0.7816164E-02  0.1186339E+00
        -11   -1    0    0    0    0  0.00000000000E+00  0.00000000000E+00  0.45593999997E+02  0.45594000000E+02  0.51100000000E-03 0.  1.
         11   -1    0    0    0    0 -0.00000000000E+00 -0.00000000000E+00 -0.45593999997E+02  0.45594000000E+02  0.51100000000E-03 0. -1.
    9900012    2    1    2    0    0 -0.73711176682E+00 -0.73809556681E+00 -0.55223368413E+00  0.90007711533E+02  0.89999972526E+02 0.  0.
        -12    1    1    2    0    0  0.73711176682E+00  0.73809556681E+00  0.55223368413E+00  0.11802884666E+01  0.00000000000E+00 0.  1.
         11    1    3    3    0    0  0.22099810064E+02  0.21960586606E+02 -0.20656113102E+02  0.37381064427E+02  0.51100000000E-03 0. -1.
        -11    1    3    3    0    0  0.51611271943E+01 -0.16749162710E+00  0.15569682970E+02  0.16403667742E+02  0.51100000000E-03 0.  1.
        -12    1    3    3    0    0 -0.27998049025E+02 -0.22531190546E+02  0.45341964483E+01  0.36222979364E+02  0.00000000000E+00 0.  1.
</event>
<event>
 7    1  0.1716782E-015  0.9000768E+02  0.7816164E-02  0.1186339E+00
        -11   -1    0    0    0    0  0.00000000000E+00  0.00000000000E+00  0.45593999997E+02  0.45594000000E+02  0.51100000000E-03 0.  1.
         11   -1    0    0    0    0 -0.00000000000E+00 -0.00000000000E+00 -0.45593999997E+02  0.45594000000E+02  0.51100000000E-03 0. -1.
    9900012    2    1    2    0    0  0.16709506543E+00  0.11120966268E+01 -0.35842564454E+00  0.90007682835E+02  0.89999943448E+02 0.  0.
        -12    1    1    2    0    0 -0.16709506543E+00 -0.11120966268E+01  0.35842564454E+00  0.11803171654E+01  0.00000000000E+00 0.  1.
         11    1    3    3    0    0  0.17784443617E+02  0.33122421345E+02 -0.94321115032E+01  0.38760107820E+02  0.51100000000E-03 0. -1.
        -11    1    3    3    0    0  0.59667914389E+01 -0.30668348499E+01 -0.77896465751E+01  0.10280402234E+02  0.51100000000E-03 0.  1.
        -12    1    3    3    0    0 -0.23584139991E+02 -0.28943489868E+02  0.16863332434E+02  0.40967172781E+02  0.00000000000E+00 0.  1.
</event>
<event>
 7    1  0.1716782E-015  0.9000769E+02  0.7816164E-02  0.1186339E+00
        -11   -1    0    0    0    0  0.00000000000E+00  0.00000000000E+00  0.45593999997E+02  0.45594000000E+02  0.51100000000E-03 0.  1.
         11   -1    0    0    0    0 -0.00000000000E+00 -0.00000000000E+00 -0.45593999997E+02  0.45594000000E+02  0.51100000000E-03 0. -1.
    9900012    2    1    2    0    0  0.17892335081E+00  0.11399886997E+01 -0.24809678922E+00  0.90007686560E+02  0.89999947222E+02 0.  0.
        -12    1    1    2    0    0 -0.17892335081E+00 -0.11399886997E+01  0.24809678922E+00  0.11803134404E+01  0.00000000000E+00 0.  1.
         11    1    3    3    0    0  0.74020893158E+01 -0.56003636211E+01  0.33331067717E+01  0.98622816802E+01  0.51100000000E-03 0. -1.
        -11    1    3    3    0    0  0.93567137954E+00 -0.17366771604E+02  0.31987109237E+02  0.36409550869E+02  0.51100000000E-03 0.  1.
         12    1    3    3    0    0 -0.81588373445E+01  0.24107123925E+02 -0.35568312798E+02  0.43735854010E+02  0.00000000000E+00 0. -1.
</event>
<event>
 7    1  0.1716782E-015  0.9000780E+02  0.7816164E-02  0.1186339E+00
        -11   -1    0    0    0    0  0.00000000000E+00  0.00000000000E+00  0.45593999997E+02  0.45594000000E+02  0.51100000000E-03 0. -1.
         11   -1    0    0    0    0 -0.00000000000E+00 -0.00000000000E+00 -0.45593999997E+02  0.45594000000E+02  0.51100000000E-03 0.  1.
    9900012    2    1    2    0    0  0.29091432495E+00  0.76453578406E-01  0.11412245181E+01  0.90007800994E+02  0.90000063167E+02 0.  0.
        -12    1    1    2    0    0 -0.29091432495E+00 -0.76453578406E-01 -0.11412245181E+01  0.11801990064E+01  0.00000000000E+00 0.  1.
         11    1    3    3    0    0 -0.90844545831E+01 -0.10646660437E+01  0.79352430433E+01  0.12109042542E+02  0.51100000000E-03 0. -1.
        -11    1    3    3    0    0 -0.12946818878E+02 -0.33600543680E+02  0.23868443432E+00  0.36009354690E+02  0.51100000000E-03 0.  1.
         12    1    3    3    0    0  0.22322187786E+02  0.34741663303E+02 -0.70327029595E+01  0.41889403762E+02  0.00000000000E+00 0. -1.
</event>
<event>
 7    1  0.1716782E-015  0.9000773E+02  0.7816164E-02  0.1186339E+00
        -11   -1    0    0    0    0  0.00000000000E+00  0.00000000000E+00  0.45593999997E+02  0.45594000000E+02  0.51100000000E-03 0. -1.
         11   -1    0    0    0    0 -0.00000000000E+00 -0.00000000000E+00 -0.45593999997E+02  0.45594000000E+02  0.51100000000E-03 0.  1.
    9900012    2    1    2    0    0 -0.11002070677E+01 -0.76265046423E-01 -0.42043665352E+00  0.90007729299E+02  0.89999990525E+02 0.  0.
        -12    1    1    2    0    0  0.11002070677E+01  0.76265046423E-01  0.42043665352E+00  0.11802707015E+01  0.00000000000E+00 0.  1.
         11    1    3    3    0    0  0.74378530401E+01  0.44106432953E+01  0.35324388106E-01  0.86473510510E+01  0.51100000000E-03 0. -1.
        -11    1    3    3    0    0 -0.34484465228E+02  0.21543234149E+01 -0.26849785864E+02  0.43757633079E+02  0.51100000000E-03 0.  1.
         12    1    3    3    0    0  0.25946405120E+02 -0.66412317567E+01  0.26394024823E+02  0.37602745169E+02  0.00000000000E+00 0. -1.
</event>
<event>
 7    1  0.1716782E-015  0.9000773E+02  0.7816164E-02  0.1186339E+00
        -11   -1    0    0    0    0  0.00000000000E+00  0.00000000000E+00  0.45593999997E+02  0.45594000000E+02  0.51100000000E-03 0.  1.
         11   -1    0    0    0    0 -0.00000000000E+00 -0.00000000000E+00 -0.45593999997E+02  0.45594000000E+02  0.51100000000E-03 0. -1.
    9900012    2    1    2    0    0 -0.90296029619E+00 -0.67251101825E+00 -0.35416778020E+00  0.90007727496E+02  0.89999988699E+02 0.  0.
        -12    1    1    2    0    0  0.90296029619E+00  0.67251101825E+00  0.35416778020E+00  0.11802725036E+01  0.00000000000E+00 0.  1.
         11    1    3    3    0    0  0.30881140103E+02  0.10786817619E+02 -0.23248955914E+02  0.40131212289E+02  0.51100000000E-03 0. -1.
        -11    1    3    3    0    0 -0.59364081310E+01  0.21609244018E+01 -0.60518080019E+01  0.87484236363E+01  0.51100000000E-03 0.  1.
        -12    1    3    3    0    0 -0.25847692268E+02 -0.13620253039E+02  0.28946596136E+02  0.41128091571E+02  0.00000000000E+00 0.  1.
</event>
<event>
 7    1  0.1716782E-015  0.9000775E+02  0.7816164E-02  0.1186339E+00
        -11   -1    0    0    0    0  0.00000000000E+00  0.00000000000E+00  0.45593999997E+02  0.45594000000E+02  0.51100000000E-03 0.  1.
         11   -1    0    0    0    0 -0.00000000000E+00 -0.00000000000E+00 -0.45593999997E+02  0.45594000000E+02  0.51100000000E-03 0. -1.
    9900012    2    1    2    0    0  0.10585510784E+01 -0.52035428705E+00 -0.41097865785E-01  0.90007750872E+02  0.90000012383E+02 0.  0.
        -12    1    1    2    0    0 -0.10585510784E+01  0.52035428705E+00  0.41097865785E-01  0.11802491280E+01  0.00000000000E+00 0.  1.
         11    1    3    3    0    0  0.35981021942E+01  0.71798743029E+01 -0.54419228128E+01  0.97011060487E+01  0.51100000000E-03 0. -1.
        -11    1    3    3    0    0 -0.22448067601E+01  0.30975103498E+02  0.22163523327E+02  0.38153872158E+02  0.51100000000E-03 0.  1.
         12    1    3    3    0    0 -0.29474435563E+00 -0.38675332088E+02 -0.16762698380E+02  0.42152772665E+02  0.00000000000E+00 0. -1.
</event>
<event>
 7    1  0.1716782E-015  0.9000773E+02  0.7816164E-02  0.1186339E+00
        -11   -1    0    0    0    0  0.00000000000E+00  0.00000000000E+00  0.45593999997E+02  0.45594000000E+02  0.51100000000E-03 0. -1.
         11   -1    0    0    0    0 -0.00000000000E+00 -0.00000000000E+00 -0.45593999997E+02  0.45594000000E+02  0.51100000000E-03 0.  1.
    9900012    2    1    2    0    0 -0.97923825675E+00  0.65871437032E+00  0.15386901247E-01  0.90007725057E+02  0.89999986227E+02 0.  0.
        -12    1    1    2    0    0  0.97923825675E+00 -0.65871437032E+00 -0.15386901247E-01  0.11802749433E+01  0.00000000000E+00 0.  1.
         11    1    3    3    0    0 -0.23998409634E+02  0.31207803521E+02 -0.22594430160E+00  0.39368791151E+02  0.51100000000E-03 0. -1.
        -11    1    3    3    0    0 -0.50537802406E+01 -0.71674746580E+01 -0.93975065084E+01  0.12854046699E+02  0.51100000000E-03 0.  1.
        -12    1    3    3    0    0  0.28072951618E+02 -0.23381614493E+02  0.96388377113E+01  0.37784887207E+02  0.00000000000E+00 0.  1.
</event>
<event>
 7    1  0.1716782E-015  0.9000772E+02  0.7816164E-02  0.1186339E+00
        -11   -1    0    0    0    0  0.00000000000E+00  0.00000000000E+00  0.45593999997E+02  0.45594000000E+02  0.51100000000E-03 0.  1.
         11   -1    0    0    0    0 -0.00000000000E+00 -0.00000000000E+00 -0.45593999997E+02  0.45594000000E+02  0.51100000000E-03 0. -1.
    9900012    2    1    2    0    0  0.10317833127E+01  0.28279931024E+00  0.49850313205E+00  0.90007721377E+02  0.89999982500E+02 0.  0.
        -12    1    1    2    0    0 -0.10317833127E+01 -0.28279931024E+00 -0.49850313205E+00  0.11802786225E+01  0.00000000000E+00 0.  1.
         11    1    3    3    0    0  0.36074301650E+01 -0.99560526537E+01 -0.21030698466E+01  0.10796269721E+02  0.51100000000E-03 0. -1.
        -11    1    3    3    0    0  0.18776971894E+02 -0.61314788816E+01  0.33097080693E+02  0.38543306260E+02  0.51100000000E-03 0.  1.
         12    1    3    3    0    0 -0.21352618746E+02  0.16370330846E+02 -0.30495507714E+02  0.40668145397E+02  0.00000000000E+00 0. -1.
</event>
<event>
 7    1  0.1716782E-015  0.9000766E+02  0.7816164E-02  0.1186339E+00
        -11   -1    0    0    0    0  0.00000000000E+00  0.00000000000E+00  0.45593999997E+02  0.45594000000E+02  0.51100000000E-03 0.  1.
         11   -1    0    0    0    0 -0.00000000000E+00 -0.00000000000E+00 -0.45593999997E+02  0.45594000000E+02  0.51100000000E-03 0. -1.
    9900012    2    1    2    0    0  0.69501868523E+00 -0.65670848816E+00  0.69201667434E+00  0.90007659334E+02  0.89999919637E+02 0.  0.
        -12    1    1    2    0    0 -0.69501868523E+00  0.65670848816E+00 -0.69201667434E+00  0.11803406664E+01  0.00000000000E+00 0.  1.
         11    1    3    3    0    0 -0.91677037515E+01 -0.27444319459E+01 -0.39520909168E+01  0.10353633259E+02  0.51100000000E-03 0. -1.
        -11    1    3    3    0    0 -0.34643296679E+02  0.28009967510E+01  0.51726709405E+01  0.35139153554E+02  0.51100000000E-03 0.  1.
         12    1    3    3    0    0  0.44506019116E+02 -0.71327329328E+00 -0.52856334937E+00  0.44514872521E+02  0.00000000000E+00 0. -1.
</event>
<event>
 7    1  0.1716782E-015  0.9000777E+02  0.7816164E-02  0.1186339E+00
        -11   -1    0    0    0    0  0.00000000000E+00  0.00000000000E+00  0.45593999997E+02  0.45594000000E+02  0.51100000000E-03 0.  1.
         11   -1    0    0    0    0 -0.00000000000E+00 -0.00000000000E+00 -0.45593999997E+02  0.45594000000E+02  0.51100000000E-03 0. -1.
    9900012    2    1    2    0    0  0.54871752937E+00  0.34734152108E+00 -0.98549507522E+00  0.90007772224E+02  0.90000034018E+02 0.  0.
        -12    1    1    2    0    0 -0.54871752937E+00 -0.34734152108E+00  0.98549507522E+00  0.11802277757E+01  0.00000000000E+00 0.  1.
         11    1    3    3    0    0 -0.37953875222E+00  0.22545369675E+01 -0.90545047870E+01  0.93386853358E+01  0.51100000000E-03 0. -1.
        -11    1    3    3    0    0  0.15964747653E+02 -0.36582852231E+02  0.14228802860E+02  0.42374958124E+02  0.51100000000E-03 0.  1.
         12    1    3    3    0    0 -0.15036491372E+02  0.34675656784E+02 -0.61597931480E+01  0.38294128764E+02  0.00000000000E+00 0. -1.
</event>
<event>
 7    1  0.1716782E-015  0.9000769E+02  0.7816164E-02  0.1186339E+00
        -11   -1    0    0    0    0  0.00000000000E+00  0.00000000000E+00  0.45593999997E+02  0.45594000000E+02  0.51100000000E-03 0.  1.
         11   -1    0    0    0    0 -0.00000000000E+00 -0.00000000000E+00 -0.45593999997E+02  0.45594000000E+02  0.51100000000E-03 0. -1.
    9900012    2    1    2    0    0 -0.11364810755E+00 -0.10709153904E+00 -0.11699354304E+01  0.90007689278E+02  0.89999949976E+02 0.  0.
        -12    1    1    2    0    0  0.11364810755E+00  0.10709153904E+00  0.11699354304E+01  0.11803107224E+01  0.00000000000E+00 0.  1.
         11    1    3    3    0    0  0.60389595031E+01 -0.61062395705E+01 -0.10418237098E+02  0.13501661308E+02  0.51100000000E-03 0. -1.
        -11    1    3    3    0    0 -0.28775640606E+02 -0.24619334183E+02  0.50615764638E+01  0.38206919065E+02  0.51100000000E-03 0.  1.
         12    1    3    3    0    0  0.22623032995E+02  0.30618482214E+02  0.41867252042E+01  0.38299108905E+02  0.00000000000E+00 0. -1.
</event>
<event>
 7    1  0.1716782E-015  0.9000767E+02  0.7816164E-02  0.1186339E+00
        -11   -1    0    0    0    0  0.00000000000E+00  0.00000000000E+00  0.45593999997E+02  0.45594000000E+02  0.51100000000E-03 0.  1.
         11   -1    0    0    0    0 -0.00000000000E+00 -0.00000000000E+00 -0.45593999997E+02  0.45594000000E+02  0.51100000000E-03 0. -1.
    9900012    2    1    2    0    0 -0.52165425487E+00 -0.81461332922E-01 -0.10556561556E+01  0.90007674185E+02  0.89999934684E+02 0.  0.
        -12    1    1    2    0    0  0.52165425487E+00  0.81461332922E-01  0.10556561556E+01  0.11803258148E+01  0.00000000000E+00 0.  1.
         11    1    3    3    0    0 -0.32657016409E+02  0.36252832592E+01  0.12301635664E+02  0.35084948906E+02  0.51100000000E-03 0. -1.
        -11    1    3    3    0    0 -0.10427189886E+02  0.60349861269E+00 -0.16943942236E+01  0.10581184789E+02  0.51100000000E-03 0.  1.
        -12    1    3    3    0    0  0.42562552040E+02 -0.43102432048E+01 -0.11662897596E+02  0.44341540490E+02  0.00000000000E+00 0.  1.
</event>
<event>
 7    1  0.1716782E-015  0.9000776E+02  0.7816164E-02  0.1186339E+00
        -11   -1    0    0    0    0  0.00000000000E+00  0.00000000000E+00  0.45593999997E+02  0.45594000000E+02  0.51100000000E-03 0.  1.
         11   -1    0    0    0    0 -0.00000000000E+00 -0.00000000000E+00 -0.45593999997E+02  0.45594000000E+02  0.51100000000E-03 0. -1.
    9900012    2    1    2    0    0  0.57313410867E+00  0.10224636942E+01  0.13804302260E+00  0.90007758250E+02  0.90000019859E+02 0.  0.
        -12    1    1    2    0    0 -0.57313410867E+00 -0.10224636942E+01 -0.13804302260E+00  0.11802417500E+01  0.00000000000E+00 0.  1.
         11    1    3    3    0    0 -0.37747071994E+01 -0.48281257055E+01  0.75409548328E+01  0.97172636231E+01  0.51100000000E-03 0. -1.
        -11    1    3    3    0    0  0.13704538250E+02 -0.21635831828E+02  0.25683328942E+02  0.36270607568E+02  0.51100000000E-03 0.  1.
         12    1    3    3    0    0 -0.93566969419E+01  0.27486421228E+02 -0.33086240752E+02  0.44019887059E+02  0.00000000000E+00 0. -1.
</event>
<event>
 7    1  0.1716782E-015  0.9000772E+02  0.7816164E-02  0.1186339E+00
        -11   -1    0    0    0    0  0.00000000000E+00  0.00000000000E+00  0.45593999997E+02  0.45594000000E+02  0.51100000000E-03 0.  1.
         11   -1    0    0    0    0 -0.00000000000E+00 -0.00000000000E+00 -0.45593999997E+02  0.45594000000E+02  0.51100000000E-03 0. -1.
    9900012    2    1    2    0    0  0.10380376353E+01 -0.42221829201E+00  0.37050842258E+00  0.90007717445E+02  0.89999978515E+02 0.  0.
        -12    1    1    2    0    0 -0.10380376353E+01  0.42221829201E+00 -0.37050842258E+00  0.11802825550E+01  0.00000000000E+00 0.  1.
         11    1    3    3    0    0  0.43180856677E+01  0.12235539403E+02 -0.35715666429E+02  0.37999514695E+02  0.51100000000E-03 0. -1.
        -11    1    3    3    0    0  0.33044209953E+01 -0.82199614354E+01 -0.49924826119E+01  0.10169161568E+02  0.51100000000E-03 0.  1.
        -12    1    3    3    0    0 -0.65844690278E+01 -0.44377962598E+01  0.41078657463E+02  0.41839041182E+02  0.00000000000E+00 0.  1.
</event>
<event>
 7    1  0.1716782E-015  0.9000771E+02  0.7816164E-02  0.1186339E+00
        -11   -1    0    0    0    0  0.00000000000E+00  0.00000000000E+00  0.45593999997E+02  0.45594000000E+02  0.51100000000E-03 0.  1.
         11   -1    0    0    0    0 -0.00000000000E+00 -0.00000000000E+00 -0.45593999997E+02  0.45594000000E+02  0.51100000000E-03 0. -1.
    9900012    2    1    2    0    0 -0.36103622371E+00  0.10236069302E+01 -0.46364964259E+00  0.90007707963E+02  0.89999968908E+02 0.  0.
        -12    1    1    2    0    0  0.36103622371E+00 -0.10236069302E+01  0.46364964259E+00  0.11802920374E+01  0.00000000000E+00 0.  1.
         11    1    3    3    0    0 -0.19278865693E+01  0.10654113025E+02  0.44248597512E+01  0.11696420608E+02  0.51100000000E-03 0. -1.
        -11    1    3    3    0    0  0.34074407447E+02 -0.23117828760E+02  0.56751144025E+01  0.41565685044E+02  0.51100000000E-03 0.  1.
         12    1    3    3    0    0 -0.32507557102E+02  0.13487322666E+02 -0.10563623796E+02  0.36745602310E+02  0.00000000000E+00 0. -1.
</event>
<event>
 7    1  0.2061060E-015  0.9000773E+02  0.7816164E-02  0.1186339E+00
        -11   -1    0    0    0    0  0.00000000000E+00  0.00000000000E+00  0.45593999997E+02  0.45594000000E+02  0.51100000000E-03 0. -1.
         11   -1    0    0    0    0 -0.00000000000E+00 -0.00000000000E+00 -0.45593999997E+02  0.45594000000E+02  0.51100000000E-03 0.  1.
    9900012    2    1    2    0    0  0.50722598225E+00  0.90826209318E+00  0.55750398823E+00  0.90007733537E+02  0.89999994820E+02 0.  0.
        -12    1    1    2    0    0 -0.50722598225E+00 -0.90826209318E+00 -0.55750398823E+00  0.11802664631E+01  0.00000000000E+00 0.  1.
         11    1    3    3    0    0 -0.10531656411E+02  0.35162578125E+02  0.14690524280E+02  0.39536491891E+02  0.51100000000E-03 0. -1.
        -11    1    3    3    0    0 -0.21249281679E+01  0.38527838129E+01 -0.87536645076E+01  0.97972396827E+01  0.51100000000E-03 0.  1.
        -12    1    3    3    0    0  0.13163810561E+02 -0.38107099845E+02 -0.53793557845E+01  0.40674001963E+02  0.00000000000E+00 0.  1.
</event>
<event>
 7    1  0.1716782E-015  0.9000778E+02  0.7816164E-02  0.1186339E+00
        -11   -1    0    0    0    0  0.00000000000E+00  0.00000000000E+00  0.45593999997E+02  0.45594000000E+02  0.51100000000E-03 0. -1.
         11   -1    0    0    0    0 -0.00000000000E+00 -0.00000000000E+00 -0.45593999997E+02  0.45594000000E+02  0.51100000000E-03 0.  1.
    9900012    2    1    2    0    0 -0.21208254185E+00  0.11598779002E+01 -0.51307636102E-01  0.90007776199E+02  0.90000038044E+02 0.  0.
        -12    1    1    2    0    0  0.21208254185E+00 -0.11598779002E+01  0.51307636102E-01  0.11802238015E+01  0.00000000000E+00 0.  1.
         11    1    3    3    0    0  0.82780062130E+01 -0.53337752101E+01  0.21676198881E+01  0.10083309035E+02  0.51100000000E-03 0. -1.
        -11    1    3    3    0    0  0.18656049196E+02  0.30855641347E+02 -0.17859271464E+02  0.40237698146E+02  0.51100000000E-03 0.  1.
         12    1    3    3    0    0 -0.27146137951E+02 -0.24361988237E+02  0.15640343940E+02  0.39686769018E+02  0.00000000000E+00 0. -1.
</event>
<event>
 7    1  0.1716782E-015  0.9000756E+02  0.7816164E-02  0.1186339E+00
        -11   -1    0    0    0    0  0.00000000000E+00  0.00000000000E+00  0.45593999997E+02  0.45594000000E+02  0.51100000000E-03 0.  1.
         11   -1    0    0    0    0 -0.00000000000E+00 -0.00000000000E+00 -0.45593999997E+02  0.45594000000E+02  0.51100000000E-03 0. -1.
    9900012    2    1    2    0    0 -0.67467055299E+00 -0.76265981124E+00  0.59716562266E+00  0.90007560623E+02  0.89999819623E+02 0.  0.
        -12    1    1    2    0    0  0.67467055299E+00  0.76265981124E+00 -0.59716562266E+00  0.11804393774E+01  0.00000000000E+00 0.  1.
         11    1    3    3    0    0 -0.57099895241E+00  0.73234175553E+01  0.11970562493E+02  0.14044673409E+02  0.51100000000E-03 0. -1.
        -11    1    3    3    0    0  0.35957785407E+02 -0.14451017448E+01 -0.15262092325E+02  0.39089411774E+02  0.51100000000E-03 0.  1.
         12    1    3    3    0    0 -0.36061457007E+02 -0.66409756217E+01  0.38886954543E+01  0.36873475440E+02  0.00000000000E+00 0. -1.
</event>
<event>
 7    1  0.1716782E-015  0.9000776E+02  0.7816164E-02  0.1186339E+00
        -11   -1    0    0    0    0  0.00000000000E+00  0.00000000000E+00  0.45593999997E+02  0.45594000000E+02  0.51100000000E-03 0. -1.
         11   -1    0    0    0    0 -0.00000000000E+00 -0.00000000000E+00 -0.45593999997E+02  0.45594000000E+02  0.51100000000E-03 0.  1.
    9900012    2    1    2    0    0  0.31141974889E+00  0.44878042329E+00  0.10462185681E+01  0.90007762981E+02  0.90000024653E+02 0.  0.
        -12    1    1    2    0    0 -0.31141974889E+00 -0.44878042329E+00 -0.10462185681E+01  0.11802370188E+01  0.00000000000E+00 0.  1.
         11    1    3    3    0    0  0.10621509517E+01 -0.44753554243E+01 -0.70670542608E+00  0.46536441246E+01  0.51100000000E-03 0. -1.
        -11    1    3    3    0    0  0.13240102973E+02 -0.37408184464E+02 -0.58978359708E+01  0.40118039098E+02  0.51100000000E-03 0.  1.
         12    1    3    3    0    0 -0.13990834176E+02  0.42332320312E+02  0.76507599650E+01  0.45236079759E+02  0.00000000000E+00 0. -1.
</event>
<event>
 7    1  0.1716782E-015  0.9000759E+02  0.7816164E-02  0.1186339E+00
        -11   -1    0    0    0    0  0.00000000000E+00  0.00000000000E+00  0.45593999997E+02  0.45594000000E+02  0.51100000000E-03 0. -1.
         11   -1    0    0    0    0 -0.00000000000E+00 -0.00000000000E+00 -0.45593999997E+02  0.45594000000E+02  0.51100000000E-03 0.  1.
    9900012    2    1    2    0    0  0.89819355290E+00  0.76149070204E+00  0.82123915550E-01  0.90007591560E+02  0.89999850968E+02 0.  0.
        -12    1    1    2    0    0 -0.89819355290E+00 -0.76149070204E+00 -0.82123915550E-01  0.11804084400E+01  0.00000000000E+00 0.  1.
         11    1    3    3    0    0  0.69020268713E+01  0.78354310622E+01 -0.31439522011E+01  0.10904879209E+02  0.51100000000E-03 0. -1.
        -11    1    3    3    0    0  0.29808486191E+02  0.17084313770E+02 -0.61363412104E+01  0.34900921330E+02  0.51100000000E-03 0.  1.
         12    1    3    3    0    0 -0.35812319509E+02 -0.24158254130E+02  0.93624173271E+01  0.44201791021E+02  0.00000000000E+00 0. -1.
</event>
<event>
 7    1  0.1716782E-015  0.9000773E+02  0.7816164E-02  0.1186339E+00
        -11   -1    0    0    0    0  0.00000000000E+00  0.00000000000E+00  0.45593999997E+02  0.45594000000E+02  0.51100000000E-03 0.  1.
         11   -1    0    0    0    0 -0.00000000000E+00 -0.00000000000E+00 -0.45593999997E+02  0.45594000000E+02  0.51100000000E-03 0. -1.
    9900012    2    1    2    0    0  0.39125410506E+00  0.11081400829E+01 -0.10942769587E+00  0.90007733658E+02  0.89999994942E+02 0.  0.
        -12    1    1    2    0    0 -0.39125410506E+00 -0.11081400829E+01  0.10942769587E+00  0.11802663423E+01  0.00000000000E+00 0.  1.
         11    1    3    3    0    0 -0.26334674778E+02  0.28800482385E+02 -0.11927662045E+02  0.40807499352E+02  0.51100000000E-03 0. -1.
        -11    1    3    3    0    0  0.65006565412E+01  0.29647366975E+01 -0.50850104636E+01  0.87695798547E+01  0.51100000000E-03 0.  1.
        -12    1    3    3    0    0  0.20225272342E+02 -0.30657079000E+02  0.16903244813E+02  0.40430654451E+02  0.00000000000E+00 0.  1.
</event>
<event>
 7    1  0.1716782E-015  0.9000779E+02  0.7816164E-02  0.1186339E+00
        -11   -1    0    0    0    0  0.00000000000E+00  0.00000000000E+00  0.45593999997E+02  0.45594000000E+02  0.51100000000E-03 0. -1.
         11   -1    0    0    0    0 -0.00000000000E+00 -0.00000000000E+00 -0.45593999997E+02  0.45594000000E+02  0.51100000000E-03 0.  1.
    9900012    2    1    2    0    0 -0.79282155857E+00 -0.69906455539E+00  0.52501767464E+00  0.90007787801E+02  0.90000049800E+02 0.  0.
        -12    1    1    2    0    0  0.79282155857E+00  0.69906455539E+00 -0.52501767464E+00  0.11802121991E+01  0.00000000000E+00 0.  1.
         11    1    3    3    0    0  0.76402610574E+01 -0.19294599041E+01 -0.44528359992E+01  0.90511962328E+01  0.51100000000E-03 0. -1.
        -11    1    3    3    0    0 -0.24518260772E+02 -0.69374693573E+01 -0.31348092571E+02  0.40397728902E+02  0.51100000000E-03 0.  1.
         12    1    3    3    0    0  0.16085178156E+02  0.81678647059E+01  0.36325946245E+02  0.40558862666E+02  0.00000000000E+00 0. -1.
</event>
<event>
 7    1  0.2650111E-015  0.9000749E+02  0.7816164E-02  0.1186340E+00
        -11   -1    0    0    0    0  0.00000000000E+00  0.00000000000E+00  0.45593999997E+02  0.45594000000E+02  0.51100000000E-03 0. -1.
         11   -1    0    0    0    0 -0.00000000000E+00 -0.00000000000E+00 -0.45593999997E+02  0.45594000000E+02  0.51100000000E-03 0.  1.
    9900012    2    1    2    0    0 -0.52628640047E+00 -0.11014530894E+00  0.10509530508E+01  0.90007486688E+02  0.89999744712E+02 0.  0.
        -12    1    1    2    0    0  0.52628640047E+00  0.11014530894E+00 -0.10509530508E+01  0.11805133118E+01  0.00000000000E+00 0.  1.
         11    1    3    3    0    0 -0.14820906769E+02  0.32254277822E+02  0.16018226904E+02  0.38943308907E+02  0.51100000000E-03 0. -1.
        -11    1    3    3    0    0  0.13619229800E+01 -0.13213100288E+01  0.93649780749E+01  0.95552869659E+01  0.51100000000E-03 0.  1.
        -12    1    3    3    0    0  0.12932697388E+02 -0.31043113102E+02 -0.24332251928E+02  0.41508890815E+02  0.00000000000E+00 0.  1.
</event>
<event>
 7    1  0.1716782E-015  0.9000773E+02  0.7816164E-02  0.1186339E+00
        -11   -1    0    0    0    0  0.00000000000E+00  0.00000000000E+00  0.45593999997E+02  0.45594000000E+02  0.51100000000E-03 0.  1.
         11   -1    0    0    0    0 -0.00000000000E+00 -0.00000000000E+00 -0.45593999997E+02  0.45594000000E+02  0.51100000000E-03 0. -1.
    9900012    2    1    2    0    0  0.72179925782E+00  0.50718455489E+00 -0.78410085197E+00  0.90007726944E+02  0.89999988139E+02 0.  0.
        -12    1    1    2    0    0 -0.72179925782E+00 -0.50718455489E+00  0.78410085197E+00  0.11802730563E+01  0.00000000000E+00 0.  1.
         11    1    3    3    0    0 -0.11624754667E+01 -0.26475863062E+01  0.99796874798E+01  0.10390150380E+02  0.51100000000E-03 0. -1.
        -11    1    3    3    0    0  0.28592538561E+02  0.96138225432E+01  0.21645094079E+02  0.37127738191E+02  0.51100000000E-03 0.  1.
         12    1    3    3    0    0 -0.26708263836E+02 -0.64590516821E+01 -0.32408882411E+02  0.42489838373E+02  0.00000000000E+00 0. -1.
</event>
<event>
 7    1  0.1716782E-015  0.9000770E+02  0.7816164E-02  0.1186339E+00
        -11   -1    0    0    0    0  0.00000000000E+00  0.00000000000E+00  0.45593999997E+02  0.45594000000E+02  0.51100000000E-03 0.  1.
         11   -1    0    0    0    0 -0.00000000000E+00 -0.00000000000E+00 -0.45593999997E+02  0.45594000000E+02  0.51100000000E-03 0. -1.
    9900012    2    1    2    0    0 -0.60078237606E+00  0.34675759148E+00 -0.95495428750E+00  0.90007695810E+02  0.89999956594E+02 0.  0.
        -12    1    1    2    0    0  0.60078237606E+00 -0.34675759148E+00  0.95495428750E+00  0.11803041904E+01  0.00000000000E+00 0.  1.
         11    1    3    3    0    0 -0.67557518117E+01 -0.50953373893E+01  0.32300288324E+01  0.90573579023E+01  0.51100000000E-03 0. -1.
        -11    1    3    3    0    0  0.11755624762E+02  0.25736289583E+02  0.29724019816E+02  0.41037405733E+02  0.51100000000E-03 0.  1.
         12    1    3    3    0    0 -0.56006553266E+01 -0.20294194602E+02 -0.33909002936E+02  0.39912932174E+02  0.00000000000E+00 0. -1.
</event>
<event>
 7    1  0.1860882E-015  0.9000777E+02  0.7816164E-02  0.1186339E+00
        -11   -1    0    0    0    0  0.00000000000E+00  0.00000000000E+00  0.45593999997E+02  0.45594000000E+02  0.51100000000E-03 0. -1.
         11   -1    0    0    0    0 -0.00000000000E+00 -0.00000000000E+00 -0.45593999997E+02  0.45594000000E+02  0.51100000000E-03 0.  1.
    9900012    2    1    2    0    0  0.51498008536E+00 -0.32332893055E+00  0.10115367568E+01  0.90007765830E+02  0.90000027539E+02 0.  0.
        -12    1    1    2    0    0 -0.51498008536E+00  0.32332893055E+00 -0.10115367568E+01  0.11802341700E+01  0.00000000000E+00 0.  1.
         11    1    3    3    0    0 -0.12025362738E+02  0.12241214948E+02  0.31453350147E+02  0.35829735251E+02  0.51100000000E-03 0. -1.
        -11    1    3    3    0    0  0.25189429784E+01  0.59374634211E+01  0.80471485248E+01  0.10312863096E+02  0.51100000000E-03 0.  1.
        -12    1    3    3    0    0  0.10021399845E+02 -0.18502007300E+02 -0.38488961915E+02  0.43865167483E+02  0.00000000000E+00 0.  1.
</event>
<event>
 7    1  0.1716782E-015  0.9000793E+02  0.7816164E-02  0.1186339E+00
        -11   -1    0    0    0    0  0.00000000000E+00  0.00000000000E+00  0.45593999997E+02  0.45594000000E+02  0.51100000000E-03 0. -1.
         11   -1    0    0    0    0 -0.00000000000E+00 -0.00000000000E+00 -0.45593999997E+02  0.45594000000E+02  0.51100000000E-03 0.  1.
    9900012    2    1    2    0    0 -0.24995907250E+00  0.66811523806E-01  0.11513534194E+01  0.90007933047E+02  0.90000196963E+02 0.  0.
        -12    1    1    2    0    0  0.24995907250E+00 -0.66811523806E-01 -0.11513534194E+01  0.11800669532E+01  0.00000000000E+00 0.  1.
         11    1    3    3    0    0 -0.21569082791E+02  0.11244995112E+02  0.26169617991E+02  0.35728478188E+02  0.51100000000E-03 0. -1.
        -11    1    3    3    0    0 -0.27676938735E+01 -0.71713613395E+01  0.93600604191E+01  0.12111947992E+02  0.51100000000E-03 0.  1.
        -12    1    3    3    0    0  0.24086817592E+02 -0.40068222485E+01 -0.34378324991E+02  0.42167506868E+02  0.00000000000E+00 0.  1.
</event>
<event>
 7    1  0.1716782E-015  0.9000645E+02  0.7816164E-02  0.1186342E+00
        -11   -1    0    0    0    0  0.00000000000E+00  0.00000000000E+00  0.45593999997E+02  0.45594000000E+02  0.51100000000E-03 0. -1.
         11   -1    0    0    0    0 -0.00000000000E+00 -0.00000000000E+00 -0.45593999997E+02  0.45594000000E+02  0.51100000000E-03 0.  1.
    9900012    2    1    2    0    0 -0.31776954292E+00 -0.59802602066E+00  0.96821576719E+00  0.90006452550E+02  0.89998696915E+02 0.  0.
        -12    1    1    2    0    0  0.31776954292E+00  0.59802602066E+00 -0.96821576719E+00  0.11815474496E+01  0.00000000000E+00 0.  1.
         11    1    3    3    0    0  0.29068972768E+02 -0.32205809044E+02 -0.24836715498E+01  0.43455585816E+02  0.51100000000E-03 0. -1.
        -11    1    3    3    0    0 -0.74672377720E+01 -0.12404171946E-01 -0.19014659132E+01  0.77055412975E+01  0.51100000000E-03 0.  1.
        -12    1    3    3    0    0 -0.21919504539E+02  0.31620187195E+02  0.53533532302E+01  0.38845325437E+02  0.00000000000E+00 0.  1.
</event>
<event>
 7    1  0.1716782E-015  0.9000790E+02  0.7816164E-02  0.1186339E+00
        -11   -1    0    0    0    0  0.00000000000E+00  0.00000000000E+00  0.45593999997E+02  0.45594000000E+02  0.51100000000E-03 0.  1.
         11   -1    0    0    0    0 -0.00000000000E+00 -0.00000000000E+00 -0.45593999997E+02  0.45594000000E+02  0.51100000000E-03 0. -1.
    9900012    2    1    2    0    0  0.61331671624E+00 -0.56994292393E+00  0.83164793083E+00  0.90007902287E+02  0.90000165797E+02 0.  0.
        -12    1    1    2    0    0 -0.61331671624E+00  0.56994292393E+00 -0.83164793083E+00  0.11800977128E+01  0.00000000000E+00 0.  1.
         11    1    3    3    0    0 -0.66687015406E+00 -0.95678455403E+00  0.98150468622E+01  0.98840931629E+01  0.51100000000E-03 0. -1.
        -11    1    3    3    0    0  0.13484278229E+02 -0.20216272612E+02  0.27364402129E+02  0.36596911643E+02  0.51100000000E-03 0.  1.
         12    1    3    3    0    0 -0.12204091359E+02  0.20603114243E+02 -0.36347801060E+02  0.43526897481E+02  0.00000000000E+00 0. -1.
</event>
<event>
 7    1  0.1716782E-015  0.9000774E+02  0.7816164E-02  0.1186339E+00
        -11   -1    0    0    0    0  0.00000000000E+00  0.00000000000E+00  0.45593999997E+02  0.45594000000E+02  0.51100000000E-03 0.  1.
         11   -1    0    0    0    0 -0.00000000000E+00 -0.00000000000E+00 -0.45593999997E+02  0.45594000000E+02  0.51100000000E-03 0. -1.
    9900012    2    1    2    0    0  0.14661292591E+00 -0.10817921494E+01 -0.44859368456E+00  0.90007743291E+02  0.90000004703E+02 0.  0.
        -12    1    1    2    0    0 -0.14661292591E+00  0.10817921494E+01  0.44859368456E+00  0.11802567087E+01  0.00000000000E+00 0.  1.
         11    1    3    3    0    0  0.53573283408E+01 -0.55861781606E+01  0.11179103095E+02  0.13597010688E+02  0.51100000000E-03 0. -1.
        -11    1    3    3    0    0  0.29994497702E+02 -0.51381100962E+01  0.12237270817E+02  0.32799708307E+02  0.51100000000E-03 0.  1.
        -12    1    3    3    0    0 -0.35205213116E+02  0.96424961073E+01 -0.23864967596E+02  0.43611024296E+02  0.00000000000E+00 0.  1.
</event>
<event>
 7    1  0.1716782E-015  0.9000788E+02  0.7816164E-02  0.1186339E+00
        -11   -1    0    0    0    0  0.00000000000E+00  0.00000000000E+00  0.45593999997E+02  0.45594000000E+02  0.51100000000E-03 0.  1.
         11   -1    0    0    0    0 -0.00000000000E+00 -0.00000000000E+00 -0.45593999997E+02  0.45594000000E+02  0.51100000000E-03 0. -1.
    9900012    2    1    2    0    0  0.78786048201E-01 -0.11183220911E+01  0.36855401276E+00  0.90007879836E+02  0.90000143050E+02 0.  0.
        -12    1    1    2    0    0 -0.78786048201E-01  0.11183220911E+01 -0.36855401276E+00  0.11801201639E+01  0.00000000000E+00 0.  1.
         11    1    3    3    0    0 -0.34543631347E+02  0.22255888290E+02 -0.13300055715E+02  0.43191185588E+02  0.51100000000E-03 0. -1.
        -11    1    3    3    0    0  0.11975999406E+01 -0.58591795609E+01  0.56731311750E+01  0.82430970111E+01  0.51100000000E-03 0.  1.
        -12    1    3    3    0    0  0.33424817455E+02 -0.17515030820E+02  0.79954785532E+01  0.38573597237E+02  0.00000000000E+00 0.  1.
</event>
<event>
 7    1  0.1716782E-015  0.9000772E+02  0.7816164E-02  0.1186339E+00
        -11   -1    0    0    0    0  0.00000000000E+00  0.00000000000E+00  0.45593999997E+02  0.45594000000E+02  0.51100000000E-03 0. -1.
         11   -1    0    0    0    0 -0.00000000000E+00 -0.00000000000E+00 -0.45593999997E+02  0.45594000000E+02  0.51100000000E-03 0.  1.
    9900012    2    1    2    0    0  0.71388956061E+00 -0.92962060613E+00  0.13862728560E+00  0.90007724481E+02  0.89999985644E+02 0.  0.
        -12    1    1    2    0    0 -0.71388956061E+00  0.92962060613E+00 -0.13862728560E+00  0.11802755189E+01  0.00000000000E+00 0.  1.
         11    1    3    3    0    0  0.18536146699E+02 -0.19187352205E+02  0.31224314465E+02  0.41069465947E+02  0.51100000000E-03 0. -1.
        -11    1    3    3    0    0 -0.93521110815E+01  0.34205504843E+01  0.33425561210E+01  0.10504038699E+02  0.51100000000E-03 0.  1.
        -12    1    3    3    0    0 -0.84701460567E+01  0.14837181115E+02 -0.34428243300E+02  0.38434219836E+02  0.00000000000E+00 0.  1.
</event>
<event>
 7    1  0.1716782E-015  0.9000775E+02  0.7816164E-02  0.1186339E+00
        -11   -1    0    0    0    0  0.00000000000E+00  0.00000000000E+00  0.45593999997E+02  0.45594000000E+02  0.51100000000E-03 0.  1.
         11   -1    0    0    0    0 -0.00000000000E+00 -0.00000000000E+00 -0.45593999997E+02  0.45594000000E+02  0.51100000000E-03 0. -1.
    9900012    2    1    2    0    0 -0.10748391494E+01 -0.36785716210E+00  0.31997869552E+00  0.90007752376E+02  0.90000013907E+02 0.  0.
        -12    1    1    2    0    0  0.10748391494E+01  0.36785716210E+00 -0.31997869552E+00  0.11802476242E+01  0.00000000000E+00 0.  1.
         11    1    3    3    0    0  0.28266837322E+01  0.34613081269E+01 -0.35600869665E+01  0.57135815687E+01  0.51100000000E-03 0. -1.
        -11    1    3    3    0    0  0.74331478087E+01  0.39097536776E+02  0.24506221221E+01  0.39873231840E+02  0.51100000000E-03 0.  1.
         12    1    3    3    0    0 -0.11334670690E+02 -0.42926702065E+02  0.14294435399E+01  0.44420938967E+02  0.00000000000E+00 0. -1.
</event>
<event>
 7    1  0.1716782E-015  0.9000764E+02  0.7816164E-02  0.1186339E+00
        -11   -1    0    0    0    0  0.00000000000E+00  0.00000000000E+00  0.45593999997E+02  0.45594000000E+02  0.51100000000E-03 0.  1.
         11   -1    0    0    0    0 -0.00000000000E+00 -0.00000000000E+00 -0.45593999997E+02  0.45594000000E+02  0.51100000000E-03 0. -1.
    9900012    2    1    2    0    0 -0.62732381079E+00  0.66161214675E+00 -0.74965209443E+00  0.90007642402E+02  0.89999902482E+02 0.  0.
        -12    1    1    2    0    0  0.62732381079E+00 -0.66161214675E+00  0.74965209443E+00  0.11803575979E+01  0.00000000000E+00 0.  1.
         11    1    3    3    0    0 -0.15220746009E+01  0.57110064990E+00 -0.95600164052E+01  0.96972563631E+01  0.51100000000E-03 0. -1.
        -11    1    3    3    0    0 -0.19892083689E+02  0.33254921995E+02  0.13171767100E+02  0.40927744614E+02  0.51100000000E-03 0.  1.
         12    1    3    3    0    0  0.20786834479E+02 -0.33164410498E+02 -0.43614027896E+01  0.39382641425E+02  0.00000000000E+00 0. -1.
</event>
<event>
 7    1  0.1804027E-015  0.9000754E+02  0.7816164E-02  0.1186339E+00
        -11   -1    0    0    0    0  0.00000000000E+00  0.00000000000E+00  0.45593999997E+02  0.45594000000E+02  0.51100000000E-03 0. -1.
         11   -1    0    0    0    0 -0.00000000000E+00 -0.00000000000E+00 -0.45593999997E+02  0.45594000000E+02  0.51100000000E-03 0.  1.
    9900012    2    1    2    0    0 -0.63257267801E+00  0.13752462215E+00  0.98712352865E+00  0.90007544971E+02  0.89999803764E+02 0.  0.
        -12    1    1    2    0    0  0.63257267801E+00 -0.13752462215E+00 -0.98712352865E+00  0.11804550290E+01  0.00000000000E+00 0.  1.
         11    1    3    3    0    0  0.26470259884E+02 -0.98041555641E+01  0.27620977625E+02  0.39493221316E+02  0.51100000000E-03 0. -1.
        -11    1    3    3    0    0  0.71015283144E+01  0.73942562226E+00 -0.70786849091E+01  0.10054165055E+02  0.51100000000E-03 0.  1.
        -12    1    3    3    0    0 -0.34204360876E+02  0.92022545640E+01 -0.19555169187E+02  0.40460158600E+02  0.00000000000E+00 0.  1.
</event>
<event>
 7    1  0.1716782E-015  0.9000773E+02  0.7816164E-02  0.1186339E+00
        -11   -1    0    0    0    0  0.00000000000E+00  0.00000000000E+00  0.45593999997E+02  0.45594000000E+02  0.51100000000E-03 0. -1.
         11   -1    0    0    0    0 -0.00000000000E+00 -0.00000000000E+00 -0.45593999997E+02  0.45594000000E+02  0.51100000000E-03 0.  1.
    9900012    2    1    2    0    0  0.80764846144E+00  0.66324772370E+00  0.54848769218E+00  0.90007732095E+02  0.89999993358E+02 0.  0.
        -12    1    1    2    0    0 -0.80764846144E+00 -0.66324772370E+00 -0.54848769218E+00  0.11802679055E+01  0.00000000000E+00 0.  1.
         11    1    3    3    0    0 -0.21483060083E+01 -0.86023041942E+01  0.13409269032E+01  0.89673263226E+01  0.51100000000E-03 0. -1.
        -11    1    3    3    0    0 -0.27369278235E+02 -0.15977776060E+02 -0.19670385197E+02  0.37300010362E+02  0.51100000000E-03 0.  1.
         12    1    3    3    0    0  0.30325232704E+02  0.25243327978E+02  0.18877945986E+02  0.43740395410E+02  0.00000000000E+00 0. -1.
</event>
<event>
 7    1  0.1716782E-015  0.9000776E+02  0.7816164E-02  0.1186339E+00
        -11   -1    0    0    0    0  0.00000000000E+00  0.00000000000E+00  0.45593999997E+02  0.45594000000E+02  0.51100000000E-03 0.  1.
         11   -1    0    0    0    0 -0.00000000000E+00 -0.00000000000E+00 -0.45593999997E+02  0.45594000000E+02  0.51100000000E-03 0. -1.
    9900012    2    1    2    0    0 -0.14450020249E+00  0.33743100686E+00 -0.11217034636E+01  0.90007763306E+02  0.90000024982E+02 0.  0.
        -12    1    1    2    0    0  0.14450020249E+00 -0.33743100686E+00  0.11217034636E+01  0.11802366937E+01  0.00000000000E+00 0.  1.
         11    1    3    3    0    0  0.18693593908E+01 -0.35829118949E+02  0.17634870043E+02  0.39977605117E+02  0.51100000000E-03 0. -1.
        -11    1    3    3    0    0 -0.73928461873E+01 -0.14622067663E+01 -0.68864570905E+01  0.10208600046E+02  0.51100000000E-03 0.  1.
        -12    1    3    3    0    0  0.53789865941E+01  0.37628756722E+02 -0.11870116416E+02  0.39821558143E+02  0.00000000000E+00 0.  1.
</event>
<event>
 7    1  0.1716782E-015  0.9000775E+02  0.7816164E-02  0.1186339E+00
        -11   -1    0    0    0    0  0.00000000000E+00  0.00000000000E+00  0.45593999997E+02  0.45594000000E+02  0.51100000000E-03 0. -1.
         11   -1    0    0    0    0 -0.00000000000E+00 -0.00000000000E+00 -0.45593999997E+02  0.45594000000E+02  0.51100000000E-03 0.  1.
    9900012    2    1    2    0    0 -0.87357893471E+00 -0.19993476058E+00  0.76803984058E+00  0.90007746103E+02  0.90000007552E+02 0.  0.
        -12    1    1    2    0    0  0.87357893471E+00  0.19993476058E+00 -0.76803984058E+00  0.11802538966E+01  0.00000000000E+00 0.  1.
         11    1    3    3    0    0  0.20366773810E+02  0.44316309449E+01  0.26724225516E+02  0.33891430450E+02  0.51100000000E-03 0. -1.
        -11    1    3    3    0    0  0.84849568463E+01  0.37106754619E+01  0.65054010853E+01  0.11317413512E+02  0.51100000000E-03 0.  1.
        -12    1    3    3    0    0 -0.29725309591E+02 -0.83422411674E+01 -0.32461586761E+02  0.44798902141E+02  0.00000000000E+00 0.  1.
</event>
<event>
 7    1  0.1716782E-015  0.9000777E+02  0.7816164E-02  0.1186339E+00
        -11   -1    0    0    0    0  0.00000000000E+00  0.00000000000E+00  0.45593999997E+02  0.45594000000E+02  0.51100000000E-03 0. -1.
         11   -1    0    0    0    0 -0.00000000000E+00 -0.00000000000E+00 -0.45593999997E+02  0.45594000000E+02  0.51100000000E-03 0.  1.
    9900012    2    1    2    0    0  0.73792612879E+00  0.61602601701E+00  0.68477186403E+00  0.90007773102E+02  0.90000034907E+02 0.  0.
        -12    1    1    2    0    0 -0.73792612879E+00 -0.61602601701E+00 -0.68477186403E+00  0.11802268981E+01  0.00000000000E+00 0.  1.
         11    1    3    3    0    0  0.17210803865E+02  0.96445420694E+01  0.52332967587E+01  0.20411182147E+02  0.51100000000E-03 0. -1.
        -11    1    3    3    0    0  0.78849604101E+01 -0.15354799472E+02 -0.29486630218E+02  0.34167291806E+02  0.51100000000E-03 0.  1.
         12    1    3    3    0    0 -0.24357838146E+02  0.63262834199E+01  0.24938105323E+02  0.35429299149E+02  0.00000000000E+00 0. -1.
</event>
<event>
 7    1  0.1716782E-015  0.9000706E+02  0.7816164E-02  0.1186340E+00
        -11   -1    0    0    0    0  0.00000000000E+00  0.00000000000E+00  0.45593999997E+02  0.45594000000E+02  0.51100000000E-03 0.  1.
         11   -1    0    0    0    0 -0.00000000000E+00 -0.00000000000E+00 -0.45593999997E+02  0.45594000000E+02  0.51100000000E-03 0. -1.
    9900012    2    1    2    0    0  0.72128345316E+00  0.38323138971E+00  0.85294273018E+00  0.90007056556E+02  0.89999308900E+02 0.  0.
        -12    1    1    2    0    0 -0.72128345316E+00 -0.38323138971E+00 -0.85294273018E+00  0.11809434444E+01  0.00000000000E+00 0.  1.
         11    1    3    3    0    0  0.75006213484E+01 -0.18813520398E+02 -0.31682006809E+02  0.37602625255E+02  0.51100000000E-03 0. -1.
        -11    1    3    3    0    0 -0.61084717494E+01 -0.69411984678E+01 -0.16234360562E+01  0.93877158123E+01  0.51100000000E-03 0.  1.
        -12    1    3    3    0    0 -0.67086614587E+00  0.26137950255E+02  0.34158385595E+02  0.43016715488E+02  0.00000000000E+00 0.  1.
</event>
<event>
 7    1  0.1716782E-015  0.9000774E+02  0.7816164E-02  0.1186339E+00
        -11   -1    0    0    0    0  0.00000000000E+00  0.00000000000E+00  0.45593999997E+02  0.45594000000E+02  0.51100000000E-03 0.  1.
         11   -1    0    0    0    0 -0.00000000000E+00 -0.00000000000E+00 -0.45593999997E+02  0.45594000000E+02  0.51100000000E-03 0. -1.
    9900012    2    1    2    0    0  0.36017731737E+00  0.88726175562E+00 -0.68996552496E+00  0.90007740050E+02  0.90000001419E+02 0.  0.
        -12    1    1    2    0    0 -0.36017731737E+00 -0.88726175562E+00  0.68996552496E+00  0.11802599496E+01  0.00000000000E+00 0.  1.
         11    1    3    3    0    0  0.31441078694E+02  0.83989456417E+01 -0.28307284451E+02  0.43132192972E+02  0.51100000000E-03 0. -1.
        -11    1    3    3    0    0  0.14152492659E+01  0.34195167114E+00  0.79618697705E+01  0.80939009096E+01  0.51100000000E-03 0.  1.
        -12    1    3    3    0    0 -0.32496150642E+02 -0.78536355572E+01  0.19655449156E+02  0.38781646169E+02  0.00000000000E+00 0.  1.
</event>
<event>
 7    1  0.1716782E-015  0.9000793E+02  0.7816164E-02  0.1186339E+00
        -11   -1    0    0    0    0  0.00000000000E+00  0.00000000000E+00  0.45593999997E+02  0.45594000000E+02  0.51100000000E-03 0. -1.
         11   -1    0    0    0    0 -0.00000000000E+00 -0.00000000000E+00 -0.45593999997E+02  0.45594000000E+02  0.51100000000E-03 0.  1.
    9900012    2    1    2    0    0 -0.65847035728E+00  0.61948940071E+00  0.75843305026E+00  0.90007927536E+02  0.90000191379E+02 0.  0.
        -12    1    1    2    0    0  0.65847035728E+00 -0.61948940071E+00 -0.75843305026E+00  0.11800724642E+01  0.00000000000E+00 0.  1.
         11    1    3    3    0    0  0.31199292095E+01  0.43030157605E+01 -0.84083522616E+01  0.99473760823E+01  0.51100000000E-03 0. -1.
        -11    1    3    3    0    0 -0.16244169956E+02  0.74722629567E+01 -0.31425579801E+02  0.36156255854E+02  0.51100000000E-03 0.  1.
         12    1    3    3    0    0  0.12465770390E+02 -0.11155789317E+02  0.40592365113E+02  0.43904295600E+02  0.00000000000E+00 0. -1.
</event>
<event>
 7    1  0.1716782E-015  0.9000751E+02  0.7816164E-02  0.1186340E+00
        -11   -1    0    0    0    0  0.00000000000E+00  0.00000000000E+00  0.45593999997E+02  0.45594000000E+02  0.51100000000E-03 0.  1.
         11   -1    0    0    0    0 -0.00000000000E+00 -0.00000000000E+00 -0.45593999997E+02  0.45594000000E+02  0.51100000000E-03 0. -1.
    9900012    2    1    2    0    0 -0.44031823214E+00  0.10799845929E+01 -0.18250911231E+00  0.90007510084E+02  0.89999768416E+02 0.  0.
        -12    1    1    2    0    0  0.44031823214E+00 -0.10799845929E+01  0.18250911231E+00  0.11804899163E+01  0.00000000000E+00 0.  1.
         11    1    3    3    0    0 -0.27528098448E+02  0.94066614530E+01 -0.42987696923E+01  0.29406817321E+02  0.51100000000E-03 0. -1.
        -11    1    3    3    0    0  0.51104082291E+01 -0.21062174693E+02  0.20937690647E+02  0.30135002322E+02  0.51100000000E-03 0.  1.
         12    1    3    3    0    0  0.21977371987E+02  0.12735497833E+02 -0.16821430067E+02  0.30465690440E+02  0.00000000000E+00 0. -1.
</event>
<event>
 7    1  0.1716782E-015  0.9000775E+02  0.7816164E-02  0.1186339E+00
        -11   -1    0    0    0    0  0.00000000000E+00  0.00000000000E+00  0.45593999997E+02  0.45594000000E+02  0.51100000000E-03 0. -1.
         11   -1    0    0    0    0 -0.00000000000E+00 -0.00000000000E+00 -0.45593999997E+02  0.45594000000E+02  0.51100000000E-03 0.  1.
    9900012    2    1    2    0    0 -0.10881967355E+00 -0.10336004175E+01  0.55929839641E+00  0.90007751619E+02  0.90000013140E+02 0.  0.
        -12    1    1    2    0    0  0.10881967355E+00  0.10336004175E+01 -0.55929839641E+00  0.11802483809E+01  0.00000000000E+00 0.  1.
         11    1    3    3    0    0  0.23200088125E+01  0.43596945869E+01 -0.97882132879E+01  0.10963507532E+02  0.51100000000E-03 0. -1.
        -11    1    3    3    0    0  0.69911377012E+01  0.13753847504E+01 -0.33211503570E+02  0.33967214476E+02  0.51100000000E-03 0.  1.
         12    1    3    3    0    0 -0.94199661873E+01 -0.67686797549E+01  0.43559015255E+02  0.45077029611E+02  0.00000000000E+00 0. -1.
</event>
<event>
 7    1  0.1716782E-015  0.9000758E+02  0.7816164E-02  0.1186339E+00
        -11   -1    0    0    0    0  0.00000000000E+00  0.00000000000E+00  0.45593999997E+02  0.45594000000E+02  0.51100000000E-03 0.  1.
         11   -1    0    0    0    0 -0.00000000000E+00 -0.00000000000E+00 -0.45593999997E+02  0.45594000000E+02  0.51100000000E-03 0. -1.
    9900012    2    1    2    0    0 -0.25060370234E-01 -0.91723490729E+00 -0.74258676139E+00  0.90007583550E+02  0.89999842853E+02 0.  0.
        -12    1    1    2    0    0  0.25060370234E-01  0.91723490729E+00  0.74258676139E+00  0.11804164500E+01  0.00000000000E+00 0.  1.
         11    1    3    3    0    0  0.59624380402E+01 -0.78951164175E+01 -0.24194130910E+00  0.98965684198E+01  0.51100000000E-03 0. -1.
        -11    1    3    3    0    0  0.23847182034E+02  0.36684988414E+01  0.29203140232E+02  0.37880989617E+02  0.51100000000E-03 0.  1.
         12    1    3    3    0    0 -0.29834680444E+02  0.33093826688E+01 -0.29703785685E+02  0.42230025513E+02  0.00000000000E+00 0. -1.
</event>
<event>
 7    1  0.1716782E-015  0.9000768E+02  0.7816164E-02  0.1186339E+00
        -11   -1    0    0    0    0  0.00000000000E+00  0.00000000000E+00  0.45593999997E+02  0.45594000000E+02  0.51100000000E-03 0.  1.
         11   -1    0    0    0    0 -0.00000000000E+00 -0.00000000000E+00 -0.45593999997E+02  0.45594000000E+02  0.51100000000E-03 0. -1.
    9900012    2    1    2    0    0  0.33660757114E+00 -0.42724991344E+00 -0.10475216156E+01  0.90007682805E+02  0.89999943418E+02 0.  0.
        -12    1    1    2    0    0 -0.33660757114E+00  0.42724991344E+00  0.10475216156E+01  0.11803171949E+01  0.00000000000E+00 0.  1.
         11    1    3    3    0    0 -0.38084691832E+01 -0.74664522105E+01 -0.49509230811E+01  0.97346795400E+01  0.51100000000E-03 0. -1.
        -11    1    3    3    0    0 -0.30300363255E+02  0.21414386274E+02 -0.12978296881E+02  0.39308067150E+02  0.51100000000E-03 0.  1.
         12    1    3    3    0    0  0.34445440009E+02 -0.14375183977E+02  0.16881698346E+02  0.40964936115E+02  0.00000000000E+00 0. -1.
</event>
<event>
 7    1  0.1716782E-015  0.9000770E+02  0.7816164E-02  0.1186339E+00
        -11   -1    0    0    0    0  0.00000000000E+00  0.00000000000E+00  0.45593999997E+02  0.45594000000E+02  0.51100000000E-03 0. -1.
         11   -1    0    0    0    0 -0.00000000000E+00 -0.00000000000E+00 -0.45593999997E+02  0.45594000000E+02  0.51100000000E-03 0.  1.
    9900012    2    1    2    0    0  0.88981967977E+00 -0.31556161257E+00  0.70833746147E+00  0.90007703362E+02  0.89999964247E+02 0.  0.
        -12    1    1    2    0    0 -0.88981967977E+00  0.31556161257E+00 -0.70833746147E+00  0.11802966378E+01  0.00000000000E+00 0.  1.
         11    1    3    3    0    0  0.24060957587E+02  0.13083813930E+02  0.20927583085E+02  0.34468530589E+02  0.51100000000E-03 0. -1.
        -11    1    3    3    0    0  0.95357271099E+01  0.51455564457E+01  0.31323791644E+01  0.11279124174E+02  0.51100000000E-03 0.  1.
        -12    1    3    3    0    0 -0.32706865017E+02 -0.18544931989E+02 -0.23351624788E+02  0.44260048598E+02  0.00000000000E+00 0.  1.
</event>
<event>
 7    1  0.1716782E-015  0.9000771E+02  0.7816164E-02  0.1186339E+00
        -11   -1    0    0    0    0  0.00000000000E+00  0.00000000000E+00  0.45593999997E+02  0.45594000000E+02  0.51100000000E-03 0.  1.
         11   -1    0    0    0    0 -0.00000000000E+00 -0.00000000000E+00 -0.45593999997E+02  0.45594000000E+02  0.51100000000E-03 0. -1.
    9900012    2    1    2    0    0 -0.76303940153E+00 -0.82035298652E+00 -0.37131095572E+00  0.90007711909E+02  0.89999972907E+02 0.  0.
        -12    1    1    2    0    0  0.76303940153E+00  0.82035298652E+00  0.37131095572E+00  0.11802880905E+01  0.00000000000E+00 0.  1.
         11    1    3    3    0    0 -0.22476382904E+01  0.14280071654E+02  0.24411983073E+01  0.14660551619E+02  0.51100000000E-03 0. -1.
        -11    1    3    3    0    0 -0.17882802038E+01  0.27604941064E+02  0.11825239134E+02  0.30084331438E+02  0.51100000000E-03 0.  1.
         12    1    3    3    0    0  0.32728790927E+01 -0.42705365705E+02 -0.14637748397E+02  0.45262828852E+02  0.00000000000E+00 0. -1.
</event>
<event>
 7    1  0.1716782E-015  0.9000772E+02  0.7816164E-02  0.1186339E+00
        -11   -1    0    0    0    0  0.00000000000E+00  0.00000000000E+00  0.45593999997E+02  0.45594000000E+02  0.51100000000E-03 0. -1.
         11   -1    0    0    0    0 -0.00000000000E+00 -0.00000000000E+00 -0.45593999997E+02  0.45594000000E+02  0.51100000000E-03 0.  1.
    9900012    2    1    2    0    0  0.42272048856E+00 -0.17121805193E+00  0.10885968602E+01  0.90007724034E+02  0.89999985191E+02 0.  0.
        -12    1    1    2    0    0 -0.42272048856E+00  0.17121805193E+00 -0.10885968602E+01  0.11802759663E+01  0.00000000000E+00 0.  1.
         11    1    3    3    0    0 -0.33915215472E+02 -0.10487811075E+02  0.18956908921E+02  0.40244259439E+02  0.51100000000E-03 0. -1.
        -11    1    3    3    0    0  0.43609710821E+01  0.60351686164E+01  0.72708619997E+01  0.10407053545E+02  0.51100000000E-03 0.  1.
        -12    1    3    3    0    0  0.29976964879E+02  0.42814244067E+01 -0.25139174060E+02  0.39356411050E+02  0.00000000000E+00 0.  1.
</event>
<event>
 7    1  0.1716782E-015  0.9000788E+02  0.7816164E-02  0.1186339E+00
        -11   -1    0    0    0    0  0.00000000000E+00  0.00000000000E+00  0.45593999997E+02  0.45594000000E+02  0.51100000000E-03 0. -1.
         11   -1    0    0    0    0 -0.00000000000E+00 -0.00000000000E+00 -0.45593999997E+02  0.45594000000E+02  0.51100000000E-03 0.  1.
    9900012    2    1    2    0    0  0.23910211618E+00  0.84119458565E+00 -0.79240116658E+00  0.90007882310E+02  0.90000145557E+02 0.  0.
        -12    1    1    2    0    0 -0.23910211618E+00 -0.84119458565E+00  0.79240116658E+00  0.11801176898E+01  0.00000000000E+00 0.  1.
         11    1    3    3    0    0 -0.51695811535E+01 -0.59873188717E+01  0.11657020531E+02  0.14087536495E+02  0.51100000000E-03 0. -1.
        -11    1    3    3    0    0  0.17024190785E+01 -0.32931306263E+02 -0.14306431367E+02  0.35945001622E+02  0.51100000000E-03 0.  1.
         12    1    3    3    0    0  0.37062641913E+01  0.39759819721E+02  0.18570096695E+01  0.39975344193E+02  0.00000000000E+00 0. -1.
</event>
<event>
 7    1  0.1716782E-015  0.9000771E+02  0.7816164E-02  0.1186339E+00
        -11   -1    0    0    0    0  0.00000000000E+00  0.00000000000E+00  0.45593999997E+02  0.45594000000E+02  0.51100000000E-03 0.  1.
         11   -1    0    0    0    0 -0.00000000000E+00 -0.00000000000E+00 -0.45593999997E+02  0.45594000000E+02  0.51100000000E-03 0. -1.
    9900012    2    1    2    0    0 -0.11016597310E+01 -0.21347228922E+00 -0.36586801626E+00  0.90007710211E+02  0.89999971186E+02 0.  0.
        -12    1    1    2    0    0  0.11016597310E+01  0.21347228922E+00  0.36586801626E+00  0.11802897892E+01  0.00000000000E+00 0.  1.
         11    1    3    3    0    0  0.74029621793E+00 -0.74821059116E+01  0.42296655205E+01  0.86267037761E+01  0.51100000000E-03 0. -1.
        -11    1    3    3    0    0  0.17234076389E+02 -0.19643393011E+02  0.25657134068E+02  0.36621917028E+02  0.51100000000E-03 0.  1.
         12    1    3    3    0    0 -0.19076032338E+02  0.26912026633E+02 -0.30252667605E+02  0.44759089406E+02  0.00000000000E+00 0. -1.
</event>
<event>
 7    1  0.1716782E-015  0.9000785E+02  0.7816164E-02  0.1186339E+00
        -11   -1    0    0    0    0  0.00000000000E+00  0.00000000000E+00  0.45593999997E+02  0.45594000000E+02  0.51100000000E-03 0.  1.
         11   -1    0    0    0    0 -0.00000000000E+00 -0.00000000000E+00 -0.45593999997E+02  0.45594000000E+02  0.51100000000E-03 0. -1.
    9900012    2    1    2    0    0 -0.17750377086E+00 -0.11029123224E+01 -0.38056866506E+00  0.90007849294E+02  0.90000112105E+02 0.  0.
        -12    1    1    2    0    0  0.17750377086E+00  0.11029123224E+01  0.38056866506E+00  0.11801507058E+01  0.00000000000E+00 0.  1.
         11    1    3    3    0    0  0.40378012921E+01  0.23782569793E+01  0.84431919691E+01  0.96564712200E+01  0.51100000000E-03 0. -1.
        -11    1    3    3    0    0  0.13925520174E+02  0.15426499889E+02  0.28177089592E+02  0.35012074904E+02  0.51100000000E-03 0.  1.
         12    1    3    3    0    0 -0.18140825237E+02 -0.18907669191E+02 -0.37000850226E+02  0.45339303170E+02  0.00000000000E+00 0. -1.
</event>
<event>
 7    1  0.1716782E-015  0.9000760E+02  0.7816164E-02  0.1186339E+00
        -11   -1    0    0    0    0  0.00000000000E+00  0.00000000000E+00  0.45593999997E+02  0.45594000000E+02  0.51100000000E-03 0. -1.
         11   -1    0    0    0    0 -0.00000000000E+00 -0.00000000000E+00 -0.45593999997E+02  0.45594000000E+02  0.51100000000E-03 0.  1.
    9900012    2    1    2    0    0  0.83168726835E+00  0.80275557202E+00  0.23919178857E+00  0.90007604756E+02  0.89999864338E+02 0.  0.
        -12    1    1    2    0    0 -0.83168726835E+00 -0.80275557202E+00 -0.23919178857E+00  0.11803952442E+01  0.00000000000E+00 0.  1.
         11    1    3    3    0    0 -0.30472679758E+02 -0.55111052813E+01  0.15495712293E+02  0.34627642034E+02  0.51100000000E-03 0. -1.
        -11    1    3    3    0    0 -0.96926734939E+01  0.57973257821E+01 -0.77519309568E+01  0.13698515960E+02  0.51100000000E-03 0.  1.
        -12    1    3    3    0    0  0.40997040521E+02  0.51653507124E+00 -0.75045895478E+01  0.41681446762E+02  0.00000000000E+00 0.  1.
</event>
<event>
 7    1  0.1716782E-015  0.9000779E+02  0.7816164E-02  0.1186339E+00
        -11   -1    0    0    0    0  0.00000000000E+00  0.00000000000E+00  0.45593999997E+02  0.45594000000E+02  0.51100000000E-03 0.  1.
         11   -1    0    0    0    0 -0.00000000000E+00 -0.00000000000E+00 -0.45593999997E+02  0.45594000000E+02  0.51100000000E-03 0. -1.
    9900012    2    1    2    0    0 -0.31610540880E+00  0.20968353763E+00 -0.11175848287E+01  0.90007794228E+02  0.90000056312E+02 0.  0.
        -12    1    1    2    0    0  0.31610540880E+00 -0.20968353763E+00  0.11175848287E+01  0.11802057722E+01  0.00000000000E+00 0.  1.
         11    1    3    3    0    0  0.33279954674E+02 -0.19231415008E+02 -0.15371721667E+02  0.41396769603E+02  0.51100000000E-03 0. -1.
        -11    1    3    3    0    0 -0.12275833576E+02 -0.46250186450E+00 -0.54219648836E+01  0.13427870324E+02  0.51100000000E-03 0.  1.
        -12    1    3    3    0    0 -0.21320226506E+02  0.19903600410E+02  0.19676101722E+02  0.35183154301E+02  0.00000000000E+00 0.  1.
</event>
<event>
 7    1  0.1716782E-015  0.9000813E+02  0.7816164E-02  0.1186338E+00
        -11   -1    0    0    0    0  0.00000000000E+00  0.00000000000E+00  0.45593999997E+02  0.45594000000E+02  0.51100000000E-03 0.  1.
         11   -1    0    0    0    0 -0.00000000000E+00 -0.00000000000E+00 -0.45593999997E+02  0.45594000000E+02  0.51100000000E-03 0. -1.
    9900012    2    1    2    0    0 -0.45135947959E+00  0.43924236605E+00 -0.99771103276E+00  0.90008132829E+02  0.90000399382E+02 0.  0.
        -12    1    1    2    0    0  0.45135947959E+00 -0.43924236605E+00  0.99771103276E+00  0.11798671708E+01  0.00000000000E+00 0.  1.
         11    1    3    3    0    0 -0.34160653576E+02 -0.45777409928E+00  0.14332953320E+02  0.37048527110E+02  0.51100000000E-03 0. -1.
        -11    1    3    3    0    0 -0.41290335802E+00  0.23827108463E+01  0.10094818953E+02  0.10380422444E+02  0.51100000000E-03 0.  1.
        -12    1    3    3    0    0  0.34122197455E+02 -0.14856943810E+01 -0.25425483307E+02  0.42579183274E+02  0.00000000000E+00 0.  1.
</event>
<event>
 7    1  0.1716782E-015  0.9000776E+02  0.7816164E-02  0.1186339E+00
        -11   -1    0    0    0    0  0.00000000000E+00  0.00000000000E+00  0.45593999997E+02  0.45594000000E+02  0.51100000000E-03 0.  1.
         11   -1    0    0    0    0 -0.00000000000E+00 -0.00000000000E+00 -0.45593999997E+02  0.45594000000E+02  0.51100000000E-03 0. -1.
    9900012    2    1    2    0    0 -0.50439910421E+00 -0.87314543548E+00 -0.61332209092E+00  0.90007760450E+02  0.90000022088E+02 0.  0.
        -12    1    1    2    0    0  0.50439910421E+00  0.87314543548E+00  0.61332209092E+00  0.11802395499E+01  0.00000000000E+00 0.  1.
         11    1    3    3    0    0  0.34026232634E+01  0.14667595106E+02 -0.31788341884E+02  0.35174065322E+02  0.51100000000E-03 0. -1.
        -11    1    3    3    0    0  0.28273298143E+01  0.25633367449E+01 -0.92634345767E+01  0.10018767867E+02  0.51100000000E-03 0.  1.
        -12    1    3    3    0    0 -0.67343521820E+01 -0.18104077287E+02  0.40438454369E+02  0.44814927262E+02  0.00000000000E+00 0.  1.
</event>
<event>
 7    1  0.1716782E-015  0.9000771E+02  0.7816164E-02  0.1186339E+00
        -11   -1    0    0    0    0  0.00000000000E+00  0.00000000000E+00  0.45593999997E+02  0.45594000000E+02  0.51100000000E-03 0.  1.
         11   -1    0    0    0    0 -0.00000000000E+00 -0.00000000000E+00 -0.45593999997E+02  0.45594000000E+02  0.51100000000E-03 0. -1.
    9900012    2    1    2    0    0  0.69342837902E+00  0.86652677066E+00  0.40171576413E+00  0.90007708885E+02  0.89999969842E+02 0.  0.
        -12    1    1    2    0    0 -0.69342837902E+00 -0.86652677066E+00 -0.40171576413E+00  0.11802911150E+01  0.00000000000E+00 0.  1.
         11    1    3    3    0    0 -0.25845983975E+02 -0.47830903145E+01 -0.26216638478E+02  0.37124183142E+02  0.51100000000E-03 0. -1.
        -11    1    3    3    0    0 -0.78470738553E+01  0.48056408280E+01 -0.29888468561E+00  0.92065240006E+01  0.51100000000E-03 0.  1.
        -12    1    3    3    0    0  0.34386486209E+02  0.84397625722E+00  0.26917238928E+02  0.43677001743E+02  0.00000000000E+00 0.  1.
</event>
<event>
 7    1  0.1716782E-015  0.9000789E+02  0.7816164E-02  0.1186339E+00
        -11   -1    0    0    0    0  0.00000000000E+00  0.00000000000E+00  0.45593999997E+02  0.45594000000E+02  0.51100000000E-03 0.  1.
         11   -1    0    0    0    0 -0.00000000000E+00 -0.00000000000E+00 -0.45593999997E+02  0.45594000000E+02  0.51100000000E-03 0. -1.
    9900012    2    1    2    0    0  0.17326039556E+00 -0.76731989800E-02 -0.11672927750E+01  0.90007893875E+02  0.90000157274E+02 0.  0.
        -12    1    1    2    0    0 -0.17326039556E+00  0.76731989800E-02  0.11672927750E+01  0.11801061246E+01  0.00000000000E+00 0.  1.
         11    1    3    3    0    0 -0.36117159686E+02  0.46517047139E+01 -0.20135812050E+02  0.41611759248E+02  0.51100000000E-03 0. -1.
        -11    1    3    3    0    0  0.77436826473E+00  0.63810614986E+01  0.65701244757E+01  0.91915247889E+01  0.51100000000E-03 0.  1.
        -12    1    3    3    0    0  0.35516051817E+02 -0.11040439411E+02  0.12398394799E+02  0.39204609839E+02  0.00000000000E+00 0.  1.
</event>
<event>
 7    1  0.1716782E-015  0.9000767E+02  0.7816164E-02  0.1186339E+00
        -11   -1    0    0    0    0  0.00000000000E+00  0.00000000000E+00  0.45593999997E+02  0.45594000000E+02  0.51100000000E-03 0.  1.
         11   -1    0    0    0    0 -0.00000000000E+00 -0.00000000000E+00 -0.45593999997E+02  0.45594000000E+02  0.51100000000E-03 0. -1.
    9900012    2    1    2    0    0 -0.86394830237E+00 -0.11892948873E+00 -0.79538316646E+00  0.90007667304E+02  0.89999927712E+02 0.  0.
        -12    1    1    2    0    0  0.86394830237E+00  0.11892948873E+00  0.79538316646E+00  0.11803326963E+01  0.00000000000E+00 0.  1.
         11    1    3    3    0    0 -0.89881308150E+01 -0.28036198928E+01  0.17529304465E+01  0.95770321844E+01  0.51100000000E-03 0. -1.
        -11    1    3    3    0    0 -0.28415882096E+02  0.23620444274E+02 -0.84537782746E+01  0.37905858523E+02  0.51100000000E-03 0.  1.
         12    1    3    3    0    0  0.36540064609E+02 -0.20935753870E+02  0.59054646616E+01  0.42524776596E+02  0.00000000000E+00 0. -1.
</event>
<event>
 7    1  0.1716782E-015  0.9000831E+02  0.7816164E-02  0.1186338E+00
        -11   -1    0    0    0    0  0.00000000000E+00  0.00000000000E+00  0.45593999997E+02  0.45594000000E+02  0.51100000000E-03 0.  1.
         11   -1    0    0    0    0 -0.00000000000E+00 -0.00000000000E+00 -0.45593999997E+02  0.45594000000E+02  0.51100000000E-03 0. -1.
    9900012    2    1    2    0    0 -0.53871575296E+00 -0.10363939724E+01  0.16538579492E+00  0.90008305298E+02  0.90000574126E+02 0.  0.
        -12    1    1    2    0    0  0.53871575296E+00  0.10363939724E+01 -0.16538579492E+00  0.11796947019E+01  0.00000000000E+00 0.  1.
         11    1    3    3    0    0 -0.23338353390E+01 -0.45082687205E+01  0.13468275687E+02  0.14393252741E+02  0.51100000000E-03 0. -1.
        -11    1    3    3    0    0 -0.46711020973E+01  0.31816010167E+00  0.30686313756E+02  0.31041428332E+02  0.51100000000E-03 0.  1.
         12    1    3    3    0    0  0.64662216833E+01  0.31537146464E+01 -0.43989203648E+02  0.44573624225E+02  0.00000000000E+00 0. -1.
</event>
<event>
 7    1  0.1716782E-015  0.9000781E+02  0.7816164E-02  0.1186339E+00
        -11   -1    0    0    0    0  0.00000000000E+00  0.00000000000E+00  0.45593999997E+02  0.45594000000E+02  0.51100000000E-03 0.  1.
         11   -1    0    0    0    0 -0.00000000000E+00 -0.00000000000E+00 -0.45593999997E+02  0.45594000000E+02  0.51100000000E-03 0. -1.
    9900012    2    1    2    0    0  0.14634317740E+00 -0.86903125349E-01 -0.11678571038E+01  0.90007805654E+02  0.90000067889E+02 0.  0.
        -12    1    1    2    0    0 -0.14634317740E+00  0.86903125349E-01  0.11678571038E+01  0.11801943457E+01  0.00000000000E+00 0.  1.
         11    1    3    3    0    0 -0.22724147238E+01  0.91212386358E+01  0.30874018303E+01  0.98940847606E+01  0.51100000000E-03 0. -1.
        -11    1    3    3    0    0  0.46542506699E+01  0.10811782011E+02  0.34490703103E+02  0.36444001981E+02  0.51100000000E-03 0.  1.
         12    1    3    3    0    0 -0.22354927688E+01 -0.20019923773E+02 -0.38745962037E+02  0.43669718913E+02  0.00000000000E+00 0. -1.
</event>
<event>
 7    1  0.1716782E-015  0.9000792E+02  0.7816164E-02  0.1186339E+00
        -11   -1    0    0    0    0  0.00000000000E+00  0.00000000000E+00  0.45593999997E+02  0.45594000000E+02  0.51100000000E-03 0. -1.
         11   -1    0    0    0    0 -0.00000000000E+00 -0.00000000000E+00 -0.45593999997E+02  0.45594000000E+02  0.51100000000E-03 0.  1.
    9900012    2    1    2    0    0 -0.50900115957E+00 -0.74680371160E+00  0.75880462551E+00  0.90007922704E+02  0.90000186484E+02 0.  0.
        -12    1    1    2    0    0  0.50900115957E+00  0.74680371160E+00 -0.75880462551E+00  0.11800772957E+01  0.00000000000E+00 0.  1.
         11    1    3    3    0    0  0.34323592339E+02 -0.17752975337E+02  0.22624481971E+01  0.38709117743E+02  0.51100000000E-03 0. -1.
        -11    1    3    3    0    0  0.21626584836E+01 -0.27366249765E+01 -0.81283642508E+01  0.88451406791E+01  0.51100000000E-03 0.  1.
        -12    1    3    3    0    0 -0.36995251982E+02  0.19742796602E+02  0.66247206792E+01  0.42453664282E+02  0.00000000000E+00 0.  1.
</event>
<event>
 7    1  0.1716782E-015  0.9000795E+02  0.7816164E-02  0.1186339E+00
        -11   -1    0    0    0    0  0.00000000000E+00  0.00000000000E+00  0.45593999997E+02  0.45594000000E+02  0.51100000000E-03 0. -1.
         11   -1    0    0    0    0 -0.00000000000E+00 -0.00000000000E+00 -0.45593999997E+02  0.45594000000E+02  0.51100000000E-03 0.  1.
    9900012    2    1    2    0    0  0.25269088680E-01 -0.11740264084E+01 -0.11640727791E+00  0.90007946108E+02  0.90000210196E+02 0.  0.
        -12    1    1    2    0    0 -0.25269088680E-01  0.11740264084E+01  0.11640727791E+00  0.11800538924E+01  0.00000000000E+00 0.  1.
         11    1    3    3    0    0  0.20834183741E-02  0.22984502152E+02  0.23016465091E+02  0.32527603801E+02  0.51100000000E-03 0. -1.
        -11    1    3    3    0    0  0.32669409336E+01  0.91764533060E+01  0.73424515904E+01  0.12198024183E+02  0.51100000000E-03 0.  1.
        -12    1    3    3    0    0 -0.32437552633E+01 -0.33334981866E+02 -0.30475323959E+02  0.45282318124E+02  0.00000000000E+00 0.  1.
</event>
<event>
 7    1  0.1716782E-015  0.9000768E+02  0.7816164E-02  0.1186339E+00
        -11   -1    0    0    0    0  0.00000000000E+00  0.00000000000E+00  0.45593999997E+02  0.45594000000E+02  0.51100000000E-03 0.  1.
         11   -1    0    0    0    0 -0.00000000000E+00 -0.00000000000E+00 -0.45593999997E+02  0.45594000000E+02  0.51100000000E-03 0. -1.
    9900012    2    1    2    0    0  0.10904906305E+01  0.29825912729E+00 -0.33915309431E+00  0.90007680914E+02  0.89999941503E+02 0.  0.
        -12    1    1    2    0    0 -0.10904906305E+01 -0.29825912729E+00  0.33915309431E+00  0.11803190855E+01  0.00000000000E+00 0.  1.
         11    1    3    3    0    0  0.24774966709E+02  0.13646263795E+02 -0.18782539113E+02  0.33952956673E+02  0.51100000000E-03 0. -1.
        -11    1    3    3    0    0 -0.91642292119E+01  0.11648924255E+02  0.22417905858E+02  0.26874579749E+02  0.51100000000E-03 0.  1.
        -12    1    3    3    0    0 -0.14520246867E+02 -0.24996928923E+02 -0.39745198388E+01  0.29180144493E+02  0.00000000000E+00 0.  1.
</event>
<event>
 7    1  0.1716782E-015  0.9000775E+02  0.7816164E-02  0.1186339E+00
        -11   -1    0    0    0    0  0.00000000000E+00  0.00000000000E+00  0.45593999997E+02  0.45594000000E+02  0.51100000000E-03 0.  1.
         11   -1    0    0    0    0 -0.00000000000E+00 -0.00000000000E+00 -0.45593999997E+02  0.45594000000E+02  0.51100000000E-03 0. -1.
    9900012    2    1    2    0    0 -0.10847321307E+01 -0.32653186810E+00 -0.33124577433E+00  0.90007749764E+02  0.90000011261E+02 0.  0.
        -12    1    1    2    0    0  0.10847321307E+01  0.32653186810E+00  0.33124577433E+00  0.11802502358E+01  0.00000000000E+00 0.  1.
         11    1    3    3    0    0  0.12745000062E+01 -0.48586656448E+01 -0.76271237358E+01  0.91325789817E+01  0.51100000000E-03 0. -1.
        -11    1    3    3    0    0 -0.28762974950E+02  0.31224391970E+02 -0.82790675578E+00  0.42461238933E+02  0.51100000000E-03 0.  1.
         12    1    3    3    0    0  0.26403742813E+02 -0.26692258193E+02  0.81237847173E+01  0.38413931849E+02  0.00000000000E+00 0. -1.
</event>
<event>
 7    1  0.1716782E-015  0.9000762E+02  0.7816164E-02  0.1186339E+00
        -11   -1    0    0    0    0  0.00000000000E+00  0.00000000000E+00  0.45593999997E+02  0.45594000000E+02  0.51100000000E-03 0.  1.
         11   -1    0    0    0    0 -0.00000000000E+00 -0.00000000000E+00 -0.45593999997E+02  0.45594000000E+02  0.51100000000E-03 0. -1.
    9900012    2    1    2    0    0 -0.57394005470E+00 -0.94054887568E+00 -0.42339963238E+00  0.90007615900E+02  0.89999875630E+02 0.  0.
        -12    1    1    2    0    0  0.57394005470E+00  0.94054887568E+00  0.42339963238E+00  0.11803840996E+01  0.00000000000E+00 0.  1.
         11    1    3    3    0    0 -0.21867007859E+02  0.10557341933E+02  0.16728798652E+02  0.29486881930E+02  0.51100000000E-03 0. -1.
        -11    1    3    3    0    0 -0.97694957032E+01 -0.15550457362E+02 -0.22177810676E+02  0.28794358078E+02  0.51100000000E-03 0.  1.
        -12    1    3    3    0    0  0.31062563507E+02  0.40525665536E+01  0.50256123921E+01  0.31726375892E+02  0.00000000000E+00 0.  1.
</event>
<event>
 7    1  0.1716782E-015  0.9000780E+02  0.7816164E-02  0.1186339E+00
        -11   -1    0    0    0    0  0.00000000000E+00  0.00000000000E+00  0.45593999997E+02  0.45594000000E+02  0.51100000000E-03 0.  1.
         11   -1    0    0    0    0 -0.00000000000E+00 -0.00000000000E+00 -0.45593999997E+02  0.45594000000E+02  0.51100000000E-03 0. -1.
    9900012    2    1    2    0    0  0.47230077007E-01  0.11762952760E+01 -0.83480464420E-01  0.90007800761E+02  0.90000062931E+02 0.  0.
        -12    1    1    2    0    0 -0.47230077007E-01 -0.11762952760E+01  0.83480464420E-01  0.11801992393E+01  0.00000000000E+00 0.  1.
         11    1    3    3    0    0  0.85400023128E+01  0.28542007579E+01  0.22117611525E+01  0.92720002764E+01  0.51100000000E-03 0. -1.
        -11    1    3    3    0    0 -0.10617278310E+02  0.28841306681E+02  0.25091440787E+02  0.39675281610E+02  0.51100000000E-03 0.  1.
         12    1    3    3    0    0  0.21245060745E+01 -0.30519212163E+02 -0.27386682404E+02  0.41060518874E+02  0.00000000000E+00 0. -1.
</event>
<event>
 7    1  0.1716782E-015  0.9000778E+02  0.7816164E-02  0.1186339E+00
        -11   -1    0    0    0    0  0.00000000000E+00  0.00000000000E+00  0.45593999997E+02  0.45594000000E+02  0.51100000000E-03 0. -1.
         11   -1    0    0    0    0 -0.00000000000E+00 -0.00000000000E+00 -0.45593999997E+02  0.45594000000E+02  0.51100000000E-03 0.  1.
    9900012    2    1    2    0    0  0.93134060872E+00 -0.72276527744E+00 -0.55906761661E-01  0.90007783689E+02  0.90000045633E+02 0.  0.
        -12    1    1    2    0    0 -0.93134060872E+00  0.72276527744E+00  0.55906761661E-01  0.11802163114E+01  0.00000000000E+00 0.  1.
         11    1    3    3    0    0  0.37629416210E+01  0.14034051346E+02  0.71121410968E+01  0.16177047879E+02  0.51100000000E-03 0. -1.
        -11    1    3    3    0    0  0.52398510012E-01  0.28763553066E+02  0.33687756192E+01  0.28960203384E+02  0.51100000000E-03 0.  1.
         12    1    3    3    0    0 -0.28839995223E+01 -0.43520369690E+02 -0.10536823478E+02  0.44870532426E+02  0.00000000000E+00 0. -1.
</event>
<event>
 7    1  0.1716782E-015  0.9000761E+02  0.7816164E-02  0.1186339E+00
        -11   -1    0    0    0    0  0.00000000000E+00  0.00000000000E+00  0.45593999997E+02  0.45594000000E+02  0.51100000000E-03 0.  1.
         11   -1    0    0    0    0 -0.00000000000E+00 -0.00000000000E+00 -0.45593999997E+02  0.45594000000E+02  0.51100000000E-03 0. -1.
    9900012    2    1    2    0    0 -0.11296975930E+01 -0.14591973226E+00  0.30953335702E+00  0.90007610183E+02  0.89999869838E+02 0.  0.
        -12    1    1    2    0    0  0.11296975930E+01  0.14591973226E+00 -0.30953335702E+00  0.11803898165E+01  0.00000000000E+00 0.  1.
         11    1    3    3    0    0  0.22144395649E+02  0.15533346548E+02 -0.29656721563E+02  0.40139509810E+02  0.51100000000E-03 0. -1.
        -11    1    3    3    0    0  0.16668193304E+01  0.87651620059E+00 -0.41035790871E+01  0.45150779523E+01  0.51100000000E-03 0.  1.
        -12    1    3    3    0    0 -0.24940912572E+02 -0.16555782480E+02  0.34069834007E+02  0.45353022421E+02  0.00000000000E+00 0.  1.
</event>
<event>
 7    1  0.1716782E-015  0.9000775E+02  0.7816164E-02  0.1186339E+00
        -11   -1    0    0    0    0  0.00000000000E+00  0.00000000000E+00  0.45593999997E+02  0.45594000000E+02  0.51100000000E-03 0.  1.
         11   -1    0    0    0    0 -0.00000000000E+00 -0.00000000000E+00 -0.45593999997E+02  0.45594000000E+02  0.51100000000E-03 0. -1.
    9900012    2    1    2    0    0  0.11403170117E+01  0.13864006911E+00 -0.27099977352E+00  0.90007752215E+02  0.90000013745E+02 0.  0.
        -12    1    1    2    0    0 -0.11403170117E+01 -0.13864006911E+00  0.27099977352E+00  0.11802477846E+01  0.00000000000E+00 0.  1.
         11    1    3    3    0    0  0.16182033366E+02 -0.96928441196E+01 -0.28685595726E+02  0.34331804983E+02  0.51100000000E-03 0. -1.
        -11    1    3    3    0    0 -0.44260990973E+01 -0.41499543753E+01 -0.10981210259E+02  0.12545893892E+02  0.51100000000E-03 0.  1.
        -12    1    3    3    0    0 -0.10615617257E+02  0.13981438564E+02  0.39395806211E+02  0.43130053340E+02  0.00000000000E+00 0.  1.
</event>
<event>
 7    1  0.1716782E-015  0.9000776E+02  0.7816164E-02  0.1186339E+00
        -11   -1    0    0    0    0  0.00000000000E+00  0.00000000000E+00  0.45593999997E+02  0.45594000000E+02  0.51100000000E-03 0. -1.
         11   -1    0    0    0    0 -0.00000000000E+00 -0.00000000000E+00 -0.45593999997E+02  0.45594000000E+02  0.51100000000E-03 0.  1.
    9900012    2    1    2    0    0 -0.11158844634E-02 -0.10829937642E+01  0.46912986731E+00  0.90007762917E+02  0.90000024588E+02 0.  0.
        -12    1    1    2    0    0  0.11158844634E-02  0.10829937642E+01 -0.46912986731E+00  0.11802370825E+01  0.00000000000E+00 0.  1.
         11    1    3    3    0    0 -0.18656892444E+02 -0.27681565567E+01  0.38683772596E+00  0.18865099260E+02  0.51100000000E-03 0. -1.
        -11    1    3    3    0    0 -0.20591458382E+02 -0.88316790437E+01 -0.15906972845E+02  0.27477963869E+02  0.51100000000E-03 0.  1.
         12    1    3    3    0    0  0.39247234942E+02  0.10516841836E+02  0.15989264987E+02  0.43664699788E+02  0.00000000000E+00 0. -1.
</event>
<event>
 7    1  0.1716782E-015  0.9000791E+02  0.7816164E-02  0.1186339E+00
        -11   -1    0    0    0    0  0.00000000000E+00  0.00000000000E+00  0.45593999997E+02  0.45594000000E+02  0.51100000000E-03 0. -1.
         11   -1    0    0    0    0 -0.00000000000E+00 -0.00000000000E+00 -0.45593999997E+02  0.45594000000E+02  0.51100000000E-03 0.  1.
    9900012    2    1    2    0    0 -0.88979267132E+00  0.56475335209E+00 -0.53097520506E+00  0.90007910167E+02  0.90000173781E+02 0.  0.
        -12    1    1    2    0    0  0.88979267132E+00 -0.56475335209E+00  0.53097520506E+00  0.11800898335E+01  0.00000000000E+00 0.  1.
         11    1    3    3    0    0 -0.84505462707E+00 -0.23401281094E+01  0.91068659692E+01  0.94406210035E+01  0.51100000000E-03 0. -1.
        -11    1    3    3    0    0  0.30227741447E+02 -0.20082002799E+02  0.10192448960E+02  0.37694684048E+02  0.51100000000E-03 0.  1.
         12    1    3    3    0    0 -0.30272479491E+02  0.22986884260E+02 -0.19830290135E+02  0.42872605115E+02  0.00000000000E+00 0. -1.
</event>
<event>
 7    1  0.1716782E-015  0.9000777E+02  0.7816164E-02  0.1186339E+00
        -11   -1    0    0    0    0  0.00000000000E+00  0.00000000000E+00  0.45593999997E+02  0.45594000000E+02  0.51100000000E-03 0. -1.
         11   -1    0    0    0    0 -0.00000000000E+00 -0.00000000000E+00 -0.45593999997E+02  0.45594000000E+02  0.51100000000E-03 0.  1.
    9900012    2    1    2    0    0  0.35180691802E+00  0.88346833599E+00  0.69904028582E+00  0.90007770476E+02  0.90000032246E+02 0.  0.
        -12    1    1    2    0    0 -0.35180691802E+00 -0.88346833599E+00 -0.69904028582E+00  0.11802295241E+01  0.00000000000E+00 0.  1.
         11    1    3    3    0    0  0.37019773872E+01  0.91010493317E+01 -0.52950187594E+01  0.11161136118E+02  0.51100000000E-03 0. -1.
        -11    1    3    3    0    0 -0.25626336436E+02  0.13732472540E+02 -0.22325091434E+02  0.36656508685E+02  0.51100000000E-03 0.  1.
         12    1    3    3    0    0  0.22276165967E+02 -0.21950053536E+02  0.28319150480E+02  0.42190125673E+02  0.00000000000E+00 0. -1.
</event>
<event>
 7    1  0.1716782E-015  0.9000778E+02  0.7816164E-02  0.1186339E+00
        -11   -1    0    0    0    0  0.00000000000E+00  0.00000000000E+00  0.45593999997E+02  0.45594000000E+02  0.51100000000E-03 0. -1.
         11   -1    0    0    0    0 -0.00000000000E+00 -0.00000000000E+00 -0.45593999997E+02  0.45594000000E+02  0.51100000000E-03 0.  1.
    9900012    2    1    2    0    0  0.70979626155E+00 -0.63890476005E+00 -0.69348026318E+00  0.90007777605E+02  0.90000039470E+02 0.  0.
        -12    1    1    2    0    0 -0.70979626155E+00  0.63890476005E+00  0.69348026318E+00  0.11802223946E+01  0.00000000000E+00 0.  1.
         11    1    3    3    0    0 -0.16467122085E+02 -0.36029705773E+02  0.52037983440E+01  0.39954791018E+02  0.51100000000E-03 0. -1.
        -11    1    3    3    0    0 -0.14620500029E+01 -0.48658497035E+01  0.93987094395E+00  0.51669566671E+01  0.51100000000E-03 0.  1.
        -12    1    3    3    0    0  0.18638968350E+02  0.40256650716E+02 -0.68371495511E+01  0.44886029920E+02  0.00000000000E+00 0.  1.
</event>
<event>
 7    1  0.1716782E-015  0.9000787E+02  0.7816164E-02  0.1186339E+00
        -11   -1    0    0    0    0  0.00000000000E+00  0.00000000000E+00  0.45593999997E+02  0.45594000000E+02  0.51100000000E-03 0.  1.
         11   -1    0    0    0    0 -0.00000000000E+00 -0.00000000000E+00 -0.45593999997E+02  0.45594000000E+02  0.51100000000E-03 0. -1.
    9900012    2    1    2    0    0  0.60866970122E+00  0.96420653627E+00  0.30418979824E+00  0.90007870989E+02  0.90000134086E+02 0.  0.
        -12    1    1    2    0    0 -0.60866970122E+00 -0.96420653627E+00 -0.30418979824E+00  0.11801290112E+01  0.00000000000E+00 0.  1.
         11    1    3    3    0    0 -0.29746433301E+00  0.13594881046E+01 -0.90195018367E+01  0.91262317842E+01  0.51100000000E-03 0. -1.
        -11    1    3    3    0    0 -0.17026549860E+02 -0.35249431154E+02 -0.43068747379E+01  0.39382419518E+02  0.51100000000E-03 0.  1.
         12    1    3    3    0    0  0.17932683894E+02  0.34854149586E+02  0.13630566373E+02  0.41499219687E+02  0.00000000000E+00 0. -1.
</event>
<event>
 7    1  0.1716782E-015  0.9000772E+02  0.7816164E-02  0.1186339E+00
        -11   -1    0    0    0    0  0.00000000000E+00  0.00000000000E+00  0.45593999997E+02  0.45594000000E+02  0.51100000000E-03 0.  1.
         11   -1    0    0    0    0 -0.00000000000E+00 -0.00000000000E+00 -0.45593999997E+02  0.45594000000E+02  0.51100000000E-03 0. -1.
    9900012    2    1    2    0    0  0.22319661709E+00  0.88876524340E+00 -0.74386079082E+00  0.90007724920E+02  0.89999986089E+02 0.  0.
        -12    1    1    2    0    0 -0.22319661709E+00 -0.88876524340E+00  0.74386079082E+00  0.11802750797E+01  0.00000000000E+00 0.  1.
         11    1    3    3    0    0 -0.57551343503E+01 -0.78628629651E+01  0.79519757004E+01  0.12576967170E+02  0.51100000000E-03 0. -1.
        -11    1    3    3    0    0  0.18030650778E+02 -0.89541114689E+01  0.28271539112E+02  0.34706777489E+02  0.51100000000E-03 0.  1.
         12    1    3    3    0    0 -0.12052319810E+02  0.17705739677E+02 -0.36967375603E+02  0.42723980261E+02  0.00000000000E+00 0. -1.
</event>
<event>
 7    1  0.1716782E-015  0.9000778E+02  0.7816164E-02  0.1186339E+00
        -11   -1    0    0    0    0  0.00000000000E+00  0.00000000000E+00  0.45593999997E+02  0.45594000000E+02  0.51100000000E-03 0.  1.
         11   -1    0    0    0    0 -0.00000000000E+00 -0.00000000000E+00 -0.45593999997E+02  0.45594000000E+02  0.51100000000E-03 0. -1.
    9900012    2    1    2    0    0  0.89555524307E+00 -0.39013923607E+00 -0.66233733461E+00  0.90007780291E+02  0.90000042191E+02 0.  0.
        -12    1    1    2    0    0 -0.89555524307E+00  0.39013923607E+00  0.66233733461E+00  0.11802197091E+01  0.00000000000E+00 0.  1.
         11    1    3    3    0    0  0.13576309747E+01  0.74144915334E+01  0.18277513322E+01  0.77561924780E+01  0.51100000000E-03 0. -1.
        -11    1    3    3    0    0 -0.18110105253E+02  0.27819410315E+02 -0.20061143312E+02  0.38785886271E+02  0.51100000000E-03 0.  1.
         12    1    3    3    0    0  0.17648029521E+02 -0.35624041085E+02  0.17571054645E+02  0.43465701542E+02  0.00000000000E+00 0. -1.
</event>
<event>
 7    1  0.1716782E-015  0.9000777E+02  0.7816164E-02  0.1186339E+00
        -11   -1    0    0    0    0  0.00000000000E+00  0.00000000000E+00  0.45593999997E+02  0.45594000000E+02  0.51100000000E-03 0.  1.
         11   -1    0    0    0    0 -0.00000000000E+00 -0.00000000000E+00 -0.45593999997E+02  0.45594000000E+02  0.51100000000E-03 0. -1.
    9900012    2    1    2    0    0  0.32016974439E+00  0.10232065795E+01 -0.49344842895E+00  0.90007766243E+02  0.90000027957E+02 0.  0.
        -12    1    1    2    0    0 -0.32016974439E+00 -0.10232065795E+01  0.49344842895E+00  0.11802337572E+01  0.00000000000E+00 0.  1.
         11    1    3    3    0    0 -0.14979825918E+02 -0.43422758744E+01 -0.36397280519E+02  0.39598138514E+02  0.51100000000E-03 0. -1.
        -11    1    3    3    0    0 -0.87047487940E+01 -0.11174453277E+01  0.32322104881E+01  0.93524606670E+01  0.51100000000E-03 0.  1.
        -12    1    3    3    0    0  0.24004744456E+02  0.64829277815E+01  0.32671621602E+02  0.41057167062E+02  0.00000000000E+00 0.  1.
</event>
<event>
 7    1  0.1716782E-015  0.9000774E+02  0.7816164E-02  0.1186339E+00
        -11   -1    0    0    0    0  0.00000000000E+00  0.00000000000E+00  0.45593999997E+02  0.45594000000E+02  0.51100000000E-03 0. -1.
         11   -1    0    0    0    0 -0.00000000000E+00 -0.00000000000E+00 -0.45593999997E+02  0.45594000000E+02  0.51100000000E-03 0.  1.
    9900012    2    1    2    0    0 -0.89970139696E+00  0.65801028787E+00  0.38803607668E+00  0.90007740647E+02  0.90000002024E+02 0.  0.
        -12    1    1    2    0    0  0.89970139696E+00 -0.65801028787E+00 -0.38803607668E+00  0.11802593526E+01  0.00000000000E+00 0.  1.
         11    1    3    3    0    0  0.30280135697E+00  0.18028741823E+02  0.22036152106E+02  0.28473131550E+02  0.51100000000E-03 0. -1.
        -11    1    3    3    0    0 -0.15408546212E+02  0.41107108504E+01  0.11424453028E+02  0.19617323143E+02  0.51100000000E-03 0.  1.
        -12    1    3    3    0    0  0.14206043458E+02 -0.21481442386E+02 -0.33072569057E+02  0.41917285954E+02  0.00000000000E+00 0.  1.
</event>
<event>
 7    1  0.1716782E-015  0.9000772E+02  0.7816164E-02  0.1186339E+00
        -11   -1    0    0    0    0  0.00000000000E+00  0.00000000000E+00  0.45593999997E+02  0.45594000000E+02  0.51100000000E-03 0.  1.
         11   -1    0    0    0    0 -0.00000000000E+00 -0.00000000000E+00 -0.45593999997E+02  0.45594000000E+02  0.51100000000E-03 0. -1.
    9900012    2    1    2    0    0  0.16045151074E+00  0.11644503709E+01  0.10666637936E+00  0.90007717377E+02  0.89999978446E+02 0.  0.
        -12    1    1    2    0    0 -0.16045151074E+00 -0.11644503709E+01 -0.10666637936E+00  0.11802826230E+01  0.00000000000E+00 0.  1.
         11    1    3    3    0    0 -0.75871642435E+01  0.20982528114E+00  0.14199753870E+01  0.77217496895E+01  0.51100000000E-03 0. -1.
        -11    1    3    3    0    0 -0.11673710886E+02  0.35052770860E+01  0.37162867836E+02  0.39110628215E+02  0.51100000000E-03 0.  1.
         12    1    3    3    0    0  0.19421326641E+02 -0.25506519962E+01 -0.38476176844E+02  0.43175339473E+02  0.00000000000E+00 0. -1.
</event>
<event>
 7    1  0.1716782E-015  0.9000742E+02  0.7816164E-02  0.1186340E+00
        -11   -1    0    0    0    0  0.00000000000E+00  0.00000000000E+00  0.45593999997E+02  0.45594000000E+02  0.51100000000E-03 0. -1.
         11   -1    0    0    0    0 -0.00000000000E+00 -0.00000000000E+00 -0.45593999997E+02  0.45594000000E+02  0.51100000000E-03 0.  1.
    9900012    2    1    2    0    0  0.18335789980E+00 -0.11566441851E+01 -0.14943278207E+00  0.90007417073E+02  0.89999674178E+02 0.  0.
        -12    1    1    2    0    0 -0.18335789980E+00  0.11566441851E+01  0.14943278207E+00  0.11805829267E+01  0.00000000000E+00 0.  1.
         11    1    3    3    0    0  0.34059560040E-01 -0.32947806910E+02  0.18763301162E+02  0.37915967758E+02  0.51100000000E-03 0. -1.
        -11    1    3    3    0    0 -0.52092026557E+01 -0.40640573614E+00  0.81567727022E+01  0.96867899278E+01  0.51100000000E-03 0.  1.
        -12    1    3    3    0    0  0.53585009954E+01  0.32197568461E+02 -0.27069506646E+02  0.42404659388E+02  0.00000000000E+00 0.  1.
</event>
<event>
 7    1  0.1716782E-015  0.9000777E+02  0.7816164E-02  0.1186339E+00
        -11   -1    0    0    0    0  0.00000000000E+00  0.00000000000E+00  0.45593999997E+02  0.45594000000E+02  0.51100000000E-03 0. -1.
         11   -1    0    0    0    0 -0.00000000000E+00 -0.00000000000E+00 -0.45593999997E+02  0.45594000000E+02  0.51100000000E-03 0.  1.
    9900012    2    1    2    0    0 -0.83296320210E+00 -0.78420777762E+00  0.29004251472E+00  0.90007773668E+02  0.90000035480E+02 0.  0.
        -12    1    1    2    0    0  0.83296320210E+00  0.78420777762E+00 -0.29004251472E+00  0.11802263321E+01  0.00000000000E+00 0.  1.
         11    1    3    3    0    0  0.33947377978E+02 -0.12181624352E+02  0.23475421750E+02  0.43033845634E+02  0.51100000000E-03 0. -1.
        -11    1    3    3    0    0 -0.19387732910E+01  0.75163411801E+01 -0.38267225081E+01  0.86543649117E+01  0.51100000000E-03 0.  1.
        -12    1    3    3    0    0 -0.32841567889E+02  0.38810753939E+01 -0.19358656727E+02  0.38319563123E+02  0.00000000000E+00 0.  1.
</event>
<event>
 7    1  0.1716782E-015  0.9000790E+02  0.7816164E-02  0.1186339E+00
        -11   -1    0    0    0    0  0.00000000000E+00  0.00000000000E+00  0.45593999997E+02  0.45594000000E+02  0.51100000000E-03 0.  1.
         11   -1    0    0    0    0 -0.00000000000E+00 -0.00000000000E+00 -0.45593999997E+02  0.45594000000E+02  0.51100000000E-03 0. -1.
    9900012    2    1    2    0    0 -0.27004575816E+00 -0.54375215608E+00 -0.10119482369E+01  0.90007902397E+02  0.90000165908E+02 0.  0.
        -12    1    1    2    0    0  0.27004575816E+00  0.54375215608E+00  0.10119482369E+01  0.11800976031E+01  0.00000000000E+00 0.  1.
         11    1    3    3    0    0  0.15831710095E+02 -0.32481397296E+02  0.74924554555E+01  0.36902860375E+02  0.51100000000E-03 0. -1.
        -11    1    3    3    0    0 -0.57083374181E+01 -0.86931839424E+01 -0.52110145991E+00  0.10412881932E+02  0.51100000000E-03 0.  1.
        -12    1    3    3    0    0 -0.10393418435E+02  0.40630829082E+02 -0.79833022325E+01  0.42692160090E+02  0.00000000000E+00 0.  1.
</event>
<event>
 7    1  0.1716782E-015  0.9000778E+02  0.7816164E-02  0.1186339E+00
        -11   -1    0    0    0    0  0.00000000000E+00  0.00000000000E+00  0.45593999997E+02  0.45594000000E+02  0.51100000000E-03 0. -1.
         11   -1    0    0    0    0 -0.00000000000E+00 -0.00000000000E+00 -0.45593999997E+02  0.45594000000E+02  0.51100000000E-03 0.  1.
    9900012    2    1    2    0    0  0.27118864709E+00  0.10990036950E+01 -0.33401012115E+00  0.90007781730E+02  0.90000043649E+02 0.  0.
        -12    1    1    2    0    0 -0.27118864709E+00 -0.10990036950E+01  0.33401012115E+00  0.11802182701E+01  0.00000000000E+00 0.  1.
         11    1    3    3    0    0 -0.38609326920E+01 -0.25845479385E+02  0.28354881472E+02  0.38560276314E+02  0.51100000000E-03 0. -1.
        -11    1    3    3    0    0  0.75576534369E+01  0.92403220235E+00  0.47234415081E+01  0.89600703639E+01  0.51100000000E-03 0.  1.
        -12    1    3    3    0    0 -0.34255320979E+01  0.26020450877E+02 -0.33412333101E+02  0.42487435052E+02  0.00000000000E+00 0.  1.
</event>
<event>
 7    1  0.1716782E-015  0.9000770E+02  0.7816164E-02  0.1186339E+00
        -11   -1    0    0    0    0  0.00000000000E+00  0.00000000000E+00  0.45593999997E+02  0.45594000000E+02  0.51100000000E-03 0.  1.
         11   -1    0    0    0    0 -0.00000000000E+00 -0.00000000000E+00 -0.45593999997E+02  0.45594000000E+02  0.51100000000E-03 0. -1.
    9900012    2    1    2    0    0  0.36791990923E+00  0.73020390153E+00 -0.85120572190E+00  0.90007697506E+02  0.89999958313E+02 0.  0.
        -12    1    1    2    0    0 -0.36791990923E+00 -0.73020390153E+00  0.85120572190E+00  0.11803024945E+01  0.00000000000E+00 0.  1.
         11    1    3    3    0    0  0.45342633132E+01 -0.81896967637E+01  0.28274029789E+01  0.97787977145E+01  0.51100000000E-03 0. -1.
        -11    1    3    3    0    0  0.16498685189E+01 -0.20551891753E+02  0.29166426365E+02  0.35718101124E+02  0.51100000000E-03 0.  1.
         12    1    3    3    0    0 -0.58162119228E+01  0.29471792418E+02 -0.32845035066E+02  0.44510798667E+02  0.00000000000E+00 0. -1.
</event>
<event>
 7    1  0.1716782E-015  0.9000773E+02  0.7816164E-02  0.1186339E+00
        -11   -1    0    0    0    0  0.00000000000E+00  0.00000000000E+00  0.45593999997E+02  0.45594000000E+02  0.51100000000E-03 0.  1.
         11   -1    0    0    0    0 -0.00000000000E+00 -0.00000000000E+00 -0.45593999997E+02  0.45594000000E+02  0.51100000000E-03 0. -1.
    9900012    2    1    2    0    0 -0.94915701857E+00 -0.45655498797E+00 -0.53262225530E+00  0.90007733941E+02  0.89999995229E+02 0.  0.
        -12    1    1    2    0    0  0.94915701857E+00  0.45655498797E+00  0.53262225530E+00  0.11802660589E+01  0.00000000000E+00 0.  1.
         11    1    3    3    0    0 -0.89091644804E+01  0.22689788018E+02 -0.22986604216E+02  0.33504979715E+02  0.51100000000E-03 0. -1.
        -11    1    3    3    0    0  0.77050138243E+01 -0.17906800043E+02 -0.11173035879E+02  0.22469033286E+02  0.51100000000E-03 0.  1.
        -12    1    3    3    0    0  0.25499363755E+00 -0.52395429630E+01  0.33627017840E+02  0.34033720940E+02  0.00000000000E+00 0.  1.
</event>
<event>
 7    1  0.1716782E-015  0.9000768E+02  0.7816164E-02  0.1186339E+00
        -11   -1    0    0    0    0  0.00000000000E+00  0.00000000000E+00  0.45593999997E+02  0.45594000000E+02  0.51100000000E-03 0.  1.
         11   -1    0    0    0    0 -0.00000000000E+00 -0.00000000000E+00 -0.45593999997E+02  0.45594000000E+02  0.51100000000E-03 0. -1.
    9900012    2    1    2    0    0  0.92354182591E+00 -0.41157875440E+00 -0.60894747493E+00  0.90007684956E+02  0.89999945598E+02 0.  0.
        -12    1    1    2    0    0 -0.92354182591E+00  0.41157875440E+00  0.60894747493E+00  0.11803150437E+01  0.00000000000E+00 0.  1.
         11    1    3    3    0    0  0.23380910053E+02  0.25440163844E+02 -0.11816949104E+02  0.36517244936E+02  0.51100000000E-03 0. -1.
        -11    1    3    3    0    0  0.85882105600E+00  0.33850266261E+01 -0.99354927586E+01  0.10531381461E+02  0.51100000000E-03 0.  1.
        -12    1    3    3    0    0 -0.23316189283E+02 -0.29236769225E+02  0.21143494388E+02  0.42959058559E+02  0.00000000000E+00 0.  1.
</event>
<event>
 7    1  0.1716782E-015  0.9000774E+02  0.7816164E-02  0.1186339E+00
        -11   -1    0    0    0    0  0.00000000000E+00  0.00000000000E+00  0.45593999997E+02  0.45594000000E+02  0.51100000000E-03 0.  1.
         11   -1    0    0    0    0 -0.00000000000E+00 -0.00000000000E+00 -0.45593999997E+02  0.45594000000E+02  0.51100000000E-03 0. -1.
    9900012    2    1    2    0    0  0.64350852406E+00 -0.56957358512E+00 -0.80900235168E+00  0.90007744903E+02  0.90000006336E+02 0.  0.
        -12    1    1    2    0    0 -0.64350852406E+00  0.56957358512E+00  0.80900235168E+00  0.11802550972E+01  0.00000000000E+00 0.  1.
         11    1    3    3    0    0 -0.75326087480E+00 -0.41341000986E+01  0.95289281991E+01  0.10414348681E+02  0.51100000000E-03 0. -1.
        -11    1    3    3    0    0  0.24359553461E+02 -0.25970511781E+02  0.10035684732E+02  0.36994192724E+02  0.51100000000E-03 0.  1.
         12    1    3    3    0    0 -0.22962784063E+02  0.29535038294E+02 -0.20373615282E+02  0.42599203498E+02  0.00000000000E+00 0. -1.
</event>
<event>
 7    1  0.1716782E-015  0.9000765E+02  0.7816164E-02  0.1186339E+00
        -11   -1    0    0    0    0  0.00000000000E+00  0.00000000000E+00  0.45593999997E+02  0.45594000000E+02  0.51100000000E-03 0.  1.
         11   -1    0    0    0    0 -0.00000000000E+00 -0.00000000000E+00 -0.45593999997E+02  0.45594000000E+02  0.51100000000E-03 0. -1.
    9900012    2    1    2    0    0 -0.69120074466E+00 -0.39246851167E+00 -0.87259710540E+00  0.90007654411E+02  0.89999914649E+02 0.  0.
        -12    1    1    2    0    0  0.69120074466E+00  0.39246851167E+00  0.87259710540E+00  0.11803455894E+01  0.00000000000E+00 0.  1.
         11    1    3    3    0    0  0.56878675871E+01  0.36115253242E+01 -0.71051387125E+01  0.97917286135E+01  0.51100000000E-03 0. -1.
        -11    1    3    3    0    0  0.27104688432E+02 -0.74612398393E+01  0.28359960716E+02  0.39932713495E+02  0.51100000000E-03 0.  1.
         12    1    3    3    0    0 -0.33483756764E+02  0.34572460034E+01 -0.22127419109E+02  0.40283212302E+02  0.00000000000E+00 0. -1.
</event>
<event>
 7    1  0.1716782E-015  0.9000776E+02  0.7816164E-02  0.1186339E+00
        -11   -1    0    0    0    0  0.00000000000E+00  0.00000000000E+00  0.45593999997E+02  0.45594000000E+02  0.51100000000E-03 0.  1.
         11   -1    0    0    0    0 -0.00000000000E+00 -0.00000000000E+00 -0.45593999997E+02  0.45594000000E+02  0.51100000000E-03 0. -1.
    9900012    2    1    2    0    0  0.59573479539E+00  0.23828529834E+00 -0.99060112622E+00  0.90007758321E+02  0.90000019931E+02 0.  0.
        -12    1    1    2    0    0 -0.59573479539E+00 -0.23828529834E+00  0.99060112622E+00  0.11802416791E+01  0.00000000000E+00 0.  1.
         11    1    3    3    0    0  0.16252358262E+01 -0.78553225433E+01  0.46464285820E+01  0.92702094139E+01  0.51100000000E-03 0. -1.
        -11    1    3    3    0    0 -0.38141057098E+02 -0.61874208505E+00 -0.15794991645E+02  0.41286860375E+02  0.51100000000E-03 0.  1.
         12    1    3    3    0    0  0.37111556067E+02  0.87123499267E+01  0.10157961937E+02  0.39450688532E+02  0.00000000000E+00 0. -1.
</event>
<event>
 7    1  0.1716782E-015  0.9000772E+02  0.7816164E-02  0.1186339E+00
        -11   -1    0    0    0    0  0.00000000000E+00  0.00000000000E+00  0.45593999997E+02  0.45594000000E+02  0.51100000000E-03 0. -1.
         11   -1    0    0    0    0 -0.00000000000E+00 -0.00000000000E+00 -0.45593999997E+02  0.45594000000E+02  0.51100000000E-03 0.  1.
    9900012    2    1    2    0    0  0.10714333485E+01 -0.45927797682E+00  0.18479984129E+00  0.90007721786E+02  0.89999982914E+02 0.  0.
        -12    1    1    2    0    0 -0.10714333485E+01  0.45927797682E+00 -0.18479984129E+00  0.11802782137E+01  0.00000000000E+00 0.  1.
         11    1    3    3    0    0 -0.24336206418E+02 -0.28770062090E+02 -0.16830249800E+02  0.41270143253E+02  0.51100000000E-03 0. -1.
        -11    1    3    3    0    0 -0.14187965349E+01  0.91495256887E+01 -0.35118016562E+01  0.99025024650E+01  0.51100000000E-03 0.  1.
        -12    1    3    3    0    0  0.26826436302E+02  0.19161258425E+02  0.20526851298E+02  0.38835076069E+02  0.00000000000E+00 0.  1.
</event>
<event>
 7    1  0.1716782E-015  0.9000769E+02  0.7816164E-02  0.1186339E+00
        -11   -1    0    0    0    0  0.00000000000E+00  0.00000000000E+00  0.45593999997E+02  0.45594000000E+02  0.51100000000E-03 0. -1.
         11   -1    0    0    0    0 -0.00000000000E+00 -0.00000000000E+00 -0.45593999997E+02  0.45594000000E+02  0.51100000000E-03 0.  1.
    9900012    2    1    2    0    0  0.28734130533E+00 -0.11979521861E+00  0.11385106988E+01  0.90007693882E+02  0.89999954642E+02 0.  0.
        -12    1    1    2    0    0 -0.28734130533E+00  0.11979521861E+00 -0.11385106988E+01  0.11803061177E+01  0.00000000000E+00 0.  1.
         11    1    3    3    0    0 -0.83630481428E+01 -0.50897910489E+01  0.36941240371E+00  0.97970920658E+01  0.51100000000E-03 0. -1.
        -11    1    3    3    0    0  0.34154215322E+02 -0.21966328964E+02 -0.95325426922E+01  0.41712101396E+02  0.51100000000E-03 0.  1.
         12    1    3    3    0    0 -0.25503825874E+02  0.26936324794E+02  0.10301640987E+02  0.38498500421E+02  0.00000000000E+00 0. -1.
</event>
<event>
 7    1  0.1716782E-015  0.9000771E+02  0.7816164E-02  0.1186339E+00
        -11   -1    0    0    0    0  0.00000000000E+00  0.00000000000E+00  0.45593999997E+02  0.45594000000E+02  0.51100000000E-03 0.  1.
         11   -1    0    0    0    0 -0.00000000000E+00 -0.00000000000E+00 -0.45593999997E+02  0.45594000000E+02  0.51100000000E-03 0. -1.
    9900012    2    1    2    0    0  0.10059362563E+01  0.16557708272E+00 -0.59477014777E+00  0.90007713996E+02  0.89999975021E+02 0.  0.
        -12    1    1    2    0    0 -0.10059362563E+01 -0.16557708272E+00  0.59477014777E+00  0.11802860038E+01  0.00000000000E+00 0.  1.
         11    1    3    3    0    0 -0.31055095952E+02  0.19682999736E+02  0.32608679365E+00  0.36768815538E+02  0.51100000000E-03 0. -1.
        -11    1    3    3    0    0 -0.82887166825E+01 -0.57893197378E+01  0.26987060336E+01  0.10464323284E+02  0.51100000000E-03 0.  1.
        -12    1    3    3    0    0  0.40349748891E+02 -0.13728102915E+02 -0.36195629750E+01  0.42774575175E+02  0.00000000000E+00 0.  1.
</event>
<event>
 7    1  0.1770776E-015  0.9000774E+02  0.7816164E-02  0.1186339E+00
        -11   -1    0    0    0    0  0.00000000000E+00  0.00000000000E+00  0.45593999997E+02  0.45594000000E+02  0.51100000000E-03 0.  1.
         11   -1    0    0    0    0 -0.00000000000E+00 -0.00000000000E+00 -0.45593999997E+02  0.45594000000E+02  0.51100000000E-03 0. -1.
    9900012    2    1    2    0    0  0.58696237045E+00 -0.62943036465E+00 -0.80765817572E+00  0.90007737683E+02  0.89999999020E+02 0.  0.
        -12    1    1    2    0    0 -0.58696237045E+00  0.62943036465E+00  0.80765817572E+00  0.11802623171E+01  0.00000000000E+00 0.  1.
         11    1    3    3    0    0 -0.10996894794E+02 -0.12015673984E+02 -0.34362002245E+02  0.38027034002E+02  0.51100000000E-03 0. -1.
        -11    1    3    3    0    0  0.63489108741E+01  0.38136921649E+01 -0.71223724829E+01  0.10275266773E+02  0.51100000000E-03 0.  1.
        -12    1    3    3    0    0  0.52349462908E+01  0.75725514541E+01  0.40676716552E+02  0.41705436908E+02  0.00000000000E+00 0.  1.
</event>
<event>
 7    1  0.1996465E-015  0.9000767E+02  0.7816164E-02  0.1186339E+00
        -11   -1    0    0    0    0  0.00000000000E+00  0.00000000000E+00  0.45593999997E+02  0.45594000000E+02  0.51100000000E-03 0.  1.
         11   -1    0    0    0    0 -0.00000000000E+00 -0.00000000000E+00 -0.45593999997E+02  0.45594000000E+02  0.51100000000E-03 0. -1.
    9900012    2    1    2    0    0  0.19590822099E+00 -0.28345254256E+00 -0.11289160183E+01  0.90007670914E+02  0.89999931370E+02 0.  0.
        -12    1    1    2    0    0 -0.19590822099E+00  0.28345254256E+00  0.11289160183E+01  0.11803290861E+01  0.00000000000E+00 0.  1.
         11    1    3    3    0    0  0.80899321958E+01 -0.99438719127E+01 -0.37466192740E+02  0.39598525102E+02  0.51100000000E-03 0. -1.
        -11    1    3    3    0    0 -0.70685364782E+01  0.55255058043E+01 -0.40205901716E+01  0.98316106476E+01  0.51100000000E-03 0.  1.
        -12    1    3    3    0    0 -0.82548749667E+00  0.41349135658E+01  0.40357866894E+02  0.40577535164E+02  0.00000000000E+00 0.  1.
</event>
<event>
 7    1  0.1716782E-015  0.9000785E+02  0.7816164E-02  0.1186339E+00
        -11   -1    0    0    0    0  0.00000000000E+00  0.00000000000E+00  0.45593999997E+02  0.45594000000E+02  0.51100000000E-03 0. -1.
         11   -1    0    0    0    0 -0.00000000000E+00 -0.00000000000E+00 -0.45593999997E+02  0.45594000000E+02  0.51100000000E-03 0.  1.
    9900012    2    1    2    0    0  0.62971019912E+00  0.77512300164E+00 -0.62881061668E+00  0.90007850266E+02  0.90000113090E+02 0.  0.
        -12    1    1    2    0    0 -0.62971019912E+00 -0.77512300164E+00  0.62881061668E+00  0.11801497338E+01  0.00000000000E+00 0.  1.
         11    1    3    3    0    0  0.66678493581E+01  0.59900733622E+01 -0.34361671399E+01  0.95993978364E+01  0.51100000000E-03 0. -1.
        -11    1    3    3    0    0 -0.25194037813E+01  0.33920779125E+02 -0.15113970549E+02  0.37220945150E+02  0.51100000000E-03 0.  1.
         12    1    3    3    0    0 -0.35187353777E+01 -0.39135729486E+02  0.17921327072E+02  0.43187507280E+02  0.00000000000E+00 0. -1.
</event>
<event>
 7    1  0.1716782E-015  0.9000775E+02  0.7816164E-02  0.1186339E+00
        -11   -1    0    0    0    0  0.00000000000E+00  0.00000000000E+00  0.45593999997E+02  0.45594000000E+02  0.51100000000E-03 0.  1.
         11   -1    0    0    0    0 -0.00000000000E+00 -0.00000000000E+00 -0.45593999997E+02  0.45594000000E+02  0.51100000000E-03 0. -1.
    9900012    2    1    2    0    0 -0.63951422559E+00  0.97839083767E+00 -0.16360449210E+00  0.90007748541E+02  0.90000010022E+02 0.  0.
        -12    1    1    2    0    0  0.63951422559E+00 -0.97839083767E+00  0.16360449210E+00  0.11802514587E+01  0.00000000000E+00 0.  1.
         11    1    3    3    0    0  0.40794820376E+01 -0.21488577545E+02  0.12307520647E+01  0.21906982665E+02  0.51100000000E-03 0. -1.
        -11    1    3    3    0    0 -0.18936876452E+02 -0.17424359749E+02 -0.86865113049E+00  0.25748168041E+02  0.51100000000E-03 0.  1.
         12    1    3    3    0    0  0.14217880189E+02  0.39891328131E+02 -0.52570542630E+00  0.42352597835E+02  0.00000000000E+00 0. -1.
</event>
<event>
 7    1  0.1716782E-015  0.9000675E+02  0.7816164E-02  0.1186341E+00
        -11   -1    0    0    0    0  0.00000000000E+00  0.00000000000E+00  0.45593999997E+02  0.45594000000E+02  0.51100000000E-03 0.  1.
         11   -1    0    0    0    0 -0.00000000000E+00 -0.00000000000E+00 -0.45593999997E+02  0.45594000000E+02  0.51100000000E-03 0. -1.
    9900012    2    1    2    0    0  0.57520746011E+00  0.74179749367E+00 -0.71710248849E+00  0.90006745107E+02  0.89998993337E+02 0.  0.
        -12    1    1    2    0    0 -0.57520746011E+00 -0.74179749367E+00  0.71710248849E+00  0.11812548932E+01  0.00000000000E+00 0.  1.
         11    1    3    3    0    0  0.15653359917E+02 -0.34790395363E+02 -0.53725174673E+01  0.38526136978E+02  0.51100000000E-03 0. -1.
        -11    1    3    3    0    0  0.16399978132E+01 -0.52354184343E+01  0.49911627934E+01  0.74169336859E+01  0.51100000000E-03 0.  1.
        -12    1    3    3    0    0 -0.16718150270E+02  0.40767611291E+02 -0.33574781452E+00  0.44063674443E+02  0.00000000000E+00 0.  1.
</event>
<event>
 7    1  0.1716782E-015  0.9000772E+02  0.7816164E-02  0.1186339E+00
        -11   -1    0    0    0    0  0.00000000000E+00  0.00000000000E+00  0.45593999997E+02  0.45594000000E+02  0.51100000000E-03 0.  1.
         11   -1    0    0    0    0 -0.00000000000E+00 -0.00000000000E+00 -0.45593999997E+02  0.45594000000E+02  0.51100000000E-03 0. -1.
    9900012    2    1    2    0    0 -0.19224725016E+00  0.80447304817E-01 -0.11617345732E+01  0.90007721222E+02  0.89999982343E+02 0.  0.
        -12    1    1    2    0    0  0.19224725016E+00 -0.80447304817E-01  0.11617345732E+01  0.11802787775E+01  0.00000000000E+00 0.  1.
         11    1    3    3    0    0  0.25440969656E+02  0.17083831080E+02 -0.19148061962E+02  0.36135142155E+02  0.51100000000E-03 0. -1.
        -11    1    3    3    0    0  0.49068619946E+01  0.17540533750E+01 -0.80387041247E+01  0.95799145164E+01  0.51100000000E-03 0.  1.
        -12    1    3    3    0    0 -0.30540078901E+02 -0.18757437150E+02  0.26025031514E+02  0.44292664551E+02  0.00000000000E+00 0.  1.
</event>
<event>
 7    1  0.1716782E-015  0.9000759E+02  0.7816164E-02  0.1186339E+00
        -11   -1    0    0    0    0  0.00000000000E+00  0.00000000000E+00  0.45593999997E+02  0.45594000000E+02  0.51100000000E-03 0.  1.
         11   -1    0    0    0    0 -0.00000000000E+00 -0.00000000000E+00 -0.45593999997E+02  0.45594000000E+02  0.51100000000E-03 0. -1.
    9900012    2    1    2    0    0 -0.65767780327E+00 -0.23281515085E+00 -0.95216264210E+00  0.90007594695E+02  0.89999854145E+02 0.  0.
        -12    1    1    2    0    0  0.65767780327E+00  0.23281515085E+00  0.95216264210E+00  0.11804053051E+01  0.00000000000E+00 0.  1.
         11    1    3    3    0    0  0.33035390563E+00  0.24966817245E+02 -0.28930709883E+02  0.38215665265E+02  0.51100000000E-03 0. -1.
        -11    1    3    3    0    0  0.10005657614E+00 -0.39720130568E+01 -0.86070997771E+01  0.94799296345E+01  0.51100000000E-03 0.  1.
        -12    1    3    3    0    0 -0.10880882850E+01 -0.21227619339E+02  0.36585647018E+02  0.42311999795E+02  0.00000000000E+00 0.  1.
</event>
<event>
 7    1  0.1716782E-015  0.9000877E+02  0.7816164E-02  0.1186337E+00
        -11   -1    0    0    0    0  0.00000000000E+00  0.00000000000E+00  0.45593999997E+02  0.45594000000E+02  0.51100000000E-03 0.  1.
         11   -1    0    0    0    0 -0.00000000000E+00 -0.00000000000E+00 -0.45593999997E+02  0.45594000000E+02  0.51100000000E-03 0. -1.
    9900012    2    1    2    0    0  0.76819449609E+00  0.65918257346E+00 -0.60492484142E+00  0.90008772069E+02  0.90001047054E+02 0.  0.
        -12    1    1    2    0    0 -0.76819449609E+00 -0.65918257346E+00  0.60492484142E+00  0.11792279308E+01  0.00000000000E+00 0.  1.
         11    1    3    3    0    0 -0.76316237847E+01 -0.36294137564E+00  0.55896910342E+00  0.76606693410E+01  0.51100000000E-03 0. -1.
        -11    1    3    3    0    0 -0.14041537962E+02  0.37020841886E+02  0.30894158353E+01  0.39714632225E+02  0.51100000000E-03 0.  1.
         12    1    3    3    0    0  0.22441356243E+02 -0.35998717937E+02 -0.42533097801E+01  0.42633470504E+02  0.00000000000E+00 0. -1.
</event>
<event>
 7    1  0.1716782E-015  0.9000788E+02  0.7816164E-02  0.1186339E+00
        -11   -1    0    0    0    0  0.00000000000E+00  0.00000000000E+00  0.45593999997E+02  0.45594000000E+02  0.51100000000E-03 0.  1.
         11   -1    0    0    0    0 -0.00000000000E+00 -0.00000000000E+00 -0.45593999997E+02  0.45594000000E+02  0.51100000000E-03 0. -1.
    9900012    2    1    2    0    0  0.56562418192E+00  0.10323867761E+01  0.83299917082E-01  0.90007876258E+02  0.90000139424E+02 0.  0.
        -12    1    1    2    0    0 -0.56562418192E+00 -0.10323867761E+01 -0.83299917082E-01  0.11801237421E+01  0.00000000000E+00 0.  1.
         11    1    3    3    0    0  0.10561434819E+01  0.75540022496E+01 -0.71589114695E+01  0.10460803159E+02  0.51100000000E-03 0. -1.
        -11    1    3    3    0    0  0.38560898370E+02 -0.47552733797E+01 -0.34895466696E+01  0.39009389181E+02  0.51100000000E-03 0.  1.
         12    1    3    3    0    0 -0.39051417670E+02 -0.17663420938E+01  0.10731758056E+02  0.40537683918E+02  0.00000000000E+00 0. -1.
</event>
<event>
 7    1  0.1716782E-015  0.9000775E+02  0.7816164E-02  0.1186339E+00
        -11   -1    0    0    0    0  0.00000000000E+00  0.00000000000E+00  0.45593999997E+02  0.45594000000E+02  0.51100000000E-03 0.  1.
         11   -1    0    0    0    0 -0.00000000000E+00 -0.00000000000E+00 -0.45593999997E+02  0.45594000000E+02  0.51100000000E-03 0. -1.
    9900012    2    1    2    0    0  0.15872617696E+00 -0.11681134798E+01  0.57602963297E-01  0.90007745281E+02  0.90000006718E+02 0.  0.
        -12    1    1    2    0    0 -0.15872617696E+00  0.11681134798E+01 -0.57602963297E-01  0.11802547192E+01  0.00000000000E+00 0.  1.
         11    1    3    3    0    0 -0.27443816661E+02 -0.15423526513E+01  0.91975101566E+01  0.28985101655E+02  0.51100000000E-03 0. -1.
        -11    1    3    3    0    0 -0.67641434806E+01 -0.95821351831E+00  0.16674669073E+02  0.18019888987E+02  0.51100000000E-03 0.  1.
        -12    1    3    3    0    0  0.34366686318E+02  0.13324526898E+01 -0.25814576266E+02  0.43002754638E+02  0.00000000000E+00 0.  1.
</event>
<event>
 7    1  0.1716782E-015  0.9000774E+02  0.7816164E-02  0.1186339E+00
        -11   -1    0    0    0    0  0.00000000000E+00  0.00000000000E+00  0.45593999997E+02  0.45594000000E+02  0.51100000000E-03 0.  1.
         11   -1    0    0    0    0 -0.00000000000E+00 -0.00000000000E+00 -0.45593999997E+02  0.45594000000E+02  0.51100000000E-03 0. -1.
    9900012    2    1    2    0    0  0.47584483669E+00 -0.93524194603E-01 -0.10760309661E+01  0.90007738282E+02  0.89999999627E+02 0.  0.
        -12    1    1    2    0    0 -0.47584483669E+00  0.93524194603E-01  0.10760309661E+01  0.11802617183E+01  0.00000000000E+00 0.  1.
         11    1    3    3    0    0  0.11469527449E+02  0.34610888612E+01  0.62905088837E+01  0.13531433711E+02  0.51100000000E-03 0. -1.
        -11    1    3    3    0    0  0.27787349369E+02  0.13314825373E+02  0.73865453055E+01  0.31685681490E+02  0.51100000000E-03 0.  1.
         12    1    3    3    0    0 -0.38781031980E+02 -0.16869438429E+02 -0.14753085155E+02  0.44790623081E+02  0.00000000000E+00 0. -1.
</event>
<event>
 7    1  0.1716782E-015  0.9000773E+02  0.7816164E-02  0.1186339E+00
        -11   -1    0    0    0    0  0.00000000000E+00  0.00000000000E+00  0.45593999997E+02  0.45594000000E+02  0.51100000000E-03 0.  1.
         11   -1    0    0    0    0 -0.00000000000E+00 -0.00000000000E+00 -0.45593999997E+02  0.45594000000E+02  0.51100000000E-03 0. -1.
    9900012    2    1    2    0    0 -0.54960718300E+00 -0.52285069532E+00 -0.90421107702E+00  0.90007729448E+02  0.89999990676E+02 0.  0.
        -12    1    1    2    0    0  0.54960718300E+00  0.52285069532E+00  0.90421107702E+00  0.11802705525E+01  0.00000000000E+00 0.  1.
         11    1    3    3    0    0 -0.64702245443E+01  0.17587297849E+01  0.63601093783E+01  0.92416409623E+01  0.51100000000E-03 0. -1.
        -11    1    3    3    0    0 -0.12796949540E+02  0.28677453476E+02 -0.25314324224E+02  0.40335756675E+02  0.51100000000E-03 0.  1.
         12    1    3    3    0    0  0.18717566902E+02 -0.30959033956E+02  0.18050003769E+02  0.40430331810E+02  0.00000000000E+00 0. -1.
</event>
<event>
 7    1  0.1716782E-015  0.9000775E+02  0.7816164E-02  0.1186339E+00
        -11   -1    0    0    0    0  0.00000000000E+00  0.00000000000E+00  0.45593999997E+02  0.45594000000E+02  0.51100000000E-03 0. -1.
         11   -1    0    0    0    0 -0.00000000000E+00 -0.00000000000E+00 -0.45593999997E+02  0.45594000000E+02  0.51100000000E-03 0.  1.
    9900012    2    1    2    0    0  0.65803289730E-01 -0.10822632139E+01  0.46622596259E+00  0.90007749863E+02  0.90000011361E+02 0.  0.
        -12    1    1    2    0    0 -0.65803289730E-01  0.10822632139E+01 -0.46622596259E+00  0.11802501368E+01  0.00000000000E+00 0.  1.
         11    1    3    3    0    0 -0.69695048685E+01  0.49460805081E+01 -0.43766523365E+01  0.96017079960E+01  0.51100000000E-03 0. -1.
        -11    1    3    3    0    0  0.76440501571E+01  0.20071490670E+02 -0.29982536129E+02  0.36881549771E+02  0.51100000000E-03 0.  1.
         12    1    3    3    0    0 -0.60874199889E+00 -0.26099834392E+02  0.34825414428E+02  0.43524492096E+02  0.00000000000E+00 0. -1.
</event>
<event>
 7    1  0.1716782E-015  0.9000766E+02  0.7816164E-02  0.1186339E+00
        -11   -1    0    0    0    0  0.00000000000E+00  0.00000000000E+00  0.45593999997E+02  0.45594000000E+02  0.51100000000E-03 0.  1.
         11   -1    0    0    0    0 -0.00000000000E+00 -0.00000000000E+00 -0.45593999997E+02  0.45594000000E+02  0.51100000000E-03 0. -1.
    9900012    2    1    2    0    0 -0.55850872786E+00 -0.54581160019E+00 -0.88507483214E+00  0.90007661167E+02  0.89999921494E+02 0.  0.
        -12    1    1    2    0    0  0.55850872786E+00  0.54581160019E+00  0.88507483214E+00  0.11803388329E+01  0.00000000000E+00 0.  1.
         11    1    3    3    0    0  0.32040967716E+02  0.25413272937E+02 -0.33833657739E+01  0.41035414190E+02  0.51100000000E-03 0. -1.
        -11    1    3    3    0    0 -0.44126491579E+01 -0.26231756019E+01 -0.92164237082E+01  0.10549644025E+02  0.51100000000E-03 0.  1.
        -12    1    3    3    0    0 -0.28186827286E+02 -0.23335908935E+02  0.11714714650E+02  0.38422602952E+02  0.00000000000E+00 0.  1.
</event>
<event>
 7    1  0.2251887E-015  0.9000789E+02  0.7816164E-02  0.1186339E+00
        -11   -1    0    0    0    0  0.00000000000E+00  0.00000000000E+00  0.45593999997E+02  0.45594000000E+02  0.51100000000E-03 0. -1.
         11   -1    0    0    0    0 -0.00000000000E+00 -0.00000000000E+00 -0.45593999997E+02  0.45594000000E+02  0.51100000000E-03 0.  1.
    9900012    2    1    2    0    0 -0.36041986057E+00 -0.63161177617E+00  0.92941916339E+00  0.90007891576E+02  0.90000154944E+02 0.  0.
        -12    1    1    2    0    0  0.36041986057E+00  0.63161177617E+00 -0.92941916339E+00  0.11801084242E+01  0.00000000000E+00 0.  1.
         11    1    3    3    0    0  0.20631288675E+02 -0.28938115597E+02  0.20113769601E+02  0.40836605326E+02  0.51100000000E-03 0. -1.
        -11    1    3    3    0    0  0.67516048252E+01  0.29351644642E+01 -0.53943977518E+01  0.91268223119E+01  0.51100000000E-03 0.  1.
        -12    1    3    3    0    0 -0.27743313361E+02  0.25371339357E+02 -0.13789952686E+02  0.40044463938E+02  0.00000000000E+00 0.  1.
</event>
<event>
 7    1  0.1716782E-015  0.9000708E+02  0.7816164E-02  0.1186340E+00
        -11   -1    0    0    0    0  0.00000000000E+00  0.00000000000E+00  0.45593999997E+02  0.45594000000E+02  0.51100000000E-03 0. -1.
         11   -1    0    0    0    0 -0.00000000000E+00 -0.00000000000E+00 -0.45593999997E+02  0.45594000000E+02  0.51100000000E-03 0.  1.
    9900012    2    1    2    0    0  0.11565890181E+01  0.18653817533E+00  0.14857015237E+00  0.90007081824E+02  0.89999334502E+02 0.  0.
        -12    1    1    2    0    0 -0.11565890181E+01 -0.18653817533E+00 -0.14857015237E+00  0.11809181758E+01  0.00000000000E+00 0.  1.
         11    1    3    3    0    0 -0.12263354223E+01  0.32275391719E+02  0.18100362028E+02  0.37024693314E+02  0.51100000000E-03 0. -1.
        -11    1    3    3    0    0 -0.62404399475E+00  0.84964225972E+01 -0.64686447427E+01  0.10696821627E+02  0.51100000000E-03 0.  1.
        -12    1    3    3    0    0  0.30069684352E+01 -0.40585276141E+02 -0.11483147133E+02  0.42285566883E+02  0.00000000000E+00 0.  1.
</event>
<event>
 7    1  0.1716782E-015  0.9000776E+02  0.7816164E-02  0.1186339E+00
        -11   -1    0    0    0    0  0.00000000000E+00  0.00000000000E+00  0.45593999997E+02  0.45594000000E+02  0.51100000000E-03 0.  1.
         11   -1    0    0    0    0 -0.00000000000E+00 -0.00000000000E+00 -0.45593999997E+02  0.45594000000E+02  0.51100000000E-03 0. -1.
    9900012    2    1    2    0    0 -0.63191586898E-01  0.23085484931E-01 -0.11783205562E+01  0.90007760427E+02  0.90000022065E+02 0.  0.
        -12    1    1    2    0    0  0.63191586898E-01 -0.23085484931E-01  0.11783205562E+01  0.11802395729E+01  0.00000000000E+00 0.  1.
         11    1    3    3    0    0 -0.71016501407E+01  0.20191258724E+01 -0.20699478428E+01  0.76677890126E+01  0.51100000000E-03 0. -1.
        -11    1    3    3    0    0 -0.36980510592E+02  0.18475063210E+01  0.71556238474E+01  0.37711727568E+02  0.51100000000E-03 0.  1.
         12    1    3    3    0    0  0.44018969146E+02 -0.38435467084E+01 -0.62639965608E+01  0.44628243847E+02  0.00000000000E+00 0. -1.
</event>
<event>
 7    1  0.1716782E-015  0.9000775E+02  0.7816164E-02  0.1186339E+00
        -11   -1    0    0    0    0  0.00000000000E+00  0.00000000000E+00  0.45593999997E+02  0.45594000000E+02  0.51100000000E-03 0.  1.
         11   -1    0    0    0    0 -0.00000000000E+00 -0.00000000000E+00 -0.45593999997E+02  0.45594000000E+02  0.51100000000E-03 0. -1.
    9900012    2    1    2    0    0  0.81390141084E+00 -0.34721763343E+00  0.78102159460E+00  0.90007749890E+02  0.90000011388E+02 0.  0.
        -12    1    1    2    0    0 -0.81390141084E+00  0.34721763343E+00 -0.78102159460E+00  0.11802501103E+01  0.00000000000E+00 0.  1.
         11    1    3    3    0    0  0.18660594163E+02  0.47028123198E+01 -0.11827746610E+02  0.22588267050E+02  0.51100000000E-03 0. -1.
        -11    1    3    3    0    0  0.15757437166E+02  0.12908874146E+02 -0.10439001220E+02  0.22889049882E+02  0.51100000000E-03 0.  1.
        -12    1    3    3    0    0 -0.33604129918E+02 -0.17958904099E+02  0.23047769424E+02  0.44530432958E+02  0.00000000000E+00 0.  1.
</event>
<event>
 7    1  0.1716782E-015  0.9000748E+02  0.7816164E-02  0.1186340E+00
        -11   -1    0    0    0    0  0.00000000000E+00  0.00000000000E+00  0.45593999997E+02  0.45594000000E+02  0.51100000000E-03 0.  1.
         11   -1    0    0    0    0 -0.00000000000E+00 -0.00000000000E+00 -0.45593999997E+02  0.45594000000E+02  0.51100000000E-03 0. -1.
    9900012    2    1    2    0    0 -0.44572094671E+00  0.40682759264E+00  0.10146208849E+01  0.90007478339E+02  0.89999736252E+02 0.  0.
        -12    1    1    2    0    0  0.44572094671E+00 -0.40682759264E+00 -0.10146208849E+01  0.11805216612E+01  0.00000000000E+00 0.  1.
         11    1    3    3    0    0 -0.57036399223E+01 -0.74415655684E+00 -0.52012114958E+01  0.77548616125E+01  0.51100000000E-03 0. -1.
        -11    1    3    3    0    0  0.75183509138E+01 -0.33346562318E+02  0.25517840364E+02  0.42657695625E+02  0.51100000000E-03 0.  1.
         12    1    3    3    0    0 -0.22604319383E+01  0.34497546468E+02 -0.19302007983E+02  0.39594921101E+02  0.00000000000E+00 0. -1.
</event>
<event>
 7    1  0.1716782E-015  0.9000771E+02  0.7816164E-02  0.1186339E+00
        -11   -1    0    0    0    0  0.00000000000E+00  0.00000000000E+00  0.45593999997E+02  0.45594000000E+02  0.51100000000E-03 0. -1.
         11   -1    0    0    0    0 -0.00000000000E+00 -0.00000000000E+00 -0.45593999997E+02  0.45594000000E+02  0.51100000000E-03 0.  1.
    9900012    2    1    2    0    0 -0.63300095378E+00 -0.57124331855E+00  0.81612943133E+00  0.90007713431E+02  0.89999974448E+02 0.  0.
        -12    1    1    2    0    0  0.63300095378E+00  0.57124331855E+00 -0.81612943133E+00  0.11802865691E+01  0.00000000000E+00 0.  1.
         11    1    3    3    0    0  0.28150536118E+01  0.32520866018E+01  0.11908192968E+02  0.12661186916E+02  0.51100000000E-03 0. -1.
        -11    1    3    3    0    0 -0.36131871382E+02  0.14351970957E+02 -0.89074987239E+01  0.39885269633E+02  0.51100000000E-03 0.  1.
         12    1    3    3    0    0  0.32683816817E+02 -0.18175300878E+02 -0.21845648130E+01  0.37461256881E+02  0.00000000000E+00 0. -1.
</event>
<event>
 7    1  0.1716782E-015  0.9000773E+02  0.7816164E-02  0.1186339E+00
        -11   -1    0    0    0    0  0.00000000000E+00  0.00000000000E+00  0.45593999997E+02  0.45594000000E+02  0.51100000000E-03 0.  1.
         11   -1    0    0    0    0 -0.00000000000E+00 -0.00000000000E+00 -0.45593999997E+02  0.45594000000E+02  0.51100000000E-03 0. -1.
    9900012    2    1    2    0    0 -0.84914662500E+00 -0.78310813990E+00 -0.24234759127E+00  0.90007728546E+02  0.89999989763E+02 0.  0.
        -12    1    1    2    0    0  0.84914662500E+00  0.78310813990E+00  0.24234759127E+00  0.11802714537E+01  0.00000000000E+00 0.  1.
         11    1    3    3    0    0 -0.12934698425E+01 -0.10524002835E+01 -0.11258803235E+02  0.11381619442E+02  0.51100000000E-03 0. -1.
        -11    1    3    3    0    0 -0.36098278146E+02  0.12226083787E+02  0.12609049652E+02  0.40144127132E+02  0.51100000000E-03 0.  1.
         12    1    3    3    0    0  0.36542601363E+02 -0.11956791644E+02 -0.15925940081E+01  0.38481981972E+02  0.00000000000E+00 0. -1.
</event>
<event>
 7    1  0.1716782E-015  0.9000784E+02  0.7816164E-02  0.1186339E+00
        -11   -1    0    0    0    0  0.00000000000E+00  0.00000000000E+00  0.45593999997E+02  0.45594000000E+02  0.51100000000E-03 0. -1.
         11   -1    0    0    0    0 -0.00000000000E+00 -0.00000000000E+00 -0.45593999997E+02  0.45594000000E+02  0.51100000000E-03 0.  1.
    9900012    2    1    2    0    0 -0.10980664522E+01  0.28527521080E-01 -0.43152905257E+00  0.90007838538E+02  0.90000101207E+02 0.  0.
        -12    1    1    2    0    0  0.10980664522E+01 -0.28527521080E-01  0.43152905257E+00  0.11801614619E+01  0.00000000000E+00 0.  1.
         11    1    3    3    0    0 -0.55480975022E+01 -0.14626195863E+01 -0.78076056693E+01  0.96891355908E+01  0.51100000000E-03 0. -1.
        -11    1    3    3    0    0 -0.13625930188E+02  0.12822537718E+02 -0.31116914311E+02  0.36309031983E+02  0.51100000000E-03 0.  1.
         12    1    3    3    0    0  0.18075961238E+02 -0.11331390611E+02  0.38492990928E+02  0.44009670965E+02  0.00000000000E+00 0. -1.
</event>
<event>
 7    1  0.1716782E-015  0.9000777E+02  0.7816164E-02  0.1186339E+00
        -11   -1    0    0    0    0  0.00000000000E+00  0.00000000000E+00  0.45593999997E+02  0.45594000000E+02  0.51100000000E-03 0.  1.
         11   -1    0    0    0    0 -0.00000000000E+00 -0.00000000000E+00 -0.45593999997E+02  0.45594000000E+02  0.51100000000E-03 0. -1.
    9900012    2    1    2    0    0 -0.90443680637E-02 -0.29908265897E+00 -0.11416700930E+01  0.90007770006E+02  0.90000031770E+02 0.  0.
        -12    1    1    2    0    0  0.90443680637E-02  0.29908265897E+00  0.11416700930E+01  0.11802299940E+01  0.00000000000E+00 0.  1.
         11    1    3    3    0    0 -0.21350725467E+02 -0.31466349126E+02 -0.22778420476E+02  0.44326527553E+02  0.51100000000E-03 0. -1.
        -11    1    3    3    0    0  0.11112178030E+02  0.54203494063E+01  0.48063156495E+01  0.13265042730E+02  0.51100000000E-03 0.  1.
        -12    1    3    3    0    0  0.10229503069E+02  0.25746917060E+02  0.16830434733E+02  0.32416199723E+02  0.00000000000E+00 0.  1.
</event>
<event>
 7    1  0.1716782E-015  0.9000777E+02  0.7816164E-02  0.1186339E+00
        -11   -1    0    0    0    0  0.00000000000E+00  0.00000000000E+00  0.45593999997E+02  0.45594000000E+02  0.51100000000E-03 0. -1.
         11   -1    0    0    0    0 -0.00000000000E+00 -0.00000000000E+00 -0.45593999997E+02  0.45594000000E+02  0.51100000000E-03 0.  1.
    9900012    2    1    2    0    0  0.25174172201E+00 -0.13596755588E+00  0.11450213851E+01  0.90007773309E+02  0.90000035116E+02 0.  0.
        -12    1    1    2    0    0 -0.25174172201E+00  0.13596755588E+00 -0.11450213851E+01  0.11802266914E+01  0.00000000000E+00 0.  1.
         11    1    3    3    0    0 -0.99052498947E+01  0.10878323362E+02  0.34828434853E+02  0.37808355812E+02  0.51100000000E-03 0. -1.
        -11    1    3    3    0    0 -0.43756213012E+01  0.25936638742E+01  0.59612631411E+01  0.78364413200E+01  0.51100000000E-03 0.  1.
        -12    1    3    3    0    0  0.14532612918E+02 -0.13607954792E+02 -0.39644676609E+02  0.44362976177E+02  0.00000000000E+00 0.  1.
</event>
<event>
 7    1  0.1716782E-015  0.9000776E+02  0.7816164E-02  0.1186339E+00
        -11   -1    0    0    0    0  0.00000000000E+00  0.00000000000E+00  0.45593999997E+02  0.45594000000E+02  0.51100000000E-03 0.  1.
         11   -1    0    0    0    0 -0.00000000000E+00 -0.00000000000E+00 -0.45593999997E+02  0.45594000000E+02  0.51100000000E-03 0. -1.
    9900012    2    1    2    0    0  0.97891349279E+00  0.26775953529E+00 -0.60249164659E+00  0.90007761474E+02  0.90000023125E+02 0.  0.
        -12    1    1    2    0    0 -0.97891349279E+00 -0.26775953529E+00  0.60249164659E+00  0.11802385264E+01  0.00000000000E+00 0.  1.
         11    1    3    3    0    0 -0.16394809345E+02  0.33164884575E+02  0.58858290382E+01  0.37461210952E+02  0.51100000000E-03 0. -1.
        -11    1    3    3    0    0 -0.97065516564E+01 -0.36563277687E+00 -0.25084013560E+01  0.10032093999E+02  0.51100000000E-03 0.  1.
        -12    1    3    3    0    0  0.27080274494E+02 -0.32531492262E+02 -0.39799193288E+01  0.42514456522E+02  0.00000000000E+00 0.  1.
</event>
<event>
 7    1  0.1716782E-015  0.9000727E+02  0.7816164E-02  0.1186340E+00
        -11   -1    0    0    0    0  0.00000000000E+00  0.00000000000E+00  0.45593999997E+02  0.45594000000E+02  0.51100000000E-03 0.  1.
         11   -1    0    0    0    0 -0.00000000000E+00 -0.00000000000E+00 -0.45593999997E+02  0.45594000000E+02  0.51100000000E-03 0. -1.
    9900012    2    1    2    0    0  0.65823546104E+00 -0.83500420210E+00  0.51342572237E+00  0.90007274836E+02  0.89999530063E+02 0.  0.
        -12    1    1    2    0    0 -0.65823546104E+00  0.83500420210E+00 -0.51342572237E+00  0.11807251637E+01  0.00000000000E+00 0.  1.
         11    1    3    3    0    0  0.43260733208E+01  0.15260697404E+02 -0.90525370058E+01  0.18263412116E+02  0.51100000000E-03 0. -1.
        -11    1    3    3    0    0  0.32455649203E+02 -0.74733585138E+01 -0.34178334424E+00  0.33306712068E+02  0.51100000000E-03 0.  1.
        -12    1    3    3    0    0 -0.36123487063E+02 -0.86223430920E+01  0.99077460724E+01  0.38437150652E+02  0.00000000000E+00 0.  1.
</event>
<event>
 7    1  0.1716782E-015  0.9000773E+02  0.7816164E-02  0.1186339E+00
        -11   -1    0    0    0    0  0.00000000000E+00  0.00000000000E+00  0.45593999997E+02  0.45594000000E+02  0.51100000000E-03 0. -1.
         11   -1    0    0    0    0 -0.00000000000E+00 -0.00000000000E+00 -0.45593999997E+02  0.45594000000E+02  0.51100000000E-03 0.  1.
    9900012    2    1    2    0    0  0.10920169694E+00  0.10487338598E+01 -0.53035102083E+00  0.90007728877E+02  0.89999990098E+02 0.  0.
        -12    1    1    2    0    0 -0.10920169694E+00 -0.10487338598E+01  0.53035102083E+00  0.11802711234E+01  0.00000000000E+00 0.  1.
         11    1    3    3    0    0  0.72938394945E+01 -0.60461936549E+01 -0.12225894423E+01  0.95525534539E+01  0.51100000000E-03 0. -1.
        -11    1    3    3    0    0 -0.15968289517E+02  0.50324993075E+01 -0.37576269943E+02  0.41137432862E+02  0.51100000000E-03 0.  1.
         12    1    3    3    0    0  0.87836517198E+01  0.20624282072E+01  0.38268508364E+02  0.39317742561E+02  0.00000000000E+00 0. -1.
</event>
<event>
 7    1  0.1716782E-015  0.9000759E+02  0.7816164E-02  0.1186339E+00
        -11   -1    0    0    0    0  0.00000000000E+00  0.00000000000E+00  0.45593999997E+02  0.45594000000E+02  0.51100000000E-03 0. -1.
         11   -1    0    0    0    0 -0.00000000000E+00 -0.00000000000E+00 -0.45593999997E+02  0.45594000000E+02  0.51100000000E-03 0.  1.
    9900012    2    1    2    0    0 -0.72545335815E+00 -0.13720422074E+00 -0.92100403573E+00  0.90007594982E+02  0.89999854435E+02 0.  0.
        -12    1    1    2    0    0  0.72545335815E+00  0.13720422074E+00  0.92100403573E+00  0.11804050181E+01  0.00000000000E+00 0.  1.
         11    1    3    3    0    0  0.31070506153E+01 -0.83117997190E+01 -0.32883537298E+01  0.94632472549E+01  0.51100000000E-03 0. -1.
        -11    1    3    3    0    0  0.32437976713E+02 -0.16129545719E+02 -0.39005690405E+01  0.36436232206E+02  0.51100000000E-03 0.  1.
         12    1    3    3    0    0 -0.36270480686E+02  0.24304141217E+02  0.62679187347E+01  0.44108115520E+02  0.00000000000E+00 0. -1.
</event>
<event>
 7    1  0.1716782E-015  0.9000766E+02  0.7816164E-02  0.1186339E+00
        -11   -1    0    0    0    0  0.00000000000E+00  0.00000000000E+00  0.45593999997E+02  0.45594000000E+02  0.51100000000E-03 0. -1.
         11   -1    0    0    0    0 -0.00000000000E+00 -0.00000000000E+00 -0.45593999997E+02  0.45594000000E+02  0.51100000000E-03 0.  1.
    9900012    2    1    2    0    0  0.87743215060E+00 -0.55655158260E+00  0.55996632647E+00  0.90007661434E+02  0.89999921765E+02 0.  0.
        -12    1    1    2    0    0 -0.87743215060E+00  0.55655158260E+00 -0.55996632647E+00  0.11803385657E+01  0.00000000000E+00 0.  1.
         11    1    3    3    0    0 -0.19061630695E+02  0.89476817362E+01  0.32822415858E+02  0.38996381322E+02  0.51100000000E-03 0. -1.
        -11    1    3    3    0    0 -0.33968111588E+01 -0.13156459344E+02 -0.39714205538E+01  0.14156374182E+02  0.51100000000E-03 0.  1.
        -12    1    3    3    0    0  0.23335874004E+02  0.36522260249E+01 -0.28291028978E+02  0.36854905930E+02  0.00000000000E+00 0.  1.
</event>
<event>
 7    1  0.1716782E-015  0.9000775E+02  0.7816164E-02  0.1186339E+00
        -11   -1    0    0    0    0  0.00000000000E+00  0.00000000000E+00  0.45593999997E+02  0.45594000000E+02  0.51100000000E-03 0. -1.
         11   -1    0    0    0    0 -0.00000000000E+00 -0.00000000000E+00 -0.45593999997E+02  0.45594000000E+02  0.51100000000E-03 0.  1.
    9900012    2    1    2    0    0  0.48174919915E+00 -0.75092595425E+00  0.77267699185E+00  0.90007745022E+02  0.90000006456E+02 0.  0.
        -12    1    1    2    0    0 -0.48174919915E+00  0.75092595425E+00 -0.77267699185E+00  0.11802549781E+01  0.00000000000E+00 0.  1.
         11    1    3    3    0    0 -0.24424256336E+02 -0.17433062776E+02  0.16807394496E+02  0.34393960012E+02  0.51100000000E-03 0. -1.
        -11    1    3    3    0    0 -0.56592693713E+01 -0.89544762087E+01  0.35506460173E+01  0.11172155629E+02  0.51100000000E-03 0.  1.
        -12    1    3    3    0    0  0.30565274906E+02  0.25636613031E+02 -0.19585363522E+02  0.44441629381E+02  0.00000000000E+00 0.  1.
</event>
<event>
 7    1  0.1716782E-015  0.9000778E+02  0.7816164E-02  0.1186339E+00
        -11   -1    0    0    0    0  0.00000000000E+00  0.00000000000E+00  0.45593999997E+02  0.45594000000E+02  0.51100000000E-03 0.  1.
         11   -1    0    0    0    0 -0.00000000000E+00 -0.00000000000E+00 -0.45593999997E+02  0.45594000000E+02  0.51100000000E-03 0. -1.
    9900012    2    1    2    0    0  0.63700924885E+00  0.96316749091E+00 -0.24382379586E+00  0.90007778647E+02  0.90000040525E+02 0.  0.
        -12    1    1    2    0    0 -0.63700924885E+00 -0.96316749091E+00  0.24382379586E+00  0.11802213530E+01  0.00000000000E+00 0.  1.
         11    1    3    3    0    0  0.15505966944E+02 -0.36493842358E+02  0.73973357482E+01  0.40335544094E+02  0.51100000000E-03 0. -1.
        -11    1    3    3    0    0 -0.68408296028E+01 -0.21672754560E+01 -0.57555009211E+01  0.91989033950E+01  0.51100000000E-03 0.  1.
        -12    1    3    3    0    0 -0.80281280927E+01  0.39624285305E+02 -0.18856586230E+01  0.40473331158E+02  0.00000000000E+00 0.  1.
</event>
<event>
 7    1  0.1716782E-015  0.9000773E+02  0.7816164E-02  0.1186339E+00
        -11   -1    0    0    0    0  0.00000000000E+00  0.00000000000E+00  0.45593999997E+02  0.45594000000E+02  0.51100000000E-03 0.  1.
         11   -1    0    0    0    0 -0.00000000000E+00 -0.00000000000E+00 -0.45593999997E+02  0.45594000000E+02  0.51100000000E-03 0. -1.
    9900012    2    1    2    0    0 -0.71442910799E+00 -0.71942292002E+00 -0.60420449751E+00  0.90007728267E+02  0.89999989480E+02 0.  0.
        -12    1    1    2    0    0  0.71442910799E+00  0.71942292002E+00  0.60420449751E+00  0.11802717327E+01  0.00000000000E+00 0.  1.
         11    1    3    3    0    0  0.71081753882E+01 -0.37766862723E+01  0.63288632839E+01  0.10239337248E+02  0.51100000000E-03 0. -1.
        -11    1    3    3    0    0 -0.62841916060E+01 -0.50885892074E+01  0.35563311996E+02  0.36471001695E+02  0.51100000000E-03 0.  1.
         12    1    3    3    0    0 -0.15384128901E+01  0.81458525597E+01 -0.42496379777E+02  0.43297389324E+02  0.00000000000E+00 0. -1.
</event>
<event>
 7    1  0.1716782E-015  0.9000771E+02  0.7816164E-02  0.1186339E+00
        -11   -1    0    0    0    0  0.00000000000E+00  0.00000000000E+00  0.45593999997E+02  0.45594000000E+02  0.51100000000E-03 0.  1.
         11   -1    0    0    0    0 -0.00000000000E+00 -0.00000000000E+00 -0.45593999997E+02  0.45594000000E+02  0.51100000000E-03 0. -1.
    9900012    2    1    2    0    0 -0.79676030362E+00  0.85806120541E+00 -0.14826441222E+00  0.90007712599E+02  0.89999973605E+02 0.  0.
        -12    1    1    2    0    0  0.79676030362E+00 -0.85806120541E+00  0.14826441222E+00  0.11802874013E+01  0.00000000000E+00 0.  1.
         11    1    3    3    0    0 -0.48986345957E+01 -0.86040929010E+01  0.96613790031E-01  0.99013317305E+01  0.51100000000E-03 0. -1.
        -11    1    3    3    0    0  0.74795850715E+00 -0.28079987933E+02  0.22581836713E+02  0.36041427744E+02  0.51100000000E-03 0.  1.
         12    1    3    3    0    0  0.33539157849E+01  0.37542142039E+02 -0.22826714916E+02  0.44064953124E+02  0.00000000000E+00 0. -1.
</event>
<event>
 7    1  0.1716782E-015  0.9000770E+02  0.7816164E-02  0.1186339E+00
        -11   -1    0    0    0    0  0.00000000000E+00  0.00000000000E+00  0.45593999997E+02  0.45594000000E+02  0.51100000000E-03 0.  1.
         11   -1    0    0    0    0 -0.00000000000E+00 -0.00000000000E+00 -0.45593999997E+02  0.45594000000E+02  0.51100000000E-03 0. -1.
    9900012    2    1    2    0    0 -0.61158991766E+00 -0.10087557463E+01  0.38477465236E-01  0.90007698810E+02  0.89999959635E+02 0.  0.
        -12    1    1    2    0    0  0.61158991766E+00  0.10087557463E+01 -0.38477465236E-01  0.11803011897E+01  0.00000000000E+00 0.  1.
         11    1    3    3    0    0 -0.55514722442E+01  0.22949072980E+01 -0.15803326196E+01  0.62115131034E+01  0.51100000000E-03 0. -1.
        -11    1    3    3    0    0  0.12890057447E+01  0.74857402949E+01  0.41567273961E+02  0.42255604461E+02  0.51100000000E-03 0.  1.
         12    1    3    3    0    0  0.36508765818E+01 -0.10789403339E+02 -0.39948463876E+02  0.41540581246E+02  0.00000000000E+00 0. -1.
</event>
<event>
 7    1  0.1716782E-015  0.9000767E+02  0.7816164E-02  0.1186339E+00
        -11   -1    0    0    0    0  0.00000000000E+00  0.00000000000E+00  0.45593999997E+02  0.45594000000E+02  0.51100000000E-03 0.  1.
         11   -1    0    0    0    0 -0.00000000000E+00 -0.00000000000E+00 -0.45593999997E+02  0.45594000000E+02  0.51100000000E-03 0. -1.
    9900012    2    1    2    0    0 -0.11073967193E+01  0.67246035831E-01  0.40290860270E+00  0.90007667477E+02  0.89999927887E+02 0.  0.
        -12    1    1    2    0    0  0.11073967193E+01 -0.67246035831E-01 -0.40290860270E+00  0.11803325232E+01  0.00000000000E+00 0.  1.
         11    1    3    3    0    0  0.47608118180E+01  0.62600346814E+01  0.42033494088E+01  0.89174833833E+01  0.51100000000E-03 0. -1.
        -11    1    3    3    0    0  0.72759001579E+00 -0.24819236167E+02  0.31816865013E+02  0.40358849968E+02  0.51100000000E-03 0.  1.
         12    1    3    3    0    0 -0.65957985531E+01  0.18626447522E+02 -0.35617305820E+02  0.40731334126E+02  0.00000000000E+00 0. -1.
</event>
<event>
 7    1  0.1716782E-015  0.9000774E+02  0.7816164E-02  0.1186339E+00
        -11   -1    0    0    0    0  0.00000000000E+00  0.00000000000E+00  0.45593999997E+02  0.45594000000E+02  0.51100000000E-03 0. -1.
         11   -1    0    0    0    0 -0.00000000000E+00 -0.00000000000E+00 -0.45593999997E+02  0.45594000000E+02  0.51100000000E-03 0.  1.
    9900012    2    1    2    0    0 -0.10717285914E+01 -0.23943967614E-01  0.49381037693E+00  0.90007735548E+02  0.89999996858E+02 0.  0.
        -12    1    1    2    0    0  0.10717285914E+01  0.23943967614E-01 -0.49381037693E+00  0.11802644515E+01  0.00000000000E+00 0.  1.
         11    1    3    3    0    0 -0.25603609063E+01 -0.70847997905E+01  0.34946065310E+02  0.35748808609E+02  0.51100000000E-03 0. -1.
        -11    1    3    3    0    0 -0.11161671065E+01 -0.29193373313E+01  0.90375399973E+01  0.95627134709E+01  0.51100000000E-03 0.  1.
        -12    1    3    3    0    0  0.26047994215E+01  0.99801931542E+01 -0.43489794930E+02  0.44696213469E+02  0.00000000000E+00 0.  1.
</event>
<event>
 7    1  0.1716782E-015  0.9000776E+02  0.7816164E-02  0.1186339E+00
        -11   -1    0    0    0    0  0.00000000000E+00  0.00000000000E+00  0.45593999997E+02  0.45594000000E+02  0.51100000000E-03 0. -1.
         11   -1    0    0    0    0 -0.00000000000E+00 -0.00000000000E+00 -0.45593999997E+02  0.45594000000E+02  0.51100000000E-03 0.  1.
    9900012    2    1    2    0    0 -0.18633977373E+00 -0.83029917446E+00  0.81782380650E+00  0.90007764850E+02  0.90000026546E+02 0.  0.
        -12    1    1    2    0    0  0.18633977373E+00  0.83029917446E+00 -0.81782380650E+00  0.11802351498E+01  0.00000000000E+00 0.  1.
         11    1    3    3    0    0 -0.11524977543E+02  0.30486938001E+02 -0.83175078912E+01  0.33637173392E+02  0.51100000000E-03 0. -1.
        -11    1    3    3    0    0 -0.14110046991E+02 -0.19162866605E+01 -0.48562081678E+01  0.15044877490E+02  0.51100000000E-03 0.  1.
        -12    1    3    3    0    0  0.25448684760E+02 -0.29400950515E+02  0.13991539866E+02  0.41325713968E+02  0.00000000000E+00 0.  1.
</event>
<event>
 7    1  0.1716782E-015  0.9000763E+02  0.7816164E-02  0.1186339E+00
        -11   -1    0    0    0    0  0.00000000000E+00  0.00000000000E+00  0.45593999997E+02  0.45594000000E+02  0.51100000000E-03 0. -1.
         11   -1    0    0    0    0 -0.00000000000E+00 -0.00000000000E+00 -0.45593999997E+02  0.45594000000E+02  0.51100000000E-03 0.  1.
    9900012    2    1    2    0    0 -0.11251166824E+01  0.20027258402E+00  0.29543386417E+00  0.90007628099E+02  0.89999887990E+02 0.  0.
        -12    1    1    2    0    0  0.11251166824E+01 -0.20027258402E+00 -0.29543386417E+00  0.11803719012E+01  0.00000000000E+00 0.  1.
         11    1    3    3    0    0 -0.81476199117E+01  0.69784336295E+01  0.10251529837E+01  0.10776510801E+02  0.51100000000E-03 0. -1.
        -11    1    3    3    0    0  0.84973759511E+01 -0.52734676136E+01 -0.39325835603E+02  0.40577533253E+02  0.51100000000E-03 0.  1.
         12    1    3    3    0    0 -0.14748727219E+01 -0.15046934319E+01  0.38596116484E+02  0.38653584045E+02  0.00000000000E+00 0. -1.
</event>
<event>
 7    1  0.1716782E-015  0.9000744E+02  0.7816164E-02  0.1186340E+00
        -11   -1    0    0    0    0  0.00000000000E+00  0.00000000000E+00  0.45593999997E+02  0.45594000000E+02  0.51100000000E-03 0.  1.
         11   -1    0    0    0    0 -0.00000000000E+00 -0.00000000000E+00 -0.45593999997E+02  0.45594000000E+02  0.51100000000E-03 0. -1.
    9900012    2    1    2    0    0 -0.36200168840E+00  0.10158004715E+01  0.48044207396E+00  0.90007440638E+02  0.89999698054E+02 0.  0.
        -12    1    1    2    0    0  0.36200168840E+00 -0.10158004715E+01 -0.48044207396E+00  0.11805593618E+01  0.00000000000E+00 0.  1.
         11    1    3    3    0    0  0.24189123706E+02 -0.12222108369E+02  0.17274135550E+02  0.32138596701E+02  0.51100000000E-03 0. -1.
        -11    1    3    3    0    0  0.11381384004E+02 -0.76658102226E+01 -0.55713082327E+01  0.14810132474E+02  0.51100000000E-03 0.  1.
        -12    1    3    3    0    0 -0.35932509398E+02  0.20903719063E+02 -0.11222385243E+02  0.43058711463E+02  0.00000000000E+00 0.  1.
</event>
<event>
 7    1  0.1716782E-015  0.9000773E+02  0.7816164E-02  0.1186339E+00
        -11   -1    0    0    0    0  0.00000000000E+00  0.00000000000E+00  0.45593999997E+02  0.45594000000E+02  0.51100000000E-03 0.  1.
         11   -1    0    0    0    0 -0.00000000000E+00 -0.00000000000E+00 -0.45593999997E+02  0.45594000000E+02  0.51100000000E-03 0. -1.
    9900012    2    1    2    0    0  0.36818269350E+00  0.31856448126E+00 -0.10751686962E+01  0.90007733272E+02  0.89999994551E+02 0.  0.
        -12    1    1    2    0    0 -0.36818269350E+00 -0.31856448126E+00  0.10751686962E+01  0.11802667282E+01  0.00000000000E+00 0.  1.
         11    1    3    3    0    0  0.53881441909E+01 -0.31156371241E+02 -0.14332499494E+02  0.34715588843E+02  0.51100000000E-03 0. -1.
        -11    1    3    3    0    0 -0.55794242283E+00 -0.88879126190E+01 -0.55987624380E+01  0.10519145952E+02  0.51100000000E-03 0.  1.
        -12    1    3    3    0    0 -0.44620190745E+01  0.40362848341E+02  0.18856093236E+02  0.44772998476E+02  0.00000000000E+00 0.  1.
</event>
<event>
 7    1  0.1716782E-015  0.9000778E+02  0.7816164E-02  0.1186339E+00
        -11   -1    0    0    0    0  0.00000000000E+00  0.00000000000E+00  0.45593999997E+02  0.45594000000E+02  0.51100000000E-03 0. -1.
         11   -1    0    0    0    0 -0.00000000000E+00 -0.00000000000E+00 -0.45593999997E+02  0.45594000000E+02  0.51100000000E-03 0.  1.
    9900012    2    1    2    0    0 -0.17331436690E+00 -0.11454783904E+01  0.22532653985E+00  0.90007775165E+02  0.90000036997E+02 0.  0.
        -12    1    1    2    0    0  0.17331436690E+00  0.11454783904E+01 -0.22532653985E+00  0.11802248354E+01  0.00000000000E+00 0.  1.
         11    1    3    3    0    0  0.96537772076E+01 -0.42583411914E+01  0.32812200947E+01  0.11049673735E+02  0.51100000000E-03 0. -1.
        -11    1    3    3    0    0  0.14307602119E+01 -0.18965631907E+02 -0.34214357048E+02  0.39145427535E+02  0.51100000000E-03 0.  1.
         12    1    3    3    0    0 -0.11257851786E+02  0.22078494708E+02  0.31158463493E+02  0.39812673895E+02  0.00000000000E+00 0. -1.
</event>
<event>
 7    1  0.1716782E-015  0.9000748E+02  0.7816164E-02  0.1186340E+00
        -11   -1    0    0    0    0  0.00000000000E+00  0.00000000000E+00  0.45593999997E+02  0.45594000000E+02  0.51100000000E-03 0. -1.
         11   -1    0    0    0    0 -0.00000000000E+00 -0.00000000000E+00 -0.45593999997E+02  0.45594000000E+02  0.51100000000E-03 0.  1.
    9900012    2    1    2    0    0  0.55154134820E+00  0.43398004642E-01  0.10428539815E+01  0.90007480762E+02  0.89999738707E+02 0.  0.
        -12    1    1    2    0    0 -0.55154134820E+00 -0.43398004642E-01 -0.10428539815E+01  0.11805192384E+01  0.00000000000E+00 0.  1.
         11    1    3    3    0    0  0.12636433537E+01  0.72216535873E+01 -0.81609698780E+01  0.10970437761E+02  0.51100000000E-03 0. -1.
        -11    1    3    3    0    0 -0.22946552540E+02  0.17914379826E+02 -0.19386278727E+02  0.34975664127E+02  0.51100000000E-03 0.  1.
         12    1    3    3    0    0  0.22234450534E+02 -0.25092635408E+02  0.28590102587E+02  0.44061378873E+02  0.00000000000E+00 0. -1.
</event>
<event>
 7    1  0.1716782E-015  0.9000751E+02  0.7816164E-02  0.1186340E+00
        -11   -1    0    0    0    0  0.00000000000E+00  0.00000000000E+00  0.45593999997E+02  0.45594000000E+02  0.51100000000E-03 0.  1.
         11   -1    0    0    0    0 -0.00000000000E+00 -0.00000000000E+00 -0.45593999997E+02  0.45594000000E+02  0.51100000000E-03 0. -1.
    9900012    2    1    2    0    0  0.11133777408E+01  0.39035641947E+00 -0.39652019483E-01  0.90007508403E+02  0.89999766714E+02 0.  0.
        -12    1    1    2    0    0 -0.11133777408E+01 -0.39035641947E+00  0.39652019483E-01  0.11804915970E+01  0.00000000000E+00 0.  1.
         11    1    3    3    0    0  0.26987450914E+01  0.10357083840E+02 -0.75972365261E+00  0.10729845806E+02  0.51100000000E-03 0. -1.
        -11    1    3    3    0    0 -0.42160644489E+01  0.24932946017E+02  0.25873120880E+02  0.36177968169E+02  0.51100000000E-03 0.  1.
         12    1    3    3    0    0  0.26306970982E+01 -0.34899673438E+02 -0.25153049247E+02  0.43099694427E+02  0.00000000000E+00 0. -1.
</event>
<event>
 7    1  0.1866118E-015  0.9000775E+02  0.7816164E-02  0.1186339E+00
        -11   -1    0    0    0    0  0.00000000000E+00  0.00000000000E+00  0.45593999997E+02  0.45594000000E+02  0.51100000000E-03 0. -1.
         11   -1    0    0    0    0 -0.00000000000E+00 -0.00000000000E+00 -0.45593999997E+02  0.45594000000E+02  0.51100000000E-03 0.  1.
    9900012    2    1    2    0    0 -0.93950390546E+00  0.64770985309E+00  0.30131391676E+00  0.90007751840E+02  0.90000013365E+02 0.  0.
        -12    1    1    2    0    0  0.93950390546E+00 -0.64770985309E+00 -0.30131391676E+00  0.11802481597E+01  0.00000000000E+00 0.  1.
         11    1    3    3    0    0  0.31641226712E+02  0.18045102073E+02  0.14348506986E+01  0.36453418680E+02  0.51100000000E-03 0. -1.
        -11    1    3    3    0    0  0.69251349338E+01  0.23451872360E+01 -0.55364496380E+01  0.91711325298E+01  0.51100000000E-03 0.  1.
        -12    1    3    3    0    0 -0.39505865552E+02 -0.19742579456E+02  0.44029128561E+01  0.44383200630E+02  0.00000000000E+00 0.  1.
</event>
<event>
 7    1  0.1716782E-015  0.9000766E+02  0.7816164E-02  0.1186339E+00
        -11   -1    0    0    0    0  0.00000000000E+00  0.00000000000E+00  0.45593999997E+02  0.45594000000E+02  0.51100000000E-03 0.  1.
         11   -1    0    0    0    0 -0.00000000000E+00 -0.00000000000E+00 -0.45593999997E+02  0.45594000000E+02  0.51100000000E-03 0. -1.
    9900012    2    1    2    0    0 -0.22407651352E+00 -0.11506950578E+01 -0.13748360956E+00  0.90007656345E+02  0.89999916609E+02 0.  0.
        -12    1    1    2    0    0  0.22407651352E+00  0.11506950578E+01  0.13748360956E+00  0.11803436545E+01  0.00000000000E+00 0.  1.
         11    1    3    3    0    0  0.33664918673E+01 -0.50217536618E+01 -0.59324763526E+01  0.84702746866E+01  0.51100000000E-03 0. -1.
        -11    1    3    3    0    0  0.20496118178E+02 -0.29648247510E+02 -0.99000083189E+01  0.37378063162E+02  0.51100000000E-03 0.  1.
         12    1    3    3    0    0 -0.24086686559E+02  0.33519306114E+02  0.15695001062E+02  0.44159318497E+02  0.00000000000E+00 0. -1.
</event>
<event>
 7    1  0.1716782E-015  0.9000782E+02  0.7816164E-02  0.1186339E+00
        -11   -1    0    0    0    0  0.00000000000E+00  0.00000000000E+00  0.45593999997E+02  0.45594000000E+02  0.51100000000E-03 0.  1.
         11   -1    0    0    0    0 -0.00000000000E+00 -0.00000000000E+00 -0.45593999997E+02  0.45594000000E+02  0.51100000000E-03 0. -1.
    9900012    2    1    2    0    0  0.17519236806E+00 -0.10685846125E+01 -0.46931953603E+00  0.90007819392E+02  0.90000081808E+02 0.  0.
        -12    1    1    2    0    0 -0.17519236806E+00  0.10685846125E+01  0.46931953603E+00  0.11801806077E+01  0.00000000000E+00 0.  1.
         11    1    3    3    0    0  0.29898299741E+02  0.12598265614E+02  0.14938078289E+02  0.35717933970E+02  0.51100000000E-03 0. -1.
        -11    1    3    3    0    0  0.76231933008E+01  0.22614680097E+01  0.44292385150E+01  0.91019485686E+01  0.51100000000E-03 0.  1.
        -12    1    3    3    0    0 -0.37346300673E+02 -0.15928318236E+02 -0.19836636340E+02  0.45187936854E+02  0.00000000000E+00 0.  1.
</event>
<event>
 7    1  0.1716782E-015  0.9000772E+02  0.7816164E-02  0.1186339E+00
        -11   -1    0    0    0    0  0.00000000000E+00  0.00000000000E+00  0.45593999997E+02  0.45594000000E+02  0.51100000000E-03 0.  1.
         11   -1    0    0    0    0 -0.00000000000E+00 -0.00000000000E+00 -0.45593999997E+02  0.45594000000E+02  0.51100000000E-03 0. -1.
    9900012    2    1    2    0    0  0.11410371439E+01  0.29413820116E+00  0.67591724995E-01  0.90007723894E+02  0.89999985049E+02 0.  0.
        -12    1    1    2    0    0 -0.11410371439E+01 -0.29413820116E+00 -0.67591724995E-01  0.11802761060E+01  0.00000000000E+00 0.  1.
         11    1    3    3    0    0 -0.23326613681E+01  0.20519101064E+01 -0.59905061781E+01  0.67481707651E+01  0.51100000000E-03 0. -1.
        -11    1    3    3    0    0 -0.31039340859E+02 -0.15988274085E+02  0.23466617025E+02  0.42068369401E+02  0.51100000000E-03 0.  1.
         12    1    3    3    0    0  0.34513039371E+02  0.14230502180E+02 -0.17408519122E+02  0.41191183728E+02  0.00000000000E+00 0. -1.
</event>
<event>
 7    1  0.1716782E-015  0.9000790E+02  0.7816164E-02  0.1186339E+00
        -11   -1    0    0    0    0  0.00000000000E+00  0.00000000000E+00  0.45593999997E+02  0.45594000000E+02  0.51100000000E-03 0.  1.
         11   -1    0    0    0    0 -0.00000000000E+00 -0.00000000000E+00 -0.45593999997E+02  0.45594000000E+02  0.51100000000E-03 0. -1.
    9900012    2    1    2    0    0 -0.14855179331E+00  0.12094037458E+00 -0.11644450650E+01  0.90007904021E+02  0.90000167554E+02 0.  0.
        -12    1    1    2    0    0  0.14855179331E+00 -0.12094037458E+00  0.11644450650E+01  0.11800959787E+01  0.00000000000E+00 0.  1.
         11    1    3    3    0    0  0.38641615823E+01 -0.69518805422E+01  0.36940506772E+01  0.87696293236E+01  0.51100000000E-03 0. -1.
        -11    1    3    3    0    0  0.11136510427E+02 -0.19992402326E+02  0.27927133406E+02  0.36105993904E+02  0.51100000000E-03 0.  1.
         12    1    3    3    0    0 -0.15149223803E+02  0.27065223242E+02 -0.32785629148E+02  0.45132280794E+02  0.00000000000E+00 0. -1.
</event>
<event>
 8    1  0.1716782E-015  0.9000770E+02  0.7816164E-02  0.1186339E+00
        -11   -1    0    0    0    0  0.00000000000E+00  0.00000000000E+00  0.45593999997E+02  0.45594000000E+02  0.51100000000E-03 0.  1.
         11   -1    0    0    0    0 -0.00000000000E+00 -0.00000000000E+00 -0.45593999997E+02  0.45594000000E+02  0.51100000000E-03 0. -1.
    9900012    2    1    2    0    0 -0.87190566565E+00  0.76813946314E+00  0.20702956924E+00  0.90007695392E+02  0.89999956171E+02 0.  0.
         23    2    3    3    0    0  0.17848562016E+02  0.13124209573E+02 -0.16107326170E+02  0.62271679421E+02  0.55924056171E+02 0.  0.
        -12    1    1    2    0    0  0.87190566565E+00 -0.76813946314E+00 -0.20702956924E+00  0.11803046078E+01  0.00000000000E+00 0.  1.
         11    1    4    4    0    0 -0.10989492915E+02 -0.89383081217E+01 -0.21312651470E+02  0.25590846402E+02  0.51100000000E-03 0. -1.
        -11    1    4    4    0    0  0.28838054931E+02  0.22062517695E+02  0.52053253003E+01  0.36680833019E+02  0.51100000000E-03 0.  1.
        -12    1    3    3    0    0 -0.18720467682E+02 -0.12356070110E+02  0.16314355739E+02  0.27736015971E+02  0.00000000000E+00 0.  1.
</event>
<event>
 7    1  0.1716782E-015  0.9000770E+02  0.7816164E-02  0.1186339E+00
        -11   -1    0    0    0    0  0.00000000000E+00  0.00000000000E+00  0.45593999997E+02  0.45594000000E+02  0.51100000000E-03 0. -1.
         11   -1    0    0    0    0 -0.00000000000E+00 -0.00000000000E+00 -0.45593999997E+02  0.45594000000E+02  0.51100000000E-03 0.  1.
    9900012    2    1    2    0    0  0.79877782937E-01  0.11066299005E+01 -0.40261637951E+00  0.90007699129E+02  0.89999959958E+02 0.  0.
        -12    1    1    2    0    0 -0.79877782937E-01 -0.11066299005E+01  0.40261637951E+00  0.11803008709E+01  0.00000000000E+00 0.  1.
         11    1    3    3    0    0 -0.27558843153E+02 -0.25455339946E+02  0.13513316506E+02  0.39875730601E+02  0.51100000000E-03 0. -1.
        -11    1    3    3    0    0 -0.52729693779E+01  0.26759150342E+01 -0.65144825486E+01  0.87979094373E+01  0.51100000000E-03 0.  1.
        -12    1    3    3    0    0  0.32911690314E+02  0.23886054812E+02 -0.74014503374E+01  0.41334059091E+02  0.00000000000E+00 0.  1.
</event>
<event>
 7    1  0.1716782E-015  0.9000770E+02  0.7816164E-02  0.1186339E+00
        -11   -1    0    0    0    0  0.00000000000E+00  0.00000000000E+00  0.45593999997E+02  0.45594000000E+02  0.51100000000E-03 0. -1.
         11   -1    0    0    0    0 -0.00000000000E+00 -0.00000000000E+00 -0.45593999997E+02  0.45594000000E+02  0.51100000000E-03 0.  1.
    9900012    2    1    2    0    0 -0.10093802937E+01  0.40749735619E+00  0.45628430795E+00  0.90007704256E+02  0.89999965153E+02 0.  0.
        -12    1    1    2    0    0  0.10093802937E+01 -0.40749735619E+00 -0.45628430795E+00  0.11802957436E+01  0.00000000000E+00 0.  1.
         11    1    3    3    0    0  0.62755390289E+01 -0.13150397122E+02 -0.14362129234E+01  0.14641654360E+02  0.51100000000E-03 0. -1.
        -11    1    3    3    0    0  0.99419032804E+01  0.20381493775E+01 -0.33142094194E+02  0.34661129548E+02  0.51100000000E-03 0.  1.
         12    1    3    3    0    0 -0.17226822603E+02  0.11519745101E+02  0.35034591426E+02  0.40704920348E+02  0.00000000000E+00 0. -1.
</event>
<event>
 7    1  0.1716782E-015  0.9000786E+02  0.7816164E-02  0.1186339E+00
        -11   -1    0    0    0    0  0.00000000000E+00  0.00000000000E+00  0.45593999997E+02  0.45594000000E+02  0.51100000000E-03 0.  1.
         11   -1    0    0    0    0 -0.00000000000E+00 -0.00000000000E+00 -0.45593999997E+02  0.45594000000E+02  0.51100000000E-03 0. -1.
    9900012    2    1    2    0    0 -0.11682168743E+01  0.12436600566E+00 -0.11199616949E+00  0.90007855640E+02  0.90000118534E+02 0.  0.
        -12    1    1    2    0    0  0.11682168743E+01 -0.12436600566E+00  0.11199616949E+00  0.11801443602E+01  0.00000000000E+00 0.  1.
         11    1    3    3    0    0 -0.94033437770E+01  0.28594700074E+02  0.23720115387E+02  0.38323930132E+02  0.51100000000E-03 0. -1.
        -11    1    3    3    0    0 -0.63792692441E+01  0.17210032208E+01  0.43190028166E+01  0.78937135599E+01  0.51100000000E-03 0.  1.
        -12    1    3    3    0    0  0.14614396147E+02 -0.30191337289E+02 -0.28151114373E+02  0.43790211948E+02  0.00000000000E+00 0.  1.
</event>
<event>
 7    1  0.1854808E-015  0.9000773E+02  0.7816164E-02  0.1186339E+00
        -11   -1    0    0    0    0  0.00000000000E+00  0.00000000000E+00  0.45593999997E+02  0.45594000000E+02  0.51100000000E-03 0.  1.
         11   -1    0    0    0    0 -0.00000000000E+00 -0.00000000000E+00 -0.45593999997E+02  0.45594000000E+02  0.51100000000E-03 0. -1.
    9900012    2    1    2    0    0 -0.64689498045E+00 -0.47819641320E+00 -0.86365689814E+00  0.90007725387E+02  0.89999986562E+02 0.  0.
        -12    1    1    2    0    0  0.64689498045E+00  0.47819641320E+00  0.86365689814E+00  0.11802746134E+01  0.00000000000E+00 0.  1.
         11    1    3    3    0    0 -0.23486837252E+02 -0.20595297574E+01 -0.34654653505E+02  0.41914415143E+02  0.51100000000E-03 0. -1.
        -11    1    3    3    0    0  0.89448126060E+01 -0.20656700922E+01 -0.21144806489E+01  0.94205994587E+01  0.51100000000E-03 0.  1.
        -12    1    3    3    0    0  0.13895129665E+02  0.36470034364E+01  0.35905477256E+02  0.38672710785E+02  0.00000000000E+00 0.  1.
</event>
<event>
 7    1  0.1716782E-015  0.9000777E+02  0.7816164E-02  0.1186339E+00
        -11   -1    0    0    0    0  0.00000000000E+00  0.00000000000E+00  0.45593999997E+02  0.45594000000E+02  0.51100000000E-03 0. -1.
         11   -1    0    0    0    0 -0.00000000000E+00 -0.00000000000E+00 -0.45593999997E+02  0.45594000000E+02  0.51100000000E-03 0.  1.
    9900012    2    1    2    0    0 -0.45248974150E+00 -0.10154723671E+01  0.39624576674E+00  0.90007770445E+02  0.90000032215E+02 0.  0.
        -12    1    1    2    0    0  0.45248974150E+00  0.10154723671E+01 -0.39624576674E+00  0.11802295548E+01  0.00000000000E+00 0.  1.
         11    1    3    3    0    0  0.27795638484E+02 -0.26174355158E+02  0.25184658624E+01  0.38262737189E+02  0.51100000000E-03 0. -1.
        -11    1    3    3    0    0  0.43941896754E+01 -0.17417753600E+01  0.70264841697E+01  0.84684215977E+01  0.51100000000E-03 0.  1.
        -12    1    3    3    0    0 -0.32642317901E+02  0.26900658151E+02 -0.91487042653E+01  0.43276611658E+02  0.00000000000E+00 0.  1.
</event>
<event>
 7    1  0.1716782E-015  0.9000781E+02  0.7816164E-02  0.1186339E+00
        -11   -1    0    0    0    0  0.00000000000E+00  0.00000000000E+00  0.45593999997E+02  0.45594000000E+02  0.51100000000E-03 0.  1.
         11   -1    0    0    0    0 -0.00000000000E+00 -0.00000000000E+00 -0.45593999997E+02  0.45594000000E+02  0.51100000000E-03 0. -1.
    9900012    2    1    2    0    0  0.53962496440E+00  0.50070251086E-01 -0.10484016418E+01  0.90007810128E+02  0.90000072421E+02 0.  0.
        -12    1    1    2    0    0 -0.53962496440E+00 -0.50070251086E-01  0.10484016418E+01  0.11801898724E+01  0.00000000000E+00 0.  1.
         11    1    3    3    0    0  0.12892910282E+02  0.72624243168E+01 -0.39439835202E+02  0.42124464905E+02  0.51100000000E-03 0. -1.
        -11    1    3    3    0    0 -0.10781477182E+02 -0.20883948798E+01  0.20782852021E+01  0.11176802452E+02  0.51100000000E-03 0.  1.
        -12    1    3    3    0    0 -0.15718081350E+01 -0.51239591859E+01  0.36313148358E+02  0.36706542771E+02  0.00000000000E+00 0.  1.
</event>
<event>
 7    1  0.1716782E-015  0.9000781E+02  0.7816164E-02  0.1186339E+00
        -11   -1    0    0    0    0  0.00000000000E+00  0.00000000000E+00  0.45593999997E+02  0.45594000000E+02  0.51100000000E-03 0. -1.
         11   -1    0    0    0    0 -0.00000000000E+00 -0.00000000000E+00 -0.45593999997E+02  0.45594000000E+02  0.51100000000E-03 0.  1.
    9900012    2    1    2    0    0  0.79888274774E+00 -0.75009415921E+00  0.43816343895E+00  0.90007812688E+02  0.90000075015E+02 0.  0.
        -12    1    1    2    0    0 -0.79888274774E+00  0.75009415921E+00 -0.43816343895E+00  0.11801873121E+01  0.00000000000E+00 0.  1.
         11    1    3    3    0    0  0.20640248931E+02  0.32424595341E+02  0.12594646079E+01  0.38457255627E+02  0.51100000000E-03 0. -1.
        -11    1    3    3    0    0  0.62035475491E+01 -0.10848116322E+01  0.70771103253E+01  0.94734528705E+01  0.51100000000E-03 0.  1.
        -12    1    3    3    0    0 -0.26044913732E+02 -0.32089877868E+02 -0.78984114942E+01  0.42077104191E+02  0.00000000000E+00 0.  1.
</event>
<event>
 7    1  0.1716782E-015  0.9000772E+02  0.7816164E-02  0.1186339E+00
        -11   -1    0    0    0    0  0.00000000000E+00  0.00000000000E+00  0.45593999997E+02  0.45594000000E+02  0.51100000000E-03 0. -1.
         11   -1    0    0    0    0 -0.00000000000E+00 -0.00000000000E+00 -0.45593999997E+02  0.45594000000E+02  0.51100000000E-03 0.  1.
    9900012    2    1    2    0    0  0.22568697287E+00 -0.98071639940E+00 -0.61670199249E+00  0.90007720112E+02  0.89999981218E+02 0.  0.
        -12    1    1    2    0    0 -0.22568697287E+00  0.98071639940E+00  0.61670199249E+00  0.11802798877E+01  0.00000000000E+00 0.  1.
         11    1    3    3    0    0  0.74795948465E+00 -0.63800269931E+01  0.89537272444E+01  0.11019683283E+02  0.51100000000E-03 0. -1.
        -11    1    3    3    0    0  0.31280523371E+02 -0.20492259715E+02 -0.47843157966E+01  0.37700046797E+02  0.51100000000E-03 0.  1.
         12    1    3    3    0    0 -0.31802795883E+02  0.25891570309E+02 -0.47861134403E+01  0.41287990032E+02  0.00000000000E+00 0. -1.
</event>
<event>
 7    1  0.1716782E-015  0.9000772E+02  0.7816164E-02  0.1186339E+00
        -11   -1    0    0    0    0  0.00000000000E+00  0.00000000000E+00  0.45593999997E+02  0.45594000000E+02  0.51100000000E-03 0. -1.
         11   -1    0    0    0    0 -0.00000000000E+00 -0.00000000000E+00 -0.45593999997E+02  0.45594000000E+02  0.51100000000E-03 0.  1.
    9900012    2    1    2    0    0  0.10265285918E+01  0.22296847628E+00 -0.53813775618E+00  0.90007716926E+02  0.89999977989E+02 0.  0.
        -12    1    1    2    0    0 -0.10265285918E+01 -0.22296847628E+00  0.53813775618E+00  0.11802830744E+01  0.00000000000E+00 0.  1.
         11    1    3    3    0    0 -0.27094393316E+02 -0.73612623313E+01  0.23473577522E+02  0.36596491283E+02  0.51100000000E-03 0. -1.
        -11    1    3    3    0    0 -0.61462668038E+01  0.26044911525E+01  0.49165238126E+01  0.82904871056E+01  0.51100000000E-03 0.  1.
        -12    1    3    3    0    0  0.34267188711E+02  0.49797396552E+01 -0.28928239091E+02  0.45120738537E+02  0.00000000000E+00 0.  1.
</event>
<event>
 7    1  0.1716782E-015  0.9000723E+02  0.7816164E-02  0.1186340E+00
        -11   -1    0    0    0    0  0.00000000000E+00  0.00000000000E+00  0.45593999997E+02  0.45594000000E+02  0.51100000000E-03 0.  1.
         11   -1    0    0    0    0 -0.00000000000E+00 -0.00000000000E+00 -0.45593999997E+02  0.45594000000E+02  0.51100000000E-03 0. -1.
    9900012    2    1    2    0    0 -0.76865432838E-01  0.11229321470E+01 -0.35684866583E+00  0.90007226579E+02  0.89999481168E+02 0.  0.
        -12    1    1    2    0    0  0.76865432838E-01 -0.11229321470E+01  0.35684866583E+00  0.11807734211E+01  0.00000000000E+00 0.  1.
         11    1    3    3    0    0  0.14751534261E+01  0.23182341803E+02 -0.28844730255E+02  0.37035327903E+02  0.51100000000E-03 0. -1.
        -11    1    3    3    0    0  0.84822388011E+01  0.45619363474E+01 -0.34221375656E+01  0.10221089183E+02  0.51100000000E-03 0.  1.
        -12    1    3    3    0    0 -0.10034257660E+02 -0.26621346003E+02  0.31910019155E+02  0.42750809493E+02  0.00000000000E+00 0.  1.
</event>
<event>
 7    1  0.1716782E-015  0.9000772E+02  0.7816164E-02  0.1186339E+00
        -11   -1    0    0    0    0  0.00000000000E+00  0.00000000000E+00  0.45593999997E+02  0.45594000000E+02  0.51100000000E-03 0.  1.
         11   -1    0    0    0    0 -0.00000000000E+00 -0.00000000000E+00 -0.45593999997E+02  0.45594000000E+02  0.51100000000E-03 0. -1.
    9900012    2    1    2    0    0 -0.25416607701E+00 -0.49337832847E+00 -0.10416523908E+01  0.90007719409E+02  0.89999980505E+02 0.  0.
        -12    1    1    2    0    0  0.25416607701E+00  0.49337832847E+00  0.10416523908E+01  0.11802805908E+01  0.00000000000E+00 0.  1.
         11    1    3    3    0    0  0.89670705805E+01  0.72724979272E+01 -0.43034826221E+01  0.12321426210E+02  0.51100000000E-03 0. -1.
        -11    1    3    3    0    0 -0.19888445983E+02  0.16714447695E+02  0.30144709641E+02  0.39794805754E+02  0.51100000000E-03 0.  1.
         12    1    3    3    0    0  0.10667209326E+02 -0.24480323951E+02 -0.26882879409E+02  0.37891487446E+02  0.00000000000E+00 0. -1.
</event>
<event>
 7    1  0.1716782E-015  0.9000767E+02  0.7816164E-02  0.1186339E+00
        -11   -1    0    0    0    0  0.00000000000E+00  0.00000000000E+00  0.45593999997E+02  0.45594000000E+02  0.51100000000E-03 0. -1.
         11   -1    0    0    0    0 -0.00000000000E+00 -0.00000000000E+00 -0.45593999997E+02  0.45594000000E+02  0.51100000000E-03 0.  1.
    9900012    2    1    2    0    0  0.82252782144E+00  0.76844560897E+00 -0.35511993961E+00  0.90007673417E+02  0.89999933906E+02 0.  0.
        -12    1    1    2    0    0 -0.82252782144E+00 -0.76844560897E+00  0.35511993961E+00  0.11803265830E+01  0.00000000000E+00 0.  1.
         11    1    3    3    0    0  0.90494631815E+01 -0.70044226216E+01  0.40688430355E+02  0.42267044907E+02  0.51100000000E-03 0. -1.
        -11    1    3    3    0    0  0.42259649503E+01  0.81423778180E+01 -0.71532926611E+01  0.11633000148E+02  0.51100000000E-03 0.  1.
        -12    1    3    3    0    0 -0.12452900310E+02 -0.36950958745E+00 -0.33890257633E+02  0.36107628362E+02  0.00000000000E+00 0.  1.
</event>
<event>
 7    1  0.1716782E-015  0.9000783E+02  0.7816164E-02  0.1186339E+00
        -11   -1    0    0    0    0  0.00000000000E+00  0.00000000000E+00  0.45593999997E+02  0.45594000000E+02  0.51100000000E-03 0.  1.
         11   -1    0    0    0    0 -0.00000000000E+00 -0.00000000000E+00 -0.45593999997E+02  0.45594000000E+02  0.51100000000E-03 0. -1.
    9900012    2    1    2    0    0 -0.79693033442E+00 -0.83445644727E+00 -0.24776184271E+00  0.90007829906E+02  0.90000092461E+02 0.  0.
        -12    1    1    2    0    0  0.79693033442E+00  0.83445644727E+00  0.24776184271E+00  0.11801700941E+01  0.00000000000E+00 0.  1.
         11    1    3    3    0    0  0.83258404284E+01  0.33144830447E+02 -0.11641028764E+02  0.36102810904E+02  0.51100000000E-03 0. -1.
        -11    1    3    3    0    0  0.30723457290E+01  0.63391789791E+01 -0.50703658019E+01  0.86794647320E+01  0.51100000000E-03 0.  1.
        -12    1    3    3    0    0 -0.12195116492E+02 -0.40318465873E+02  0.16463632723E+02  0.45225554270E+02  0.00000000000E+00 0.  1.
</event>
<event>
 7    1  0.1716782E-015  0.9000768E+02  0.7816164E-02  0.1186339E+00
        -11   -1    0    0    0    0  0.00000000000E+00  0.00000000000E+00  0.45593999997E+02  0.45594000000E+02  0.51100000000E-03 0.  1.
         11   -1    0    0    0    0 -0.00000000000E+00 -0.00000000000E+00 -0.45593999997E+02  0.45594000000E+02  0.51100000000E-03 0. -1.
    9900012    2    1    2    0    0 -0.98730762618E+00 -0.58010677887E+00 -0.28611523640E+00  0.90007677098E+02  0.89999937636E+02 0.  0.
        -12    1    1    2    0    0  0.98730762618E+00  0.58010677887E+00  0.28611523640E+00  0.11803229016E+01  0.00000000000E+00 0.  1.
         11    1    3    3    0    0  0.41886450165E+01 -0.46497719071E+01 -0.10814306633E+02  0.12494572985E+02  0.51100000000E-03 0. -1.
        -11    1    3    3    0    0  0.19555844042E+02  0.29008934623E+02  0.21072852982E+02  0.40841332706E+02  0.51100000000E-03 0.  1.
         12    1    3    3    0    0 -0.24731796684E+02 -0.24939269495E+02 -0.10544661586E+02  0.36671771407E+02  0.00000000000E+00 0. -1.
</event>
<event>
 7    1  0.1716782E-015  0.9000861E+02  0.7816164E-02  0.1186337E+00
        -11   -1    0    0    0    0  0.00000000000E+00  0.00000000000E+00  0.45593999997E+02  0.45594000000E+02  0.51100000000E-03 0.  1.
         11   -1    0    0    0    0 -0.00000000000E+00 -0.00000000000E+00 -0.45593999997E+02  0.45594000000E+02  0.51100000000E-03 0. -1.
    9900012    2    1    2    0    0  0.10708651321E+01 -0.33195587366E+00 -0.36608263101E+00  0.90008608917E+02  0.90000881751E+02 0.  0.
        -12    1    1    2    0    0 -0.10708651321E+01  0.33195587366E+00  0.36608263101E+00  0.11793910827E+01  0.00000000000E+00 0.  1.
         11    1    3    3    0    0  0.12147392486E+02 -0.16694017572E+02 -0.28886011117E+02  0.35505647514E+02  0.51100000000E-03 0. -1.
        -11    1    3    3    0    0 -0.13148865598E+02 -0.38475844143E+01 -0.55937595254E+01  0.14798199831E+02  0.51100000000E-03 0.  1.
        -12    1    3    3    0    0  0.20723382439E+01  0.20209646113E+02  0.34113688011E+02  0.39704761572E+02  0.00000000000E+00 0.  1.
</event>
<event>
 7    1  0.1716782E-015  0.9000775E+02  0.7816164E-02  0.1186339E+00
        -11   -1    0    0    0    0  0.00000000000E+00  0.00000000000E+00  0.45593999997E+02  0.45594000000E+02  0.51100000000E-03 0.  1.
         11   -1    0    0    0    0 -0.00000000000E+00 -0.00000000000E+00 -0.45593999997E+02  0.45594000000E+02  0.51100000000E-03 0. -1.
    9900012    2    1    2    0    0  0.10431885826E+01  0.23536793408E+00 -0.49935064640E+00  0.90007749369E+02  0.90000010861E+02 0.  0.
        -12    1    1    2    0    0 -0.10431885826E+01 -0.23536793408E+00  0.49935064640E+00  0.11802506308E+01  0.00000000000E+00 0.  1.
         11    1    3    3    0    0  0.23179398237E+02  0.91250008382E+01  0.66995061684E+01  0.25795998257E+02  0.51100000000E-03 0. -1.
        -11    1    3    3    0    0  0.16850383622E+02  0.41915786931E+01  0.95409672351E+01  0.19812491418E+02  0.51100000000E-03 0.  1.
        -12    1    3    3    0    0 -0.38986593276E+02 -0.13081211597E+02 -0.16739824050E+02  0.44399259694E+02  0.00000000000E+00 0.  1.
</event>
<event>
 7    1  0.1716782E-015  0.9000775E+02  0.7816164E-02  0.1186339E+00
        -11   -1    0    0    0    0  0.00000000000E+00  0.00000000000E+00  0.45593999997E+02  0.45594000000E+02  0.51100000000E-03 0.  1.
         11   -1    0    0    0    0 -0.00000000000E+00 -0.00000000000E+00 -0.45593999997E+02  0.45594000000E+02  0.51100000000E-03 0. -1.
    9900012    2    1    2    0    0 -0.11756351503E+01  0.24906275693E-01  0.10123134808E+00  0.90007751672E+02  0.90000013194E+02 0.  0.
        -12    1    1    2    0    0  0.11756351503E+01 -0.24906275693E-01 -0.10123134808E+00  0.11802483277E+01  0.00000000000E+00 0.  1.
         11    1    3    3    0    0 -0.48212971010E+01  0.87231504106E+01 -0.56590394731E+00  0.99829107159E+01  0.51100000000E-03 0. -1.
        -11    1    3    3    0    0 -0.25809399253E+02  0.23452099029E+02  0.80777558995E+01  0.35796315164E+02  0.51100000000E-03 0.  1.
         12    1    3    3    0    0  0.29455061204E+02 -0.32150343164E+02 -0.74106206042E+01  0.44228525793E+02  0.00000000000E+00 0. -1.
</event>
<event>
 7    1  0.1716782E-015  0.9000836E+02  0.7816164E-02  0.1186338E+00
        -11   -1    0    0    0    0  0.00000000000E+00  0.00000000000E+00  0.45593999997E+02  0.45594000000E+02  0.51100000000E-03 0.  1.
         11   -1    0    0    0    0 -0.00000000000E+00 -0.00000000000E+00 -0.45593999997E+02  0.45594000000E+02  0.51100000000E-03 0. -1.
    9900012    2    1    2    0    0  0.28792688152E+00  0.83153391419E+00 -0.78561714589E+00  0.90008362412E+02  0.90000631993E+02 0.  0.
        -12    1    1    2    0    0 -0.28792688152E+00 -0.83153391419E+00  0.78561714589E+00  0.11796375882E+01  0.00000000000E+00 0.  1.
         11    1    3    3    0    0 -0.63001755742E+01 -0.20494296209E+02 -0.32557280418E+02  0.38983136070E+02  0.51100000000E-03 0. -1.
        -11    1    3    3    0    0  0.25332995689E+01 -0.75543009814E+01  0.95273700221E-01  0.79683214897E+01  0.51100000000E-03 0.  1.
        -12    1    3    3    0    0  0.40548028868E+01  0.28880131105E+02  0.31676389572E+02  0.43056904852E+02  0.00000000000E+00 0.  1.
</event>
<event>
 7    1  0.1716782E-015  0.9000769E+02  0.7816164E-02  0.1186339E+00
        -11   -1    0    0    0    0  0.00000000000E+00  0.00000000000E+00  0.45593999997E+02  0.45594000000E+02  0.51100000000E-03 0.  1.
         11   -1    0    0    0    0 -0.00000000000E+00 -0.00000000000E+00 -0.45593999997E+02  0.45594000000E+02  0.51100000000E-03 0. -1.
    9900012    2    1    2    0    0 -0.20788364555E+00  0.97155037703E+00  0.63719404826E+00  0.90007685635E+02  0.89999946285E+02 0.  0.
        -12    1    1    2    0    0  0.20788364555E+00 -0.97155037703E+00 -0.63719404826E+00  0.11803143650E+01  0.00000000000E+00 0.  1.
         11    1    3    3    0    0  0.15055358326E+01 -0.11388789804E+02  0.35006436584E+00  0.11493203064E+02  0.51100000000E-03 0. -1.
        -11    1    3    3    0    0 -0.33761111868E+02  0.27651561312E+00 -0.19470441194E+02  0.38974186534E+02  0.51100000000E-03 0.  1.
         12    1    3    3    0    0  0.32047692390E+02  0.12083824568E+02  0.19757570877E+02  0.39540296037E+02  0.00000000000E+00 0. -1.
</event>
<event>
 7    1  0.1716782E-015  0.9000772E+02  0.7816164E-02  0.1186339E+00
        -11   -1    0    0    0    0  0.00000000000E+00  0.00000000000E+00  0.45593999997E+02  0.45594000000E+02  0.51100000000E-03 0. -1.
         11   -1    0    0    0    0 -0.00000000000E+00 -0.00000000000E+00 -0.45593999997E+02  0.45594000000E+02  0.51100000000E-03 0.  1.
    9900012    2    1    2    0    0 -0.63546228834E+00  0.39400854303E+00  0.91324380036E+00  0.90007716436E+02  0.89999977493E+02 0.  0.
        -12    1    1    2    0    0  0.63546228834E+00 -0.39400854303E+00 -0.91324380036E+00  0.11802835637E+01  0.00000000000E+00 0.  1.
         11    1    3    3    0    0  0.37035194218E+02  0.13548987512E+02  0.97964041874E+01  0.40634347646E+02  0.51100000000E-03 0. -1.
        -11    1    3    3    0    0  0.10218399149E+01 -0.10827830123E+01 -0.87147074883E+01  0.88409672962E+01  0.51100000000E-03 0.  1.
        -12    1    3    3    0    0 -0.38692496421E+02 -0.12072195956E+02 -0.16845289871E+00  0.40532401494E+02  0.00000000000E+00 0.  1.
</event>
<event>
 7    1  0.1716782E-015  0.9000776E+02  0.7816164E-02  0.1186339E+00
        -11   -1    0    0    0    0  0.00000000000E+00  0.00000000000E+00  0.45593999997E+02  0.45594000000E+02  0.51100000000E-03 0.  1.
         11   -1    0    0    0    0 -0.00000000000E+00 -0.00000000000E+00 -0.45593999997E+02  0.45594000000E+02  0.51100000000E-03 0. -1.
    9900012    2    1    2    0    0  0.55290901447E+00 -0.10204514721E+01 -0.21433498146E+00  0.90007758894E+02  0.90000020511E+02 0.  0.
        -12    1    1    2    0    0 -0.55290901447E+00  0.10204514721E+01  0.21433498146E+00  0.11802411065E+01  0.00000000000E+00 0.  1.
         11    1    3    3    0    0  0.29314520477E+02  0.76436759792E+01 -0.30895413843E+02  0.43270006819E+02  0.51100000000E-03 0. -1.
        -11    1    3    3    0    0 -0.63686495823E+00  0.36764586158E+01  0.70836104992E+01  0.80062152665E+01  0.51100000000E-03 0.  1.
        -12    1    3    3    0    0 -0.28124746505E+02 -0.12340586067E+02  0.23597468362E+02  0.38731536808E+02  0.00000000000E+00 0.  1.
</event>
<event>
 7    1  0.2108438E-015  0.9000759E+02  0.7816164E-02  0.1186339E+00
        -11   -1    0    0    0    0  0.00000000000E+00  0.00000000000E+00  0.45593999997E+02  0.45594000000E+02  0.51100000000E-03 0. -1.
         11   -1    0    0    0    0 -0.00000000000E+00 -0.00000000000E+00 -0.45593999997E+02  0.45594000000E+02  0.51100000000E-03 0.  1.
    9900012    2    1    2    0    0  0.60672003670E+00 -0.56444329364E-01  0.10109779918E+01  0.90007588349E+02  0.89999847715E+02 0.  0.
        -12    1    1    2    0    0 -0.60672003670E+00  0.56444329364E-01 -0.10109779918E+01  0.11804116507E+01  0.00000000000E+00 0.  1.
         11    1    3    3    0    0 -0.59035469722E+01  0.19424538577E+02  0.31565315352E+02  0.37530436972E+02  0.51100000000E-03 0. -1.
        -11    1    3    3    0    0  0.26933286044E+01 -0.47949842249E+01  0.87559878265E+01  0.10339884708E+02  0.51100000000E-03 0.  1.
        -12    1    3    3    0    0  0.38169384045E+01 -0.14685998682E+02 -0.39310325187E+02  0.42137266669E+02  0.00000000000E+00 0.  1.
</event>
<event>
 7    1  0.1716782E-015  0.9000769E+02  0.7816164E-02  0.1186339E+00
        -11   -1    0    0    0    0  0.00000000000E+00  0.00000000000E+00  0.45593999997E+02  0.45594000000E+02  0.51100000000E-03 0.  1.
         11   -1    0    0    0    0 -0.00000000000E+00 -0.00000000000E+00 -0.45593999997E+02  0.45594000000E+02  0.51100000000E-03 0. -1.
    9900012    2    1    2    0    0  0.51893452350E+00 -0.90138483412E+00  0.55798082763E+00  0.90007690607E+02  0.89999951323E+02 0.  0.
        -12    1    1    2    0    0 -0.51893452350E+00  0.90138483412E+00 -0.55798082763E+00  0.11803093929E+01  0.00000000000E+00 0.  1.
         11    1    3    3    0    0 -0.32261383395E+02 -0.58276101744E+01 -0.23049493390E+02  0.40075392009E+02  0.51100000000E-03 0. -1.
        -11    1    3    3    0    0  0.35793941478E+01  0.10409861552E+02 -0.14010679556E+01  0.11096858640E+02  0.51100000000E-03 0.  1.
        -12    1    3    3    0    0  0.29200923770E+02 -0.54836362114E+01  0.25008542173E+02  0.38835439958E+02  0.00000000000E+00 0.  1.
</event>
<event>
 7    1  0.1716782E-015  0.9000766E+02  0.7816164E-02  0.1186339E+00
        -11   -1    0    0    0    0  0.00000000000E+00  0.00000000000E+00  0.45593999997E+02  0.45594000000E+02  0.51100000000E-03 0. -1.
         11   -1    0    0    0    0 -0.00000000000E+00 -0.00000000000E+00 -0.45593999997E+02  0.45594000000E+02  0.51100000000E-03 0.  1.
    9900012    2    1    2    0    0 -0.99506285231E+00  0.29797844617E+00  0.56057979001E+00  0.90007664905E+02  0.89999925282E+02 0.  0.
        -12    1    1    2    0    0  0.99506285231E+00 -0.29797844617E+00 -0.56057979001E+00  0.11803350945E+01  0.00000000000E+00 0.  1.
         11    1    3    3    0    0 -0.13201350168E+01 -0.31686395651E+02  0.27648859348E+02  0.42074099507E+02  0.51100000000E-03 0. -1.
        -11    1    3    3    0    0  0.32619127001E+01 -0.20500056880E+01 -0.78095718047E+01  0.87081576592E+01  0.51100000000E-03 0.  1.
        -12    1    3    3    0    0 -0.29368405356E+01  0.34034379785E+02 -0.19278707753E+02  0.39225407739E+02  0.00000000000E+00 0.  1.
</event>
<event>
 7    1  0.1716782E-015  0.9000776E+02  0.7816164E-02  0.1186339E+00
        -11   -1    0    0    0    0  0.00000000000E+00  0.00000000000E+00  0.45593999997E+02  0.45594000000E+02  0.51100000000E-03 0.  1.
         11   -1    0    0    0    0 -0.00000000000E+00 -0.00000000000E+00 -0.45593999997E+02  0.45594000000E+02  0.51100000000E-03 0. -1.
    9900012    2    1    2    0    0  0.70807662534E+00  0.92605719365E+00 -0.18443419666E+00  0.90007758327E+02  0.90000019937E+02 0.  0.
        -12    1    1    2    0    0 -0.70807662534E+00 -0.92605719365E+00  0.18443419666E+00  0.11802416728E+01  0.00000000000E+00 0.  1.
         11    1    3    3    0    0  0.22033735602E+02  0.62207450241E+01 -0.32790931335E+02  0.39992853753E+02  0.51100000000E-03 0. -1.
        -11    1    3    3    0    0  0.56914624057E+01 -0.60014249852E+01  0.84968897306E+00  0.83145545750E+01  0.51100000000E-03 0.  1.
        -12    1    3    3    0    0 -0.27017121382E+02  0.70673715478E+00  0.31756808165E+02  0.41700349999E+02  0.00000000000E+00 0.  1.
</event>
<event>
 7    1  0.1716782E-015  0.9000771E+02  0.7816164E-02  0.1186339E+00
        -11   -1    0    0    0    0  0.00000000000E+00  0.00000000000E+00  0.45593999997E+02  0.45594000000E+02  0.51100000000E-03 0. -1.
         11   -1    0    0    0    0 -0.00000000000E+00 -0.00000000000E+00 -0.45593999997E+02  0.45594000000E+02  0.51100000000E-03 0.  1.
    9900012    2    1    2    0    0 -0.34634011899E+00  0.90683102190E+00 -0.67140107468E+00  0.90007714703E+02  0.89999975737E+02 0.  0.
        -12    1    1    2    0    0  0.34634011899E+00 -0.90683102190E+00  0.67140107468E+00  0.11802852975E+01  0.00000000000E+00 0.  1.
         11    1    3    3    0    0  0.71754162029E+01  0.39939432374E+01 -0.87988303336E+01  0.12035680112E+02  0.51100000000E-03 0. -1.
        -11    1    3    3    0    0  0.10656051202E+01 -0.21470353262E+02 -0.28739969258E+02  0.35890074069E+02  0.51100000000E-03 0.  1.
         12    1    3    3    0    0 -0.85873614421E+01  0.18383241046E+02  0.36867398517E+02  0.42081960521E+02  0.00000000000E+00 0. -1.
</event>
<event>
 7    1  0.1716782E-015  0.9000775E+02  0.7816164E-02  0.1186339E+00
        -11   -1    0    0    0    0  0.00000000000E+00  0.00000000000E+00  0.45593999997E+02  0.45594000000E+02  0.51100000000E-03 0. -1.
         11   -1    0    0    0    0 -0.00000000000E+00 -0.00000000000E+00 -0.45593999997E+02  0.45594000000E+02  0.51100000000E-03 0.  1.
    9900012    2    1    2    0    0 -0.68366744752E+00 -0.62715556928E+00 -0.72957172512E+00  0.90007745710E+02  0.90000007153E+02 0.  0.
        -12    1    1    2    0    0  0.68366744752E+00  0.62715556928E+00  0.72957172512E+00  0.11802542900E+01  0.00000000000E+00 0.  1.
         11    1    3    3    0    0 -0.16352211438E+02 -0.16556043519E+02  0.28033047696E+02  0.36432803341E+02  0.51100000000E-03 0. -1.
        -11    1    3    3    0    0 -0.58308153080E+01 -0.99631802051E+01 -0.71922600996E+01  0.13601175411E+02  0.51100000000E-03 0.  1.
        -12    1    3    3    0    0  0.21499359298E+02  0.25892068154E+02 -0.21570359322E+02  0.39973766958E+02  0.00000000000E+00 0.  1.
</event>
<event>
 7    1  0.1716782E-015  0.9000776E+02  0.7816164E-02  0.1186339E+00
        -11   -1    0    0    0    0  0.00000000000E+00  0.00000000000E+00  0.45593999997E+02  0.45594000000E+02  0.51100000000E-03 0. -1.
         11   -1    0    0    0    0 -0.00000000000E+00 -0.00000000000E+00 -0.45593999997E+02  0.45594000000E+02  0.51100000000E-03 0.  1.
    9900012    2    1    2    0    0 -0.24227181101E+00  0.11518048450E+01 -0.87334205205E-01  0.90007755409E+02  0.90000016980E+02 0.  0.
        -12    1    1    2    0    0  0.24227181101E+00 -0.11518048450E+01  0.87334205205E-01  0.11802445911E+01  0.00000000000E+00 0.  1.
         11    1    3    3    0    0  0.85211188417E+01 -0.30670181188E+02  0.18041360186E+02  0.36589071566E+02  0.51100000000E-03 0. -1.
        -11    1    3    3    0    0 -0.76307356119E+01 -0.62667659721E+01  0.23625146376E+01  0.10152928514E+02  0.51100000000E-03 0.  1.
         12    1    3    3    0    0 -0.11326550408E+01  0.38088752005E+02 -0.20491209029E+02  0.43265755329E+02  0.00000000000E+00 0. -1.
</event>
<event>
 7    1  0.1716782E-015  0.9000774E+02  0.7816164E-02  0.1186339E+00
        -11   -1    0    0    0    0  0.00000000000E+00  0.00000000000E+00  0.45593999997E+02  0.45594000000E+02  0.51100000000E-03 0.  1.
         11   -1    0    0    0    0 -0.00000000000E+00 -0.00000000000E+00 -0.45593999997E+02  0.45594000000E+02  0.51100000000E-03 0. -1.
    9900012    2    1    2    0    0  0.70131701381E+00  0.93919141351E+00 -0.13815274852E+00  0.90007740602E+02  0.90000001978E+02 0.  0.
        -12    1    1    2    0    0 -0.70131701381E+00 -0.93919141351E+00  0.13815274852E+00  0.11802593982E+01  0.00000000000E+00 0.  1.
         11    1    3    3    0    0  0.55658608721E+01 -0.32324799325E+02  0.15036175049E+02  0.36082655377E+02  0.51100000000E-03 0. -1.
        -11    1    3    3    0    0 -0.66869771175E+01 -0.36170947461E+01  0.74294739050E+01  0.10629963318E+02  0.51100000000E-03 0.  1.
        -12    1    3    3    0    0  0.18224332592E+01  0.36881085485E+02 -0.22603801703E+02  0.43295121907E+02  0.00000000000E+00 0.  1.
</event>
<event>
 7    1  0.1716782E-015  0.9000775E+02  0.7816164E-02  0.1186339E+00
        -11   -1    0    0    0    0  0.00000000000E+00  0.00000000000E+00  0.45593999997E+02  0.45594000000E+02  0.51100000000E-03 0. -1.
         11   -1    0    0    0    0 -0.00000000000E+00 -0.00000000000E+00 -0.45593999997E+02  0.45594000000E+02  0.51100000000E-03 0.  1.
    9900012    2    1    2    0    0  0.49536767807E+00 -0.85858503826E+00  0.64064711456E+00  0.90007751666E+02  0.90000013188E+02 0.  0.
        -12    1    1    2    0    0 -0.49536767807E+00  0.85858503826E+00 -0.64064711456E+00  0.11802483340E+01  0.00000000000E+00 0.  1.
         11    1    3    3    0    0 -0.11331970574E+02 -0.13061492860E+02  0.35656016534E+02  0.39627864795E+02  0.51100000000E-03 0. -1.
        -11    1    3    3    0    0  0.14834029322E+01  0.12563504217E+02  0.12065862568E+01  0.12708185281E+02  0.51100000000E-03 0.  1.
        -12    1    3    3    0    0  0.10343935320E+02 -0.36059639542E+00 -0.36221955677E+02  0.37671701590E+02  0.00000000000E+00 0.  1.
</event>
<event>
 7    1  0.1716782E-015  0.9000777E+02  0.7816164E-02  0.1186339E+00
        -11   -1    0    0    0    0  0.00000000000E+00  0.00000000000E+00  0.45593999997E+02  0.45594000000E+02  0.51100000000E-03 0.  1.
         11   -1    0    0    0    0 -0.00000000000E+00 -0.00000000000E+00 -0.45593999997E+02  0.45594000000E+02  0.51100000000E-03 0. -1.
    9900012    2    1    2    0    0 -0.11117200102E+01 -0.34232523203E+00  0.19956532638E+00  0.90007773638E+02  0.90000035450E+02 0.  0.
        -12    1    1    2    0    0  0.11117200102E+01  0.34232523203E+00 -0.19956532638E+00  0.11802263618E+01  0.00000000000E+00 0.  1.
         11    1    3    3    0    0  0.52711249317E+01 -0.30641208056E+01  0.60835277207E+01  0.86129497936E+01  0.51100000000E-03 0. -1.
        -11    1    3    3    0    0  0.21966623245E+02 -0.90851713771E+01  0.27288078335E+02  0.36189944670E+02  0.51100000000E-03 0.  1.
         12    1    3    3    0    0 -0.28349468187E+02  0.11806966951E+02 -0.33172040729E+02  0.45204879175E+02  0.00000000000E+00 0. -1.
</event>
<event>
 7    1  0.1716782E-015  0.9000775E+02  0.7816164E-02  0.1186339E+00
        -11   -1    0    0    0    0  0.00000000000E+00  0.00000000000E+00  0.45593999997E+02  0.45594000000E+02  0.51100000000E-03 0. -1.
         11   -1    0    0    0    0 -0.00000000000E+00 -0.00000000000E+00 -0.45593999997E+02  0.45594000000E+02  0.51100000000E-03 0.  1.
    9900012    2    1    2    0    0 -0.44624066197E+00 -0.59423328178E+00  0.91692619689E+00  0.90007746819E+02  0.90000008277E+02 0.  0.
        -12    1    1    2    0    0  0.44624066197E+00  0.59423328178E+00 -0.91692619689E+00  0.11802531814E+01  0.00000000000E+00 0.  1.
         11    1    3    3    0    0  0.15764725574E+02 -0.36824990665E+02  0.78647089426E+00  0.40065259847E+02  0.51100000000E-03 0. -1.
        -11    1    3    3    0    0 -0.48960041493E+01 -0.25582417734E+01 -0.69951760809E+01  0.89133577436E+01  0.51100000000E-03 0.  1.
        -12    1    3    3    0    0 -0.11314962087E+02  0.38788999157E+02  0.71256313835E+01  0.41029129228E+02  0.00000000000E+00 0.  1.
</event>
<event>
 7    1  0.1716782E-015  0.9000769E+02  0.7816164E-02  0.1186339E+00
        -11   -1    0    0    0    0  0.00000000000E+00  0.00000000000E+00  0.45593999997E+02  0.45594000000E+02  0.51100000000E-03 0.  1.
         11   -1    0    0    0    0 -0.00000000000E+00 -0.00000000000E+00 -0.45593999997E+02  0.45594000000E+02  0.51100000000E-03 0. -1.
    9900012    2    1    2    0    0  0.78566974068E+00 -0.85452216207E+00  0.21362520762E+00  0.90007694617E+02  0.89999955386E+02 0.  0.
        -12    1    1    2    0    0 -0.78566974068E+00  0.85452216207E+00 -0.21362520762E+00  0.11803053826E+01  0.00000000000E+00 0.  1.
         11    1    3    3    0    0  0.14208582325E+02  0.27837880237E+02 -0.17919895825E+02  0.36027129422E+02  0.51100000000E-03 0. -1.
        -11    1    3    3    0    0  0.86702350698E+01  0.47743776323E+01  0.77102998690E+01  0.12546568546E+02  0.51100000000E-03 0.  1.
        -12    1    3    3    0    0 -0.22093147654E+02 -0.33466780031E+02  0.10423221164E+02  0.41433996649E+02  0.00000000000E+00 0.  1.
</event>
<event>
 7    1  0.1716782E-015  0.9000774E+02  0.7816164E-02  0.1186339E+00
        -11   -1    0    0    0    0  0.00000000000E+00  0.00000000000E+00  0.45593999997E+02  0.45594000000E+02  0.51100000000E-03 0.  1.
         11   -1    0    0    0    0 -0.00000000000E+00 -0.00000000000E+00 -0.45593999997E+02  0.45594000000E+02  0.51100000000E-03 0. -1.
    9900012    2    1    2    0    0 -0.82968928546E+00  0.49062566965E+00 -0.68110602189E+00  0.90007744404E+02  0.90000005830E+02 0.  0.
        -12    1    1    2    0    0  0.82968928546E+00 -0.49062566965E+00  0.68110602189E+00  0.11802555957E+01  0.00000000000E+00 0.  1.
         11    1    3    3    0    0 -0.80834881397E+01  0.67746726064E+01  0.25228575347E+01  0.10844527644E+02  0.51100000000E-03 0. -1.
        -11    1    3    3    0    0 -0.22886458352E+02  0.26127735940E+02 -0.34261130325E+01  0.34902533032E+02  0.51100000000E-03 0.  1.
         12    1    3    3    0    0  0.30140257207E+02 -0.32411782876E+02  0.22214947585E+00  0.44260683728E+02  0.00000000000E+00 0. -1.
</event>
<event>
 7    1  0.1716782E-015  0.9000776E+02  0.7816164E-02  0.1186339E+00
        -11   -1    0    0    0    0  0.00000000000E+00  0.00000000000E+00  0.45593999997E+02  0.45594000000E+02  0.51100000000E-03 0.  1.
         11   -1    0    0    0    0 -0.00000000000E+00 -0.00000000000E+00 -0.45593999997E+02  0.45594000000E+02  0.51100000000E-03 0. -1.
    9900012    2    1    2    0    0  0.53650603259E+00 -0.79558695115E+00  0.68713766188E+00  0.90007764648E+02  0.90000026341E+02 0.  0.
        -12    1    1    2    0    0 -0.53650603259E+00  0.79558695115E+00 -0.68713766188E+00  0.11802353520E+01  0.00000000000E+00 0.  1.
         11    1    3    3    0    0  0.80006271072E+00 -0.42268044505E-01  0.95040337198E+01  0.95377431364E+01  0.51100000000E-03 0. -1.
        -11    1    3    3    0    0 -0.14174588572E+02 -0.35444700185E+02 -0.17660991896E+02  0.42061340533E+02  0.51100000000E-03 0.  1.
         12    1    3    3    0    0  0.13911031894E+02  0.34691381278E+02  0.88440958384E+01  0.38408680979E+02  0.00000000000E+00 0. -1.
</event>
<event>
 7    1  0.1716782E-015  0.9000773E+02  0.7816164E-02  0.1186339E+00
        -11   -1    0    0    0    0  0.00000000000E+00  0.00000000000E+00  0.45593999997E+02  0.45594000000E+02  0.51100000000E-03 0. -1.
         11   -1    0    0    0    0 -0.00000000000E+00 -0.00000000000E+00 -0.45593999997E+02  0.45594000000E+02  0.51100000000E-03 0.  1.
    9900012    2    1    2    0    0 -0.80534070079E+00  0.23467633463E+00  0.83029551348E+00  0.90007730003E+02  0.89999991239E+02 0.  0.
        -12    1    1    2    0    0  0.80534070079E+00 -0.23467633463E+00 -0.83029551348E+00  0.11802699971E+01  0.00000000000E+00 0.  1.
         11    1    3    3    0    0  0.10445645644E+02  0.77531264535E+01 -0.81083792098E+01  0.15328675625E+02  0.51100000000E-03 0. -1.
        -11    1    3    3    0    0 -0.26658591439E+02  0.80095298109E+01 -0.22903328678E+02  0.36047129290E+02  0.51100000000E-03 0.  1.
         12    1    3    3    0    0  0.15407605094E+02 -0.15527979930E+02  0.31842003401E+02  0.38631925088E+02  0.00000000000E+00 0. -1.
</event>
<event>
 7    1  0.1716782E-015  0.9000774E+02  0.7816164E-02  0.1186339E+00
        -11   -1    0    0    0    0  0.00000000000E+00  0.00000000000E+00  0.45593999997E+02  0.45594000000E+02  0.51100000000E-03 0. -1.
         11   -1    0    0    0    0 -0.00000000000E+00 -0.00000000000E+00 -0.45593999997E+02  0.45594000000E+02  0.51100000000E-03 0.  1.
    9900012    2    1    2    0    0  0.48906949268E+00  0.60254472783E+00 -0.88925154851E+00  0.90007738404E+02  0.89999999751E+02 0.  0.
        -12    1    1    2    0    0 -0.48906949268E+00 -0.60254472783E+00  0.88925154851E+00  0.11802615957E+01  0.00000000000E+00 0.  1.
         11    1    3    3    0    0 -0.10864518858E+02  0.19280046175E+02  0.24554171947E+02  0.33055488362E+02  0.51100000000E-03 0. -1.
        -11    1    3    3    0    0 -0.34215883281E+01  0.77896205006E+01  0.80963353049E+01  0.11744620039E+02  0.51100000000E-03 0.  1.
        -12    1    3    3    0    0  0.14775176679E+02 -0.26467121948E+02 -0.33539758801E+02  0.45207630004E+02  0.00000000000E+00 0.  1.
</event>
<event>
 7    1  0.1716782E-015  0.9000775E+02  0.7816164E-02  0.1186339E+00
        -11   -1    0    0    0    0  0.00000000000E+00  0.00000000000E+00  0.45593999997E+02  0.45594000000E+02  0.51100000000E-03 0.  1.
         11   -1    0    0    0    0 -0.00000000000E+00 -0.00000000000E+00 -0.45593999997E+02  0.45594000000E+02  0.51100000000E-03 0. -1.
    9900012    2    1    2    0    0  0.92501737729E+00  0.46720087248E+00 -0.56484960772E+00  0.90007750500E+02  0.90000012006E+02 0.  0.
        -12    1    1    2    0    0 -0.92501737729E+00 -0.46720087248E+00  0.56484960772E+00  0.11802495003E+01  0.00000000000E+00 0.  1.
         11    1    3    3    0    0 -0.10933281152E+01  0.76767716817E+01 -0.58280350531E+01  0.97002155987E+01  0.51100000000E-03 0. -1.
        -11    1    3    3    0    0  0.35722162281E+02 -0.14386605244E+02  0.19327681826E+02  0.43088357749E+02  0.51100000000E-03 0.  1.
         12    1    3    3    0    0 -0.33703816789E+02  0.71770344352E+01 -0.14064496380E+02  0.37219177152E+02  0.00000000000E+00 0. -1.
</event>
<event>
 7    1  0.1716782E-015  0.9000781E+02  0.7816164E-02  0.1186339E+00
        -11   -1    0    0    0    0  0.00000000000E+00  0.00000000000E+00  0.45593999997E+02  0.45594000000E+02  0.51100000000E-03 0. -1.
         11   -1    0    0    0    0 -0.00000000000E+00 -0.00000000000E+00 -0.45593999997E+02  0.45594000000E+02  0.51100000000E-03 0.  1.
    9900012    2    1    2    0    0  0.11529811676E+01  0.14380956500E+00  0.20687056392E+00  0.90007812645E+02  0.90000074971E+02 0.  0.
        -12    1    1    2    0    0 -0.11529811676E+01 -0.14380956500E+00 -0.20687056392E+00  0.11801873555E+01  0.00000000000E+00 0.  1.
         11    1    3    3    0    0  0.15309294585E+02 -0.28175557135E+01 -0.34319807199E+02  0.37685040631E+02  0.51100000000E-03 0. -1.
        -11    1    3    3    0    0 -0.10502501099E+01 -0.57398358898E+00 -0.77903831294E+01  0.78817860931E+01  0.51100000000E-03 0.  1.
        -12    1    3    3    0    0 -0.13106063308E+02  0.35353488674E+01  0.42317060892E+02  0.44440985921E+02  0.00000000000E+00 0.  1.
</event>
<event>
 7    1  0.3247874E-015  0.9000768E+02  0.7816164E-02  0.1186339E+00
        -11   -1    0    0    0    0  0.00000000000E+00  0.00000000000E+00  0.45593999997E+02  0.45594000000E+02  0.51100000000E-03 0. -1.
         11   -1    0    0    0    0 -0.00000000000E+00 -0.00000000000E+00 -0.45593999997E+02  0.45594000000E+02  0.51100000000E-03 0.  1.
    9900012    2    1    2    0    0  0.51058598951E+00 -0.44055454904E+00  0.96869808029E+00  0.90007677021E+02  0.89999937558E+02 0.  0.
        -12    1    1    2    0    0 -0.51058598951E+00  0.44055454904E+00 -0.96869808029E+00  0.11803229787E+01  0.00000000000E+00 0.  1.
         11    1    3    3    0    0 -0.11150001898E+02  0.25493023541E-01  0.40017951504E+02  0.41542263240E+02  0.51100000000E-03 0. -1.
        -11    1    3    3    0    0  0.90848981550E+01 -0.37113523870E+00  0.23615870485E+00  0.90955421525E+01  0.51100000000E-03 0.  1.
        -12    1    3    3    0    0  0.25756897325E+01 -0.94912333881E-01 -0.39285412129E+02  0.39369871629E+02  0.00000000000E+00 0.  1.
</event>
<event>
 7    1  0.1716782E-015  0.9000770E+02  0.7816164E-02  0.1186339E+00
        -11   -1    0    0    0    0  0.00000000000E+00  0.00000000000E+00  0.45593999997E+02  0.45594000000E+02  0.51100000000E-03 0.  1.
         11   -1    0    0    0    0 -0.00000000000E+00 -0.00000000000E+00 -0.45593999997E+02  0.45594000000E+02  0.51100000000E-03 0. -1.
    9900012    2    1    2    0    0 -0.10376684493E+01  0.50351551243E+00 -0.25066076836E+00  0.90007697283E+02  0.89999958088E+02 0.  0.
        -12    1    1    2    0    0  0.10376684493E+01 -0.50351551243E+00  0.25066076836E+00  0.11803027166E+01  0.00000000000E+00 0.  1.
         11    1    3    3    0    0  0.23675993545E+01 -0.47239756627E+01 -0.59409307213E+01  0.79508572407E+01  0.51100000000E-03 0. -1.
        -11    1    3    3    0    0  0.35846376796E+02 -0.35443548184E+01  0.17627283818E+02  0.40102946470E+02  0.51100000000E-03 0.  1.
         12    1    3    3    0    0 -0.39251644600E+02  0.87718459935E+01 -0.11937013865E+02  0.41953893573E+02  0.00000000000E+00 0. -1.
</event>
<event>
 7    1  0.1716782E-015  0.9000779E+02  0.7816164E-02  0.1186339E+00
        -11   -1    0    0    0    0  0.00000000000E+00  0.00000000000E+00  0.45593999997E+02  0.45594000000E+02  0.51100000000E-03 0. -1.
         11   -1    0    0    0    0 -0.00000000000E+00 -0.00000000000E+00 -0.45593999997E+02  0.45594000000E+02  0.51100000000E-03 0.  1.
    9900012    2    1    2    0    0 -0.10451416753E+01 -0.24271561806E+00  0.49158139489E+00  0.90007794823E+02  0.90000056914E+02 0.  0.
        -12    1    1    2    0    0  0.10451416753E+01  0.24271561806E+00 -0.49158139489E+00  0.11802051773E+01  0.00000000000E+00 0.  1.
         11    1    3    3    0    0  0.98895875968E+01 -0.13302525034E+01 -0.34774866399E+01  0.10567233704E+02  0.51100000000E-03 0. -1.
        -11    1    3    3    0    0  0.16455740535E+02 -0.40602691928E+00 -0.30938265799E+02  0.35044722075E+02  0.51100000000E-03 0.  1.
         12    1    3    3    0    0 -0.27390469807E+02  0.14935638047E+01  0.34907333833E+02  0.44395839044E+02  0.00000000000E+00 0. -1.
</event>
<event>
 7    1  0.1716782E-015  0.9000781E+02  0.7816164E-02  0.1186339E+00
        -11   -1    0    0    0    0  0.00000000000E+00  0.00000000000E+00  0.45593999997E+02  0.45594000000E+02  0.51100000000E-03 0.  1.
         11   -1    0    0    0    0 -0.00000000000E+00 -0.00000000000E+00 -0.45593999997E+02  0.45594000000E+02  0.51100000000E-03 0. -1.
    9900012    2    1    2    0    0 -0.79094218209E+00 -0.65157031719E+00 -0.58540914536E+00  0.90007814726E+02  0.90000077080E+02 0.  0.
        -12    1    1    2    0    0  0.79094218209E+00  0.65157031719E+00  0.58540914536E+00  0.11801852741E+01  0.00000000000E+00 0.  1.
         11    1    3    3    0    0 -0.48960582147E+01  0.40629355982E+02  0.37016921999E+01  0.41090369662E+02  0.51100000000E-03 0. -1.
        -11    1    3    3    0    0 -0.53703110281E+01 -0.43145996222E+01  0.62781875909E+01  0.93204962382E+01  0.51100000000E-03 0.  1.
        -12    1    3    3    0    0  0.94754270607E+01 -0.36966326677E+02 -0.10565288936E+02  0.39596948826E+02  0.00000000000E+00 0.  1.
</event>
<event>
 7    1  0.1716782E-015  0.9000749E+02  0.7816164E-02  0.1186340E+00
        -11   -1    0    0    0    0  0.00000000000E+00  0.00000000000E+00  0.45593999997E+02  0.45594000000E+02  0.51100000000E-03 0. -1.
         11   -1    0    0    0    0 -0.00000000000E+00 -0.00000000000E+00 -0.45593999997E+02  0.45594000000E+02  0.51100000000E-03 0.  1.
    9900012    2    1    2    0    0  0.11043263618E+01  0.14427920076E+00 -0.39146317301E+00  0.90007493068E+02  0.89999751176E+02 0.  0.
        -12    1    1    2    0    0 -0.11043263618E+01 -0.14427920076E+00  0.39146317301E+00  0.11805069322E+01  0.00000000000E+00 0.  1.
         11    1    3    3    0    0  0.35573366132E+01  0.15835296222E+01  0.81588106870E+01  0.90403762052E+01  0.51100000000E-03 0. -1.
        -11    1    3    3    0    0  0.37766436415E+02  0.45859797537E+01 -0.12652099700E+02  0.40092524950E+02  0.51100000000E-03 0.  1.
         12    1    3    3    0    0 -0.40219446666E+02 -0.60252301752E+01  0.41018258403E+01  0.40874591913E+02  0.00000000000E+00 0. -1.
</event>
<event>
 7    1  0.1716782E-015  0.9000782E+02  0.7816164E-02  0.1186339E+00
        -11   -1    0    0    0    0  0.00000000000E+00  0.00000000000E+00  0.45593999997E+02  0.45594000000E+02  0.51100000000E-03 0.  1.
         11   -1    0    0    0    0 -0.00000000000E+00 -0.00000000000E+00 -0.45593999997E+02  0.45594000000E+02  0.51100000000E-03 0. -1.
    9900012    2    1    2    0    0 -0.95755482824E+00 -0.53618823945E+00  0.43407939064E+00  0.90007816118E+02  0.90000078491E+02 0.  0.
        -12    1    1    2    0    0  0.95755482824E+00  0.53618823945E+00 -0.43407939064E+00  0.11801838817E+01  0.00000000000E+00 0.  1.
         11    1    3    3    0    0 -0.19134712962E+02  0.79006623445E+01 -0.31348679067E+02  0.37567238189E+02  0.51100000000E-03 0. -1.
        -11    1    3    3    0    0  0.45872061625E+01 -0.19090660444E+01 -0.82680470399E+01  0.96461181651E+01  0.51100000000E-03 0.  1.
        -12    1    3    3    0    0  0.13589951972E+02 -0.65277845396E+01  0.40050805497E+02  0.42794459765E+02  0.00000000000E+00 0.  1.
</event>
<event>
 7    1  0.1716782E-015  0.9000779E+02  0.7816164E-02  0.1186339E+00
        -11   -1    0    0    0    0  0.00000000000E+00  0.00000000000E+00  0.45593999997E+02  0.45594000000E+02  0.51100000000E-03 0.  1.
         11   -1    0    0    0    0 -0.00000000000E+00 -0.00000000000E+00 -0.45593999997E+02  0.45594000000E+02  0.51100000000E-03 0. -1.
    9900012    2    1    2    0    0  0.70110847847E+00  0.20370240954E+00 -0.92728241901E+00  0.90007787962E+02  0.90000049963E+02 0.  0.
        -12    1    1    2    0    0 -0.70110847847E+00 -0.20370240954E+00  0.92728241901E+00  0.11802120381E+01  0.00000000000E+00 0.  1.
         11    1    3    3    0    0  0.49581756871E+01 -0.74247002267E+00  0.95342029341E+01  0.10771991168E+02  0.51100000000E-03 0. -1.
        -11    1    3    3    0    0 -0.14445530410E+02  0.25764581837E+02  0.22213169745E+02  0.36958245852E+02  0.51100000000E-03 0.  1.
         12    1    3    3    0    0  0.10188463202E+02 -0.24818409405E+02 -0.32674655098E+02  0.42277550941E+02  0.00000000000E+00 0. -1.
</event>
<event>
 7    1  0.1716782E-015  0.9000778E+02  0.7816164E-02  0.1186339E+00
        -11   -1    0    0    0    0  0.00000000000E+00  0.00000000000E+00  0.45593999997E+02  0.45594000000E+02  0.51100000000E-03 0. -1.
         11   -1    0    0    0    0 -0.00000000000E+00 -0.00000000000E+00 -0.45593999997E+02  0.45594000000E+02  0.51100000000E-03 0.  1.
    9900012    2    1    2    0    0  0.68187025928E+00 -0.69291911998E+00  0.66920382320E+00  0.90007780650E+02  0.90000042554E+02 0.  0.
        -12    1    1    2    0    0 -0.68187025928E+00  0.69291911998E+00 -0.66920382320E+00  0.11802193501E+01  0.00000000000E+00 0.  1.
         11    1    3    3    0    0  0.61969358669E+01 -0.73747869139E+00 -0.27608697542E+01  0.68240963519E+01  0.51100000000E-03 0. -1.
        -11    1    3    3    0    0 -0.17872750685E+02 -0.34456833007E+02 -0.15666784718E+02  0.41858770904E+02  0.51100000000E-03 0.  1.
         12    1    3    3    0    0  0.12357685077E+02  0.34501392578E+02  0.19096858296E+02  0.41324913394E+02  0.00000000000E+00 0. -1.
</event>
<event>
 7    1  0.1716782E-015  0.9000771E+02  0.7816164E-02  0.1186339E+00
        -11   -1    0    0    0    0  0.00000000000E+00  0.00000000000E+00  0.45593999997E+02  0.45594000000E+02  0.51100000000E-03 0.  1.
         11   -1    0    0    0    0 -0.00000000000E+00 -0.00000000000E+00 -0.45593999997E+02  0.45594000000E+02  0.51100000000E-03 0. -1.
    9900012    2    1    2    0    0  0.97948788180E+00  0.55820567299E+00  0.34943339186E+00  0.90007706062E+02  0.89999966982E+02 0.  0.
        -12    1    1    2    0    0 -0.97948788180E+00 -0.55820567299E+00 -0.34943339186E+00  0.11802939377E+01  0.00000000000E+00 0.  1.
         11    1    3    3    0    0  0.10354137781E+00  0.35581347482E+02 -0.78006563458E+01  0.36426545941E+02  0.51100000000E-03 0. -1.
        -11    1    3    3    0    0 -0.33820836627E+01  0.81764344990E+01 -0.18398124336E+01  0.90375594642E+01  0.51100000000E-03 0.  1.
        -12    1    3    3    0    0  0.42580301667E+01 -0.43199576308E+02  0.99899021712E+01  0.44543600657E+02  0.00000000000E+00 0.  1.
</event>
<event>
 7    1  0.1716782E-015  0.9000773E+02  0.7816164E-02  0.1186339E+00
        -11   -1    0    0    0    0  0.00000000000E+00  0.00000000000E+00  0.45593999997E+02  0.45594000000E+02  0.51100000000E-03 0. -1.
         11   -1    0    0    0    0 -0.00000000000E+00 -0.00000000000E+00 -0.45593999997E+02  0.45594000000E+02  0.51100000000E-03 0.  1.
    9900012    2    1    2    0    0 -0.11283500692E+01 -0.23288214771E+00  0.25619207608E+00  0.90007727848E+02  0.89999989055E+02 0.  0.
        -12    1    1    2    0    0  0.11283500692E+01  0.23288214771E+00 -0.25619207608E+00  0.11802721522E+01  0.00000000000E+00 0.  1.
         11    1    3    3    0    0  0.11067762618E+02 -0.30571147652E+02 -0.63484524083E+01  0.33126926908E+02  0.51100000000E-03 0. -1.
        -11    1    3    3    0    0  0.11845216351E+01 -0.98965306280E+01 -0.71922582461E+01  0.12291175245E+02  0.51100000000E-03 0.  1.
        -12    1    3    3    0    0 -0.13380634322E+02  0.40234796132E+02  0.13796902730E+02  0.44589625695E+02  0.00000000000E+00 0.  1.
</event>
<event>
 7    1  0.1716782E-015  0.9000772E+02  0.7816164E-02  0.1186339E+00
        -11   -1    0    0    0    0  0.00000000000E+00  0.00000000000E+00  0.45593999997E+02  0.45594000000E+02  0.51100000000E-03 0.  1.
         11   -1    0    0    0    0 -0.00000000000E+00 -0.00000000000E+00 -0.45593999997E+02  0.45594000000E+02  0.51100000000E-03 0. -1.
    9900012    2    1    2    0    0  0.95895548991E+00 -0.60173513765E+00 -0.33374961741E+00  0.90007716299E+02  0.89999977354E+02 0.  0.
        -12    1    1    2    0    0 -0.95895548991E+00  0.60173513765E+00  0.33374961741E+00  0.11802837009E+01  0.00000000000E+00 0.  1.
         11    1    3    3    0    0  0.51466687015E+01 -0.63388944470E+01 -0.23211192284E+01  0.84886616299E+01  0.51100000000E-03 0. -1.
        -11    1    3    3    0    0  0.34414449976E+02  0.13412821726E+02  0.15287643812E+02  0.39974619541E+02  0.51100000000E-03 0.  1.
         12    1    3    3    0    0 -0.38602163188E+02 -0.76756624171E+01 -0.13300274201E+02  0.41544435129E+02  0.00000000000E+00 0. -1.
</event>
<event>
 7    1  0.1716782E-015  0.9000778E+02  0.7816164E-02  0.1186339E+00
        -11   -1    0    0    0    0  0.00000000000E+00  0.00000000000E+00  0.45593999997E+02  0.45594000000E+02  0.51100000000E-03 0.  1.
         11   -1    0    0    0    0 -0.00000000000E+00 -0.00000000000E+00 -0.45593999997E+02  0.45594000000E+02  0.51100000000E-03 0. -1.
    9900012    2    1    2    0    0 -0.34522837160E+00 -0.97848316004E+00 -0.56241068646E+00  0.90007780655E+02  0.90000042559E+02 0.  0.
        -12    1    1    2    0    0  0.34522837160E+00  0.97848316004E+00  0.56241068646E+00  0.11802193454E+01  0.00000000000E+00 0.  1.
         11    1    3    3    0    0 -0.30978567301E+01  0.26057090760E+01  0.73774588770E+01  0.84150660040E+01  0.51100000000E-03 0. -1.
        -11    1    3    3    0    0 -0.31787122447E+02 -0.19077833819E+02  0.11792393284E+02  0.38903026056E+02  0.51100000000E-03 0.  1.
         12    1    3    3    0    0  0.34539750806E+02  0.15493641583E+02 -0.19732262847E+02  0.42689688594E+02  0.00000000000E+00 0. -1.
</event>
<event>
 7    1  0.1716782E-015  0.9000802E+02  0.7816164E-02  0.1186338E+00
        -11   -1    0    0    0    0  0.00000000000E+00  0.00000000000E+00  0.45593999997E+02  0.45594000000E+02  0.51100000000E-03 0.  1.
         11   -1    0    0    0    0 -0.00000000000E+00 -0.00000000000E+00 -0.45593999997E+02  0.45594000000E+02  0.51100000000E-03 0. -1.
    9900012    2    1    2    0    0 -0.82948702111E+00 -0.81470818759E+00 -0.20138802735E+00  0.90008018946E+02  0.90000283996E+02 0.  0.
        -12    1    1    2    0    0  0.82948702111E+00  0.81470818759E+00  0.20138802735E+00  0.11799810535E+01  0.00000000000E+00 0.  1.
         11    1    3    3    0    0  0.33087378792E+02 -0.28503960405E+02 -0.69642668050E+01  0.44223878239E+02  0.51100000000E-03 0. -1.
        -11    1    3    3    0    0 -0.46228032413E+01  0.75515428401E+01 -0.22002401486E+01  0.91234404720E+01  0.51100000000E-03 0.  1.
        -12    1    3    3    0    0 -0.29294062571E+02  0.20137709377E+02  0.89631189262E+01  0.36660700236E+02  0.00000000000E+00 0.  1.
</event>
<event>
 7    1  0.1716782E-015  0.9000812E+02  0.7816164E-02  0.1186338E+00
        -11   -1    0    0    0    0  0.00000000000E+00  0.00000000000E+00  0.45593999997E+02  0.45594000000E+02  0.51100000000E-03 0. -1.
         11   -1    0    0    0    0 -0.00000000000E+00 -0.00000000000E+00 -0.45593999997E+02  0.45594000000E+02  0.51100000000E-03 0.  1.
    9900012    2    1    2    0    0  0.42368863590E+00 -0.95616672332E+00 -0.54620513006E+00  0.90008124198E+02  0.90000390637E+02 0.  0.
        -12    1    1    2    0    0 -0.42368863590E+00  0.95616672332E+00  0.54620513006E+00  0.11798758015E+01  0.00000000000E+00 0.  1.
         11    1    3    3    0    0 -0.27599581827E+02  0.19779756099E+02  0.30268022212E+01  0.34090133475E+02  0.51100000000E-03 0. -1.
        -11    1    3    3    0    0 -0.76036895787E+01  0.54028561455E+01  0.54721883144E+01  0.10814425317E+02  0.51100000000E-03 0.  1.
        -12    1    3    3    0    0  0.35626960042E+02 -0.26138778968E+02 -0.90451956656E+01  0.45103565406E+02  0.00000000000E+00 0.  1.
</event>
<event>
 7    1  0.1716782E-015  0.9000720E+02  0.7816164E-02  0.1186340E+00
        -11   -1    0    0    0    0  0.00000000000E+00  0.00000000000E+00  0.45593999997E+02  0.45594000000E+02  0.51100000000E-03 0. -1.
         11   -1    0    0    0    0 -0.00000000000E+00 -0.00000000000E+00 -0.45593999997E+02  0.45594000000E+02  0.51100000000E-03 0.  1.
    9900012    2    1    2    0    0 -0.62496308913E+00  0.68622420037E+00 -0.72993367288E+00  0.90007201252E+02  0.89999455507E+02 0.  0.
        -12    1    1    2    0    0  0.62496308913E+00 -0.68622420037E+00  0.72993367288E+00  0.11807987478E+01  0.00000000000E+00 0.  1.
         11    1    3    3    0    0 -0.16205819510E+02 -0.41524500823E+02  0.11571729298E+01  0.44589817269E+02  0.51100000000E-03 0. -1.
        -11    1    3    3    0    0  0.20159210526E+01  0.91373104884E+01 -0.24250603200E+01  0.96661935874E+01  0.51100000000E-03 0.  1.
        -12    1    3    3    0    0  0.13564935368E+02  0.33073414535E+02  0.53795371740E+00  0.35751190396E+02  0.00000000000E+00 0.  1.
</event>
<event>
 7    1  0.1716782E-015  0.9000783E+02  0.7816164E-02  0.1186339E+00
        -11   -1    0    0    0    0  0.00000000000E+00  0.00000000000E+00  0.45593999997E+02  0.45594000000E+02  0.51100000000E-03 0.  1.
         11   -1    0    0    0    0 -0.00000000000E+00 -0.00000000000E+00 -0.45593999997E+02  0.45594000000E+02  0.51100000000E-03 0. -1.
    9900012    2    1    2    0    0  0.11579161304E+01  0.99655674055E-01  0.20518168082E+00  0.90007830292E+02  0.90000092851E+02 0.  0.
        -12    1    1    2    0    0 -0.11579161304E+01 -0.99655674055E-01 -0.20518168082E+00  0.11801697083E+01  0.00000000000E+00 0.  1.
         11    1    3    3    0    0  0.34847247516E+01 -0.26709688807E+00  0.91814420987E+01  0.98241298147E+01  0.51100000000E-03 0. -1.
        -11    1    3    3    0    0  0.22430900935E+02 -0.26553379247E+02  0.13462160645E+02  0.37275421335E+02  0.51100000000E-03 0.  1.
         12    1    3    3    0    0 -0.24757709556E+02  0.26920131810E+02 -0.22438421063E+02  0.42908279142E+02  0.00000000000E+00 0. -1.
</event>
<event>
 7    1  0.1716782E-015  0.9000768E+02  0.7816164E-02  0.1186339E+00
        -11   -1    0    0    0    0  0.00000000000E+00  0.00000000000E+00  0.45593999997E+02  0.45594000000E+02  0.51100000000E-03 0. -1.
         11   -1    0    0    0    0 -0.00000000000E+00 -0.00000000000E+00 -0.45593999997E+02  0.45594000000E+02  0.51100000000E-03 0.  1.
    9900012    2    1    2    0    0  0.29551491628E+00 -0.24740435739E+00  0.11156261929E+01  0.90007678102E+02  0.89999938652E+02 0.  0.
        -12    1    1    2    0    0 -0.29551491628E+00  0.24740435739E+00 -0.11156261929E+01  0.11803218985E+01  0.00000000000E+00 0.  1.
         11    1    3    3    0    0 -0.52428094472E+01 -0.63284992641E+01 -0.45261367558E+01  0.93820503105E+01  0.51100000000E-03 0. -1.
        -11    1    3    3    0    0 -0.31953134973E+02  0.10953942145E+02 -0.15658499466E+02  0.37231442209E+02  0.51100000000E-03 0.  1.
         12    1    3    3    0    0  0.37491459337E+02 -0.48728472382E+01  0.21300262415E+02  0.43394185582E+02  0.00000000000E+00 0. -1.
</event>
<event>
 7    1  0.1716782E-015  0.9000772E+02  0.7816164E-02  0.1186339E+00
        -11   -1    0    0    0    0  0.00000000000E+00  0.00000000000E+00  0.45593999997E+02  0.45594000000E+02  0.51100000000E-03 0.  1.
         11   -1    0    0    0    0 -0.00000000000E+00 -0.00000000000E+00 -0.45593999997E+02  0.45594000000E+02  0.51100000000E-03 0. -1.
    9900012    2    1    2    0    0 -0.10610018206E+01 -0.51885473255E-01 -0.51443031859E+00  0.90007722271E+02  0.89999983405E+02 0.  0.
        -12    1    1    2    0    0  0.10610018206E+01  0.51885473255E-01  0.51443031859E+00  0.11802777294E+01  0.00000000000E+00 0.  1.
         11    1    3    3    0    0 -0.19689084748E+00 -0.12356623845E+01 -0.10816899545E+02  0.10889028587E+02  0.51100000000E-03 0. -1.
        -11    1    3    3    0    0 -0.21709000982E+02 -0.31924111501E+02  0.10448482536E+02  0.39995004767E+02  0.51100000000E-03 0.  1.
         12    1    3    3    0    0  0.20844890009E+02  0.33107888412E+02 -0.14601330978E+00  0.39123688917E+02  0.00000000000E+00 0. -1.
</event>
<event>
 7    1  0.1716782E-015  0.9000776E+02  0.7816164E-02  0.1186339E+00
        -11   -1    0    0    0    0  0.00000000000E+00  0.00000000000E+00  0.45593999997E+02  0.45594000000E+02  0.51100000000E-03 0. -1.
         11   -1    0    0    0    0 -0.00000000000E+00 -0.00000000000E+00 -0.45593999997E+02  0.45594000000E+02  0.51100000000E-03 0.  1.
    9900012    2    1    2    0    0 -0.23788128244E+00  0.85723510609E+00  0.77558248787E+00  0.90007759462E+02  0.90000021087E+02 0.  0.
        -12    1    1    2    0    0  0.23788128244E+00 -0.85723510609E+00 -0.77558248787E+00  0.11802405378E+01  0.00000000000E+00 0.  1.
         11    1    3    3    0    0  0.23251722701E+01  0.42320788904E+02  0.81886360197E+01  0.43168383797E+02  0.51100000000E-03 0. -1.
        -11    1    3    3    0    0 -0.11946431879E+01 -0.55566330631E+01  0.62030103620E+01  0.84131255284E+01  0.51100000000E-03 0.  1.
        -12    1    3    3    0    0 -0.13684103646E+01 -0.35906920735E+02 -0.13616063894E+02  0.38426250136E+02  0.00000000000E+00 0.  1.
</event>
<event>
 7    1  0.1716782E-015  0.9000757E+02  0.7816164E-02  0.1186339E+00
        -11   -1    0    0    0    0  0.00000000000E+00  0.00000000000E+00  0.45593999997E+02  0.45594000000E+02  0.51100000000E-03 0. -1.
         11   -1    0    0    0    0 -0.00000000000E+00 -0.00000000000E+00 -0.45593999997E+02  0.45594000000E+02  0.51100000000E-03 0.  1.
    9900012    2    1    2    0    0 -0.52020323997E+00  0.61161352063E+00  0.86529083343E+00  0.90007571800E+02  0.89999830947E+02 0.  0.
        -12    1    1    2    0    0  0.52020323997E+00 -0.61161352063E+00 -0.86529083343E+00  0.11804282002E+01  0.00000000000E+00 0.  1.
         11    1    3    3    0    0  0.11315947255E+01 -0.11547135051E+02 -0.37895405842E+01  0.12205632004E+02  0.51100000000E-03 0. -1.
        -11    1    3    3    0    0  0.14413143748E+02  0.40698060405E+02 -0.54756605645E+01  0.43520727157E+02  0.51100000000E-03 0.  1.
         12    1    3    3    0    0 -0.16064941713E+02 -0.28539311833E+02  0.10130491982E+02  0.34281212638E+02  0.00000000000E+00 0. -1.
</event>
<event>
 7    1  0.1716782E-015  0.9000767E+02  0.7816164E-02  0.1186339E+00
        -11   -1    0    0    0    0  0.00000000000E+00  0.00000000000E+00  0.45593999997E+02  0.45594000000E+02  0.51100000000E-03 0. -1.
         11   -1    0    0    0    0 -0.00000000000E+00 -0.00000000000E+00 -0.45593999997E+02  0.45594000000E+02  0.51100000000E-03 0.  1.
    9900012    2    1    2    0    0  0.63272609811E+00  0.90897257902E+00  0.40818362068E+00  0.90007666432E+02  0.89999926828E+02 0.  0.
        -12    1    1    2    0    0 -0.63272609811E+00 -0.90897257902E+00 -0.40818362068E+00  0.11803335685E+01  0.00000000000E+00 0.  1.
         11    1    3    3    0    0  0.34315781129E+01  0.86254155360E+01  0.13376471710E+01  0.93788497018E+01  0.51100000000E-03 0. -1.
        -11    1    3    3    0    0  0.27504895525E+02  0.23619780738E+02 -0.59812656428E+01  0.36744916096E+02  0.51100000000E-03 0.  1.
         12    1    3    3    0    0 -0.30303747540E+02 -0.31336223695E+02  0.50518020925E+01  0.43883900634E+02  0.00000000000E+00 0. -1.
</event>
<event>
 7    1  0.1716782E-015  0.9000775E+02  0.7816164E-02  0.1186339E+00
        -11   -1    0    0    0    0  0.00000000000E+00  0.00000000000E+00  0.45593999997E+02  0.45594000000E+02  0.51100000000E-03 0. -1.
         11   -1    0    0    0    0 -0.00000000000E+00 -0.00000000000E+00 -0.45593999997E+02  0.45594000000E+02  0.51100000000E-03 0.  1.
    9900012    2    1    2    0    0 -0.45847204979E+00  0.10875462584E+01  0.67140688241E-02  0.90007746399E+02  0.90000007851E+02 0.  0.
        -12    1    1    2    0    0  0.45847204979E+00 -0.10875462584E+01 -0.67140688241E-02  0.11802536013E+01  0.00000000000E+00 0.  1.
         11    1    3    3    0    0 -0.72673989819E+01  0.18094227672E+01  0.20454146256E+01  0.77635571721E+01  0.51100000000E-03 0. -1.
        -11    1    3    3    0    0 -0.36799085599E+02 -0.21849598984E+01  0.74076348845E+01  0.37600795278E+02  0.51100000000E-03 0.  1.
         12    1    3    3    0    0  0.43608012532E+02  0.14630833897E+01 -0.94463354412E+01  0.44643393948E+02  0.00000000000E+00 0. -1.
</event>
<event>
 7    1  0.1716782E-015  0.9000772E+02  0.7816164E-02  0.1186339E+00
        -11   -1    0    0    0    0  0.00000000000E+00  0.00000000000E+00  0.45593999997E+02  0.45594000000E+02  0.51100000000E-03 0. -1.
         11   -1    0    0    0    0 -0.00000000000E+00 -0.00000000000E+00 -0.45593999997E+02  0.45594000000E+02  0.51100000000E-03 0.  1.
    9900012    2    1    2    0    0  0.42628251933E+00  0.54490774486E+00  0.95625019632E+00  0.90007722204E+02  0.89999983338E+02 0.  0.
        -12    1    1    2    0    0 -0.42628251933E+00 -0.54490774486E+00 -0.95625019632E+00  0.11802777955E+01  0.00000000000E+00 0.  1.
         11    1    3    3    0    0 -0.11435917346E+02  0.16635554355E+02  0.14666810422E+01  0.20240381118E+02  0.51100000000E-03 0. -1.
        -11    1    3    3    0    0 -0.11970411287E+02  0.11259140172E+02 -0.22109084427E+02  0.27547606035E+02  0.51100000000E-03 0.  1.
         12    1    3    3    0    0  0.23832611153E+02 -0.27349786782E+02  0.21598653581E+02  0.42219735052E+02  0.00000000000E+00 0. -1.
</event>
<event>
 7    1  0.1716782E-015  0.9000774E+02  0.7816164E-02  0.1186339E+00
        -11   -1    0    0    0    0  0.00000000000E+00  0.00000000000E+00  0.45593999997E+02  0.45594000000E+02  0.51100000000E-03 0.  1.
         11   -1    0    0    0    0 -0.00000000000E+00 -0.00000000000E+00 -0.45593999997E+02  0.45594000000E+02  0.51100000000E-03 0. -1.
    9900012    2    1    2    0    0 -0.78866699832E-02  0.87361944632E+00 -0.79356194376E+00  0.90007739988E+02  0.90000001356E+02 0.  0.
        -12    1    1    2    0    0  0.78866699832E-02 -0.87361944632E+00  0.79356194376E+00  0.11802600117E+01  0.00000000000E+00 0.  1.
         11    1    3    3    0    0  0.10335611061E+02  0.28287377880E+01  0.38345469174E+01  0.11381140708E+02  0.51100000000E-03 0. -1.
        -11    1    3    3    0    0  0.32363424340E+02  0.41040246307E+01  0.81763106329E+01  0.33631626618E+02  0.51100000000E-03 0.  1.
         12    1    3    3    0    0 -0.42706922071E+02 -0.60591429724E+01 -0.12804419494E+02  0.44994972663E+02  0.00000000000E+00 0. -1.
</event>
<event>
 7    1  0.1716782E-015  0.9000818E+02  0.7816164E-02  0.1186338E+00
        -11   -1    0    0    0    0  0.00000000000E+00  0.00000000000E+00  0.45593999997E+02  0.45594000000E+02  0.51100000000E-03 0.  1.
         11   -1    0    0    0    0 -0.00000000000E+00 -0.00000000000E+00 -0.45593999997E+02  0.45594000000E+02  0.51100000000E-03 0. -1.
    9900012    2    1    2    0    0 -0.89263057089E+00  0.77004616917E+00  0.47150231374E-01  0.90008176461E+02  0.90000443589E+02 0.  0.
        -12    1    1    2    0    0  0.89263057089E+00 -0.77004616917E+00 -0.47150231374E-01  0.11798235389E+01  0.00000000000E+00 0.  1.
         11    1    3    3    0    0 -0.27256366407E+01 -0.72386829987E+01 -0.63273147926E+01  0.99931246064E+01  0.51100000000E-03 0. -1.
        -11    1    3    3    0    0 -0.31130810027E+02  0.23279902377E+02 -0.10041980621E+02  0.40148755432E+02  0.51100000000E-03 0.  1.
         12    1    3    3    0    0  0.32963816097E+02 -0.15271173209E+02  0.16416445645E+02  0.39866296423E+02  0.00000000000E+00 0. -1.
</event>
<event>
 7    1  0.1716782E-015  0.9000774E+02  0.7816164E-02  0.1186339E+00
        -11   -1    0    0    0    0  0.00000000000E+00  0.00000000000E+00  0.45593999997E+02  0.45594000000E+02  0.51100000000E-03 0. -1.
         11   -1    0    0    0    0 -0.00000000000E+00 -0.00000000000E+00 -0.45593999997E+02  0.45594000000E+02  0.51100000000E-03 0.  1.
    9900012    2    1    2    0    0  0.66429651140E+00  0.84518292449E+00  0.48723584660E+00  0.90007736131E+02  0.89999997448E+02 0.  0.
        -12    1    1    2    0    0 -0.66429651140E+00 -0.84518292449E+00 -0.48723584660E+00  0.11802638693E+01  0.00000000000E+00 0.  1.
         11    1    3    3    0    0  0.46813864115E+01  0.16396705310E+01 -0.87486240436E+01  0.10056953868E+02  0.51100000000E-03 0. -1.
        -11    1    3    3    0    0  0.81107935590E+01  0.30214241599E+02 -0.18735299037E+02  0.36465007855E+02  0.51100000000E-03 0.  1.
         12    1    3    3    0    0 -0.12127883459E+02 -0.31008729206E+02  0.27971158927E+02  0.43485774408E+02  0.00000000000E+00 0. -1.
</event>
<event>
 7    1  0.1716782E-015  0.9000756E+02  0.7816164E-02  0.1186339E+00
        -11   -1    0    0    0    0  0.00000000000E+00  0.00000000000E+00  0.45593999997E+02  0.45594000000E+02  0.51100000000E-03 0.  1.
         11   -1    0    0    0    0 -0.00000000000E+00 -0.00000000000E+00 -0.45593999997E+02  0.45594000000E+02  0.51100000000E-03 0. -1.
    9900012    2    1    2    0    0 -0.48288359229E+00 -0.54937963667E+00 -0.92651855842E+00  0.90007563137E+02  0.89999822170E+02 0.  0.
        -12    1    1    2    0    0  0.48288359229E+00  0.54937963667E+00  0.92651855842E+00  0.11804368632E+01  0.00000000000E+00 0.  1.
         11    1    3    3    0    0  0.32212043206E+02  0.77782546147E+00 -0.14498055594E+02  0.35332907554E+02  0.51100000000E-03 0. -1.
        -11    1    3    3    0    0  0.98758438495E+01  0.70009682941E+00 -0.14829065922E+00  0.99017381146E+01  0.51100000000E-03 0.  1.
        -12    1    3    3    0    0 -0.42570770648E+02 -0.20273019275E+01  0.13719827695E+02  0.44772917468E+02  0.00000000000E+00 0.  1.
</event>
<event>
 7    1  0.1862935E-015  0.9000773E+02  0.7816164E-02  0.1186339E+00
        -11   -1    0    0    0    0  0.00000000000E+00  0.00000000000E+00  0.45593999997E+02  0.45594000000E+02  0.51100000000E-03 0.  1.
         11   -1    0    0    0    0 -0.00000000000E+00 -0.00000000000E+00 -0.45593999997E+02  0.45594000000E+02  0.51100000000E-03 0. -1.
    9900012    2    1    2    0    0 -0.60647683841E+00 -0.10103212790E+01  0.66827637447E-01  0.90007733430E+02  0.89999994712E+02 0.  0.
        -12    1    1    2    0    0  0.60647683841E+00  0.10103212790E+01 -0.66827637447E-01  0.11802665697E+01  0.00000000000E+00 0.  1.
         11    1    3    3    0    0  0.30451769609E+02 -0.16270686727E+02 -0.25699264121E+02  0.43040651663E+02  0.51100000000E-03 0. -1.
        -11    1    3    3    0    0 -0.63049509410E+01 -0.43179056484E+01  0.61345948644E+01  0.97994882503E+01  0.51100000000E-03 0.  1.
        -12    1    3    3    0    0 -0.24753295507E+02  0.19578271096E+02  0.19631496894E+02  0.37167593517E+02  0.00000000000E+00 0.  1.
</event>
<event>
 7    1  0.1716782E-015  0.9000778E+02  0.7816164E-02  0.1186339E+00
        -11   -1    0    0    0    0  0.00000000000E+00  0.00000000000E+00  0.45593999997E+02  0.45594000000E+02  0.51100000000E-03 0.  1.
         11   -1    0    0    0    0 -0.00000000000E+00 -0.00000000000E+00 -0.45593999997E+02  0.45594000000E+02  0.51100000000E-03 0. -1.
    9900012    2    1    2    0    0  0.96650620175E+00  0.40487826004E-01 -0.67612373011E+00  0.90007781037E+02  0.90000042947E+02 0.  0.
        -12    1    1    2    0    0 -0.96650620175E+00 -0.40487826004E-01  0.67612373011E+00  0.11802189629E+01  0.00000000000E+00 0.  1.
         11    1    3    3    0    0  0.26425537274E+02 -0.60605654932E+01 -0.28791249244E+02  0.39547130207E+02  0.51100000000E-03 0. -1.
        -11    1    3    3    0    0 -0.56699025210E+01 -0.74289419894E+00 -0.73275323027E+01  0.92947520837E+01  0.51100000000E-03 0.  1.
        -12    1    3    3    0    0 -0.19789128551E+02  0.68439475181E+01  0.35442657817E+02  0.41165898746E+02  0.00000000000E+00 0.  1.
</event>
<event>
 7    1  0.1716782E-015  0.9000773E+02  0.7816164E-02  0.1186339E+00
        -11   -1    0    0    0    0  0.00000000000E+00  0.00000000000E+00  0.45593999997E+02  0.45594000000E+02  0.51100000000E-03 0.  1.
         11   -1    0    0    0    0 -0.00000000000E+00 -0.00000000000E+00 -0.45593999997E+02  0.45594000000E+02  0.51100000000E-03 0. -1.
    9900012    2    1    2    0    0  0.19401969430E+00 -0.11245963789E+01  0.30111864530E+00  0.90007731770E+02  0.89999993029E+02 0.  0.
        -12    1    1    2    0    0 -0.19401969430E+00  0.11245963789E+01 -0.30111864530E+00  0.11802682304E+01  0.00000000000E+00 0.  1.
         11    1    3    3    0    0  0.24795885633E+01 -0.82079475393E+01  0.68650742311E+01  0.10983988652E+02  0.51100000000E-03 0. -1.
        -11    1    3    3    0    0 -0.39328533457E+01 -0.27792821672E+02  0.20574088120E+02  0.34802318517E+02  0.51100000000E-03 0.  1.
         12    1    3    3    0    0  0.16472844767E+01  0.34876172832E+02 -0.27138043706E+02  0.44221424601E+02  0.00000000000E+00 0. -1.
</event>
<event>
 7    1  0.1716782E-015  0.9000768E+02  0.7816164E-02  0.1186339E+00
        -11   -1    0    0    0    0  0.00000000000E+00  0.00000000000E+00  0.45593999997E+02  0.45594000000E+02  0.51100000000E-03 0.  1.
         11   -1    0    0    0    0 -0.00000000000E+00 -0.00000000000E+00 -0.45593999997E+02  0.45594000000E+02  0.51100000000E-03 0. -1.
    9900012    2    1    2    0    0 -0.38496541536E+00 -0.48544240475E+00  0.10046391223E+01  0.90007681202E+02  0.89999941794E+02 0.  0.
        -12    1    1    2    0    0  0.38496541536E+00  0.48544240475E+00 -0.10046391223E+01  0.11803187982E+01  0.00000000000E+00 0.  1.
         11    1    3    3    0    0 -0.11406024048E+02  0.29865473367E+02  0.22957202600E+02  0.39358315963E+02  0.51100000000E-03 0. -1.
        -11    1    3    3    0    0 -0.95480567567E+01 -0.45117433435E+01  0.72721547384E+00  0.10585370019E+02  0.51100000000E-03 0.  1.
        -12    1    3    3    0    0  0.20569115389E+02 -0.25839172428E+02 -0.22679778951E+02  0.40063995220E+02  0.00000000000E+00 0.  1.
</event>
<event>
 7    1  0.1716782E-015  0.9000753E+02  0.7816164E-02  0.1186339E+00
        -11   -1    0    0    0    0  0.00000000000E+00  0.00000000000E+00  0.45593999997E+02  0.45594000000E+02  0.51100000000E-03 0. -1.
         11   -1    0    0    0    0 -0.00000000000E+00 -0.00000000000E+00 -0.45593999997E+02  0.45594000000E+02  0.51100000000E-03 0.  1.
    9900012    2    1    2    0    0 -0.12323014841E+00 -0.11376709955E+01  0.28987751897E+00  0.90007529780E+02  0.89999788373E+02 0.  0.
        -12    1    1    2    0    0  0.12323014841E+00  0.11376709955E+01 -0.28987751897E+00  0.11804702197E+01  0.00000000000E+00 0.  1.
         11    1    3    3    0    0 -0.60409521950E+01  0.51863485319E+01 -0.59609713113E+01  0.99460793156E+01  0.51100000000E-03 0. -1.
        -11    1    3    3    0    0 -0.16451395091E+02  0.22386338858E+02 -0.20807353353E+02  0.34709401057E+02  0.51100000000E-03 0.  1.
         12    1    3    3    0    0  0.22369117137E+02 -0.28710358385E+02  0.27058202184E+02  0.45352049408E+02  0.00000000000E+00 0. -1.
</event>
<event>
 7    1  0.1716782E-015  0.9000774E+02  0.7816164E-02  0.1186339E+00
        -11   -1    0    0    0    0  0.00000000000E+00  0.00000000000E+00  0.45593999997E+02  0.45594000000E+02  0.51100000000E-03 0. -1.
         11   -1    0    0    0    0 -0.00000000000E+00 -0.00000000000E+00 -0.45593999997E+02  0.45594000000E+02  0.51100000000E-03 0.  1.
    9900012    2    1    2    0    0 -0.82098948233E+00  0.81765915771E+00 -0.22455775136E+00  0.90007738837E+02  0.90000000190E+02 0.  0.
        -12    1    1    2    0    0  0.82098948233E+00 -0.81765915771E+00  0.22455775136E+00  0.11802611626E+01  0.00000000000E+00 0.  1.
         11    1    3    3    0    0 -0.93752007214E+01  0.11886217474E+02  0.29990951684E+01  0.15432793865E+02  0.51100000000E-03 0. -1.
        -11    1    3    3    0    0 -0.21482530621E+01  0.27299869484E+02 -0.17226782687E+02  0.32352123687E+02  0.51100000000E-03 0.  1.
         12    1    3    3    0    0  0.10702464301E+02 -0.38368427800E+02  0.14003129767E+02  0.42222821285E+02  0.00000000000E+00 0. -1.
</event>
<event>
 7    1  0.1716782E-015  0.9000776E+02  0.7816164E-02  0.1186339E+00
        -11   -1    0    0    0    0  0.00000000000E+00  0.00000000000E+00  0.45593999997E+02  0.45594000000E+02  0.51100000000E-03 0. -1.
         11   -1    0    0    0    0 -0.00000000000E+00 -0.00000000000E+00 -0.45593999997E+02  0.45594000000E+02  0.51100000000E-03 0.  1.
    9900012    2    1    2    0    0 -0.11310698468E+01  0.58644871745E-01 -0.33197493906E+00  0.90007760372E+02  0.90000022009E+02 0.  0.
        -12    1    1    2    0    0  0.11310698468E+01 -0.58644871745E-01  0.33197493906E+00  0.11802396280E+01  0.00000000000E+00 0.  1.
         11    1    3    3    0    0  0.32520290624E+02  0.65812020578E+01  0.14501760625E+02  0.36210255236E+02  0.51100000000E-03 0. -1.
        -11    1    3    3    0    0  0.75283869207E+01 -0.57167356660E+01  0.13413209509E+01  0.95476079966E+01  0.51100000000E-03 0.  1.
        -12    1    3    3    0    0 -0.41179747391E+02 -0.80582152002E+00 -0.16175056515E+02  0.44249897139E+02  0.00000000000E+00 0.  1.
</event>
<event>
 7    1  0.1716782E-015  0.9000774E+02  0.7816164E-02  0.1186339E+00
        -11   -1    0    0    0    0  0.00000000000E+00  0.00000000000E+00  0.45593999997E+02  0.45594000000E+02  0.51100000000E-03 0. -1.
         11   -1    0    0    0    0 -0.00000000000E+00 -0.00000000000E+00 -0.45593999997E+02  0.45594000000E+02  0.51100000000E-03 0.  1.
    9900012    2    1    2    0    0 -0.96109450824E+00 -0.60578656811E+00  0.31990203776E+00  0.90007738447E+02  0.89999999794E+02 0.  0.
        -12    1    1    2    0    0  0.96109450824E+00  0.60578656811E+00 -0.31990203776E+00  0.11802615531E+01  0.00000000000E+00 0.  1.
         11    1    3    3    0    0  0.57144267955E+01 -0.64787233993E+01 -0.32214830815E+01  0.92198960944E+01  0.51100000000E-03 0. -1.
        -11    1    3    3    0    0 -0.30617208553E+02  0.17026398515E+02 -0.24126580777E+02  0.42537085070E+02  0.51100000000E-03 0.  1.
         12    1    3    3    0    0  0.23941687249E+02 -0.11153461684E+02  0.27667965896E+02  0.38250757283E+02  0.00000000000E+00 0. -1.
</event>
<event>
 7    1  0.1716782E-015  0.9000766E+02  0.7816164E-02  0.1186339E+00
        -11   -1    0    0    0    0  0.00000000000E+00  0.00000000000E+00  0.45593999997E+02  0.45594000000E+02  0.51100000000E-03 0.  1.
         11   -1    0    0    0    0 -0.00000000000E+00 -0.00000000000E+00 -0.45593999997E+02  0.45594000000E+02  0.51100000000E-03 0. -1.
    9900012    2    1    2    0    0  0.85222969146E+00  0.34319254393E+00  0.74102849551E+00  0.90007661150E+02  0.89999921477E+02 0.  0.
        -12    1    1    2    0    0 -0.85222969146E+00 -0.34319254393E+00 -0.74102849551E+00  0.11803388498E+01  0.00000000000E+00 0.  1.
         11    1    3    3    0    0  0.12498227408E+01 -0.17181031320E+02 -0.37921568434E+02  0.41650873303E+02  0.51100000000E-03 0. -1.
        -11    1    3    3    0    0  0.42558763373E+01 -0.43199083853E+01  0.45423546554E+01  0.75767458670E+01  0.51100000000E-03 0.  1.
        -12    1    3    3    0    0 -0.46534693867E+01  0.21844132249E+02  0.34120242275E+02  0.40780041980E+02  0.00000000000E+00 0.  1.
</event>
<event>
 7    1  0.1716782E-015  0.9000830E+02  0.7816164E-02  0.1186338E+00
        -11   -1    0    0    0    0  0.00000000000E+00  0.00000000000E+00  0.45593999997E+02  0.45594000000E+02  0.51100000000E-03 0.  1.
         11   -1    0    0    0    0 -0.00000000000E+00 -0.00000000000E+00 -0.45593999997E+02  0.45594000000E+02  0.51100000000E-03 0. -1.
    9900012    2    1    2    0    0 -0.35494916048E+00 -0.11249926356E+01 -0.10087788664E-01  0.90008297029E+02  0.90000565748E+02 0.  0.
        -12    1    1    2    0    0  0.35494916048E+00  0.11249926356E+01  0.10087788664E-01  0.11797029712E+01  0.00000000000E+00 0.  1.
         11    1    3    3    0    0  0.37440143229E+02 -0.98389120324E+01 -0.14392295480E+02  0.41300201990E+02  0.51100000000E-03 0. -1.
        -11    1    3    3    0    0 -0.12747616681E+02 -0.89980111907E+01  0.24621881498E+01  0.15796465022E+02  0.51100000000E-03 0.  1.
        -12    1    3    3    0    0 -0.25047475708E+02  0.17711930587E+02  0.11920019541E+02  0.32911630017E+02  0.00000000000E+00 0.  1.
</event>
<event>
 7    1  0.1716782E-015  0.9000775E+02  0.7816164E-02  0.1186339E+00
        -11   -1    0    0    0    0  0.00000000000E+00  0.00000000000E+00  0.45593999997E+02  0.45594000000E+02  0.51100000000E-03 0.  1.
         11   -1    0    0    0    0 -0.00000000000E+00 -0.00000000000E+00 -0.45593999997E+02  0.45594000000E+02  0.51100000000E-03 0. -1.
    9900012    2    1    2    0    0  0.98885631207E+00  0.39119567018E+00  0.51196701904E+00  0.90007753802E+02  0.90000015353E+02 0.  0.
        -12    1    1    2    0    0 -0.98885631207E+00 -0.39119567018E+00 -0.51196701904E+00  0.11802461976E+01  0.00000000000E+00 0.  1.
         11    1    3    3    0    0 -0.30655891559E+01 -0.72521476220E+01 -0.68620566213E+00  0.79033132594E+01  0.51100000000E-03 0. -1.
        -11    1    3    3    0    0 -0.17020571481E+02 -0.61971976149E+01  0.35310508921E+02  0.39685477852E+02  0.51100000000E-03 0.  1.
         12    1    3    3    0    0  0.21075016949E+02  0.13840540907E+02 -0.34112336240E+02  0.42418962691E+02  0.00000000000E+00 0. -1.
</event>
<event>
 7    1  0.1716782E-015  0.9000764E+02  0.7816164E-02  0.1186339E+00
        -11   -1    0    0    0    0  0.00000000000E+00  0.00000000000E+00  0.45593999997E+02  0.45594000000E+02  0.51100000000E-03 0.  1.
         11   -1    0    0    0    0 -0.00000000000E+00 -0.00000000000E+00 -0.45593999997E+02  0.45594000000E+02  0.51100000000E-03 0. -1.
    9900012    2    1    2    0    0 -0.87547073857E+00 -0.23530029666E+00 -0.75592834607E+00  0.90007642890E+02  0.89999902976E+02 0.  0.
        -12    1    1    2    0    0  0.87547073857E+00  0.23530029666E+00  0.75592834607E+00  0.11803571104E+01  0.00000000000E+00 0.  1.
         11    1    3    3    0    0 -0.49042657437E+01 -0.40342825385E+01 -0.33023523662E-01  0.63504605265E+01  0.51100000000E-03 0. -1.
        -11    1    3    3    0    0 -0.48563979530E+01  0.36167415508E+02  0.22472573453E+02  0.42856540965E+02  0.51100000000E-03 0.  1.
         12    1    3    3    0    0  0.88851929581E+01 -0.32368433267E+02 -0.23195478276E+02  0.40800641398E+02  0.00000000000E+00 0. -1.
</event>
<event>
 7    1  0.1716782E-015  0.9000773E+02  0.7816164E-02  0.1186339E+00
        -11   -1    0    0    0    0  0.00000000000E+00  0.00000000000E+00  0.45593999997E+02  0.45594000000E+02  0.51100000000E-03 0.  1.
         11   -1    0    0    0    0 -0.00000000000E+00 -0.00000000000E+00 -0.45593999997E+02  0.45594000000E+02  0.51100000000E-03 0. -1.
    9900012    2    1    2    0    0  0.56837577846E-01  0.56680026831E+00 -0.10337068531E+01  0.90007727611E+02  0.89999988815E+02 0.  0.
        -12    1    1    2    0    0 -0.56837577846E-01 -0.56680026831E+00  0.10337068531E+01  0.11802723892E+01  0.00000000000E+00 0.  1.
         11    1    3    3    0    0  0.67842952835E+01  0.46824332164E+01  0.29718599283E+01  0.87626363050E+01  0.51100000000E-03 0. -1.
        -11    1    3    3    0    0  0.25646824901E+02  0.96320827418E+01  0.23893302063E+02  0.36351430910E+02  0.51100000000E-03 0.  1.
         12    1    3    3    0    0 -0.32374282606E+02 -0.13747715690E+02 -0.27898868845E+02  0.44893660396E+02  0.00000000000E+00 0. -1.
</event>
<event>
 7    1  0.2055848E-015  0.9000779E+02  0.7816164E-02  0.1186339E+00
        -11   -1    0    0    0    0  0.00000000000E+00  0.00000000000E+00  0.45593999997E+02  0.45594000000E+02  0.51100000000E-03 0. -1.
         11   -1    0    0    0    0 -0.00000000000E+00 -0.00000000000E+00 -0.45593999997E+02  0.45594000000E+02  0.51100000000E-03 0.  1.
    9900012    2    1    2    0    0  0.16320074971E+00 -0.88797923729E+00  0.76009615803E+00  0.90007793332E+02  0.90000055404E+02 0.  0.
        -12    1    1    2    0    0 -0.16320074971E+00  0.88797923729E+00 -0.76009615803E+00  0.11802066683E+01  0.00000000000E+00 0.  1.
         11    1    3    3    0    0 -0.21415258917E+01  0.29052478922E+02  0.30075298893E+02  0.41870708955E+02  0.51100000000E-03 0. -1.
        -11    1    3    3    0    0  0.89406008841E+01 -0.45060769438E+01 -0.19644518278E+01  0.10202849839E+02  0.51100000000E-03 0.  1.
        -12    1    3    3    0    0 -0.66358742426E+01 -0.25434381216E+02 -0.27350750907E+02  0.37934234538E+02  0.00000000000E+00 0.  1.
</event>
<event>
 7    1  0.1716782E-015  0.9000776E+02  0.7816164E-02  0.1186339E+00
        -11   -1    0    0    0    0  0.00000000000E+00  0.00000000000E+00  0.45593999997E+02  0.45594000000E+02  0.51100000000E-03 0.  1.
         11   -1    0    0    0    0 -0.00000000000E+00 -0.00000000000E+00 -0.45593999997E+02  0.45594000000E+02  0.51100000000E-03 0. -1.
    9900012    2    1    2    0    0 -0.54275187072E-01 -0.11608304746E+01  0.20613752999E+00  0.90007760250E+02  0.90000021885E+02 0.  0.
        -12    1    1    2    0    0  0.54275187072E-01  0.11608304746E+01 -0.20613752999E+00  0.11802397502E+01  0.00000000000E+00 0.  1.
         11    1    3    3    0    0  0.36013339826E+02  0.19796466301E+00  0.14332048448E+02  0.38760901027E+02  0.51100000000E-03 0. -1.
        -11    1    3    3    0    0 -0.51368656147E+01  0.11951283444E+02  0.31735751128E+01  0.13390001626E+02  0.51100000000E-03 0.  1.
        -12    1    3    3    0    0 -0.30930749398E+02 -0.13310078581E+02 -0.17299486030E+02  0.37856857597E+02  0.00000000000E+00 0.  1.
</event>
<event>
 7    1  0.1716782E-015  0.9000769E+02  0.7816164E-02  0.1186339E+00
        -11   -1    0    0    0    0  0.00000000000E+00  0.00000000000E+00  0.45593999997E+02  0.45594000000E+02  0.51100000000E-03 0.  1.
         11   -1    0    0    0    0 -0.00000000000E+00 -0.00000000000E+00 -0.45593999997E+02  0.45594000000E+02  0.51100000000E-03 0. -1.
    9900012    2    1    2    0    0  0.10583740323E+01  0.52222769088E+00  0.16103113517E-01  0.90007687896E+02  0.89999948576E+02 0.  0.
        -12    1    1    2    0    0 -0.10583740323E+01 -0.52222769088E+00 -0.16103113517E-01  0.11803121043E+01  0.00000000000E+00 0.  1.
         11    1    3    3    0    0  0.38232789863E+02  0.12679518716E+02  0.17697482137E+01  0.40319330656E+02  0.51100000000E-03 0. -1.
        -11    1    3    3    0    0 -0.36183445061E+01  0.89018335431E+01  0.22520549765E+01  0.98694888050E+01  0.51100000000E-03 0.  1.
        -12    1    3    3    0    0 -0.33556071324E+02 -0.21059124568E+02 -0.40057000767E+01  0.39818868435E+02  0.00000000000E+00 0.  1.
</event>
<event>
 7    1  0.1716782E-015  0.9000767E+02  0.7816164E-02  0.1186339E+00
        -11   -1    0    0    0    0  0.00000000000E+00  0.00000000000E+00  0.45593999997E+02  0.45594000000E+02  0.51100000000E-03 0.  1.
         11   -1    0    0    0    0 -0.00000000000E+00 -0.00000000000E+00 -0.45593999997E+02  0.45594000000E+02  0.51100000000E-03 0. -1.
    9900012    2    1    2    0    0  0.74760389692E+00  0.48690652463E+00 -0.77278396537E+00  0.90007667586E+02  0.89999927998E+02 0.  0.
        -12    1    1    2    0    0 -0.74760389692E+00 -0.48690652463E+00  0.77278396537E+00  0.11803324140E+01  0.00000000000E+00 0.  1.
         11    1    3    3    0    0  0.30566416020E+02  0.58056633710E+01  0.12988298769E+02  0.33715091883E+02  0.51100000000E-03 0. -1.
        -11    1    3    3    0    0  0.84032360777E+01  0.40390785809E+01  0.71324662658E+01  0.11738850355E+02  0.51100000000E-03 0.  1.
        -12    1    3    3    0    0 -0.38222048201E+02 -0.93578354273E+01 -0.20893549000E+02  0.44553725348E+02  0.00000000000E+00 0.  1.
</event>
<event>
 7    1  0.1716782E-015  0.9000766E+02  0.7816164E-02  0.1186339E+00
        -11   -1    0    0    0    0  0.00000000000E+00  0.00000000000E+00  0.45593999997E+02  0.45594000000E+02  0.51100000000E-03 0. -1.
         11   -1    0    0    0    0 -0.00000000000E+00 -0.00000000000E+00 -0.45593999997E+02  0.45594000000E+02  0.51100000000E-03 0.  1.
    9900012    2    1    2    0    0 -0.52788992487E+00 -0.67568900766E+00  0.81115427382E+00  0.90007663326E+02  0.89999923682E+02 0.  0.
        -12    1    1    2    0    0  0.52788992487E+00  0.67568900766E+00 -0.81115427382E+00  0.11803366739E+01  0.00000000000E+00 0.  1.
         11    1    3    3    0    0 -0.98557767189E+01  0.12623814866E+02  0.30820111046E+02  0.34732927917E+02  0.51100000000E-03 0. -1.
        -11    1    3    3    0    0  0.54069287627E+01  0.50987647698E+01  0.91761181406E+01  0.11808193139E+02  0.51100000000E-03 0.  1.
        -12    1    3    3    0    0  0.39209580314E+01 -0.18398268644E+02 -0.39185074913E+02  0.43466542270E+02  0.00000000000E+00 0.  1.
</event>
<event>
 7    1  0.1716782E-015  0.9000776E+02  0.7816164E-02  0.1186339E+00
        -11   -1    0    0    0    0  0.00000000000E+00  0.00000000000E+00  0.45593999997E+02  0.45594000000E+02  0.51100000000E-03 0. -1.
         11   -1    0    0    0    0 -0.00000000000E+00 -0.00000000000E+00 -0.45593999997E+02  0.45594000000E+02  0.51100000000E-03 0.  1.
    9900012    2    1    2    0    0  0.80811368273E+00  0.52971221789E+00 -0.67773994177E+00  0.90007756726E+02  0.90000018314E+02 0.  0.
        -12    1    1    2    0    0 -0.80811368273E+00 -0.52971221789E+00  0.67773994177E+00  0.11802432744E+01  0.00000000000E+00 0.  1.
         11    1    3    3    0    0  0.18182044433E+02 -0.11727236007E+02  0.15667275943E+02  0.26712887150E+02  0.51100000000E-03 0. -1.
        -11    1    3    3    0    0  0.13916183449E+02 -0.96125631292E+01  0.72659971938E+01  0.18408048435E+02  0.51100000000E-03 0.  1.
        -12    1    3    3    0    0 -0.31290114200E+02  0.21869511354E+02 -0.23611013079E+02  0.44886821141E+02  0.00000000000E+00 0.  1.
</event>
<event>
 7    1  0.1716782E-015  0.9000775E+02  0.7816164E-02  0.1186339E+00
        -11   -1    0    0    0    0  0.00000000000E+00  0.00000000000E+00  0.45593999997E+02  0.45594000000E+02  0.51100000000E-03 0.  1.
         11   -1    0    0    0    0 -0.00000000000E+00 -0.00000000000E+00 -0.45593999997E+02  0.45594000000E+02  0.51100000000E-03 0. -1.
    9900012    2    1    2    0    0 -0.33801254746E+00 -0.78782403081E+00 -0.81122006697E+00  0.90007746984E+02  0.90000008444E+02 0.  0.
        -12    1    1    2    0    0  0.33801254746E+00  0.78782403081E+00  0.81122006697E+00  0.11802530164E+01  0.00000000000E+00 0.  1.
         11    1    3    3    0    0 -0.29589774080E+02 -0.94027807403E+01  0.19292876631E+02  0.36553824762E+02  0.51100000000E-03 0. -1.
        -11    1    3    3    0    0 -0.68260245853E+01  0.16996197210E+01  0.52856433766E+01  0.87989399930E+01  0.51100000000E-03 0.  1.
        -12    1    3    3    0    0  0.36077786118E+02  0.69153369885E+01 -0.25389740075E+02  0.44654982229E+02  0.00000000000E+00 0.  1.
</event>
<event>
 7    1  0.1716782E-015  0.9000777E+02  0.7816164E-02  0.1186339E+00
        -11   -1    0    0    0    0  0.00000000000E+00  0.00000000000E+00  0.45593999997E+02  0.45594000000E+02  0.51100000000E-03 0.  1.
         11   -1    0    0    0    0 -0.00000000000E+00 -0.00000000000E+00 -0.45593999997E+02  0.45594000000E+02  0.51100000000E-03 0. -1.
    9900012    2    1    2    0    0 -0.15903143894E+00  0.11611771740E+01  0.13900285907E+00  0.90007768996E+02  0.90000030747E+02 0.  0.
        -12    1    1    2    0    0  0.15903143894E+00 -0.11611771740E+01 -0.13900285907E+00  0.11802310040E+01  0.00000000000E+00 0.  1.
         11    1    3    3    0    0  0.80362577076E-01  0.77298133385E+01 -0.46064320534E+01  0.89986492828E+01  0.51100000000E-03 0. -1.
        -11    1    3    3    0    0 -0.15270014528E+02 -0.39367079847E+02 -0.75469709576E+01  0.42894021615E+02  0.51100000000E-03 0.  1.
         12    1    3    3    0    0  0.15030620512E+02  0.32798443683E+02  0.12292405870E+02  0.38115098099E+02  0.00000000000E+00 0. -1.
</event>
<event>
 7    1  0.1716782E-015  0.9000775E+02  0.7816164E-02  0.1186339E+00
        -11   -1    0    0    0    0  0.00000000000E+00  0.00000000000E+00  0.45593999997E+02  0.45594000000E+02  0.51100000000E-03 0.  1.
         11   -1    0    0    0    0 -0.00000000000E+00 -0.00000000000E+00 -0.45593999997E+02  0.45594000000E+02  0.51100000000E-03 0. -1.
    9900012    2    1    2    0    0  0.10530225447E+01  0.19570312437E+00  0.49582446801E+00  0.90007746597E+02  0.90000008052E+02 0.  0.
        -12    1    1    2    0    0 -0.10530225447E+01 -0.19570312437E+00 -0.49582446801E+00  0.11802534031E+01  0.00000000000E+00 0.  1.
         11    1    3    3    0    0  0.29766335684E+01 -0.83005077561E+00  0.97942172379E+01  0.10270152056E+02  0.51100000000E-03 0. -1.
        -11    1    3    3    0    0  0.27372461027E+02  0.26041758332E+02  0.60623385212E+01  0.38264562566E+02  0.51100000000E-03 0.  1.
         12    1    3    3    0    0 -0.29296072051E+02 -0.25016004432E+02 -0.15360731291E+02  0.41473031975E+02  0.00000000000E+00 0. -1.
</event>
<event>
 7    1  0.1716782E-015  0.9000790E+02  0.7816164E-02  0.1186339E+00
        -11   -1    0    0    0    0  0.00000000000E+00  0.00000000000E+00  0.45593999997E+02  0.45594000000E+02  0.51100000000E-03 0.  1.
         11   -1    0    0    0    0 -0.00000000000E+00 -0.00000000000E+00 -0.45593999997E+02  0.45594000000E+02  0.51100000000E-03 0. -1.
    9900012    2    1    2    0    0 -0.63564741669E+00 -0.83210054200E+00 -0.54424675956E+00  0.90007896833E+02  0.90000160271E+02 0.  0.
        -12    1    1    2    0    0  0.63564741669E+00  0.83210054200E+00  0.54424675956E+00  0.11801031674E+01  0.00000000000E+00 0.  1.
         11    1    3    3    0    0 -0.26469247090E+01  0.27768871648E+01 -0.35446752758E+02  0.35653745863E+02  0.51100000000E-03 0. -1.
        -11    1    3    3    0    0 -0.33585514459E+01  0.12826157038E+01 -0.90852374014E+01  0.97706964829E+01  0.51100000000E-03 0.  1.
        -12    1    3    3    0    0  0.53698287383E+01 -0.48916034105E+01  0.43987743399E+02  0.44583454487E+02  0.00000000000E+00 0.  1.
</event>
<event>
 7    1  0.1716782E-015  0.9000778E+02  0.7816164E-02  0.1186339E+00
        -11   -1    0    0    0    0  0.00000000000E+00  0.00000000000E+00  0.45593999997E+02  0.45594000000E+02  0.51100000000E-03 0. -1.
         11   -1    0    0    0    0 -0.00000000000E+00 -0.00000000000E+00 -0.45593999997E+02  0.45594000000E+02  0.51100000000E-03 0.  1.
    9900012    2    1    2    0    0  0.62747448336E-01 -0.11784532802E+01 -0.14982854348E-01  0.90007782282E+02  0.90000044208E+02 0.  0.
        -12    1    1    2    0    0 -0.62747448336E-01  0.11784532802E+01  0.14982854348E-01  0.11802177179E+01  0.00000000000E+00 0.  1.
         11    1    3    3    0    0 -0.54347210624E+01  0.43768279615E+01 -0.74316974199E+01  0.10194260289E+02  0.51100000000E-03 0. -1.
        -11    1    3    3    0    0  0.42930275639E+00 -0.31819239782E+02 -0.23033392233E+02  0.39283399537E+02  0.51100000000E-03 0.  1.
         12    1    3    3    0    0  0.50681657544E+01  0.26263958540E+02  0.30450106798E+02  0.40530122457E+02  0.00000000000E+00 0. -1.
</event>
<event>
 7    1  0.1716782E-015  0.9000774E+02  0.7816164E-02  0.1186339E+00
        -11   -1    0    0    0    0  0.00000000000E+00  0.00000000000E+00  0.45593999997E+02  0.45594000000E+02  0.51100000000E-03 0.  1.
         11   -1    0    0    0    0 -0.00000000000E+00 -0.00000000000E+00 -0.45593999997E+02  0.45594000000E+02  0.51100000000E-03 0. -1.
    9900012    2    1    2    0    0 -0.81154416785E-01 -0.11703709778E+01 -0.12903852377E+00  0.90007743585E+02  0.90000005000E+02 0.  0.
        -12    1    1    2    0    0  0.81154416785E-01  0.11703709778E+01  0.12903852377E+00  0.11802564152E+01  0.00000000000E+00 0.  1.
         11    1    3    3    0    0 -0.88587493818E+00 -0.37913679109E+01 -0.60255043259E+01  0.71739771177E+01  0.51100000000E-03 0. -1.
        -11    1    3    3    0    0  0.73280764245E+01 -0.23020754963E+02  0.35620023842E+02  0.43040004204E+02  0.51100000000E-03 0.  1.
         12    1    3    3    0    0 -0.65233559031E+01  0.25641751896E+02 -0.29723558039E+02  0.39793762263E+02  0.00000000000E+00 0. -1.
</event>
<event>
 7    1  0.1716782E-015  0.9000760E+02  0.7816164E-02  0.1186339E+00
        -11   -1    0    0    0    0  0.00000000000E+00  0.00000000000E+00  0.45593999997E+02  0.45594000000E+02  0.51100000000E-03 0.  1.
         11   -1    0    0    0    0 -0.00000000000E+00 -0.00000000000E+00 -0.45593999997E+02  0.45594000000E+02  0.51100000000E-03 0. -1.
    9900012    2    1    2    0    0  0.78369383810E+00  0.50317521897E+00  0.72524167508E+00  0.90007603109E+02  0.89999862670E+02 0.  0.
        -12    1    1    2    0    0 -0.78369383810E+00 -0.50317521897E+00 -0.72524167508E+00  0.11803968909E+01  0.00000000000E+00 0.  1.
         11    1    3    3    0    0  0.36870413037E+02  0.77706905590E+01 -0.11485977638E+02  0.39392114336E+02  0.51100000000E-03 0. -1.
        -11    1    3    3    0    0 -0.49352130144E+01  0.11012401244E+02 -0.11094324473E+01  0.12118586934E+02  0.51100000000E-03 0.  1.
        -12    1    3    3    0    0 -0.31151506185E+02 -0.18279916584E+02  0.13320651760E+02  0.38496901839E+02  0.00000000000E+00 0.  1.
</event>
<event>
 7    1  0.1716782E-015  0.9000769E+02  0.7816164E-02  0.1186339E+00
        -11   -1    0    0    0    0  0.00000000000E+00  0.00000000000E+00  0.45593999997E+02  0.45594000000E+02  0.51100000000E-03 0.  1.
         11   -1    0    0    0    0 -0.00000000000E+00 -0.00000000000E+00 -0.45593999997E+02  0.45594000000E+02  0.51100000000E-03 0. -1.
    9900012    2    1    2    0    0  0.36380709310E+00  0.40002594586E-01  0.11221279334E+01  0.90007692029E+02  0.89999952763E+02 0.  0.
        -12    1    1    2    0    0 -0.36380709310E+00 -0.40002594586E-01 -0.11221279334E+01  0.11803079715E+01  0.00000000000E+00 0.  1.
         11    1    3    3    0    0  0.33008389840E+02 -0.18478294937E+02 -0.12696176239E+02  0.39902306637E+02  0.51100000000E-03 0. -1.
        -11    1    3    3    0    0  0.50650057657E+01  0.11073876862E+01 -0.21417222212E+01  0.56095958168E+01  0.51100000000E-03 0.  1.
        -12    1    3    3    0    0 -0.37709588512E+02  0.17410909845E+02  0.15960026394E+02  0.44495789575E+02  0.00000000000E+00 0.  1.
</event>
<event>
 7    1  0.1716782E-015  0.9000767E+02  0.7816164E-02  0.1186339E+00
        -11   -1    0    0    0    0  0.00000000000E+00  0.00000000000E+00  0.45593999997E+02  0.45594000000E+02  0.51100000000E-03 0.  1.
         11   -1    0    0    0    0 -0.00000000000E+00 -0.00000000000E+00 -0.45593999997E+02  0.45594000000E+02  0.51100000000E-03 0. -1.
    9900012    2    1    2    0    0 -0.63292555463E+00  0.29463581849E+00 -0.95172484515E+00  0.90007667333E+02  0.89999927742E+02 0.  0.
        -12    1    1    2    0    0  0.63292555463E+00 -0.29463581849E+00  0.95172484515E+00  0.11803326667E+01  0.00000000000E+00 0.  1.
         11    1    3    3    0    0  0.27674918876E+02 -0.24331932328E+02 -0.91745221590E+01  0.37975201418E+02  0.51100000000E-03 0. -1.
        -11    1    3    3    0    0 -0.17923926541E+01 -0.31571563187E+01 -0.91769854343E+01  0.98690105568E+01  0.51100000000E-03 0.  1.
        -12    1    3    3    0    0 -0.26515451777E+02  0.27783724466E+02  0.17399782748E+02  0.42163455359E+02  0.00000000000E+00 0.  1.
</event>
<event>
 7    1  0.1716782E-015  0.9000798E+02  0.7816164E-02  0.1186339E+00
        -11   -1    0    0    0    0  0.00000000000E+00  0.00000000000E+00  0.45593999997E+02  0.45594000000E+02  0.51100000000E-03 0.  1.
         11   -1    0    0    0    0 -0.00000000000E+00 -0.00000000000E+00 -0.45593999997E+02  0.45594000000E+02  0.51100000000E-03 0. -1.
    9900012    2    1    2    0    0  0.34958006297E+00  0.10048495131E+01 -0.51040470758E+00  0.90007982318E+02  0.90000246884E+02 0.  0.
        -12    1    1    2    0    0 -0.34958006297E+00 -0.10048495131E+01  0.51040470758E+00  0.11800176820E+01  0.00000000000E+00 0.  1.
         11    1    3    3    0    0 -0.13996591590E+01  0.96834094965E+01 -0.88450349884E+01  0.13189469642E+02  0.51100000000E-03 0. -1.
        -11    1    3    3    0    0  0.25048898842E+02  0.24549930223E+02 -0.13360021560E+01  0.35098879030E+02  0.51100000000E-03 0.  1.
         12    1    3    3    0    0 -0.23299659620E+02 -0.33228490207E+02  0.96706324368E+01  0.41719633646E+02  0.00000000000E+00 0. -1.
</event>
<event>
 7    1  0.1716782E-015  0.9000775E+02  0.7816164E-02  0.1186339E+00
        -11   -1    0    0    0    0  0.00000000000E+00  0.00000000000E+00  0.45593999997E+02  0.45594000000E+02  0.51100000000E-03 0. -1.
         11   -1    0    0    0    0 -0.00000000000E+00 -0.00000000000E+00 -0.45593999997E+02  0.45594000000E+02  0.51100000000E-03 0.  1.
    9900012    2    1    2    0    0 -0.21113354266E+00  0.11440329009E+01  0.19902440232E+00  0.90007746060E+02  0.90000007508E+02 0.  0.
        -12    1    1    2    0    0  0.21113354266E+00 -0.11440329009E+01 -0.19902440232E+00  0.11802539404E+01  0.00000000000E+00 0.  1.
         11    1    3    3    0    0  0.23282215026E+02  0.24958463292E+02  0.10836465780E+02  0.35810828213E+02  0.51100000000E-03 0. -1.
        -11    1    3    3    0    0 -0.38949234473E+01  0.40933445067E+01  0.12001105299E+02  0.13264706049E+02  0.51100000000E-03 0.  1.
        -12    1    3    3    0    0 -0.19598425121E+02 -0.27907774898E+02 -0.22638546677E+02  0.40932211798E+02  0.00000000000E+00 0.  1.
</event>
<event>
 7    1  0.1716782E-015  0.9000800E+02  0.7816164E-02  0.1186339E+00
        -11   -1    0    0    0    0  0.00000000000E+00  0.00000000000E+00  0.45593999997E+02  0.45594000000E+02  0.51100000000E-03 0. -1.
         11   -1    0    0    0    0 -0.00000000000E+00 -0.00000000000E+00 -0.45593999997E+02  0.45594000000E+02  0.51100000000E-03 0.  1.
    9900012    2    1    2    0    0 -0.55538458712E+00  0.99001998270E+00 -0.32220537159E+00  0.90007996649E+02  0.90000261405E+02 0.  0.
        -12    1    1    2    0    0  0.55538458712E+00 -0.99001998270E+00  0.32220537159E+00  0.11800033505E+01  0.00000000000E+00 0.  1.
         11    1    3    3    0    0 -0.49168480747E+01  0.61497918667E+01  0.61104603290E+01  0.99665972471E+01  0.51100000000E-03 0. -1.
        -11    1    3    3    0    0 -0.15232805787E+02 -0.17053097986E+02 -0.35989016539E+02  0.42638665959E+02  0.51100000000E-03 0.  1.
         12    1    3    3    0    0  0.19594269275E+02  0.11893326102E+02  0.29556350838E+02  0.37402733443E+02  0.00000000000E+00 0. -1.
</event>
<event>
 7    1  0.1716782E-015  0.9000782E+02  0.7816164E-02  0.1186339E+00
        -11   -1    0    0    0    0  0.00000000000E+00  0.00000000000E+00  0.45593999997E+02  0.45594000000E+02  0.51100000000E-03 0. -1.
         11   -1    0    0    0    0 -0.00000000000E+00 -0.00000000000E+00 -0.45593999997E+02  0.45594000000E+02  0.51100000000E-03 0.  1.
    9900012    2    1    2    0    0 -0.11361730594E+01 -0.18888430857E+00 -0.25742225091E+00  0.90007816659E+02  0.90000079039E+02 0.  0.
        -12    1    1    2    0    0  0.11361730594E+01  0.18888430857E+00  0.25742225091E+00  0.11801833410E+01  0.00000000000E+00 0.  1.
         11    1    3    3    0    0 -0.17568918993E+02  0.17017195449E+02  0.24000235066E+02  0.34267523094E+02  0.51100000000E-03 0. -1.
        -11    1    3    3    0    0 -0.82269421922E+01  0.67491605713E+01  0.38674119413E+01  0.11322129731E+02  0.51100000000E-03 0.  1.
        -12    1    3    3    0    0  0.24659688125E+02 -0.23955240329E+02 -0.28125069258E+02  0.44418163834E+02  0.00000000000E+00 0.  1.
</event>
<event>
 7    1  0.1716782E-015  0.9000776E+02  0.7816164E-02  0.1186339E+00
        -11   -1    0    0    0    0  0.00000000000E+00  0.00000000000E+00  0.45593999997E+02  0.45594000000E+02  0.51100000000E-03 0.  1.
         11   -1    0    0    0    0 -0.00000000000E+00 -0.00000000000E+00 -0.45593999997E+02  0.45594000000E+02  0.51100000000E-03 0. -1.
    9900012    2    1    2    0    0 -0.74538703278E+00  0.79403238321E+00  0.45483499596E+00  0.90007760987E+02  0.90000022632E+02 0.  0.
        -12    1    1    2    0    0  0.74538703278E+00 -0.79403238321E+00 -0.45483499596E+00  0.11802390130E+01  0.00000000000E+00 0.  1.
         11    1    3    3    0    0 -0.61142765109E+01 -0.74559810725E+01  0.16862909492E+01  0.97887490739E+01  0.51100000000E-03 0. -1.
        -11    1    3    3    0    0 -0.29711017694E+02 -0.13094210697E+02  0.15375340325E+02  0.35924977614E+02  0.51100000000E-03 0.  1.
         12    1    3    3    0    0  0.35079907172E+02  0.21344224153E+02 -0.16606796278E+02  0.44294034299E+02  0.00000000000E+00 0. -1.
</event>
<event>
 7    1  0.1716782E-015  0.9000770E+02  0.7816164E-02  0.1186339E+00
        -11   -1    0    0    0    0  0.00000000000E+00  0.00000000000E+00  0.45593999997E+02  0.45594000000E+02  0.51100000000E-03 0.  1.
         11   -1    0    0    0    0 -0.00000000000E+00 -0.00000000000E+00 -0.45593999997E+02  0.45594000000E+02  0.51100000000E-03 0. -1.
    9900012    2    1    2    0    0  0.43705911928E+00 -0.10907209588E+01  0.11144618487E+00  0.90007697862E+02  0.89999958674E+02 0.  0.
        -12    1    1    2    0    0 -0.43705911928E+00  0.10907209588E+01 -0.11144618487E+00  0.11803021376E+01  0.00000000000E+00 0.  1.
         11    1    3    3    0    0  0.70799753558E+01 -0.13214890728E+01 -0.45452897087E+01  0.85165746169E+01  0.51100000000E-03 0. -1.
        -11    1    3    3    0    0  0.30431318679E+02 -0.22517247690E+02  0.26162939777E+01  0.37946496472E+02  0.51100000000E-03 0.  1.
         12    1    3    3    0    0 -0.37074234915E+02  0.22748015804E+02  0.20404419159E+01  0.43544626773E+02  0.00000000000E+00 0. -1.
</event>
<event>
 7    1  0.1716782E-015  0.9000770E+02  0.7816164E-02  0.1186339E+00
        -11   -1    0    0    0    0  0.00000000000E+00  0.00000000000E+00  0.45593999997E+02  0.45594000000E+02  0.51100000000E-03 0.  1.
         11   -1    0    0    0    0 -0.00000000000E+00 -0.00000000000E+00 -0.45593999997E+02  0.45594000000E+02  0.51100000000E-03 0. -1.
    9900012    2    1    2    0    0  0.64106937863E+00 -0.71495664975E+00 -0.68628038345E+00  0.90007697613E+02  0.89999958422E+02 0.  0.
        -12    1    1    2    0    0 -0.64106937863E+00  0.71495664975E+00  0.68628038345E+00  0.11803023867E+01  0.00000000000E+00 0.  1.
         11    1    3    3    0    0  0.52950717732E+01  0.35592401500E+02 -0.12779427848E+02  0.38186000131E+02  0.51100000000E-03 0. -1.
        -11    1    3    3    0    0 -0.44714331132E+01  0.37045284990E+01 -0.56045510202E+01  0.80702068056E+01  0.51100000000E-03 0.  1.
        -12    1    3    3    0    0 -0.18256928137E+00 -0.40011886649E+02  0.17697698485E+02  0.43751490677E+02  0.00000000000E+00 0.  1.
</event>
<event>
 7    1  0.1716782E-015  0.9000771E+02  0.7816164E-02  0.1186339E+00
        -11   -1    0    0    0    0  0.00000000000E+00  0.00000000000E+00  0.45593999997E+02  0.45594000000E+02  0.51100000000E-03 0. -1.
         11   -1    0    0    0    0 -0.00000000000E+00 -0.00000000000E+00 -0.45593999997E+02  0.45594000000E+02  0.51100000000E-03 0.  1.
    9900012    2    1    2    0    0  0.76811424490E+00  0.55227756400E+00 -0.70574277028E+00  0.90007710689E+02  0.89999971670E+02 0.  0.
        -12    1    1    2    0    0 -0.76811424490E+00 -0.55227756400E+00  0.70574277028E+00  0.11802893114E+01  0.00000000000E+00 0.  1.
         11    1    3    3    0    0 -0.90866006537E+01 -0.46735932698E+01 -0.81773974219E+01  0.13087345581E+02  0.51100000000E-03 0. -1.
        -11    1    3    3    0    0  0.17374167417E+02 -0.11887250626E+02 -0.29060223373E+02  0.35884049432E+02  0.51100000000E-03 0.  1.
         12    1    3    3    0    0 -0.75194525187E+01  0.17113121460E+02  0.36531878024E+02  0.41036315676E+02  0.00000000000E+00 0. -1.
</event>
<event>
 7    1  0.1716782E-015  0.9000763E+02  0.7816164E-02  0.1186339E+00
        -11   -1    0    0    0    0  0.00000000000E+00  0.00000000000E+00  0.45593999997E+02  0.45594000000E+02  0.51100000000E-03 0.  1.
         11   -1    0    0    0    0 -0.00000000000E+00 -0.00000000000E+00 -0.45593999997E+02  0.45594000000E+02  0.51100000000E-03 0. -1.
    9900012    2    1    2    0    0 -0.97938759874E+00  0.39455363650E+00 -0.52764118188E+00  0.90007628085E+02  0.89999887976E+02 0.  0.
        -12    1    1    2    0    0  0.97938759874E+00 -0.39455363650E+00  0.52764118188E+00  0.11803719149E+01  0.00000000000E+00 0.  1.
         11    1    3    3    0    0  0.18861368543E+01  0.75825167292E+01 -0.93944729574E+01  0.12219173237E+02  0.51100000000E-03 0. -1.
        -11    1    3    3    0    0 -0.28722087564E+02 -0.26453833246E+02 -0.10160099191E+02  0.40348373242E+02  0.51100000000E-03 0.  1.
         12    1    3    3    0    0  0.25856563111E+02  0.19265870154E+02  0.19026930966E+02  0.37440081606E+02  0.00000000000E+00 0. -1.
</event>
<event>
 7    1  0.1716782E-015  0.9000775E+02  0.7816164E-02  0.1186339E+00
        -11   -1    0    0    0    0  0.00000000000E+00  0.00000000000E+00  0.45593999997E+02  0.45594000000E+02  0.51100000000E-03 0. -1.
         11   -1    0    0    0    0 -0.00000000000E+00 -0.00000000000E+00 -0.45593999997E+02  0.45594000000E+02  0.51100000000E-03 0.  1.
    9900012    2    1    2    0    0  0.45241268457E+00  0.89692328654E+00  0.61955100871E+00  0.90007749149E+02  0.90000010638E+02 0.  0.
        -12    1    1    2    0    0 -0.45241268457E+00 -0.89692328654E+00 -0.61955100871E+00  0.11802508511E+01  0.00000000000E+00 0.  1.
         11    1    3    3    0    0  0.94840535986E+01  0.82495898701E+01  0.90111538384E+00  0.12602182941E+02  0.51100000000E-03 0. -1.
        -11    1    3    3    0    0 -0.16395400100E+02  0.13900812266E+01 -0.36172125357E+02  0.39738698058E+02  0.51100000000E-03 0.  1.
         12    1    3    3    0    0  0.73637591855E+01 -0.87427478102E+01  0.35890560982E+02  0.37666868150E+02  0.00000000000E+00 0. -1.
</event>
<event>
 7    1  0.1716782E-015  0.9000841E+02  0.7816164E-02  0.1186338E+00
        -11   -1    0    0    0    0  0.00000000000E+00  0.00000000000E+00  0.45593999997E+02  0.45594000000E+02  0.51100000000E-03 0.  1.
         11   -1    0    0    0    0 -0.00000000000E+00 -0.00000000000E+00 -0.45593999997E+02  0.45594000000E+02  0.51100000000E-03 0. -1.
    9900012    2    1    2    0    0 -0.40367048831E+00  0.58931328391E+00 -0.93871628859E+00  0.90008411818E+02  0.90000682051E+02 0.  0.
        -12    1    1    2    0    0  0.40367048831E+00 -0.58931328391E+00  0.93871628859E+00  0.11795881825E+01  0.00000000000E+00 0.  1.
         11    1    3    3    0    0  0.86240630290E+01  0.18754742218E+01  0.13317549015E+01  0.89255497345E+01  0.51100000000E-03 0. -1.
        -11    1    3    3    0    0 -0.32209085402E+02  0.97074866624E+01  0.26287381520E+02  0.42692937439E+02  0.51100000000E-03 0.  1.
         12    1    3    3    0    0  0.23181351885E+02 -0.10993647600E+02 -0.28557852710E+02  0.38389924644E+02  0.00000000000E+00 0. -1.
</event>
<event>
 7    1  0.1716782E-015  0.9000764E+02  0.7816164E-02  0.1186339E+00
        -11   -1    0    0    0    0  0.00000000000E+00  0.00000000000E+00  0.45593999997E+02  0.45594000000E+02  0.51100000000E-03 0. -1.
         11   -1    0    0    0    0 -0.00000000000E+00 -0.00000000000E+00 -0.45593999997E+02  0.45594000000E+02  0.51100000000E-03 0.  1.
    9900012    2    1    2    0    0 -0.48460654511E+00 -0.10398140934E+01 -0.27785508958E+00  0.90007635521E+02  0.89999895510E+02 0.  0.
        -12    1    1    2    0    0  0.48460654511E+00  0.10398140934E+01  0.27785508958E+00  0.11803644789E+01  0.00000000000E+00 0.  1.
         11    1    3    3    0    0 -0.44317858125E+01  0.40223053555E+01  0.55394463034E+01  0.81550678397E+01  0.51100000000E-03 0. -1.
        -11    1    3    3    0    0 -0.30551079839E+02 -0.15034969330E+02 -0.23944026950E+02  0.41626136128E+02  0.51100000000E-03 0.  1.
         12    1    3    3    0    0  0.34498259107E+02  0.99728498806E+01  0.18126725557E+02  0.40226431554E+02  0.00000000000E+00 0. -1.
</event>
<event>
 7    1  0.1716782E-015  0.9000777E+02  0.7816164E-02  0.1186339E+00
        -11   -1    0    0    0    0  0.00000000000E+00  0.00000000000E+00  0.45593999997E+02  0.45594000000E+02  0.51100000000E-03 0.  1.
         11   -1    0    0    0    0 -0.00000000000E+00 -0.00000000000E+00 -0.45593999997E+02  0.45594000000E+02  0.51100000000E-03 0. -1.
    9900012    2    1    2    0    0 -0.58441311946E-01 -0.48370341520E+00 -0.10749641143E+01  0.90007774501E+02  0.90000036325E+02 0.  0.
        -12    1    1    2    0    0  0.58441311946E-01  0.48370341520E+00  0.10749641143E+01  0.11802254988E+01  0.00000000000E+00 0.  1.
         11    1    3    3    0    0 -0.48108135437E+01 -0.24753301098E+02 -0.31272114316E+02  0.40172316043E+02  0.51100000000E-03 0. -1.
        -11    1    3    3    0    0  0.71935391775E+00  0.12023149739E+01 -0.63098387218E+01  0.64635204271E+01  0.51100000000E-03 0.  1.
        -12    1    3    3    0    0  0.40330183140E+01  0.23067282709E+02  0.36506988923E+02  0.43371938031E+02  0.00000000000E+00 0.  1.
</event>
<event>
 7    1  0.1716782E-015  0.9000772E+02  0.7816164E-02  0.1186339E+00
        -11   -1    0    0    0    0  0.00000000000E+00  0.00000000000E+00  0.45593999997E+02  0.45594000000E+02  0.51100000000E-03 0. -1.
         11   -1    0    0    0    0 -0.00000000000E+00 -0.00000000000E+00 -0.45593999997E+02  0.45594000000E+02  0.51100000000E-03 0.  1.
    9900012    2    1    2    0    0 -0.92969184540E+00 -0.17534400144E-01  0.72692974738E+00  0.90007719847E+02  0.89999980949E+02 0.  0.
        -12    1    1    2    0    0  0.92969184540E+00  0.17534400144E-01 -0.72692974738E+00  0.11802801533E+01  0.00000000000E+00 0.  1.
         11    1    3    3    0    0  0.42669710706E+02  0.35341592222E+01  0.65249370890E+01  0.43310152360E+02  0.51100000000E-03 0. -1.
        -11    1    3    3    0    0 -0.57297992683E+01 -0.49526645298E+01 -0.44370333215E+01  0.87776278434E+01  0.51100000000E-03 0.  1.
        -12    1    3    3    0    0 -0.37869603283E+02  0.14009709074E+01 -0.13609740201E+01  0.37919939644E+02  0.00000000000E+00 0.  1.
</event>
<event>
 7    1  0.1716782E-015  0.9000777E+02  0.7816164E-02  0.1186339E+00
        -11   -1    0    0    0    0  0.00000000000E+00  0.00000000000E+00  0.45593999997E+02  0.45594000000E+02  0.51100000000E-03 0.  1.
         11   -1    0    0    0    0 -0.00000000000E+00 -0.00000000000E+00 -0.45593999997E+02  0.45594000000E+02  0.51100000000E-03 0. -1.
    9900012    2    1    2    0    0 -0.21099186936E+00  0.11022418959E+01 -0.36534922086E+00  0.90007773403E+02  0.90000035212E+02 0.  0.
        -12    1    1    2    0    0  0.21099186936E+00 -0.11022418959E+01  0.36534922086E+00  0.11802265966E+01  0.00000000000E+00 0.  1.
         11    1    3    3    0    0  0.16132164465E+02  0.74523032529E+01 -0.38312316373E+02  0.42232891686E+02  0.51100000000E-03 0. -1.
        -11    1    3    3    0    0  0.10812586565E+01  0.69348656805E+01  0.76089416652E+01  0.10351689515E+02  0.51100000000E-03 0.  1.
        -12    1    3    3    0    0 -0.17424414991E+02 -0.13284927037E+02  0.30338025486E+02  0.37423192202E+02  0.00000000000E+00 0.  1.
</event>
<event>
 7    1  0.1716782E-015  0.9000762E+02  0.7816164E-02  0.1186339E+00
        -11   -1    0    0    0    0  0.00000000000E+00  0.00000000000E+00  0.45593999997E+02  0.45594000000E+02  0.51100000000E-03 0.  1.
         11   -1    0    0    0    0 -0.00000000000E+00 -0.00000000000E+00 -0.45593999997E+02  0.45594000000E+02  0.51100000000E-03 0. -1.
    9900012    2    1    2    0    0  0.31584358535E+00 -0.49026787512E+00 -0.10262405551E+01  0.90007623180E+02  0.89999883006E+02 0.  0.
        -12    1    1    2    0    0 -0.31584358535E+00  0.49026787512E+00  0.10262405551E+01  0.11803768198E+01  0.00000000000E+00 0.  1.
         11    1    3    3    0    0 -0.36818740137E+02 -0.71394634790E+01 -0.18501481084E+02  0.41819808305E+02  0.51100000000E-03 0. -1.
        -11    1    3    3    0    0  0.10204714651E+02  0.37116860039E+01 -0.59433982036E+01  0.12378885110E+02  0.51100000000E-03 0.  1.
        -12    1    3    3    0    0  0.26929869072E+02  0.29375095999E+01  0.23418638733E+02  0.35808929766E+02  0.00000000000E+00 0.  1.
</event>
<event>
 7    1  0.1716782E-015  0.9000765E+02  0.7816164E-02  0.1186339E+00
        -11   -1    0    0    0    0  0.00000000000E+00  0.00000000000E+00  0.45593999997E+02  0.45594000000E+02  0.51100000000E-03 0.  1.
         11   -1    0    0    0    0 -0.00000000000E+00 -0.00000000000E+00 -0.45593999997E+02  0.45594000000E+02  0.51100000000E-03 0. -1.
    9900012    2    1    2    0    0  0.10899417995E+01 -0.25237437000E+00  0.37623146551E+00  0.90007654261E+02  0.89999914497E+02 0.  0.
        -12    1    1    2    0    0 -0.10899417995E+01  0.25237437000E+00 -0.37623146551E+00  0.11803457394E+01  0.00000000000E+00 0.  1.
         11    1    3    3    0    0 -0.16600319407E+02  0.24261344012E+02 -0.24733360889E+02  0.38417737555E+02  0.51100000000E-03 0. -1.
        -11    1    3    3    0    0 -0.78336570181E+01 -0.32829315982E+01 -0.20022330983E+01  0.87265548641E+01  0.51100000000E-03 0.  1.
        -12    1    3    3    0    0  0.25523918224E+02 -0.21230786784E+02  0.27111825453E+02  0.42863361842E+02  0.00000000000E+00 0.  1.
</event>
<event>
 7    1  0.1716782E-015  0.9000771E+02  0.7816164E-02  0.1186339E+00
        -11   -1    0    0    0    0  0.00000000000E+00  0.00000000000E+00  0.45593999997E+02  0.45594000000E+02  0.51100000000E-03 0. -1.
         11   -1    0    0    0    0 -0.00000000000E+00 -0.00000000000E+00 -0.45593999997E+02  0.45594000000E+02  0.51100000000E-03 0.  1.
    9900012    2    1    2    0    0  0.44334113709E+00  0.20141463433E+00  0.10751562977E+01  0.90007711780E+02  0.89999972775E+02 0.  0.
        -12    1    1    2    0    0 -0.44334113709E+00 -0.20141463433E+00 -0.10751562977E+01  0.11802882205E+01  0.00000000000E+00 0.  1.
         11    1    3    3    0    0  0.19634279305E+02  0.29048278620E+02 -0.12146815471E+02  0.37105963685E+02  0.51100000000E-03 0. -1.
        -11    1    3    3    0    0  0.16450735589E+01  0.53207202964E+01 -0.62712238590E+01  0.83871676052E+01  0.51100000000E-03 0.  1.
        -12    1    3    3    0    0 -0.20836011727E+02 -0.34167584282E+02  0.19493195628E+02  0.44514580490E+02  0.00000000000E+00 0.  1.
</event>
<event>
 7    1  0.1716782E-015  0.9000770E+02  0.7816164E-02  0.1186339E+00
        -11   -1    0    0    0    0  0.00000000000E+00  0.00000000000E+00  0.45593999997E+02  0.45594000000E+02  0.51100000000E-03 0.  1.
         11   -1    0    0    0    0 -0.00000000000E+00 -0.00000000000E+00 -0.45593999997E+02  0.45594000000E+02  0.51100000000E-03 0. -1.
    9900012    2    1    2    0    0 -0.79543404021E+00  0.67076947291E+00 -0.55720069584E+00  0.90007695118E+02  0.89999955894E+02 0.  0.
        -12    1    1    2    0    0  0.79543404021E+00 -0.67076947291E+00  0.55720069584E+00  0.11803048816E+01  0.00000000000E+00 0.  1.
         11    1    3    3    0    0  0.28821087866E+02 -0.21279538226E+02  0.17864823268E+02  0.40032808589E+02  0.51100000000E-03 0. -1.
        -11    1    3    3    0    0  0.35809484380E+01  0.10890331181E+02 -0.44785023328E+01  0.12307700368E+02  0.51100000000E-03 0.  1.
        -12    1    3    3    0    0 -0.33197470344E+02  0.11059976518E+02 -0.13943521631E+02  0.37667186161E+02  0.00000000000E+00 0.  1.
</event>
<event>
 7    1  0.1716782E-015  0.9000776E+02  0.7816164E-02  0.1186339E+00
        -11   -1    0    0    0    0  0.00000000000E+00  0.00000000000E+00  0.45593999997E+02  0.45594000000E+02  0.51100000000E-03 0. -1.
         11   -1    0    0    0    0 -0.00000000000E+00 -0.00000000000E+00 -0.45593999997E+02  0.45594000000E+02  0.51100000000E-03 0.  1.
    9900012    2    1    2    0    0 -0.87747374012E+00  0.61717426561E+00  0.49202998190E+00  0.90007763692E+02  0.90000025373E+02 0.  0.
        -12    1    1    2    0    0  0.87747374012E+00 -0.61717426561E+00 -0.49202998190E+00  0.11802363076E+01  0.00000000000E+00 0.  1.
         11    1    3    3    0    0 -0.39960724475E+02 -0.11004130010E+01 -0.63220103815E+01  0.40472684923E+02  0.51100000000E-03 0. -1.
        -11    1    3    3    0    0  0.47921261859E+01  0.12280503748E+02  0.19433461530E+01  0.13324857981E+02  0.51100000000E-03 0.  1.
        -12    1    3    3    0    0  0.34291124549E+02 -0.10562916481E+02  0.48706942104E+01  0.36210220788E+02  0.00000000000E+00 0.  1.
</event>
<event>
 7    1  0.1716782E-015  0.9000773E+02  0.7816164E-02  0.1186339E+00
        -11   -1    0    0    0    0  0.00000000000E+00  0.00000000000E+00  0.45593999997E+02  0.45594000000E+02  0.51100000000E-03 0.  1.
         11   -1    0    0    0    0 -0.00000000000E+00 -0.00000000000E+00 -0.45593999997E+02  0.45594000000E+02  0.51100000000E-03 0. -1.
    9900012    2    1    2    0    0  0.50807361720E+00  0.15660783106E+00 -0.10537387179E+01  0.90007733039E+02  0.89999994315E+02 0.  0.
        -12    1    1    2    0    0 -0.50807361720E+00 -0.15660783106E+00  0.10537387179E+01  0.11802669608E+01  0.00000000000E+00 0.  1.
         11    1    3    3    0    0  0.24560357515E+01 -0.89688470557E+01  0.58472500864E+01  0.10984655796E+02  0.51100000000E-03 0. -1.
        -11    1    3    3    0    0  0.71665433066E+01 -0.33010722543E+02  0.53610195735E+01  0.34202451329E+02  0.51100000000E-03 0.  1.
         12    1    3    3    0    0 -0.91145054409E+01  0.42136177430E+02 -0.12262008378E+02  0.44820625914E+02  0.00000000000E+00 0. -1.
</event>
<event>
 7    1  0.1716782E-015  0.9000775E+02  0.7816164E-02  0.1186339E+00
        -11   -1    0    0    0    0  0.00000000000E+00  0.00000000000E+00  0.45593999997E+02  0.45594000000E+02  0.51100000000E-03 0. -1.
         11   -1    0    0    0    0 -0.00000000000E+00 -0.00000000000E+00 -0.45593999997E+02  0.45594000000E+02  0.51100000000E-03 0.  1.
    9900012    2    1    2    0    0  0.62828588741E+00  0.91162513674E+00  0.40889556654E+00  0.90007746158E+02  0.90000007608E+02 0.  0.
        -12    1    1    2    0    0 -0.62828588741E+00 -0.91162513674E+00 -0.40889556654E+00  0.11802538416E+01  0.00000000000E+00 0.  1.
         11    1    3    3    0    0  0.36492138217E+02 -0.15788240050E+02  0.34175072039E+01  0.39907693886E+02  0.51100000000E-03 0. -1.
        -11    1    3    3    0    0  0.25423693148E+01  0.28403077741E+01 -0.81012101024E+01  0.89532449631E+01  0.51100000000E-03 0.  1.
        -12    1    3    3    0    0 -0.38406221644E+02  0.13859557413E+02  0.50925984651E+01  0.41146807310E+02  0.00000000000E+00 0.  1.
</event>
<event>
 7    1  0.1716782E-015  0.9000770E+02  0.7816164E-02  0.1186339E+00
        -11   -1    0    0    0    0  0.00000000000E+00  0.00000000000E+00  0.45593999997E+02  0.45594000000E+02  0.51100000000E-03 0. -1.
         11   -1    0    0    0    0 -0.00000000000E+00 -0.00000000000E+00 -0.45593999997E+02  0.45594000000E+02  0.51100000000E-03 0.  1.
    9900012    2    1    2    0    0  0.27406582892E+00 -0.94038366004E+00  0.65853834665E+00  0.90007700775E+02  0.89999961625E+02 0.  0.
        -12    1    1    2    0    0 -0.27406582892E+00  0.94038366004E+00 -0.65853834665E+00  0.11802992251E+01  0.00000000000E+00 0.  1.
         11    1    3    3    0    0  0.28570697310E+01 -0.11459422372E+02  0.41836681493E+02  0.43471704903E+02  0.51100000000E-03 0. -1.
        -11    1    3    3    0    0  0.46732635196E+01  0.59794681198E+01 -0.43943130058E+01  0.87694593889E+01  0.51100000000E-03 0.  1.
        -12    1    3    3    0    0 -0.72562674217E+01  0.45395705923E+01 -0.36783830141E+02  0.37766536483E+02  0.00000000000E+00 0.  1.
</event>
<event>
 7    1  0.1716782E-015  0.9000774E+02  0.7816164E-02  0.1186339E+00
        -11   -1    0    0    0    0  0.00000000000E+00  0.00000000000E+00  0.45593999997E+02  0.45594000000E+02  0.51100000000E-03 0. -1.
         11   -1    0    0    0    0 -0.00000000000E+00 -0.00000000000E+00 -0.45593999997E+02  0.45594000000E+02  0.51100000000E-03 0.  1.
    9900012    2    1    2    0    0  0.43256877152E+00  0.38832089427E+00  0.10271851498E+01  0.90007738084E+02  0.89999999426E+02 0.  0.
        -12    1    1    2    0    0 -0.43256877152E+00 -0.38832089427E+00 -0.10271851498E+01  0.11802619163E+01  0.00000000000E+00 0.  1.
         11    1    3    3    0    0  0.26030718969E+02 -0.30140159293E+02  0.91971664694E+01  0.40873162388E+02  0.51100000000E-03 0. -1.
        -11    1    3    3    0    0 -0.32273844131E+01 -0.44481809318E+01  0.28323992485E+01  0.61826215731E+01  0.51100000000E-03 0.  1.
        -12    1    3    3    0    0 -0.22370765784E+02  0.34976661119E+02 -0.11002380568E+02  0.42951954123E+02  0.00000000000E+00 0.  1.
</event>
<event>
 7    1  0.1716782E-015  0.9000772E+02  0.7816164E-02  0.1186339E+00
        -11   -1    0    0    0    0  0.00000000000E+00  0.00000000000E+00  0.45593999997E+02  0.45594000000E+02  0.51100000000E-03 0.  1.
         11   -1    0    0    0    0 -0.00000000000E+00 -0.00000000000E+00 -0.45593999997E+02  0.45594000000E+02  0.51100000000E-03 0. -1.
    9900012    2    1    2    0    0 -0.93551702844E+00 -0.70796686507E+00 -0.12901574590E+00  0.90007722806E+02  0.89999983947E+02 0.  0.
        -12    1    1    2    0    0  0.93551702844E+00  0.70796686507E+00  0.12901574590E+00  0.11802771942E+01  0.00000000000E+00 0.  1.
         11    1    3    3    0    0 -0.34046517066E+01  0.70237980496E+01 -0.68124750395E+01  0.10360270687E+02  0.51100000000E-03 0. -1.
        -11    1    3    3    0    0  0.19175542576E+02 -0.39246736064E+02  0.28707548137E+01  0.43774980962E+02  0.51100000000E-03 0.  1.
         12    1    3    3    0    0 -0.16706407898E+02  0.31514971150E+02  0.38127044799E+01  0.35872471156E+02  0.00000000000E+00 0. -1.
</event>
<event>
 7    1  0.1716782E-015  0.9000769E+02  0.7816164E-02  0.1186339E+00
        -11   -1    0    0    0    0  0.00000000000E+00  0.00000000000E+00  0.45593999997E+02  0.45594000000E+02  0.51100000000E-03 0.  1.
         11   -1    0    0    0    0 -0.00000000000E+00 -0.00000000000E+00 -0.45593999997E+02  0.45594000000E+02  0.51100000000E-03 0. -1.
    9900012    2    1    2    0    0 -0.90617624042E+00  0.73563824454E+00 -0.17556643948E+00  0.90007685389E+02  0.89999946036E+02 0.  0.
        -12    1    1    2    0    0  0.90617624042E+00 -0.73563824454E+00  0.17556643948E+00  0.11803146107E+01  0.00000000000E+00 0.  1.
         11    1    3    3    0    0 -0.82457433202E+00 -0.84873004712E+01  0.25308672252E+01  0.88949132256E+01  0.51100000000E-03 0. -1.
        -11    1    3    3    0    0 -0.20558356784E+02 -0.29647634110E+02 -0.77155769358E+01  0.36893879840E+02  0.51100000000E-03 0.  1.
         12    1    3    3    0    0  0.20476754875E+02  0.38870572826E+02  0.50091432711E+01  0.44218892324E+02  0.00000000000E+00 0. -1.
</event>
<event>
 7    1  0.1716782E-015  0.9000761E+02  0.7816164E-02  0.1186339E+00
        -11   -1    0    0    0    0  0.00000000000E+00  0.00000000000E+00  0.45593999997E+02  0.45594000000E+02  0.51100000000E-03 0. -1.
         11   -1    0    0    0    0 -0.00000000000E+00 -0.00000000000E+00 -0.45593999997E+02  0.45594000000E+02  0.51100000000E-03 0.  1.
    9900012    2    1    2    0    0 -0.60525838213E+00  0.19211696324E+00  0.99502515226E+00  0.90007609518E+02  0.89999869163E+02 0.  0.
        -12    1    1    2    0    0  0.60525838213E+00 -0.19211696324E+00 -0.99502515226E+00  0.11803904821E+01  0.00000000000E+00 0.  1.
         11    1    3    3    0    0  0.16824055169E+02 -0.21389048907E+02  0.35151284286E+02  0.44453942825E+02  0.51100000000E-03 0. -1.
        -11    1    3    3    0    0 -0.44268903763E+01  0.11449053394E+02 -0.80516627914E+01  0.14680172206E+02  0.51100000000E-03 0.  1.
        -12    1    3    3    0    0 -0.13002423175E+02  0.10132112476E+02 -0.26104596342E+02  0.30873494487E+02  0.00000000000E+00 0.  1.
</event>
<event>
 7    1  0.1716782E-015  0.9000775E+02  0.7816164E-02  0.1186339E+00
        -11   -1    0    0    0    0  0.00000000000E+00  0.00000000000E+00  0.45593999997E+02  0.45594000000E+02  0.51100000000E-03 0. -1.
         11   -1    0    0    0    0 -0.00000000000E+00 -0.00000000000E+00 -0.45593999997E+02  0.45594000000E+02  0.51100000000E-03 0.  1.
    9900012    2    1    2    0    0 -0.12155285372E+00 -0.11738101269E+01  0.19404060107E-01  0.90007753489E+02  0.90000015035E+02 0.  0.
        -12    1    1    2    0    0  0.12155285372E+00  0.11738101269E+01 -0.19404060107E-01  0.11802465114E+01  0.00000000000E+00 0.  1.
         11    1    3    3    0    0  0.78582146562E+01  0.95374725375E+00 -0.51570350219E+01  0.94475489883E+01  0.51100000000E-03 0. -1.
        -11    1    3    3    0    0  0.18403742678E+02  0.13648116298E+02 -0.27435048809E+02  0.35744240466E+02  0.51100000000E-03 0.  1.
         12    1    3    3    0    0 -0.26383510188E+02 -0.15775673679E+02  0.32611487891E+02  0.44815964035E+02  0.00000000000E+00 0. -1.
</event>
<event>
 7    1  0.1716782E-015  0.9000771E+02  0.7816164E-02  0.1186339E+00
        -11   -1    0    0    0    0  0.00000000000E+00  0.00000000000E+00  0.45593999997E+02  0.45594000000E+02  0.51100000000E-03 0.  1.
         11   -1    0    0    0    0 -0.00000000000E+00 -0.00000000000E+00 -0.45593999997E+02  0.45594000000E+02  0.51100000000E-03 0. -1.
    9900012    2    1    2    0    0  0.50580676527E+00 -0.30097521346E+00 -0.10230647247E+01  0.90007708513E+02  0.89999969466E+02 0.  0.
        -12    1    1    2    0    0 -0.50580676527E+00  0.30097521346E+00  0.10230647247E+01  0.11802914868E+01  0.00000000000E+00 0.  1.
         11    1    3    3    0    0 -0.11265018822E+02  0.11700950024E+00 -0.36503554580E+02  0.38202406175E+02  0.51100000000E-03 0. -1.
        -11    1    3    3    0    0 -0.15068623041E+01  0.81888103977E+01 -0.40254775682E+01  0.92483360474E+01  0.51100000000E-03 0.  1.
        -12    1    3    3    0    0  0.13277687891E+02 -0.86067951114E+01  0.39505967424E+02  0.42556966291E+02  0.00000000000E+00 0.  1.
</event>
<event>
 7    1  0.1716782E-015  0.9000770E+02  0.7816164E-02  0.1186339E+00
        -11   -1    0    0    0    0  0.00000000000E+00  0.00000000000E+00  0.45593999997E+02  0.45594000000E+02  0.51100000000E-03 0.  1.
         11   -1    0    0    0    0 -0.00000000000E+00 -0.00000000000E+00 -0.45593999997E+02  0.45594000000E+02  0.51100000000E-03 0. -1.
    9900012    2    1    2    0    0 -0.20068558863E+00 -0.16809401579E+00 -0.11509045463E+01  0.90007698522E+02  0.89999959343E+02 0.  0.
        -12    1    1    2    0    0  0.20068558863E+00  0.16809401579E+00  0.11509045463E+01  0.11803014777E+01  0.00000000000E+00 0.  1.
         11    1    3    3    0    0 -0.17122526740E+01  0.51659664119E+01 -0.79750354902E+01  0.96550613421E+01  0.51100000000E-03 0. -1.
        -11    1    3    3    0    0 -0.18647524209E+02 -0.37566961466E+02  0.15335969866E+01  0.41968543850E+02  0.51100000000E-03 0.  1.
         12    1    3    3    0    0  0.20159091294E+02  0.32232901039E+02  0.52905339574E+01  0.38384093330E+02  0.00000000000E+00 0. -1.
</event>
<event>
 7    1  0.1716782E-015  0.9000774E+02  0.7816164E-02  0.1186339E+00
        -11   -1    0    0    0    0  0.00000000000E+00  0.00000000000E+00  0.45593999997E+02  0.45594000000E+02  0.51100000000E-03 0.  1.
         11   -1    0    0    0    0 -0.00000000000E+00 -0.00000000000E+00 -0.45593999997E+02  0.45594000000E+02  0.51100000000E-03 0. -1.
    9900012    2    1    2    0    0  0.11463295523E+01 -0.14568774594E+00 -0.24023082002E+00  0.90007742736E+02  0.90000004140E+02 0.  0.
        -12    1    1    2    0    0 -0.11463295523E+01  0.14568774594E+00  0.24023082002E+00  0.11802572638E+01  0.00000000000E+00 0.  1.
         11    1    3    3    0    0 -0.30093299661E+00 -0.41217616883E+01 -0.85090477834E+01  0.94595652397E+01  0.51100000000E-03 0. -1.
        -11    1    3    3    0    0 -0.43323848922E+01 -0.35981197258E+02  0.15702104044E+02  0.39496483218E+02  0.51100000000E-03 0.  1.
         12    1    3    3    0    0  0.57796474411E+01  0.39957271200E+02 -0.74332870801E+01  0.41051694278E+02  0.00000000000E+00 0. -1.
</event>
<event>
 7    1  0.1716782E-015  0.9000827E+02  0.7816164E-02  0.1186338E+00
        -11   -1    0    0    0    0  0.00000000000E+00  0.00000000000E+00  0.45593999997E+02  0.45594000000E+02  0.51100000000E-03 0. -1.
         11   -1    0    0    0    0 -0.00000000000E+00 -0.00000000000E+00 -0.45593999997E+02  0.45594000000E+02  0.51100000000E-03 0.  1.
    9900012    2    1    2    0    0  0.11936115231E+00 -0.35593072436E-02  0.11736694185E+01  0.90008271363E+02  0.90000539743E+02 0.  0.
        -12    1    1    2    0    0 -0.11936115231E+00  0.35593072436E-02 -0.11736694185E+01  0.11797286372E+01  0.00000000000E+00 0.  1.
         11    1    3    3    0    0  0.40486534290E+01  0.76027134776E+01 -0.12804286167E+01  0.87081768766E+01  0.51100000000E-03 0. -1.
        -11    1    3    3    0    0 -0.36995964215E+02  0.16270628811E+02  0.27976026775E+01  0.40512483398E+02  0.51100000000E-03 0.  1.
         12    1    3    3    0    0  0.33066671938E+02 -0.23876901596E+02 -0.34350464220E+00  0.40787611088E+02  0.00000000000E+00 0. -1.
</event>
<event>
 7    1  0.1716782E-015  0.9000730E+02  0.7816164E-02  0.1186340E+00
        -11   -1    0    0    0    0  0.00000000000E+00  0.00000000000E+00  0.45593999997E+02  0.45594000000E+02  0.51100000000E-03 0.  1.
         11   -1    0    0    0    0 -0.00000000000E+00 -0.00000000000E+00 -0.45593999997E+02  0.45594000000E+02  0.51100000000E-03 0. -1.
    9900012    2    1    2    0    0  0.34944369351E+00  0.41348272431E+00 -0.10492739649E+01  0.90007299059E+02  0.89999554606E+02 0.  0.
        -12    1    1    2    0    0 -0.34944369351E+00 -0.41348272431E+00  0.10492739649E+01  0.11807009408E+01  0.00000000000E+00 0.  1.
         11    1    3    3    0    0  0.57679991597E+01 -0.68620051406E+01  0.58752850272E+01  0.10718017693E+02  0.51100000000E-03 0. -1.
        -11    1    3    3    0    0 -0.15405512796E+02 -0.29430983811E+02  0.13797507485E+02  0.35970596960E+02  0.51100000000E-03 0.  1.
         12    1    3    3    0    0  0.99869573301E+01  0.36706471676E+02 -0.20722066477E+02  0.43318684406E+02  0.00000000000E+00 0. -1.
</event>
<event>
 7    1  0.1716782E-015  0.9000776E+02  0.7816164E-02  0.1186339E+00
        -11   -1    0    0    0    0  0.00000000000E+00  0.00000000000E+00  0.45593999997E+02  0.45594000000E+02  0.51100000000E-03 0.  1.
         11   -1    0    0    0    0 -0.00000000000E+00 -0.00000000000E+00 -0.45593999997E+02  0.45594000000E+02  0.51100000000E-03 0. -1.
    9900012    2    1    2    0    0 -0.10091970044E+01 -0.49521872398E+00  0.35949747996E+00  0.90007763322E+02  0.90000024998E+02 0.  0.
        -12    1    1    2    0    0  0.10091970044E+01  0.49521872398E+00 -0.35949747996E+00  0.11802366781E+01  0.00000000000E+00 0.  1.
         11    1    3    3    0    0  0.11053819153E+02 -0.71463452507E+00  0.95664935770E+01  0.14636099890E+02  0.51100000000E-03 0. -1.
        -11    1    3    3    0    0 -0.33923381512E+02  0.53526463855E+01  0.19054892484E+02  0.39275126536E+02  0.51100000000E-03 0.  1.
         12    1    3    3    0    0  0.21860365355E+02 -0.51332305844E+01 -0.28261888581E+02  0.36096536896E+02  0.00000000000E+00 0. -1.
</event>
<event>
 7    1  0.1716782E-015  0.9000778E+02  0.7816164E-02  0.1186339E+00
        -11   -1    0    0    0    0  0.00000000000E+00  0.00000000000E+00  0.45593999997E+02  0.45594000000E+02  0.51100000000E-03 0.  1.
         11   -1    0    0    0    0 -0.00000000000E+00 -0.00000000000E+00 -0.45593999997E+02  0.45594000000E+02  0.51100000000E-03 0. -1.
    9900012    2    1    2    0    0 -0.46294238864E+00  0.92719698163E+00 -0.56472069541E+00  0.90007779952E+02  0.90000041847E+02 0.  0.
        -12    1    1    2    0    0  0.46294238864E+00 -0.92719698163E+00  0.56472069541E+00  0.11802200480E+01  0.00000000000E+00 0.  1.
         11    1    3    3    0    0  0.10332864361E+02 -0.79844276823E+01 -0.41303060094E+02  0.43318147984E+02  0.51100000000E-03 0. -1.
        -11    1    3    3    0    0 -0.19042889982E+01  0.67947638877E+01  0.26786995238E+01  0.75478847552E+01  0.51100000000E-03 0.  1.
        -12    1    3    3    0    0 -0.88915177517E+01  0.21168607763E+01  0.38059639875E+02  0.39141747213E+02  0.00000000000E+00 0.  1.
</event>
<event>
 7    1  0.1716782E-015  0.9000772E+02  0.7816164E-02  0.1186339E+00
        -11   -1    0    0    0    0  0.00000000000E+00  0.00000000000E+00  0.45593999997E+02  0.45594000000E+02  0.51100000000E-03 0.  1.
         11   -1    0    0    0    0 -0.00000000000E+00 -0.00000000000E+00 -0.45593999997E+02  0.45594000000E+02  0.51100000000E-03 0. -1.
    9900012    2    1    2    0    0 -0.45287310167E+00  0.23339946402E+00 -0.10646523063E+01  0.90007722961E+02  0.89999984104E+02 0.  0.
        -12    1    1    2    0    0  0.45287310167E+00 -0.23339946402E+00  0.10646523063E+01  0.11802770392E+01  0.00000000000E+00 0.  1.
         11    1    3    3    0    0 -0.14216497366E+02  0.25547419328E+01 -0.46493534938E+01  0.15174056540E+02  0.51100000000E-03 0. -1.
        -11    1    3    3    0    0 -0.85348453697E+01  0.31832110363E+02 -0.44685804827E+01  0.33258007268E+02  0.51100000000E-03 0.  1.
         12    1    3    3    0    0  0.22298469634E+02 -0.34153452832E+02  0.80532816702E+01  0.41575659153E+02  0.00000000000E+00 0. -1.
</event>
<event>
 7    1  0.1716782E-015  0.9000778E+02  0.7816164E-02  0.1186339E+00
        -11   -1    0    0    0    0  0.00000000000E+00  0.00000000000E+00  0.45593999997E+02  0.45594000000E+02  0.51100000000E-03 0.  1.
         11   -1    0    0    0    0 -0.00000000000E+00 -0.00000000000E+00 -0.45593999997E+02  0.45594000000E+02  0.51100000000E-03 0. -1.
    9900012    2    1    2    0    0 -0.70473200461E+00 -0.94668900867E+00  0.65032499745E-02  0.90007784100E+02  0.90000046050E+02 0.  0.
        -12    1    1    2    0    0  0.70473200461E+00  0.94668900867E+00 -0.65032499745E-02  0.11802158996E+01  0.00000000000E+00 0.  1.
         11    1    3    3    0    0  0.36860138912E+01  0.39747209837E+01  0.90934763343E+01  0.10586615012E+02  0.51100000000E-03 0. -1.
        -11    1    3    3    0    0  0.10278159540E+02 -0.19357937462E+02  0.28867818330E+02  0.36245292683E+02  0.51100000000E-03 0.  1.
         12    1    3    3    0    0 -0.14668905436E+02  0.14436527470E+02 -0.37954791414E+02  0.43175876405E+02  0.00000000000E+00 0. -1.
</event>
<event>
 7    1  0.1716782E-015  0.9000772E+02  0.7816164E-02  0.1186339E+00
        -11   -1    0    0    0    0  0.00000000000E+00  0.00000000000E+00  0.45593999997E+02  0.45594000000E+02  0.51100000000E-03 0. -1.
         11   -1    0    0    0    0 -0.00000000000E+00 -0.00000000000E+00 -0.45593999997E+02  0.45594000000E+02  0.51100000000E-03 0.  1.
    9900012    2    1    2    0    0  0.11452517448E+01  0.13158070042E+00 -0.25325863752E+00  0.90007722500E+02  0.89999983637E+02 0.  0.
        -12    1    1    2    0    0 -0.11452517448E+01 -0.13158070042E+00  0.25325863752E+00  0.11802775000E+01  0.00000000000E+00 0.  1.
         11    1    3    3    0    0  0.13496716826E+01  0.76817523818E-01 -0.12721762621E+02  0.12793387317E+02  0.51100000000E-03 0. -1.
        -11    1    3    3    0    0  0.27237412847E+02  0.22202251103E+02 -0.85449786566E+01  0.36163977563E+02  0.51100000000E-03 0.  1.
         12    1    3    3    0    0 -0.27441832785E+02 -0.22147487927E+02  0.21013482640E+02  0.41050357620E+02  0.00000000000E+00 0. -1.
</event>
<event>
 7    1  0.1716782E-015  0.9000776E+02  0.7816164E-02  0.1186339E+00
        -11   -1    0    0    0    0  0.00000000000E+00  0.00000000000E+00  0.45593999997E+02  0.45594000000E+02  0.51100000000E-03 0.  1.
         11   -1    0    0    0    0 -0.00000000000E+00 -0.00000000000E+00 -0.45593999997E+02  0.45594000000E+02  0.51100000000E-03 0. -1.
    9900012    2    1    2    0    0  0.56411313198E+00 -0.10184861502E+01 -0.19348602064E+00  0.90007756591E+02  0.90000018178E+02 0.  0.
        -12    1    1    2    0    0 -0.56411313198E+00  0.10184861502E+01  0.19348602064E+00  0.11802434088E+01  0.00000000000E+00 0.  1.
         11    1    3    3    0    0  0.36717625828E+02  0.10857435958E+02 -0.12015180351E+02  0.40130194632E+02  0.51100000000E-03 0. -1.
        -11    1    3    3    0    0 -0.62867009152E+01  0.31758586789E+01 -0.82688827852E+01  0.10862003016E+02  0.51100000000E-03 0.  1.
        -12    1    3    3    0    0 -0.29866811781E+02 -0.15051780788E+02  0.20090577115E+02  0.39015558943E+02  0.00000000000E+00 0.  1.
</event>
<event>
 7    1  0.1716782E-015  0.9000766E+02  0.7816164E-02  0.1186339E+00
        -11   -1    0    0    0    0  0.00000000000E+00  0.00000000000E+00  0.45593999997E+02  0.45594000000E+02  0.51100000000E-03 0.  1.
         11   -1    0    0    0    0 -0.00000000000E+00 -0.00000000000E+00 -0.45593999997E+02  0.45594000000E+02  0.51100000000E-03 0. -1.
    9900012    2    1    2    0    0  0.10423381578E+01 -0.50898287395E+00 -0.21835387061E+00  0.90007656485E+02  0.89999916750E+02 0.  0.
        -12    1    1    2    0    0 -0.10423381578E+01  0.50898287395E+00  0.21835387061E+00  0.11803435153E+01  0.00000000000E+00 0.  1.
         11    1    3    3    0    0 -0.19963876334E+02 -0.31576885113E+02  0.11556701902E+02  0.39105158110E+02  0.51100000000E-03 0. -1.
        -11    1    3    3    0    0  0.68819985554E+01 -0.63814368383E+01 -0.35982435029E+01  0.10051467396E+02  0.51100000000E-03 0.  1.
        -12    1    3    3    0    0  0.14124215936E+02  0.37449339077E+02 -0.81768122694E+01  0.40851030979E+02  0.00000000000E+00 0.  1.
</event>
<event>
 7    1  0.1716782E-015  0.9000782E+02  0.7816164E-02  0.1186339E+00
        -11   -1    0    0    0    0  0.00000000000E+00  0.00000000000E+00  0.45593999997E+02  0.45594000000E+02  0.51100000000E-03 0. -1.
         11   -1    0    0    0    0 -0.00000000000E+00 -0.00000000000E+00 -0.45593999997E+02  0.45594000000E+02  0.51100000000E-03 0.  1.
    9900012    2    1    2    0    0  0.59179563856E+00 -0.66698259747E+00 -0.77314134608E+00  0.90007815521E+02  0.90000077886E+02 0.  0.
        -12    1    1    2    0    0 -0.59179563856E+00  0.66698259747E+00  0.77314134608E+00  0.11801844789E+01  0.00000000000E+00 0.  1.
         11    1    3    3    0    0  0.19989591857E+02  0.20112989992E+02  0.82710572425E+01  0.29538560175E+02  0.51100000000E-03 0. -1.
        -11    1    3    3    0    0  0.12694115284E+02  0.85825476207E+01  0.23539926042E+01  0.15502966424E+02  0.51100000000E-03 0.  1.
        -12    1    3    3    0    0 -0.32091911502E+02 -0.29362520210E+02 -0.11398191193E+02  0.44966288922E+02  0.00000000000E+00 0.  1.
</event>
<event>
 7    1  0.1716782E-015  0.9000762E+02  0.7816164E-02  0.1186339E+00
        -11   -1    0    0    0    0  0.00000000000E+00  0.00000000000E+00  0.45593999997E+02  0.45594000000E+02  0.51100000000E-03 0. -1.
         11   -1    0    0    0    0 -0.00000000000E+00 -0.00000000000E+00 -0.45593999997E+02  0.45594000000E+02  0.51100000000E-03 0.  1.
    9900012    2    1    2    0    0 -0.23232312491E+00 -0.11566115308E+01  0.39595729527E-01  0.90007622057E+02  0.89999881868E+02 0.  0.
        -12    1    1    2    0    0  0.23232312491E+00  0.11566115308E+01 -0.39595729527E-01  0.11803779434E+01  0.00000000000E+00 0.  1.
         11    1    3    3    0    0 -0.16592491737E+02  0.26238439282E+02  0.21134101764E+02  0.37555515382E+02  0.51100000000E-03 0. -1.
        -11    1    3    3    0    0 -0.76056434967E+01  0.35035759237E+01 -0.69054589450E+01  0.10853857414E+02  0.51100000000E-03 0.  1.
        -12    1    3    3    0    0  0.23965812109E+02 -0.30898626737E+02 -0.14189047089E+02  0.41598249261E+02  0.00000000000E+00 0.  1.
</event>
<event>
 7    1  0.1716782E-015  0.9000775E+02  0.7816164E-02  0.1186339E+00
        -11   -1    0    0    0    0  0.00000000000E+00  0.00000000000E+00  0.45593999997E+02  0.45594000000E+02  0.51100000000E-03 0.  1.
         11   -1    0    0    0    0 -0.00000000000E+00 -0.00000000000E+00 -0.45593999997E+02  0.45594000000E+02  0.51100000000E-03 0. -1.
    9900012    2    1    2    0    0  0.22085336006E+00 -0.50180230302E+00 -0.10451838955E+01  0.90007749546E+02  0.90000011040E+02 0.  0.
        -12    1    1    2    0    0 -0.22085336006E+00  0.50180230302E+00  0.10451838955E+01  0.11802504536E+01  0.00000000000E+00 0.  1.
         11    1    3    3    0    0  0.29370962044E+01 -0.74039498938E+01 -0.64895455785E+01  0.10274201196E+02  0.51100000000E-03 0. -1.
        -11    1    3    3    0    0 -0.11341226712E+01 -0.33671789648E+02  0.16692800229E+02  0.37599537658E+02  0.51100000000E-03 0.  1.
         12    1    3    3    0    0 -0.15821201731E+01  0.40573937239E+02 -0.11248438546E+02  0.42134010692E+02  0.00000000000E+00 0. -1.
</event>
<event>
 7    1  0.1716782E-015  0.9000775E+02  0.7816164E-02  0.1186339E+00
        -11   -1    0    0    0    0  0.00000000000E+00  0.00000000000E+00  0.45593999997E+02  0.45594000000E+02  0.51100000000E-03 0. -1.
         11   -1    0    0    0    0 -0.00000000000E+00 -0.00000000000E+00 -0.45593999997E+02  0.45594000000E+02  0.51100000000E-03 0.  1.
    9900012    2    1    2    0    0 -0.47156451924E-01 -0.21945844039E+00  0.11587114181E+01  0.90007746685E+02  0.90000008141E+02 0.  0.
        -12    1    1    2    0    0  0.47156451924E-01  0.21945844039E+00 -0.11587114181E+01  0.11802533153E+01  0.00000000000E+00 0.  1.
         11    1    3    3    0    0  0.44338814923E+01  0.10826338771E+02 -0.26075725329E+01  0.11986173328E+02  0.51100000000E-03 0. -1.
        -11    1    3    3    0    0 -0.10153504724E+02 -0.10041921504E+02 -0.35536680212E+02  0.38298687790E+02  0.51100000000E-03 0.  1.
         12    1    3    3    0    0  0.56724667801E+01 -0.10038757077E+01  0.39302964163E+02  0.39722885567E+02  0.00000000000E+00 0. -1.
</event>
<event>
 7    1  0.1716782E-015  0.9000769E+02  0.7816164E-02  0.1186339E+00
        -11   -1    0    0    0    0  0.00000000000E+00  0.00000000000E+00  0.45593999997E+02  0.45594000000E+02  0.51100000000E-03 0.  1.
         11   -1    0    0    0    0 -0.00000000000E+00 -0.00000000000E+00 -0.45593999997E+02  0.45594000000E+02  0.51100000000E-03 0. -1.
    9900012    2    1    2    0    0 -0.93319663945E+00  0.68894796885E+00  0.21822196511E+00  0.90007692372E+02  0.89999953111E+02 0.  0.
        -12    1    1    2    0    0  0.93319663945E+00 -0.68894796885E+00 -0.21822196511E+00  0.11803076284E+01  0.00000000000E+00 0.  1.
         11    1    3    3    0    0 -0.29461248878E+02 -0.23083812298E+02 -0.13392627410E+02  0.39751604305E+02  0.51100000000E-03 0. -1.
        -11    1    3    3    0    0 -0.82343774982E-01  0.44549535134E+01 -0.82631751119E+01  0.93879419733E+01  0.51100000000E-03 0.  1.
        -12    1    3    3    0    0  0.28610396013E+02  0.19317806754E+02  0.21874024487E+02  0.40868146093E+02  0.00000000000E+00 0.  1.
</event>
<event>
 7    1  0.1716782E-015  0.9000757E+02  0.7816164E-02  0.1186339E+00
        -11   -1    0    0    0    0  0.00000000000E+00  0.00000000000E+00  0.45593999997E+02  0.45594000000E+02  0.51100000000E-03 0.  1.
         11   -1    0    0    0    0 -0.00000000000E+00 -0.00000000000E+00 -0.45593999997E+02  0.45594000000E+02  0.51100000000E-03 0. -1.
    9900012    2    1    2    0    0 -0.69264093941E+00  0.71543901820E+00 -0.63389289981E+00  0.90007565898E+02  0.89999824968E+02 0.  0.
        -12    1    1    2    0    0  0.69264093941E+00 -0.71543901820E+00  0.63389289981E+00  0.11804341016E+01  0.00000000000E+00 0.  1.
         11    1    3    3    0    0  0.62546172987E+00  0.46637994385E+01  0.22001391901E+02  0.22498966052E+02  0.51100000000E-03 0. -1.
        -11    1    3    3    0    0 -0.11855193387E+02 -0.17186828665E+02  0.15357263245E+02  0.25918684852E+02  0.51100000000E-03 0.  1.
         12    1    3    3    0    0  0.10537090718E+02  0.13238468245E+02 -0.37992548045E+02  0.41589914994E+02  0.00000000000E+00 0. -1.
</event>
<event>
 7    1  0.1716782E-015  0.9000775E+02  0.7816164E-02  0.1186339E+00
        -11   -1    0    0    0    0  0.00000000000E+00  0.00000000000E+00  0.45593999997E+02  0.45594000000E+02  0.51100000000E-03 0. -1.
         11   -1    0    0    0    0 -0.00000000000E+00 -0.00000000000E+00 -0.45593999997E+02  0.45594000000E+02  0.51100000000E-03 0.  1.
    9900012    2    1    2    0    0 -0.47862796263E+00 -0.27519099578E+00  0.10431583025E+01  0.90007748309E+02  0.90000009786E+02 0.  0.
        -12    1    1    2    0    0  0.47862796263E+00  0.27519099578E+00 -0.10431583025E+01  0.11802516913E+01  0.00000000000E+00 0.  1.
         11    1    3    3    0    0  0.38251232792E+02  0.16766019210E+02 -0.68679827244E+01  0.42325233575E+02  0.51100000000E-03 0. -1.
        -11    1    3    3    0    0 -0.32132538065E+01  0.50696931514E-01 -0.52264738736E+01  0.61354380134E+01  0.51100000000E-03 0.  1.
        -12    1    3    3    0    0 -0.35516606948E+02 -0.17091907138E+02  0.13137614901E+02  0.41547076720E+02  0.00000000000E+00 0.  1.
</event>
<event>
 7    1  0.1716782E-015  0.9000765E+02  0.7816164E-02  0.1186339E+00
        -11   -1    0    0    0    0  0.00000000000E+00  0.00000000000E+00  0.45593999997E+02  0.45594000000E+02  0.51100000000E-03 0. -1.
         11   -1    0    0    0    0 -0.00000000000E+00 -0.00000000000E+00 -0.45593999997E+02  0.45594000000E+02  0.51100000000E-03 0.  1.
    9900012    2    1    2    0    0  0.32260674958E+00 -0.10132843538E+01  0.51224580954E+00  0.90007654260E+02  0.89999914496E+02 0.  0.
        -12    1    1    2    0    0 -0.32260674958E+00  0.10132843538E+01 -0.51224580954E+00  0.11803457400E+01  0.00000000000E+00 0.  1.
         11    1    3    3    0    0 -0.23548852431E+02 -0.16572848813E+02  0.22533277736E+02  0.36564414044E+02  0.51100000000E-03 0. -1.
        -11    1    3    3    0    0 -0.10287478867E+02 -0.12242938925E+01 -0.24467932666E+01  0.10645088751E+02  0.51100000000E-03 0.  1.
        -12    1    3    3    0    0  0.34158938047E+02  0.16783858352E+02 -0.19574238660E+02  0.42798151465E+02  0.00000000000E+00 0.  1.
</event>
<event>
 7    1  0.1716782E-015  0.9000750E+02  0.7816164E-02  0.1186340E+00
        -11   -1    0    0    0    0  0.00000000000E+00  0.00000000000E+00  0.45593999997E+02  0.45594000000E+02  0.51100000000E-03 0. -1.
         11   -1    0    0    0    0 -0.00000000000E+00 -0.00000000000E+00 -0.45593999997E+02  0.45594000000E+02  0.51100000000E-03 0.  1.
    9900012    2    1    2    0    0 -0.55367589984E+00 -0.89140771120E+00  0.54074902638E+00  0.90007502554E+02  0.89999760788E+02 0.  0.
        -12    1    1    2    0    0  0.55367589984E+00  0.89140771120E+00 -0.54074902638E+00  0.11804974456E+01  0.00000000000E+00 0.  1.
         11    1    3    3    0    0  0.65063282880E+01  0.29772364518E+01 -0.61957551253E+01  0.94648627309E+01  0.51100000000E-03 0. -1.
        -11    1    3    3    0    0  0.33986246869E+02  0.13988586663E+01  0.16823727188E+02  0.37948116931E+02  0.51100000000E-03 0.  1.
         12    1    3    3    0    0 -0.41046251057E+02 -0.52675028294E+01 -0.10087223036E+02  0.42594522893E+02  0.00000000000E+00 0. -1.
</event>
<event>
 7    1  0.1716782E-015  0.9000767E+02  0.7816164E-02  0.1186339E+00
        -11   -1    0    0    0    0  0.00000000000E+00  0.00000000000E+00  0.45593999997E+02  0.45594000000E+02  0.51100000000E-03 0. -1.
         11   -1    0    0    0    0 -0.00000000000E+00 -0.00000000000E+00 -0.45593999997E+02  0.45594000000E+02  0.51100000000E-03 0.  1.
    9900012    2    1    2    0    0 -0.70049533959E+00  0.13389752130E+00  0.94051215561E+00  0.90007667258E+02  0.89999927666E+02 0.  0.
        -12    1    1    2    0    0  0.70049533959E+00 -0.13389752130E+00 -0.94051215561E+00  0.11803327420E+01  0.00000000000E+00 0.  1.
         11    1    3    3    0    0 -0.83437852005E+01 -0.16652388247E+02  0.25155088572E+02  0.31300148037E+02  0.51100000000E-03 0. -1.
        -11    1    3    3    0    0 -0.87946751997E+01 -0.64741864068E+01  0.95686853142E+01  0.14519681140E+02  0.51100000000E-03 0.  1.
        -12    1    3    3    0    0  0.16437965061E+02  0.23260472175E+02 -0.33783261730E+02  0.44187838081E+02  0.00000000000E+00 0.  1.
</event>
<event>
 7    1  0.1716782E-015  0.9000780E+02  0.7816164E-02  0.1186339E+00
        -11   -1    0    0    0    0  0.00000000000E+00  0.00000000000E+00  0.45593999997E+02  0.45594000000E+02  0.51100000000E-03 0.  1.
         11   -1    0    0    0    0 -0.00000000000E+00 -0.00000000000E+00 -0.45593999997E+02  0.45594000000E+02  0.51100000000E-03 0. -1.
    9900012    2    1    2    0    0 -0.38981391463E+00 -0.91135685827E+00  0.64057782483E+00  0.90007802491E+02  0.90000064684E+02 0.  0.
        -12    1    1    2    0    0  0.38981391463E+00  0.91135685827E+00 -0.64057782483E+00  0.11801975092E+01  0.00000000000E+00 0.  1.
         11    1    3    3    0    0 -0.34182448975E+02  0.65204977902E+01 -0.19429529154E+02  0.39855530517E+02  0.51100000000E-03 0. -1.
        -11    1    3    3    0    0  0.69006980604E+01  0.35598334511E+01 -0.69920405137E+01  0.10448955868E+02  0.51100000000E-03 0.  1.
        -12    1    3    3    0    0  0.26891937000E+02 -0.10991688100E+02  0.27062147492E+02  0.39703316106E+02  0.00000000000E+00 0.  1.
</event>
<event>
 7    1  0.1716782E-015  0.9000748E+02  0.7816164E-02  0.1186340E+00
        -11   -1    0    0    0    0  0.00000000000E+00  0.00000000000E+00  0.45593999997E+02  0.45594000000E+02  0.51100000000E-03 0.  1.
         11   -1    0    0    0    0 -0.00000000000E+00 -0.00000000000E+00 -0.45593999997E+02  0.45594000000E+02  0.51100000000E-03 0. -1.
    9900012    2    1    2    0    0  0.24916289732E+00 -0.74822921754E+00 -0.87846806847E+00  0.90007476701E+02  0.89999734593E+02 0.  0.
        -12    1    1    2    0    0 -0.24916289732E+00  0.74822921754E+00  0.87846806847E+00  0.11805232987E+01  0.00000000000E+00 0.  1.
         11    1    3    3    0    0 -0.46413984367E+01 -0.88972064282E+01 -0.15993739439E+01  0.10161735036E+02  0.51100000000E-03 0. -1.
        -11    1    3    3    0    0 -0.16791149058E+02 -0.25811605321E+02  0.18372569307E+02  0.35857118667E+02  0.51100000000E-03 0.  1.
         12    1    3    3    0    0  0.21681710392E+02  0.33960582531E+02 -0.17651663431E+02  0.43988622998E+02  0.00000000000E+00 0. -1.
</event>
<event>
 7    1  0.1716782E-015  0.9000777E+02  0.7816164E-02  0.1186339E+00
        -11   -1    0    0    0    0  0.00000000000E+00  0.00000000000E+00  0.45593999997E+02  0.45594000000E+02  0.51100000000E-03 0.  1.
         11   -1    0    0    0    0 -0.00000000000E+00 -0.00000000000E+00 -0.45593999997E+02  0.45594000000E+02  0.51100000000E-03 0. -1.
    9900012    2    1    2    0    0  0.35150039987E+00 -0.10504665225E+01 -0.40732938864E+00  0.90007767109E+02  0.90000028835E+02 0.  0.
        -12    1    1    2    0    0 -0.35150039987E+00  0.10504665225E+01  0.40732938864E+00  0.11802328910E+01  0.00000000000E+00 0.  1.
         11    1    3    3    0    0 -0.35589744671E+01  0.86018295032E+01  0.17024518814E+01  0.94634091494E+01  0.51100000000E-03 0. -1.
        -11    1    3    3    0    0  0.14602618916E+02  0.17736616704E+02 -0.31489365564E+02  0.38979535595E+02  0.51100000000E-03 0.  1.
         12    1    3    3    0    0 -0.10692144049E+02 -0.27388912730E+02  0.29379584294E+02  0.41564822364E+02  0.00000000000E+00 0. -1.
</event>
<event>
 7    1  0.1716782E-015  0.9000737E+02  0.7816164E-02  0.1186340E+00
        -11   -1    0    0    0    0  0.00000000000E+00  0.00000000000E+00  0.45593999997E+02  0.45594000000E+02  0.51100000000E-03 0. -1.
         11   -1    0    0    0    0 -0.00000000000E+00 -0.00000000000E+00 -0.45593999997E+02  0.45594000000E+02  0.51100000000E-03 0.  1.
    9900012    2    1    2    0    0  0.96592439843E-01  0.99384044018E+00 -0.62995411349E+00  0.90007368345E+02  0.89999624806E+02 0.  0.
        -12    1    1    2    0    0 -0.96592439843E-01 -0.99384044018E+00  0.62995411349E+00  0.11806316551E+01  0.00000000000E+00 0.  1.
         11    1    3    3    0    0 -0.15777713406E+02  0.30888157240E+02 -0.11002950406E+02  0.36387902054E+02  0.51100000000E-03 0. -1.
        -11    1    3    3    0    0 -0.92142974591E+01  0.43185745007E+01  0.17305651460E+01  0.10322219692E+02  0.51100000000E-03 0.  1.
        -12    1    3    3    0    0  0.25088603305E+02 -0.34212891301E+02  0.86424311463E+01  0.43297246599E+02  0.00000000000E+00 0.  1.
</event>
<event>
 7    1  0.1716782E-015  0.9000779E+02  0.7816164E-02  0.1186339E+00
        -11   -1    0    0    0    0  0.00000000000E+00  0.00000000000E+00  0.45593999997E+02  0.45594000000E+02  0.51100000000E-03 0.  1.
         11   -1    0    0    0    0 -0.00000000000E+00 -0.00000000000E+00 -0.45593999997E+02  0.45594000000E+02  0.51100000000E-03 0. -1.
    9900012    2    1    2    0    0  0.14109684836E+00  0.37129200415E+00 -0.11113690675E+01  0.90007785072E+02  0.90000047035E+02 0.  0.
        -12    1    1    2    0    0 -0.14109684836E+00 -0.37129200415E+00  0.11113690675E+01  0.11802149284E+01  0.00000000000E+00 0.  1.
         11    1    3    3    0    0  0.18016417033E+02 -0.15862234787E+02 -0.25146982103E+02  0.34764529111E+02  0.51100000000E-03 0. -1.
        -11    1    3    3    0    0  0.73782894255E+01 -0.67929865072E+01 -0.42384725794E+01  0.10887996629E+02  0.51100000000E-03 0.  1.
        -12    1    3    3    0    0 -0.25253609610E+02  0.23026513298E+02  0.28274085615E+02  0.44355259332E+02  0.00000000000E+00 0.  1.
</event>
<event>
 7    1  0.1716782E-015  0.9000760E+02  0.7816164E-02  0.1186339E+00
        -11   -1    0    0    0    0  0.00000000000E+00  0.00000000000E+00  0.45593999997E+02  0.45594000000E+02  0.51100000000E-03 0.  1.
         11   -1    0    0    0    0 -0.00000000000E+00 -0.00000000000E+00 -0.45593999997E+02  0.45594000000E+02  0.51100000000E-03 0. -1.
    9900012    2    1    2    0    0 -0.11733589592E+01 -0.61379426383E-01 -0.11318939611E+00  0.90007597306E+02  0.89999856790E+02 0.  0.
        -12    1    1    2    0    0  0.11733589592E+01  0.61379426383E-01  0.11318939611E+00  0.11804026943E+01  0.00000000000E+00 0.  1.
         11    1    3    3    0    0 -0.33659653631E+02 -0.43703907948E+01 -0.87030701712E+01  0.35040205891E+02  0.51100000000E-03 0. -1.
        -11    1    3    3    0    0 -0.72887833970E+01 -0.87515484878E+01 -0.24968367017E+01  0.11659766641E+02  0.51100000000E-03 0.  1.
        -12    1    3    3    0    0  0.39775078069E+02  0.13060559856E+02  0.11086717477E+02  0.43307624774E+02  0.00000000000E+00 0.  1.
</event>
<event>
 7    1  0.1716782E-015  0.9000767E+02  0.7816164E-02  0.1186339E+00
        -11   -1    0    0    0    0  0.00000000000E+00  0.00000000000E+00  0.45593999997E+02  0.45594000000E+02  0.51100000000E-03 0.  1.
         11   -1    0    0    0    0 -0.00000000000E+00 -0.00000000000E+00 -0.45593999997E+02  0.45594000000E+02  0.51100000000E-03 0. -1.
    9900012    2    1    2    0    0 -0.10469553446E+00  0.10302378858E-01 -0.11756360636E+01  0.90007666383E+02  0.89999926779E+02 0.  0.
        -12    1    1    2    0    0  0.10469553446E+00 -0.10302378858E-01  0.11756360636E+01  0.11803336172E+01  0.00000000000E+00 0.  1.
         11    1    3    3    0    0 -0.12983483742E+02 -0.37107084848E+02 -0.76060036482E+01  0.40041951598E+02  0.51100000000E-03 0. -1.
        -11    1    3    3    0    0  0.12695653893E+02  0.28831488297E+00  0.22965785279E+01  0.12904922567E+02  0.51100000000E-03 0.  1.
        -12    1    3    3    0    0  0.18313431413E+00  0.36829072344E+02  0.41337890567E+01  0.37060792218E+02  0.00000000000E+00 0.  1.
</event>
<event>
 7    1  0.1716782E-015  0.9000765E+02  0.7816164E-02  0.1186339E+00
        -11   -1    0    0    0    0  0.00000000000E+00  0.00000000000E+00  0.45593999997E+02  0.45594000000E+02  0.51100000000E-03 0. -1.
         11   -1    0    0    0    0 -0.00000000000E+00 -0.00000000000E+00 -0.45593999997E+02  0.45594000000E+02  0.51100000000E-03 0.  1.
    9900012    2    1    2    0    0  0.58802174022E+00 -0.31094769082E+00  0.97506782539E+00  0.90007654586E+02  0.89999914826E+02 0.  0.
        -12    1    1    2    0    0 -0.58802174022E+00  0.31094769082E+00 -0.97506782539E+00  0.11803454145E+01  0.00000000000E+00 0.  1.
         11    1    3    3    0    0  0.26820584141E+02  0.31228177457E+02  0.24012399842E+01  0.41234800286E+02  0.51100000000E-03 0. -1.
        -11    1    3    3    0    0 -0.88817428169E+01  0.30689678841E+01 -0.34391756670E+01  0.10006590272E+02  0.51100000000E-03 0.  1.
        -12    1    3    3    0    0 -0.17350819583E+02 -0.34608093032E+02  0.20130035082E+01  0.38766264027E+02  0.00000000000E+00 0.  1.
</event>
<event>
 7    1  0.1716782E-015  0.9000772E+02  0.7816164E-02  0.1186339E+00
        -11   -1    0    0    0    0  0.00000000000E+00  0.00000000000E+00  0.45593999997E+02  0.45594000000E+02  0.51100000000E-03 0.  1.
         11   -1    0    0    0    0 -0.00000000000E+00 -0.00000000000E+00 -0.45593999997E+02  0.45594000000E+02  0.51100000000E-03 0. -1.
    9900012    2    1    2    0    0 -0.10300103743E+01  0.41525518887E+00 -0.39961834540E+00  0.90007723310E+02  0.89999984458E+02 0.  0.
        -12    1    1    2    0    0  0.10300103743E+01 -0.41525518887E+00  0.39961834540E+00  0.11802766900E+01  0.00000000000E+00 0.  1.
         11    1    3    3    0    0 -0.34323849094E+02 -0.67791903524E+01 -0.16153793915E+02  0.38536075261E+02  0.51100000000E-03 0. -1.
        -11    1    3    3    0    0 -0.50302285280E+01 -0.47647743017E+01  0.79994075121E+01  0.10582853774E+02  0.51100000000E-03 0.  1.
        -12    1    3    3    0    0  0.38324067247E+02  0.11959219843E+02  0.77547680576E+01  0.40888794275E+02  0.00000000000E+00 0.  1.
</event>
<event>
 7    1  0.1716782E-015  0.9000775E+02  0.7816164E-02  0.1186339E+00
        -11   -1    0    0    0    0  0.00000000000E+00  0.00000000000E+00  0.45593999997E+02  0.45594000000E+02  0.51100000000E-03 0.  1.
         11   -1    0    0    0    0 -0.00000000000E+00 -0.00000000000E+00 -0.45593999997E+02  0.45594000000E+02  0.51100000000E-03 0. -1.
    9900012    2    1    2    0    0  0.10786351575E+01  0.40130254632E+00 -0.26170833138E+00  0.90007750540E+02  0.90000012047E+02 0.  0.
        -12    1    1    2    0    0 -0.10786351575E+01 -0.40130254632E+00  0.26170833138E+00  0.11802494598E+01  0.00000000000E+00 0.  1.
         11    1    3    3    0    0 -0.93681618707E+01  0.51432978781E+01  0.39326165544E+01  0.11387776039E+02  0.51100000000E-03 0. -1.
        -11    1    3    3    0    0 -0.24561455909E+02 -0.11878183572E+02  0.21396567518E+02  0.34672315515E+02  0.51100000000E-03 0.  1.
         12    1    3    3    0    0  0.35008252937E+02  0.71361882399E+01 -0.25590892404E+02  0.43947658986E+02  0.00000000000E+00 0. -1.
</event>
<event>
 7    1  0.1716782E-015  0.9000741E+02  0.7816164E-02  0.1186340E+00
        -11   -1    0    0    0    0  0.00000000000E+00  0.00000000000E+00  0.45593999997E+02  0.45594000000E+02  0.51100000000E-03 0.  1.
         11   -1    0    0    0    0 -0.00000000000E+00 -0.00000000000E+00 -0.45593999997E+02  0.45594000000E+02  0.51100000000E-03 0. -1.
    9900012    2    1    2    0    0 -0.43316757410E+00  0.22237059343E+00 -0.10755084241E+01  0.90007406421E+02  0.89999663385E+02 0.  0.
        -12    1    1    2    0    0  0.43316757410E+00 -0.22237059343E+00  0.10755084241E+01  0.11805935789E+01  0.00000000000E+00 0.  1.
         11    1    3    3    0    0 -0.25136964847E+02  0.19935852420E+02 -0.14066717701E+02  0.35031097051E+02  0.51100000000E-03 0. -1.
        -11    1    3    3    0    0 -0.76222471324E+01  0.34653857813E+01 -0.65760986484E+01  0.10646718915E+02  0.51100000000E-03 0.  1.
        -12    1    3    3    0    0  0.32326044405E+02 -0.23178867608E+02  0.19567307925E+02  0.44329590455E+02  0.00000000000E+00 0.  1.
</event>
<event>
 7    1  0.1716782E-015  0.9000770E+02  0.7816164E-02  0.1186339E+00
        -11   -1    0    0    0    0  0.00000000000E+00  0.00000000000E+00  0.45593999997E+02  0.45594000000E+02  0.51100000000E-03 0.  1.
         11   -1    0    0    0    0 -0.00000000000E+00 -0.00000000000E+00 -0.45593999997E+02  0.45594000000E+02  0.51100000000E-03 0. -1.
    9900012    2    1    2    0    0  0.19910701578E-01  0.26807023764E+00 -0.11492780830E+01  0.90007704189E+02  0.89999965085E+02 0.  0.
        -12    1    1    2    0    0 -0.19910701578E-01 -0.26807023764E+00  0.11492780830E+01  0.11802958106E+01  0.00000000000E+00 0.  1.
         11    1    3    3    0    0 -0.19078779951E+01 -0.45651485334E+01  0.91600972800E+01  0.10410953944E+02  0.51100000000E-03 0. -1.
        -11    1    3    3    0    0  0.39468115489E+02  0.74293876824E+01  0.14041139868E+01  0.40185811898E+02  0.51100000000E-03 0.  1.
         12    1    3    3    0    0 -0.37540326792E+02 -0.25961689113E+01 -0.11713489350E+02  0.39410938347E+02  0.00000000000E+00 0. -1.
</event>
<event>
 7    1  0.1716782E-015  0.9000770E+02  0.7816164E-02  0.1186339E+00
        -11   -1    0    0    0    0  0.00000000000E+00  0.00000000000E+00  0.45593999997E+02  0.45594000000E+02  0.51100000000E-03 0.  1.
         11   -1    0    0    0    0 -0.00000000000E+00 -0.00000000000E+00 -0.45593999997E+02  0.45594000000E+02  0.51100000000E-03 0. -1.
    9900012    2    1    2    0    0 -0.18016918501E+00  0.88130604299E+00 -0.76416611998E+00  0.90007698710E+02  0.89999959533E+02 0.  0.
        -12    1    1    2    0    0  0.18016918501E+00 -0.88130604299E+00  0.76416611998E+00  0.11803012902E+01  0.00000000000E+00 0.  1.
         11    1    3    3    0    0  0.35773638691E+01 -0.35446457706E+01  0.89294916722E+01  0.10251725107E+02  0.51100000000E-03 0. -1.
        -11    1    3    3    0    0  0.60701773719E+01  0.35661371226E+01  0.34123398606E+02  0.34842082601E+02  0.51100000000E-03 0.  1.
         12    1    3    3    0    0 -0.98277104260E+01  0.85981469094E+00 -0.43817056398E+02  0.44913891002E+02  0.00000000000E+00 0. -1.
</event>
<event>
 7    1  0.1716782E-015  0.9000707E+02  0.7816164E-02  0.1186340E+00
        -11   -1    0    0    0    0  0.00000000000E+00  0.00000000000E+00  0.45593999997E+02  0.45594000000E+02  0.51100000000E-03 0.  1.
         11   -1    0    0    0    0 -0.00000000000E+00 -0.00000000000E+00 -0.45593999997E+02  0.45594000000E+02  0.51100000000E-03 0. -1.
    9900012    2    1    2    0    0 -0.11415041328E+01 -0.26923344970E+00  0.13811908796E+00  0.90007070189E+02  0.89999322713E+02 0.  0.
        -12    1    1    2    0    0  0.11415041328E+01  0.26923344970E+00 -0.13811908796E+00  0.11809298109E+01  0.00000000000E+00 0.  1.
         11    1    3    3    0    0  0.70867121546E+01 -0.62752563689E+01 -0.53404097275E+00  0.94807980508E+01  0.51100000000E-03 0. -1.
        -11    1    3    3    0    0 -0.37470068900E+01  0.10842907046E+02  0.39505311158E+02  0.41137310362E+02  0.51100000000E-03 0.  1.
         12    1    3    3    0    0 -0.44812093974E+01 -0.48368841269E+01 -0.38833151097E+02  0.39388961777E+02  0.00000000000E+00 0. -1.
</event>
<event>
 7    1  0.1716782E-015  0.9000776E+02  0.7816164E-02  0.1186339E+00
        -11   -1    0    0    0    0  0.00000000000E+00  0.00000000000E+00  0.45593999997E+02  0.45594000000E+02  0.51100000000E-03 0.  1.
         11   -1    0    0    0    0 -0.00000000000E+00 -0.00000000000E+00 -0.45593999997E+02  0.45594000000E+02  0.51100000000E-03 0. -1.
    9900012    2    1    2    0    0  0.10810844526E+01  0.38762291123E+00 -0.27199596175E+00  0.90007755568E+02  0.90000017142E+02 0.  0.
        -12    1    1    2    0    0 -0.10810844526E+01 -0.38762291123E+00  0.27199596175E+00  0.11802444316E+01  0.00000000000E+00 0.  1.
         11    1    3    3    0    0  0.20223115636E+02  0.21076563150E+02 -0.27196733065E+02  0.39910627782E+02  0.51100000000E-03 0. -1.
        -11    1    3    3    0    0  0.44039712387E+01 -0.28032576608E+01 -0.45404807591E+01  0.69187558108E+01  0.51100000000E-03 0.  1.
        -12    1    3    3    0    0 -0.23546002422E+02 -0.17885682578E+02  0.31465217863E+02  0.43178371976E+02  0.00000000000E+00 0.  1.
</event>
<event>
 7    1  0.1716782E-015  0.9000771E+02  0.7816164E-02  0.1186339E+00
        -11   -1    0    0    0    0  0.00000000000E+00  0.00000000000E+00  0.45593999997E+02  0.45594000000E+02  0.51100000000E-03 0.  1.
         11   -1    0    0    0    0 -0.00000000000E+00 -0.00000000000E+00 -0.45593999997E+02  0.45594000000E+02  0.51100000000E-03 0. -1.
    9900012    2    1    2    0    0  0.98505624767E+00 -0.60255220217E-01  0.64738822961E+00  0.90007712737E+02  0.89999973745E+02 0.  0.
        -12    1    1    2    0    0 -0.98505624767E+00  0.60255220217E-01 -0.64738822961E+00  0.11802872627E+01  0.00000000000E+00 0.  1.
         11    1    3    3    0    0 -0.20188908674E+02 -0.21313422065E+02 -0.18070157205E+02  0.34472954257E+02  0.51100000000E-03 0. -1.
        -11    1    3    3    0    0  0.23974268495E+01 -0.12339776920E+02 -0.37196829650E+00  0.12576013303E+02  0.51100000000E-03 0.  1.
        -12    1    3    3    0    0  0.18776538072E+02  0.33592943764E+02  0.19089513731E+02  0.42958745177E+02  0.00000000000E+00 0.  1.
</event>
<event>
 7    1  0.1716782E-015  0.9000761E+02  0.7816164E-02  0.1186339E+00
        -11   -1    0    0    0    0  0.00000000000E+00  0.00000000000E+00  0.45593999997E+02  0.45594000000E+02  0.51100000000E-03 0.  1.
         11   -1    0    0    0    0 -0.00000000000E+00 -0.00000000000E+00 -0.45593999997E+02  0.45594000000E+02  0.51100000000E-03 0. -1.
    9900012    2    1    2    0    0 -0.11264386137E+01  0.11975696484E+00 -0.33182893717E+00  0.90007611875E+02  0.89999871552E+02 0.  0.
        -12    1    1    2    0    0  0.11264386137E+01 -0.11975696484E+00  0.33182893717E+00  0.11803881246E+01  0.00000000000E+00 0.  1.
         11    1    3    3    0    0  0.38403440056E+02  0.46937940190E+01 -0.39862217017E+01  0.38894033914E+02  0.51100000000E-03 0. -1.
        -11    1    3    3    0    0  0.16362026407E+01  0.47340705522E+01  0.71875227987E+01  0.87606545028E+01  0.51100000000E-03 0.  1.
        -12    1    3    3    0    0 -0.41166081310E+02 -0.93081076064E+01 -0.35331300342E+01  0.42352923458E+02  0.00000000000E+00 0.  1.
</event>
<event>
 7    1  0.1716782E-015  0.9000773E+02  0.7816164E-02  0.1186339E+00
        -11   -1    0    0    0    0  0.00000000000E+00  0.00000000000E+00  0.45593999997E+02  0.45594000000E+02  0.51100000000E-03 0. -1.
         11   -1    0    0    0    0 -0.00000000000E+00 -0.00000000000E+00 -0.45593999997E+02  0.45594000000E+02  0.51100000000E-03 0.  1.
    9900012    2    1    2    0    0 -0.10261839981E+01 -0.48636149883E+00  0.32159800898E+00  0.90007734613E+02  0.89999995909E+02 0.  0.
        -12    1    1    2    0    0  0.10261839981E+01  0.48636149883E+00 -0.32159800898E+00  0.11802653875E+01  0.00000000000E+00 0.  1.
         11    1    3    3    0    0  0.23934412638E+02 -0.10651318396E+02  0.30584371852E+02  0.40270466768E+02  0.51100000000E-03 0. -1.
        -11    1    3    3    0    0  0.78551389431E+00 -0.78764323646E+01 -0.76798489678E+01  0.11028839436E+02  0.51100000000E-03 0.  1.
        -12    1    3    3    0    0 -0.25746110531E+02  0.18041389261E+02 -0.22582924875E+02  0.38708428408E+02  0.00000000000E+00 0.  1.
</event>
<event>
 7    1  0.1716782E-015  0.9000779E+02  0.7816164E-02  0.1186339E+00
        -11   -1    0    0    0    0  0.00000000000E+00  0.00000000000E+00  0.45593999997E+02  0.45594000000E+02  0.51100000000E-03 0. -1.
         11   -1    0    0    0    0 -0.00000000000E+00 -0.00000000000E+00 -0.45593999997E+02  0.45594000000E+02  0.51100000000E-03 0.  1.
    9900012    2    1    2    0    0 -0.63340205879E+00  0.58952042185E+00 -0.80259664763E+00  0.90007790750E+02  0.90000052788E+02 0.  0.
        -12    1    1    2    0    0  0.63340205879E+00 -0.58952042185E+00  0.80259664763E+00  0.11802092504E+01  0.00000000000E+00 0.  1.
         11    1    3    3    0    0 -0.41754082382E+01  0.22374555326E+02 -0.30566812453E+02  0.38110166410E+02  0.51100000000E-03 0. -1.
        -11    1    3    3    0    0  0.82843904759E+01  0.64627319656E+01 -0.11390771366E+00  0.10507664119E+02  0.51100000000E-03 0.  1.
        -12    1    3    3    0    0 -0.47423842965E+01 -0.28247766870E+02  0.29878123519E+02  0.41389960220E+02  0.00000000000E+00 0.  1.
</event>
<event>
 7    1  0.1716782E-015  0.9000806E+02  0.7816164E-02  0.1186338E+00
        -11   -1    0    0    0    0  0.00000000000E+00  0.00000000000E+00  0.45593999997E+02  0.45594000000E+02  0.51100000000E-03 0.  1.
         11   -1    0    0    0    0 -0.00000000000E+00 -0.00000000000E+00 -0.45593999997E+02  0.45594000000E+02  0.51100000000E-03 0. -1.
    9900012    2    1    2    0    0 -0.90569126656E+00 -0.45526527613E+00  0.60392195245E+00  0.90008057261E+02  0.90000322817E+02 0.  0.
        -12    1    1    2    0    0  0.90569126656E+00  0.45526527613E+00 -0.60392195245E+00  0.11799427387E+01  0.00000000000E+00 0.  1.
         11    1    3    3    0    0 -0.15987292358E+02 -0.25723783829E+02 -0.13796932560E+02  0.33281555248E+02  0.51100000000E-03 0. -1.
        -11    1    3    3    0    0  0.15096268788E+02  0.33049336203E+01 -0.13980446318E+02  0.20839212967E+02  0.51100000000E-03 0.  1.
        -12    1    3    3    0    0 -0.14667696319E-01  0.21963584932E+02  0.28381300831E+02  0.35887289046E+02  0.00000000000E+00 0.  1.
</event>
<event>
 7    1  0.1716782E-015  0.9000774E+02  0.7816164E-02  0.1186339E+00
        -11   -1    0    0    0    0  0.00000000000E+00  0.00000000000E+00  0.45593999997E+02  0.45594000000E+02  0.51100000000E-03 0. -1.
         11   -1    0    0    0    0 -0.00000000000E+00 -0.00000000000E+00 -0.45593999997E+02  0.45594000000E+02  0.51100000000E-03 0.  1.
    9900012    2    1    2    0    0 -0.66908114082E+00  0.35416500169E+00  0.90549172150E+00  0.90007738301E+02  0.89999999646E+02 0.  0.
        -12    1    1    2    0    0  0.66908114082E+00 -0.35416500169E+00 -0.90549172150E+00  0.11802616994E+01  0.00000000000E+00 0.  1.
         11    1    3    3    0    0  0.80823687421E+01  0.38466419110E+01  0.26573646635E+01  0.93371797504E+01  0.51100000000E-03 0. -1.
        -11    1    3    3    0    0  0.35123727325E+02  0.63303090211E+01 -0.61869796509E+00  0.35694983134E+02  0.51100000000E-03 0.  1.
         12    1    3    3    0    0 -0.43875177208E+02 -0.98227859304E+01 -0.11331749769E+01  0.44975575416E+02  0.00000000000E+00 0. -1.
</event>
<event>
 7    1  0.1716782E-015  0.9000786E+02  0.7816164E-02  0.1186339E+00
        -11   -1    0    0    0    0  0.00000000000E+00  0.00000000000E+00  0.45593999997E+02  0.45594000000E+02  0.51100000000E-03 0. -1.
         11   -1    0    0    0    0 -0.00000000000E+00 -0.00000000000E+00 -0.45593999997E+02  0.45594000000E+02  0.51100000000E-03 0.  1.
    9900012    2    1    2    0    0  0.57090861681E+00  0.68897079916E+00  0.76948967544E+00  0.90007859427E+02  0.90000122372E+02 0.  0.
        -12    1    1    2    0    0 -0.57090861681E+00 -0.68897079916E+00 -0.76948967544E+00  0.11801405727E+01  0.00000000000E+00 0.  1.
         11    1    3    3    0    0  0.28023472644E+02  0.68416595869E+01  0.26758601694E+01  0.28970390968E+02  0.51100000000E-03 0. -1.
        -11    1    3    3    0    0 -0.73175445429E+01  0.10090883048E+01 -0.27049040043E+02  0.28039530753E+02  0.51100000000E-03 0.  1.
        -12    1    3    3    0    0 -0.20135019485E+02 -0.71617770925E+01  0.25142669549E+02  0.32997937706E+02  0.00000000000E+00 0.  1.
</event>
<event>
 7    1  0.1716782E-015  0.9000786E+02  0.7816164E-02  0.1186339E+00
        -11   -1    0    0    0    0  0.00000000000E+00  0.00000000000E+00  0.45593999997E+02  0.45594000000E+02  0.51100000000E-03 0. -1.
         11   -1    0    0    0    0 -0.00000000000E+00 -0.00000000000E+00 -0.45593999997E+02  0.45594000000E+02  0.51100000000E-03 0.  1.
    9900012    2    1    2    0    0  0.48772157170E+00 -0.70977389667E+00  0.80689643142E+00  0.90007858836E+02  0.90000121773E+02 0.  0.
        -12    1    1    2    0    0 -0.48772157170E+00  0.70977389667E+00 -0.80689643142E+00  0.11801411640E+01  0.00000000000E+00 0.  1.
         11    1    3    3    0    0 -0.42345008007E+01 -0.54747854656E+01 -0.60652488764E+01  0.92027994175E+01  0.51100000000E-03 0. -1.
        -11    1    3    3    0    0 -0.35135180202E+02  0.48763970662E+01 -0.10979525165E+02  0.37132332398E+02  0.51100000000E-03 0.  1.
         12    1    3    3    0    0  0.39857402575E+02 -0.11138549719E+00  0.17851670473E+02  0.43672727021E+02  0.00000000000E+00 0. -1.
</event>
<event>
 7    1  0.1716782E-015  0.9000786E+02  0.7816164E-02  0.1186339E+00
        -11   -1    0    0    0    0  0.00000000000E+00  0.00000000000E+00  0.45593999997E+02  0.45594000000E+02  0.51100000000E-03 0. -1.
         11   -1    0    0    0    0 -0.00000000000E+00 -0.00000000000E+00 -0.45593999997E+02  0.45594000000E+02  0.51100000000E-03 0.  1.
    9900012    2    1    2    0    0 -0.50613639057E+00 -0.45728903115E+00 -0.96303394360E+00  0.90007863703E+02  0.90000126703E+02 0.  0.
        -12    1    1    2    0    0  0.50613639057E+00  0.45728903115E+00  0.96303394360E+00  0.11801362974E+01  0.00000000000E+00 0.  1.
         11    1    3    3    0    0  0.30725592981E+02  0.91386107023E+01  0.20865947828E+02  0.38248713032E+02  0.51100000000E-03 0. -1.
        -11    1    3    3    0    0  0.70768344720E+01 -0.42355610110E+01 -0.36757541085E+01  0.90295477046E+01  0.51100000000E-03 0.  1.
        -12    1    3    3    0    0 -0.38308563844E+02 -0.53603387224E+01 -0.18153227663E+02  0.42729602965E+02  0.00000000000E+00 0.  1.
</event>
<event>
 7    1  0.1716782E-015  0.9000776E+02  0.7816164E-02  0.1186339E+00
        -11   -1    0    0    0    0  0.00000000000E+00  0.00000000000E+00  0.45593999997E+02  0.45594000000E+02  0.51100000000E-03 0.  1.
         11   -1    0    0    0    0 -0.00000000000E+00 -0.00000000000E+00 -0.45593999997E+02  0.45594000000E+02  0.51100000000E-03 0. -1.
    9900012    2    1    2    0    0 -0.12345650095E+00 -0.54537650985E+00 -0.10393695066E+01  0.90007760187E+02  0.90000021821E+02 0.  0.
        -12    1    1    2    0    0  0.12345650095E+00  0.54537650985E+00  0.10393695066E+01  0.11802398131E+01  0.00000000000E+00 0.  1.
         11    1    3    3    0    0 -0.92988201778E+01 -0.21775975629E+02  0.12935384551E+02  0.26981203550E+02  0.51100000000E-03 0. -1.
        -11    1    3    3    0    0  0.25209032146E+02 -0.20741129348E+01 -0.22106800127E+02  0.33593271027E+02  0.51100000000E-03 0.  1.
         12    1    3    3    0    0 -0.16033668469E+02  0.23304712054E+02  0.81320460695E+01  0.29433285609E+02  0.00000000000E+00 0. -1.
</event>
<event>
 7    1  0.1716782E-015  0.9000796E+02  0.7816164E-02  0.1186339E+00
        -11   -1    0    0    0    0  0.00000000000E+00  0.00000000000E+00  0.45593999997E+02  0.45594000000E+02  0.51100000000E-03 0.  1.
         11   -1    0    0    0    0 -0.00000000000E+00 -0.00000000000E+00 -0.45593999997E+02  0.45594000000E+02  0.51100000000E-03 0. -1.
    9900012    2    1    2    0    0 -0.31616998555E+00 -0.11305592730E+01  0.11986246247E+00  0.90007959857E+02  0.90000224127E+02 0.  0.
        -12    1    1    2    0    0  0.31616998555E+00  0.11305592730E+01 -0.11986246247E+00  0.11800401432E+01  0.00000000000E+00 0.  1.
         11    1    3    3    0    0 -0.15913207494E+02  0.22953045284E+02  0.39173302357E+01  0.28203154735E+02  0.51100000000E-03 0. -1.
        -11    1    3    3    0    0 -0.17955658332E+02  0.27913010899E+01  0.25516220067E+01  0.18349599534E+02  0.51100000000E-03 0.  1.
        -12    1    3    3    0    0  0.33552695840E+02 -0.26874905647E+02 -0.63490897799E+01  0.43455205588E+02  0.00000000000E+00 0.  1.
</event>
<event>
 7    1  0.1716782E-015  0.9000744E+02  0.7816164E-02  0.1186340E+00
        -11   -1    0    0    0    0  0.00000000000E+00  0.00000000000E+00  0.45593999997E+02  0.45594000000E+02  0.51100000000E-03 0.  1.
         11   -1    0    0    0    0 -0.00000000000E+00 -0.00000000000E+00 -0.45593999997E+02  0.45594000000E+02  0.51100000000E-03 0. -1.
    9900012    2    1    2    0    0  0.43396356217E-01 -0.30452776155E+00 -0.11397843053E+01  0.90007437141E+02  0.89999694511E+02 0.  0.
        -12    1    1    2    0    0 -0.43396356217E-01  0.30452776155E+00  0.11397843053E+01  0.11805628589E+01  0.00000000000E+00 0.  1.
         11    1    3    3    0    0 -0.38866947188E+01 -0.28083277652E+02  0.22757993784E+02  0.36355235673E+02  0.51100000000E-03 0. -1.
        -11    1    3    3    0    0  0.31894286968E+00 -0.96983073147E+01 -0.14327450536E+01  0.98087536402E+01  0.51100000000E-03 0.  1.
        -12    1    3    3    0    0  0.36111482054E+01  0.37477057205E+02 -0.22465033036E+02  0.43843447828E+02  0.00000000000E+00 0.  1.
</event>
<event>
 7    1  0.1716782E-015  0.9000778E+02  0.7816164E-02  0.1186339E+00
        -11   -1    0    0    0    0  0.00000000000E+00  0.00000000000E+00  0.45593999997E+02  0.45594000000E+02  0.51100000000E-03 0.  1.
         11   -1    0    0    0    0 -0.00000000000E+00 -0.00000000000E+00 -0.45593999997E+02  0.45594000000E+02  0.51100000000E-03 0. -1.
    9900012    2    1    2    0    0 -0.85204986838E+00 -0.37300973160E+00 -0.72649458536E+00  0.90007779842E+02  0.90000041736E+02 0.  0.
        -12    1    1    2    0    0  0.85204986838E+00  0.37300973160E+00  0.72649458536E+00  0.11802201577E+01  0.00000000000E+00 0.  1.
         11    1    3    3    0    0  0.12757556255E+02  0.27934282048E+02 -0.26373437745E+02  0.40480088610E+02  0.51100000000E-03 0. -1.
        -11    1    3    3    0    0 -0.46971424973E+01 -0.39259296738E+01 -0.60163383874E+01  0.85832627419E+01  0.51100000000E-03 0.  1.
        -12    1    3    3    0    0 -0.89124636263E+01 -0.24381362106E+02  0.31663281547E+02  0.40944428490E+02  0.00000000000E+00 0.  1.
</event>
<event>
 7    1  0.1716782E-015  0.9000801E+02  0.7816164E-02  0.1186339E+00
        -11   -1    0    0    0    0  0.00000000000E+00  0.00000000000E+00  0.45593999997E+02  0.45594000000E+02  0.51100000000E-03 0.  1.
         11   -1    0    0    0    0 -0.00000000000E+00 -0.00000000000E+00 -0.45593999997E+02  0.45594000000E+02  0.51100000000E-03 0. -1.
    9900012    2    1    2    0    0  0.11477516598E+01 -0.13661630036E+00  0.23745768558E+00  0.90008006763E+02  0.90000271652E+02 0.  0.
        -12    1    1    2    0    0 -0.11477516598E+01  0.13661630036E+00 -0.23745768558E+00  0.11799932366E+01  0.00000000000E+00 0.  1.
         11    1    3    3    0    0  0.32249291762E+02  0.13255191496E+02  0.20065762003E+02  0.40228742532E+02  0.51100000000E-03 0. -1.
        -11    1    3    3    0    0 -0.11675505293E+01 -0.12668244679E+02  0.17910406085E+01  0.12847389781E+02  0.51100000000E-03 0.  1.
        -12    1    3    3    0    0 -0.29933989572E+02 -0.72356311748E+00 -0.21619344926E+02  0.36931874449E+02  0.00000000000E+00 0.  1.
</event>
<event>
 7    1  0.2039519E-015  0.9000773E+02  0.7816164E-02  0.1186339E+00
        -11   -1    0    0    0    0  0.00000000000E+00  0.00000000000E+00  0.45593999997E+02  0.45594000000E+02  0.51100000000E-03 0.  1.
         11   -1    0    0    0    0 -0.00000000000E+00 -0.00000000000E+00 -0.45593999997E+02  0.45594000000E+02  0.51100000000E-03 0. -1.
    9900012    2    1    2    0    0  0.79428298214E+00 -0.86850486708E+00  0.88549905798E-01  0.90007734248E+02  0.89999995540E+02 0.  0.
        -12    1    1    2    0    0 -0.79428298214E+00  0.86850486708E+00 -0.88549905798E-01  0.11802657521E+01  0.00000000000E+00 0.  1.
         11    1    3    3    0    0  0.31925125553E+02 -0.51294730907E+01 -0.23570022957E+02  0.40013386737E+02  0.51100000000E-03 0. -1.
        -11    1    3    3    0    0 -0.43408829905E+01 -0.81161623144E+01 -0.35399621264E+01  0.98613735336E+01  0.51100000000E-03 0.  1.
        -12    1    3    3    0    0 -0.26789959580E+02  0.12377130538E+02  0.27198534989E+02  0.40132973977E+02  0.00000000000E+00 0.  1.
</event>
<event>
 7    1  0.1716782E-015  0.9000773E+02  0.7816164E-02  0.1186339E+00
        -11   -1    0    0    0    0  0.00000000000E+00  0.00000000000E+00  0.45593999997E+02  0.45594000000E+02  0.51100000000E-03 0.  1.
         11   -1    0    0    0    0 -0.00000000000E+00 -0.00000000000E+00 -0.45593999997E+02  0.45594000000E+02  0.51100000000E-03 0. -1.
    9900012    2    1    2    0    0 -0.85265039876E+00 -0.81228612571E+00  0.78770365383E-01  0.90007734681E+02  0.89999995979E+02 0.  0.
        -12    1    1    2    0    0  0.85265039876E+00  0.81228612571E+00 -0.78770365383E-01  0.11802653189E+01  0.00000000000E+00 0.  1.
         11    1    3    3    0    0  0.24835529772E+01  0.84009281981E+01  0.41127454626E+01  0.96777221226E+01  0.51100000000E-03 0. -1.
        -11    1    3    3    0    0  0.36218978837E+02 -0.71746257325E+01 -0.13999855657E+02  0.39487791038E+02  0.51100000000E-03 0.  1.
         12    1    3    3    0    0 -0.39555182213E+02 -0.20385885913E+01  0.99658805602E+01  0.40842221520E+02  0.00000000000E+00 0. -1.
</event>
<event>
 7    1  0.1716782E-015  0.9000778E+02  0.7816164E-02  0.1186339E+00
        -11   -1    0    0    0    0  0.00000000000E+00  0.00000000000E+00  0.45593999997E+02  0.45594000000E+02  0.51100000000E-03 0.  1.
         11   -1    0    0    0    0 -0.00000000000E+00 -0.00000000000E+00 -0.45593999997E+02  0.45594000000E+02  0.51100000000E-03 0. -1.
    9900012    2    1    2    0    0 -0.33719249767E+00  0.11007593053E+01 -0.25989038884E+00  0.90007782714E+02  0.90000044646E+02 0.  0.
        -12    1    1    2    0    0  0.33719249767E+00 -0.11007593053E+01  0.25989038884E+00  0.11802172863E+01  0.00000000000E+00 0.  1.
         11    1    3    3    0    0 -0.91055097349E+01  0.11183088891E+01  0.87613580941E+00  0.92156679911E+01  0.51100000000E-03 0. -1.
        -11    1    3    3    0    0  0.13109029641E+02  0.34031023500E+02  0.18871905107E+02  0.41062221338E+02  0.51100000000E-03 0.  1.
         12    1    3    3    0    0 -0.43407124034E+01 -0.34048573084E+02 -0.20007931306E+02  0.39729893384E+02  0.00000000000E+00 0. -1.
</event>
<event>
 7    1  0.1716782E-015  0.9000777E+02  0.7816164E-02  0.1186339E+00
        -11   -1    0    0    0    0  0.00000000000E+00  0.00000000000E+00  0.45593999997E+02  0.45594000000E+02  0.51100000000E-03 0. -1.
         11   -1    0    0    0    0 -0.00000000000E+00 -0.00000000000E+00 -0.45593999997E+02  0.45594000000E+02  0.51100000000E-03 0.  1.
    9900012    2    1    2    0    0  0.96009490195E+00 -0.50874171993E+00 -0.46080525636E+00  0.90007770428E+02  0.90000032198E+02 0.  0.
        -12    1    1    2    0    0 -0.96009490195E+00  0.50874171993E+00  0.46080525636E+00  0.11802295720E+01  0.00000000000E+00 0.  1.
         11    1    3    3    0    0  0.89976796491E+01  0.18981227754E+01  0.33408401623E+02  0.34650864469E+02  0.51100000000E-03 0. -1.
        -11    1    3    3    0    0  0.54180688425E+01  0.54715385177E+00  0.88944298115E+01  0.10429080940E+02  0.51100000000E-03 0.  1.
        -12    1    3    3    0    0 -0.13455653590E+02 -0.29540183471E+01 -0.42763636691E+02  0.44927825019E+02  0.00000000000E+00 0.  1.
</event>
<event>
 7    1  0.1716782E-015  0.9000786E+02  0.7816164E-02  0.1186339E+00
        -11   -1    0    0    0    0  0.00000000000E+00  0.00000000000E+00  0.45593999997E+02  0.45594000000E+02  0.51100000000E-03 0.  1.
         11   -1    0    0    0    0 -0.00000000000E+00 -0.00000000000E+00 -0.45593999997E+02  0.45594000000E+02  0.51100000000E-03 0. -1.
    9900012    2    1    2    0    0 -0.10095065862E+01  0.60362959616E+00 -0.96256760605E-01  0.90007856957E+02  0.90000119869E+02 0.  0.
        -12    1    1    2    0    0  0.10095065862E+01 -0.60362959616E+00  0.96256760605E-01  0.11801430426E+01  0.00000000000E+00 0.  1.
         11    1    3    3    0    0 -0.19895607847E+02 -0.69917508815E+01 -0.22381882272E+02  0.30751722656E+02  0.51100000000E-03 0. -1.
        -11    1    3    3    0    0  0.25740217303E+02  0.49956312673E+01 -0.85358351911E+01  0.27574908907E+02  0.51100000000E-03 0.  1.
         12    1    3    3    0    0 -0.68541160424E+01  0.25997492104E+01  0.30821460703E+02  0.31681225395E+02  0.00000000000E+00 0. -1.
</event>
<event>
 7    1  0.1716782E-015  0.9000774E+02  0.7816164E-02  0.1186339E+00
        -11   -1    0    0    0    0  0.00000000000E+00  0.00000000000E+00  0.45593999997E+02  0.45594000000E+02  0.51100000000E-03 0. -1.
         11   -1    0    0    0    0 -0.00000000000E+00 -0.00000000000E+00 -0.45593999997E+02  0.45594000000E+02  0.51100000000E-03 0.  1.
    9900012    2    1    2    0    0  0.64974544841E-01 -0.87294165858E+00  0.79168091216E+00  0.90007742614E+02  0.90000004016E+02 0.  0.
        -12    1    1    2    0    0 -0.64974544841E-01  0.87294165858E+00 -0.79168091216E+00  0.11802573861E+01  0.00000000000E+00 0.  1.
         11    1    3    3    0    0  0.74228189552E+01 -0.11413731365E+01  0.58769523777E+01  0.95362227003E+01  0.51100000000E-03 0. -1.
        -11    1    3    3    0    0  0.30734686969E+02  0.52304147064E+01 -0.22345631593E+02  0.38357599933E+02  0.51100000000E-03 0.  1.
         12    1    3    3    0    0 -0.38092531379E+02 -0.49619832285E+01  0.17260360127E+02  0.42113919981E+02  0.00000000000E+00 0. -1.
</event>
<event>
 7    1  0.1716782E-015  0.9000774E+02  0.7816164E-02  0.1186339E+00
        -11   -1    0    0    0    0  0.00000000000E+00  0.00000000000E+00  0.45593999997E+02  0.45594000000E+02  0.51100000000E-03 0.  1.
         11   -1    0    0    0    0 -0.00000000000E+00 -0.00000000000E+00 -0.45593999997E+02  0.45594000000E+02  0.51100000000E-03 0. -1.
    9900012    2    1    2    0    0  0.98516921131E+00  0.53600049369E+00 -0.36762383448E+00  0.90007744863E+02  0.90000006295E+02 0.  0.
        -12    1    1    2    0    0 -0.98516921131E+00 -0.53600049369E+00  0.36762383448E+00  0.11802551368E+01  0.00000000000E+00 0.  1.
         11    1    3    3    0    0  0.17854537465E+02  0.52577565880E+01 -0.37246476344E+02  0.41638065670E+02  0.51100000000E-03 0. -1.
        -11    1    3    3    0    0  0.34149715763E+01 -0.79708528795E+01  0.38825461098E+01  0.95010889402E+01  0.51100000000E-03 0.  1.
        -12    1    3    3    0    0 -0.20284339830E+02  0.32490967851E+01  0.32996306400E+02  0.38868590253E+02  0.00000000000E+00 0.  1.
</event>
<event>
 7    1  0.1716782E-015  0.9000794E+02  0.7816164E-02  0.1186339E+00
        -11   -1    0    0    0    0  0.00000000000E+00  0.00000000000E+00  0.45593999997E+02  0.45594000000E+02  0.51100000000E-03 0. -1.
         11   -1    0    0    0    0 -0.00000000000E+00 -0.00000000000E+00 -0.45593999997E+02  0.45594000000E+02  0.51100000000E-03 0.  1.
    9900012    2    1    2    0    0 -0.11033500415E+01 -0.32865932023E+00  0.25911542247E+00  0.90007941076E+02  0.90000205098E+02 0.  0.
        -12    1    1    2    0    0  0.11033500415E+01  0.32865932023E+00 -0.25911542247E+00  0.11800589244E+01  0.00000000000E+00 0.  1.
         11    1    3    3    0    0 -0.80645825849E+01  0.11606253687E+01 -0.57199214126E+01  0.99550009916E+01  0.51100000000E-03 0. -1.
        -11    1    3    3    0    0 -0.22808359884E+02 -0.39511368012E+01 -0.26994878050E+02  0.35560599036E+02  0.51100000000E-03 0.  1.
         12    1    3    3    0    0  0.29769592427E+02  0.24618521123E+01  0.32973914885E+02  0.44492341048E+02  0.00000000000E+00 0. -1.
</event>
<event>
 7    1  0.1716782E-015  0.9000806E+02  0.7816164E-02  0.1186338E+00
        -11   -1    0    0    0    0  0.00000000000E+00  0.00000000000E+00  0.45593999997E+02  0.45594000000E+02  0.51100000000E-03 0. -1.
         11   -1    0    0    0    0 -0.00000000000E+00 -0.00000000000E+00 -0.45593999997E+02  0.45594000000E+02  0.51100000000E-03 0.  1.
    9900012    2    1    2    0    0 -0.73541567720E+00 -0.21291688323E+00 -0.89782174517E+00  0.90008061992E+02  0.90000327609E+02 0.  0.
        -12    1    1    2    0    0  0.73541567720E+00  0.21291688323E+00  0.89782174517E+00  0.11799380083E+01  0.00000000000E+00 0.  1.
         11    1    3    3    0    0 -0.15656073267E+02  0.74389071991E+01 -0.34326798494E+01  0.17670123420E+02  0.51100000000E-03 0. -1.
        -11    1    3    3    0    0 -0.25453070778E+02  0.94998120515E+01 -0.55605522194E+01  0.27731299686E+02  0.51100000000E-03 0.  1.
         12    1    3    3    0    0  0.40373728368E+02 -0.17151636134E+02  0.80954103236E+01  0.44606638886E+02  0.00000000000E+00 0. -1.
</event>
<event>
 7    1  0.1716782E-015  0.9000781E+02  0.7816164E-02  0.1186339E+00
        -11   -1    0    0    0    0  0.00000000000E+00  0.00000000000E+00  0.45593999997E+02  0.45594000000E+02  0.51100000000E-03 0. -1.
         11   -1    0    0    0    0 -0.00000000000E+00 -0.00000000000E+00 -0.45593999997E+02  0.45594000000E+02  0.51100000000E-03 0.  1.
    9900012    2    1    2    0    0  0.59872917962E+00 -0.10157485788E+01  0.51312478979E-01  0.90007807314E+02  0.90000069570E+02 0.  0.
        -12    1    1    2    0    0 -0.59872917962E+00  0.10157485788E+01 -0.51312478979E-01  0.11801926861E+01  0.00000000000E+00 0.  1.
         11    1    3    3    0    0  0.10939457524E+02 -0.38322299593E+02 -0.69476852346E+00  0.39859165578E+02  0.51100000000E-03 0. -1.
        -11    1    3    3    0    0  0.99726686975E+01  0.33527398690E+01 -0.80490675869E+00  0.10551912657E+02  0.51100000000E-03 0.  1.
        -12    1    3    3    0    0 -0.20313397042E+02  0.33953811145E+02  0.15509877611E+01  0.39596729078E+02  0.00000000000E+00 0.  1.
</event>
<event>
 7    1  0.1716782E-015  0.9000770E+02  0.7816164E-02  0.1186339E+00
        -11   -1    0    0    0    0  0.00000000000E+00  0.00000000000E+00  0.45593999997E+02  0.45594000000E+02  0.51100000000E-03 0.  1.
         11   -1    0    0    0    0 -0.00000000000E+00 -0.00000000000E+00 -0.45593999997E+02  0.45594000000E+02  0.51100000000E-03 0. -1.
    9900012    2    1    2    0    0  0.11027826461E+01 -0.22781208437E+00  0.35368163609E+00  0.90007695544E+02  0.89999956325E+02 0.  0.
        -12    1    1    2    0    0 -0.11027826461E+01  0.22781208437E+00 -0.35368163609E+00  0.11803044565E+01  0.00000000000E+00 0.  1.
         11    1    3    3    0    0  0.18005245325E+01 -0.73937616253E+01  0.48700415211E+01  0.90347608846E+01  0.51100000000E-03 0. -1.
        -11    1    3    3    0    0  0.95403316384E+00 -0.35614093337E+02  0.77055270165E+01  0.36450637448E+02  0.51100000000E-03 0.  1.
         12    1    3    3    0    0 -0.16517750502E+01  0.42780042878E+02 -0.12221886901E+02  0.44522297211E+02  0.00000000000E+00 0. -1.
</event>
<event>
 7    1  0.1716782E-015  0.9000776E+02  0.7816164E-02  0.1186339E+00
        -11   -1    0    0    0    0  0.00000000000E+00  0.00000000000E+00  0.45593999997E+02  0.45594000000E+02  0.51100000000E-03 0.  1.
         11   -1    0    0    0    0 -0.00000000000E+00 -0.00000000000E+00 -0.45593999997E+02  0.45594000000E+02  0.51100000000E-03 0. -1.
    9900012    2    1    2    0    0 -0.69640924329E+00 -0.93824941689E+00  0.16634990190E+00  0.90007758460E+02  0.90000020072E+02 0.  0.
        -12    1    1    2    0    0  0.69640924329E+00  0.93824941689E+00 -0.16634990190E+00  0.11802415398E+01  0.00000000000E+00 0.  1.
         11    1    3    3    0    0 -0.31392009368E+01  0.49968051037E+01  0.94757691294E+01  0.11163012345E+02  0.51100000000E-03 0. -1.
        -11    1    3    3    0    0  0.21341507661E+02  0.12853466824E+02  0.25071742679E+02  0.35344926649E+02  0.51100000000E-03 0.  1.
         12    1    3    3    0    0 -0.18898715968E+02 -0.18788521344E+02 -0.34381161906E+02  0.43499819466E+02  0.00000000000E+00 0. -1.
</event>
